GROningen MAchine for Chemical Simulation
74865
    1PYR      C    1   4.971   5.508   2.486
    1PYR     C1    2   5.039   5.630   2.486
    1PYR     C2    3   5.180   5.633   2.485
    1PYR     C3    4   5.250   5.754   2.485
    1PYR     C4    5   5.390   5.756   2.485
    1PYR     C5    6   5.463   5.636   2.485
    1PYR     C6    7   5.603   5.636   2.485
    1PYR     C7    8   5.674   5.515   2.485
    1PYR     C8    9   5.605   5.394   2.485
    1PYR     C9   10   5.465   5.391   2.485
    1PYR    C10   11   5.395   5.270   2.485
    1PYR    C11   12   5.255   5.268   2.485
    1PYR    C12   13   5.182   5.388   2.485
    1PYR    C13   14   5.042   5.388   2.485
    1PYR    C14   15   5.252   5.511   2.485
    1PYR    C15   16   5.393   5.513   2.485
    1PYR      H   17   4.862   5.507   2.486
    1PYR     H1   18   4.982   5.722   2.487
    1PYR     H2   19   5.197   5.849   2.485
    1PYR     H3   20   5.441   5.851   2.484
    1PYR     H4   21   5.658   5.729   2.485
    1PYR     H5   22   5.783   5.517   2.486
    1PYR     H6   23   5.663   5.301   2.485
    1PYR     H7   24   5.448   5.175   2.485
    1PYR     H8   25   5.204   5.172   2.485
    1PYR     H9   26   4.987   5.294   2.485
    2CPH     CC   27   5.731   4.165   4.536
    2CPH    HC1   28   5.808   4.089   4.526
    2CPH    HC2   29   5.640   4.134   4.588
    3MNF      O   30   5.792   4.828   4.625
    3MNF      C   31   5.767   4.709   4.631
    3MNF     C1   32   5.662   4.635   4.550
    3MNF      H   33   5.566   4.687   4.557
    3MNF     C2   34   5.650   4.495   4.614
    3MNF     C3   35   5.637   4.395   4.495
    3MNF     C4   36   5.745   4.289   4.488
    3MNF     C6   37   5.633   4.481   4.367
    3MNF     C7   38   5.703   4.613   4.402
    3MNF     C8   39   5.671   4.738   4.320
    3MNF     H1   40   5.561   4.490   4.677
    3MNF      N   41   5.825   4.616   4.717
    3MNF    C10   42   5.904   4.660   4.834
    3MNF    C11   43   6.058   4.654   4.820
    3MNF    C12   44   6.118   4.704   4.686
    3MNF    C13   45   6.108   4.604   4.569
    3MNF     O1   46   6.171   4.482   4.611
    3MNF    C14   47   6.103   4.359   4.578
    3MNF    C15   48   6.142   4.256   4.688
    3MNF     O2   49   6.074   4.289   4.810
    3MNF    C16   50   6.107   4.110   4.647
    3MNF    C17   51   6.170   4.005   4.742
    3MNF     O3   52   6.111   4.013   4.872
    3MNF     O4   53   6.159   4.084   4.515
    3MNF    C18   54   6.104   4.166   4.412
    3MNF     O5   55   6.158   4.125   4.288
    3MNF    C19   56   6.147   4.312   4.437
    3MNF     O6   57   6.089   4.395   4.336
    3MNF    C20   58   5.773   4.487   4.706
    3MNF     O7   59   5.813   4.390   4.768
    3MNF     H2   60   5.540   4.343   4.505
    3MNF     H3   61   5.836   4.318   4.435
    3MNF     H6   62   5.529   4.500   4.338
    3MNF     H7   63   5.683   4.429   4.284
    3MNF     H8   64   5.811   4.596   4.400
    3MNF     H9   65   5.688   4.830   4.377
    3MNF    H12   66   5.874   4.600   4.921
    3MNF    H13   67   5.876   4.764   4.857
    3MNF    H14   68   6.100   4.715   4.901
    3MNF    H15   69   6.091   4.552   4.840
    3MNF    H16   70   6.071   4.799   4.657
    3MNF    H17   71   6.224   4.726   4.702
    3MNF    H18   72   6.159   4.645   4.481
    3MNF    H19   73   6.003   4.587   4.541
    3MNF    H20   74   5.994   4.372   4.580
    3MNF    H21   75   6.250   4.262   4.703
    3MNF    H22   76   5.981   4.313   4.790
    3MNF    H23   77   5.999   4.096   4.648
    3MNF    H24   78   6.154   3.905   4.699
    3MNF    H25   79   6.279   4.021   4.747
    3MNF    H26   80   6.102   4.108   4.892
    3MNF    H27   81   5.995   4.157   4.410
    3MNF    H28   82   6.138   4.200   4.229
    3MNF    H29   83   6.257   4.314   4.433
    3MNF    H30   84   6.157   4.463   4.311
    4MON      O   85   5.357   4.996   3.950
    4MON      C   86   5.370   4.882   3.994
    4MON     C1   87   5.446   4.767   3.928
    4MON      H   88   5.388   4.730   3.843
    4MON     C2   89   5.452   4.658   4.038
    4MON     C3   90   5.599   4.651   4.084
    4MON     C4   91   5.629   4.753   4.193
    4MON     C6   92   5.676   4.689   3.956
    4MON     C7   93   5.593   4.801   3.889
    4MON     C8   94   5.614   4.816   3.739
    4MON     H1   95   5.419   4.561   3.998
    4MON      N   96   5.317   4.835   4.114
    4MON    C10   97   5.210   4.906   4.186
    4MON    C11   98   5.256   5.028   4.269
    4MON    C12   99   5.381   5.009   4.359
    4MON    C13  100   5.379   4.891   4.458
    4MON     O1  101   5.249   4.882   4.519
    4MON    C14  102   5.236   4.786   4.626
    4MON    C15  103   5.205   4.643   4.571
    4MON     O2  104   5.321   4.588   4.509
    4MON    C16  105   5.159   4.548   4.685
    4MON    C17  106   5.111   4.410   4.635
    4MON     O3  107   5.222   4.334   4.587
    4MON     O4  108   5.048   4.609   4.755
    4MON    C18  109   5.080   4.732   4.821
    4MON     O5  110   4.965   4.780   4.888
    4MON    C19  111   5.118   4.836   4.713
    4MON     O6  112   5.155   4.959   4.775
    4MON    C20  113   5.354   4.705   4.146
    4MON     O7  114   5.314   4.639   4.241
    4MON     H2  115   5.626   4.550   4.114
    4MON     H3  116   5.614   4.856   4.161
    4MON     H6  117   5.681   4.602   3.890
    4MON     H7  118   5.778   4.720   3.979
    4MON     H8  119   5.618   4.897   3.936
    4MON     H9  120   5.523   4.809   3.679
    4MON    H12  121   5.160   4.835   4.254
    4MON    H13  122   5.135   4.939   4.113
    4MON    H14  123   5.278   5.110   4.199
    4MON    H15  124   5.172   5.062   4.331
    4MON    H16  125   5.469   4.997   4.295
    4MON    H17  126   5.397   5.101   4.416
    4MON    H18  127   5.456   4.907   4.534
    4MON    H19  128   5.403   4.799   4.404
    4MON    H20  129   5.326   4.782   4.689
    4MON    H21  130   5.123   4.651   4.499
    4MON    H22  131   5.318   4.613   4.413
    4MON    H23  132   5.242   4.532   4.755
    4MON    H24  133   5.062   4.357   4.718
    4MON    H25  134   5.036   4.424   4.556
    4MON    H26  135   5.277   4.396   4.535
    4MON    H27  136   5.163   4.718   4.892
    4MON    H28  137   4.986   4.875   4.900
    4MON    H29  138   5.030   4.850   4.648
    4MON    H30  139   5.190   5.016   4.704
    5MON      O  140   6.202   4.660   3.474
    5MON      C  141   6.107   4.664   3.552
    5MON     C1  142   6.090   4.762   3.668
    5MON      H  143   6.170   4.747   3.741
    5MON     C2  144   5.954   4.726   3.733
    5MON     C3  145   5.867   4.855   3.737
    5MON     C4  146   5.730   4.839   3.674
    5MON     C6  147   5.950   4.968   3.671
    5MON     C7  148   6.083   4.908   3.621
    5MON     C8  149   6.209   4.984   3.659
    5MON     H1  150   5.970   4.687   3.834
    5MON      N  151   5.994   4.584   3.547
    5MON    C10  152   5.985   4.466   3.459
    5MON    C11  153   5.966   4.497   3.309
    5MON    C12  154   5.870   4.613   3.272
    5MON    C13  155   5.727   4.605   3.331
    5MON     O1  156   5.677   4.472   3.315
    5MON    C14  157   5.537   4.452   3.349
    5MON    C15  158   5.518   4.430   3.502
    5MON     O2  159   5.540   4.552   3.573
    5MON    C16  160   5.375   4.378   3.533
    5MON    C17  161   5.355   4.337   3.681
    5MON     O3  162   5.364   4.453   3.764
    5MON     O4  163   5.348   4.261   3.452
    5MON    C18  164   5.350   4.285   3.311
    5MON     O5  165   5.319   4.165   3.242
    5MON    C19  166   5.493   4.327   3.271
    5MON     O6  167   5.498   4.355   3.130
    5MON    C20  168   5.900   4.611   3.646
    5MON     O7  169   5.796   4.549   3.664
    5MON     H2  170   5.855   4.883   3.842
    5MON     H3  171   5.728   4.848   3.566
    5MON     H6  172   5.966   5.050   3.742
    5MON     H7  173   5.895   5.012   3.586
    5MON     H8  174   6.077   4.907   3.511
    5MON     H9  175   6.273   5.006   3.573
    5MON    H12  176   5.901   4.404   3.492
    5MON    H13  177   6.076   4.405   3.473
    5MON    H14  178   6.064   4.521   3.267
    5MON    H15  179   5.934   4.405   3.258
    5MON    H16  180   5.915   4.708   3.303
    5MON    H17  181   5.862   4.617   3.163
    5MON    H18  182   5.664   4.678   3.279
    5MON    H19  183   5.731   4.634   3.436
    5MON    H20  184   5.476   4.538   3.317
    5MON    H21  185   5.590   4.353   3.535
    5MON    H22  186   5.635   4.555   3.598
    5MON    H23  187   5.302   4.456   3.509
    5MON    H24  188   5.257   4.289   3.692
    5MON    H25  189   5.432   4.264   3.709
    5MON    H26  190   5.430   4.511   3.720
    5MON    H27  191   5.278   4.364   3.284
    5MON    H28  192   5.358   4.182   3.154
    5MON    H29  193   5.560   4.244   3.297
    5MON    H30  194   5.586   4.395   3.115
    6MON      O  195   6.604   5.069   4.072
    6MON      C  196   6.503   5.005   4.047
    6MON     C1  197   6.361   5.043   4.088
    6MON      H  198   6.353   5.036   4.197
    6MON     C2  199   6.272   4.934   4.022
    6MON     C3  200   6.186   5.007   3.916
    6MON     C4  201   6.254   5.022   3.780
    6MON     C6  202   6.170   5.146   3.981
    6MON     C7  203   6.310   5.180   4.038
    6MON     C8  204   6.327   5.289   4.144
    6MON     H1  205   6.207   4.888   4.098
    6MON      N  206   6.497   4.882   3.982
    6MON    C10  207   6.618   4.801   3.954
    6MON    C11  208   6.696   4.842   3.827
    6MON    C12  209   6.612   4.876   3.700
    6MON    C13  210   6.514   4.768   3.649
    6MON     O1  211   6.576   4.639   3.655
    6MON    C14  212   6.505   4.535   3.584
    6MON    C15  213   6.421   4.447   3.681
    6MON     O2  214   6.315   4.522   3.740
    6MON    C16  215   6.362   4.327   3.602
    6MON    C17  216   6.281   4.228   3.689
    6MON     O3  217   6.158   4.289   3.729
    6MON     O4  218   6.470   4.253   3.541
    6MON    C18  219   6.546   4.328   3.444
    6MON     O5  220   6.649   4.247   3.392
    6MON    C19  221   6.612   4.448   3.514
    6MON     O6  222   6.683   4.528   3.419
    6MON    C20  223   6.369   4.830   3.969
    6MON     O7  224   6.341   4.718   3.930
    6MON     H2  225   6.089   4.957   3.908
    6MON     H3  226   6.350   5.073   3.783
    6MON     H6  227   6.099   5.134   4.063
    6MON     H7  228   6.133   5.221   3.911
    6MON     H8  229   6.373   5.210   3.954
    6MON     H9  230   6.432   5.305   4.168
    6MON    H12  231   6.588   4.696   3.944
    6MON    H13  232   6.685   4.807   4.041
    6MON    H14  233   6.756   4.931   3.851
    6MON    H15  234   6.768   4.763   3.803
    6MON    H16  235   6.557   4.968   3.718
    6MON    H17  236   6.683   4.898   3.619
    6MON    H18  237   6.486   4.793   3.546
    6MON    H19  238   6.422   4.770   3.708
    6MON    H20  239   6.439   4.577   3.507
    6MON    H21  240   6.488   4.407   3.759
    6MON    H22  241   6.353   4.588   3.802
    6MON    H23  242   6.296   4.365   3.523
    6MON    H24  243   6.261   4.137   3.631
    6MON    H25  244   6.341   4.199   3.776
    6MON    H26  245   6.182   4.379   3.759
    6MON    H27  246   6.480   4.362   3.363
    6MON    H28  247   6.711   4.313   3.356
    6MON    H29  248   6.680   4.409   3.591
    6MON    H30  249   6.704   4.611   3.465
    7MON      O  250   6.056   5.409   4.654
    7MON      C  251   6.055   5.350   4.547
    7MON     C1  252   5.974   5.388   4.424
    7MON      H  253   5.868   5.374   4.445
    7MON     C2  254   6.019   5.288   4.315
    7MON     C3  255   6.087   5.369   4.202
    7MON     C4  256   6.238   5.366   4.212
    7MON     C6  257   6.031   5.512   4.220
    7MON     C7  258   6.003   5.531   4.371
    7MON     C8  259   5.887   5.624   4.402
    7MON     H1  260   5.931   5.236   4.276
    7MON      N  261   6.125   5.233   4.518
    7MON    C10  262   6.187   5.150   4.624
    7MON    C11  263   6.322   5.203   4.677
    7MON    C12  264   6.425   5.250   4.571
    7MON    C13  265   6.460   5.150   4.459
    7MON     O1  266   6.475   5.018   4.515
    7MON    C14  267   6.527   4.920   4.423
    7MON    C15  268   6.429   4.801   4.416
    7MON     O2  269   6.308   4.841   4.351
    7MON    C16  270   6.492   4.682   4.338
    7MON    C17  271   6.406   4.554   4.341
    7MON     O3  272   6.284   4.575   4.269
    7MON     O4  273   6.620   4.649   4.397
    7MON    C18  274   6.716   4.755   4.393
    7MON     O5  275   6.836   4.710   4.453
    7MON    C19  276   6.663   4.873   4.477
    7MON     O6  277   6.757   4.981   4.474
    7MON    C20  278   6.106   5.186   4.388
    7MON     O7  279   6.146   5.079   4.344
    7MON     H2  280   6.053   5.336   4.104
    7MON     H3  281   6.279   5.436   4.285
    7MON     H6  282   5.937   5.517   4.164
    7MON     H7  283   6.098   5.589   4.180
    7MON     H8  284   6.094   5.568   4.420
    7MON     H9  285   5.846   5.612   4.503
    7MON    H12  286   6.202   5.049   4.585
    7MON    H13  287   6.116   5.143   4.707
    7MON    H14  288   6.302   5.287   4.744
    7MON    H15  289   6.367   5.125   4.739
    7MON    H16  290   6.389   5.343   4.525
    7MON    H17  291   6.518   5.277   4.623
    7MON    H18  292   6.552   5.183   4.409
    7MON    H19  293   6.381   5.151   4.384
    7MON    H20  294   6.542   4.961   4.322
    7MON    H21  295   6.408   4.767   4.518
    7MON    H22  296   6.276   4.925   4.392
    7MON    H23  297   6.507   4.710   4.233
    7MON    H24  298   6.463   4.471   4.297
    7MON    H25  299   6.385   4.527   4.446
    7MON    H26  300   6.265   4.671   4.278
    7MON    H27  301   6.735   4.787   4.290
    7MON    H28  302   6.881   4.794   4.477
    7MON    H29  303   6.650   4.837   4.580
    7MON    H30  304   6.715   5.056   4.520
    8MON      O  305   5.731   6.189   4.102
    8MON      C  306   5.750   6.108   4.190
    8MON     C1  307   5.647   6.009   4.246
    8MON      H  308   5.557   6.062   4.279
    8MON     C2  309   5.718   5.941   4.366
    8MON     C3  310   5.703   5.787   4.350
    8MON     C4  311   5.830   5.711   4.318
    8MON     C6  312   5.603   5.769   4.233
    8MON     C7  313   5.613   5.895   4.147
    8MON     C8  314   5.490   5.915   4.061
    8MON     H1  315   5.672   5.974   4.460
    8MON      N  316   5.869   6.087   4.259
    8MON    C10  317   5.986   6.176   4.242
    8MON    C11  318   6.070   6.157   4.113
    8MON    C12  319   6.081   6.013   4.055
    8MON    C13  320   6.125   5.901   4.152
    8MON     O1  321   6.237   5.946   4.230
    8MON    C14  322   6.269   5.859   4.342
    8MON    C15  323   6.317   5.947   4.460
    8MON     O2  324   6.210   6.031   4.506
    8MON    C16  325   6.370   5.859   4.577
    8MON    C17  326   6.441   5.941   4.688
    8MON     O3  327   6.347   6.024   4.755
    8MON     O4  328   6.468   5.765   4.527
    8MON    C18  329   6.420   5.677   4.424
    8MON     O5  330   6.523   5.588   4.385
    8MON    C19  331   6.384   5.763   4.302
    8MON     O6  332   6.348   5.680   4.192
    8MON    C20  333   5.862   5.993   4.362
    8MON     O7  334   5.952   5.962   4.438
    8MON     H2  335   5.659   5.745   4.441
    8MON     H3  336   5.868   5.726   4.217
    8MON     H6  337   5.503   5.757   4.275
    8MON     H7  338   5.626   5.680   4.173
    8MON     H8  339   5.700   5.882   4.080
    8MON     H9  340   5.510   5.923   3.954
    8MON    H12  341   6.053   6.162   4.328
    8MON    H13  342   5.951   6.281   4.247
    8MON    H14  343   6.026   6.220   4.035
    8MON    H15  344   6.170   6.196   4.131
    8MON    H16  345   5.984   5.985   4.012
    8MON    H17  346   6.152   6.016   3.971
    8MON    H18  347   6.150   5.812   4.094
    8MON    H19  348   6.041   5.876   4.217
    8MON    H20  349   6.182   5.802   4.374
    8MON    H21  350   6.400   6.010   4.425
    8MON    H22  351   6.124   5.992   4.479
    8MON    H23  352   6.287   5.804   4.623
    8MON    H24  353   6.488   5.872   4.759
    8MON    H25  354   6.521   6.001   4.643
    8MON    H26  355   6.288   6.061   4.686
    8MON    H27  356   6.333   5.620   4.460
    8MON    H28  357   6.504   5.576   4.290
    8MON    H29  358   6.472   5.824   4.277
    8MON    H30  359   6.330   5.741   4.117
    9MON      O  360   5.044   5.655   4.328
    9MON      C  361   5.100   5.672   4.221
    9MON     C1  362   5.061   5.773   4.114
    9MON      H  363   4.968   5.739   4.067
    9MON     C2  364   5.176   5.768   4.010
    9MON     C3  365   5.243   5.908   4.013
    9MON     C4  366   5.363   5.910   4.106
    9MON     C6  367   5.131   6.002   4.063
    9MON     C7  368   5.048   5.919   4.164
    9MON     C8  369   4.902   5.959   4.178
    9MON     H1  370   5.134   5.748   3.910
    9MON      N  371   5.208   5.598   4.173
    9MON    C10  372   5.213   5.452   4.200
    9MON    C11  373   5.269   5.410   4.338
    9MON    C12  374   5.410   5.462   4.372
    9MON    C13  375   5.517   5.446   4.264
    9MON     O1  376   5.527   5.310   4.221
    9MON    C14  377   5.638   5.285   4.132
    9MON    C15  378   5.599   5.308   3.983
    9MON     O2  379   5.591   5.449   3.956
    9MON    C16  380   5.706   5.248   3.886
    9MON    C17  381   5.654   5.236   3.741
    9MON     O3  382   5.655   5.364   3.678
    9MON     O4  383   5.747   5.116   3.927
    9MON    C18  384   5.797   5.108   4.060
    9MON     O5  385   5.844   4.977   4.087
    9MON    C19  386   5.679   5.139   4.153
    9MON     O6  387   5.715   5.117   4.290
    9MON    C20  388   5.261   5.648   4.054
    9MON     O7  389   5.353   5.598   3.991
    9MON     H2  390   5.273   5.937   3.912
    9MON     H3  391   5.341   5.899   4.212
    9MON     H6  392   5.068   6.030   3.978
    9MON     H7  393   5.171   6.094   4.108
    9MON     H8  394   5.097   5.925   4.262
    9MON     H9  395   4.836   5.877   4.208
    9MON    H12  396   5.273   5.403   4.122
    9MON    H13  397   5.111   5.413   4.191
    9MON    H14  398   5.199   5.444   4.416
    9MON    H15  399   5.269   5.301   4.343
    9MON    H16  400   5.402   5.569   4.395
    9MON    H17  401   5.444   5.414   4.465
    9MON    H18  402   5.613   5.481   4.304
    9MON    H19  403   5.491   5.510   4.179
    9MON    H20  404   5.724   5.349   4.157
    9MON    H21  405   5.503   5.258   3.964
    9MON    H22  406   5.501   5.482   3.978
    9MON    H23  407   5.794   5.313   3.885
    9MON    H24  408   5.718   5.167   3.685
    9MON    H25  409   5.553   5.193   3.741
    9MON    H26  410   5.617   5.428   3.742
    9MON    H27  411   5.879   5.180   4.074
    9MON    H28  412   5.834   4.970   4.184
    9MON    H29  413   5.595   5.075   4.123
    9MON    H30  414   5.641   5.155   4.343
   10MON      O  415   4.681   6.459   4.462
   10MON      C  416   4.683   6.343   4.423
   10MON     C1  417   4.605   6.285   4.306
   10MON      H  418   4.497   6.296   4.326
   10MON     C2  419   4.642   6.135   4.303
   10MON     C3  420   4.698   6.104   4.161
   10MON     C4  421   4.848   6.080   4.154
   10MON     C6  422   4.656   6.225   4.075
   10MON     C7  423   4.645   6.345   4.170
   10MON     C8  424   4.548   6.450   4.120
   10MON     H1  425   4.553   6.074   4.322
   10MON      N  426   4.758   6.240   4.480
   10MON    C10  427   4.828   6.256   4.609
   10MON    C11  428   4.962   6.333   4.601
   10MON    C12  429   5.055   6.301   4.482
   10MON    C13  430   5.085   6.152   4.455
   10MON     O1  431   5.104   6.084   4.581
   10MON    C14  432   5.121   5.941   4.571
   10MON    C15  433   5.048   5.874   4.690
   10MON     O2  434   4.906   5.891   4.678
   10MON    C16  435   5.083   5.722   4.697
   10MON    C17  436   5.030   5.653   4.825
   10MON     O3  437   4.887   5.647   4.822
   10MON     O4  438   5.227   5.706   4.698
   10MON    C18  439   5.293   5.758   4.582
   10MON     O5  440   5.432   5.738   4.593
   10MON    C19  441   5.272   5.911   4.581
   10MON     O6  442   5.345   5.970   4.473
   10MON    C20  443   4.739   6.116   4.420
   10MON     O7  444   4.786   6.010   4.458
   10MON     H2  445   4.648   6.014   4.122
   10MON     H3  446   4.910   6.165   4.125
   10MON     H6  447   4.558   6.204   4.031
   10MON     H7  448   4.726   6.245   3.992
   10MON     H8  449   4.745   6.390   4.180
   10MON     H9  450   4.591   6.549   4.105
   10MON    H12  451   4.847   6.157   4.651
   10MON    H13  452   4.761   6.308   4.679
   10MON    H14  453   4.940   6.441   4.598
   10MON    H15  454   5.016   6.317   4.695
   10MON    H16  455   5.012   6.344   4.390
   10MON    H17  456   5.150   6.354   4.498
   10MON    H18  457   5.174   6.144   4.392
   10MON    H19  458   5.002   6.108   4.400
   10MON    H20  459   5.079   5.901   4.478
   10MON    H21  460   5.083   5.921   4.783
   10MON    H22  461   4.885   5.932   4.591
   10MON    H23  462   5.041   5.670   4.610
   10MON    H24  463   5.072   5.552   4.832
   10MON    H25  464   5.064   5.709   4.914
   10MON    H26  465   4.856   5.732   4.785
   10MON    H27  466   5.254   5.712   4.491
   10MON    H28  467   5.465   5.820   4.552
   10MON    H29  468   5.308   5.949   4.677
   10MON    H30  469   5.321   6.065   4.476
   11MON      O  470   3.980   6.323   3.787
   11MON      C  471   4.091   6.364   3.819
   11MON     C1  472   4.120   6.483   3.909
   11MON      H  473   4.064   6.570   3.875
   11MON     C2  474   4.272   6.509   3.896
   11MON     C3  475   4.325   6.536   4.039
   11MON     C4  476   4.418   6.429   4.092
   11MON     C6  477   4.198   6.547   4.127
   11MON     C7  478   4.092   6.458   4.059
   11MON     C8  479   3.944   6.476   4.093
   11MON     H1  480   4.288   6.596   3.831
   11MON      N  481   4.213   6.313   3.777
   11MON    C10  482   4.222   6.224   3.659
   11MON    C11  483   4.180   6.077   3.684
   11MON    C12  484   4.224   6.013   3.818
   11MON    C13  485   4.372   6.030   3.857
   11MON     O1  486   4.455   6.003   3.742
   11MON    C14  487   4.596   6.024   3.764
   11MON    C15  488   4.657   6.088   3.637
   11MON     O2  489   4.608   6.221   3.619
   11MON    C16  490   4.813   6.091   3.646
   11MON    C17  491   4.880   6.133   3.514
   11MON     O3  492   4.860   6.273   3.491
   11MON     O4  493   4.863   5.960   3.680
   11MON    C18  494   4.815   5.907   3.805
   11MON     O5  495   4.871   5.780   3.827
   11MON    C19  496   4.663   5.888   3.793
   11MON     O6  497   4.613   5.829   3.913
   11MON    C20  498   4.324   6.385   3.822
   11MON     O7  499   4.441   6.356   3.800
   11MON     H2  500   4.377   6.633   4.040
   11MON     H3  501   4.374   6.330   4.105
   11MON     H6  502   4.166   6.652   4.125
   11MON     H7  503   4.217   6.518   4.231
   11MON     H8  504   4.119   6.354   4.081
   11MON     H9  505   3.882   6.408   4.034
   11MON    H12  506   4.325   6.224   3.623
   11MON    H13  507   4.160   6.265   3.578
   11MON    H14  508   4.070   6.071   3.678
   11MON    H15  509   4.217   6.016   3.601
   11MON    H16  510   4.162   6.054   3.899
   11MON    H17  511   4.200   5.905   3.814
   11MON    H18  512   4.395   5.962   3.940
   11MON    H19  513   4.387   6.132   3.893
   11MON    H20  514   4.614   6.092   3.848
   11MON    H21  515   4.630   6.025   3.551
   11MON    H22  516   4.545   6.244   3.690
   11MON    H23  517   4.843   6.163   3.724
   11MON    H24  518   4.988   6.111   3.520
   11MON    H25  519   4.839   6.074   3.431
   11MON    H26  520   4.766   6.291   3.509
   11MON    H27  521   4.840   5.975   3.888
   11MON    H28  522   4.799   5.736   3.876
   11MON    H29  523   4.645   5.822   3.707
   11MON    H30  524   4.517   5.814   3.898
   12MNL      O  525   3.598   6.957   4.166
   12MNL      C  526   3.709   6.907   4.161
   12MNL     C1  527   3.797   6.871   4.281
   12MNL      H  528   3.823   6.962   4.336
   12MNL     C2  529   3.924   6.807   4.219
   12MNL     C3  530   3.933   6.662   4.275
   12MNL     C4  531   3.879   6.558   4.178
   12MNL     C6  532   3.848   6.667   4.404
   12MNL     C7  533   3.733   6.765   4.374
   12MNL     C8  534   3.666   6.828   4.495
   12MNL     H1  535   4.013   6.865   4.249
   12MNL      N  536   3.778   6.872   4.046
   12MNL    C10  537   3.728   6.907   3.911
   12MNL    C11  538   3.615   6.815   3.859
   12MNL    C12  539   3.638   6.662   3.870
   12MNL    C13  540   3.764   6.608   3.800
   12MNL     O1  541   3.769   6.659   3.666
   12MNL    C14  542   3.878   6.608   3.586
   12MNL    C15  543   3.986   6.719   3.569
   12MNL     O2  544   4.052   6.743   3.694
   12MNL    C16  545   4.091   6.676   3.462
   12MNL    C17  546   4.193   6.787   3.429
   12MNL     O3  547   4.279   6.809   3.541
   12MNL     O4  548   4.022   6.643   3.340
   12MNL    C18  549   3.931   6.533   3.350
   12MNL     O5  550   3.871   6.510   3.224
   12MNL    C19  551   3.819   6.571   3.449
   12MNL     O6  552   3.729   6.461   3.465
   12MNL    C20  553   3.905   6.820   4.068
   12MNL     O7  554   3.988   6.795   3.982
   12MNL     H2  555   4.036   6.638   4.305
   12MNL     H3  556   3.770   6.549   4.181
   12MNL     H6  557   3.910   6.706   4.485
   12MNL     H7  558   3.811   6.568   4.434
   12MNL     H8  559   3.656   6.712   4.316
   12MNL     H9  560   3.593   6.906   4.470
   12MNL    H12  561   3.812   6.903   3.840
   12MNL    H13  562   3.692   7.010   3.913
   12MNL    H14  563   3.523   6.839   3.915
   12MNL    H15  564   3.594   6.841   3.755
   12MNL    H16  565   3.642   6.634   3.976
   12MNL    H17  566   3.551   6.611   3.828
   12MNL    H18  567   3.760   6.498   3.800
   12MNL    H19  568   3.853   6.637   3.856
   12MNL    H20  569   3.923   6.518   3.630
   12MNL    H21  570   3.936   6.810   3.534
   12MNL    H22  571   3.985   6.767   3.762
   12MNL    H23  572   4.146   6.588   3.498
   12MNL    H24  573   4.252   6.756   3.342
   12MNL    H25  574   4.140   6.879   3.402
   12MNL    H26  575   4.222   6.809   3.620
   12MNL    H27  576   3.983   6.443   3.384
   12MNL    H28  577   3.790   6.460   3.248
   12MNL    H29  578   3.766   6.659   3.408
   12MNL    H30  579   3.671   6.483   3.541
   13CPT     CC  580   3.688   6.797   4.624
   13CPT    HC1  581   3.758   6.720   4.655
   13CPT    HC2  582   3.633   6.849   4.703
   14CPH     CC  583   2.805   6.076   4.255
   14CPH    HC1  584   2.835   6.163   4.315
   14CPH    HC2  585   2.803   6.089   4.147
   15MNF      O  586   2.986   5.514   4.460
   15MNF      C  587   2.958   5.601   4.380
   15MNF     C1  588   2.825   5.617   4.307
   15MNF      H  589   2.803   5.526   4.251
   15MNF     C2  590   2.845   5.735   4.208
   15MNF     C3  591   2.730   5.836   4.235
   15MNF     C4  592   2.774   5.959   4.312
   15MNF     C6  593   2.626   5.756   4.316
   15MNF     C7  594   2.708   5.655   4.401
   15MNF     C8  595   2.638   5.530   4.452
   15MNF     H1  596   2.841   5.698   4.105
   15MNF      N  597   3.040   5.704   4.338
   15MNF    C10  598   3.181   5.715   4.381
   15MNF    C11  599   3.203   5.766   4.526
   15MNF    C12  600   3.108   5.876   4.579
   15MNF    C13  601   3.089   6.001   4.489
   15MNF     O1  602   3.216   6.042   4.437
   15MNF    C14  603   3.209   6.137   4.328
   15MNF    C15  604   3.326   6.105   4.231
   15MNF     O2  605   3.303   5.980   4.165
   15MNF    C16  606   3.345   6.218   4.125
   15MNF    C17  607   3.474   6.201   4.041
   15MNF     O3  608   3.465   6.086   3.958
   15MNF     O4  609   3.355   6.345   4.192
   15MNF    C18  610   3.239   6.381   4.269
   15MNF     O5  611   3.260   6.509   4.326
   15MNF    C19  612   3.223   6.280   4.384
   15MNF     O6  613   3.108   6.316   4.462
   15MNF    C20  614   2.987   5.785   4.237
   15MNF     O7  615   3.046   5.875   4.178
   15MNF     H2  616   2.686   5.867   4.139
   15MNF     H3  617   2.777   5.949   4.421
   15MNF     H6  618   2.559   5.702   4.248
   15MNF     H7  619   2.566   5.824   4.378
   15MNF     H8  620   2.749   5.709   4.487
   15MNF     H9  621   2.704   5.443   4.454
   15MNF    H12  622   3.234   5.783   4.313
   15MNF    H13  623   3.229   5.617   4.370
   15MNF    H14  624   3.194   5.680   4.594
   15MNF    H15  625   3.307   5.800   4.535
   15MNF    H16  626   3.009   5.832   4.596
   15MNF    H17  627   3.144   5.909   4.676
   15MNF    H18  628   3.042   6.080   4.548
   15MNF    H19  629   3.021   5.976   4.408
   15MNF    H20  630   3.114   6.128   4.273
   15MNF    H21  631   3.419   6.100   4.290
   15MNF    H22  632   3.207   5.958   4.171
   15MNF    H23  633   3.259   6.219   4.056
   15MNF    H24  634   3.488   6.291   3.979
   15MNF    H25  635   3.560   6.194   4.108
   15MNF    H26  636   3.422   6.016   4.012
   15MNF    H27  637   3.150   6.383   4.205
   15MNF    H28  638   3.195   6.511   4.398
   15MNF    H29  639   3.315   6.285   4.444
   15MNF    H30  640   3.105   6.253   4.536
   16MON      O  641   2.129   5.249   4.599
   16MON      C  642   2.178   5.340   4.534
   16MON     C1  643   2.191   5.486   4.576
   16MON      H  644   2.091   5.529   4.587
   16MON     C2  645   2.264   5.554   4.458
   16MON     C3  646   2.398   5.610   4.514
   16MON     C4  647   2.513   5.511   4.498
   16MON     C6  648   2.367   5.629   4.663
   16MON     C7  649   2.278   5.509   4.703
   16MON     C8  650   2.195   5.526   4.830
   16MON     H1  651   2.203   5.636   4.417
   16MON      N  652   2.232   5.328   4.406
   16MON    C10  653   2.216   5.206   4.324
   16MON    C11  654   2.306   5.086   4.362
   16MON    C12  655   2.452   5.116   4.405
   16MON    C13  656   2.537   5.201   4.309
   16MON     O1  657   2.519   5.156   4.174
   16MON    C14  658   2.610   5.213   4.076
   16MON    C15  659   2.563   5.353   4.027
   16MON     O2  660   2.575   5.450   4.131
   16MON    C16  661   2.647   5.398   3.904
   16MON    C17  662   2.598   5.531   3.841
   16MON     O3  663   2.624   5.639   3.931
   16MON     O4  664   2.639   5.297   3.802
   16MON    C18  665   2.694   5.170   3.840
   16MON     O5  666   2.682   5.079   3.732
   16MON    C19  667   2.612   5.114   3.958
   16MON     O6  668   2.668   4.989   4.002
   16MON    C20  669   2.280   5.446   4.352
   16MON     O7  670   2.326   5.462   4.239
   16MON     H2  671   2.419   5.706   4.469
   16MON     H3  672   2.488   5.411   4.532
   16MON     H6  673   2.311   5.723   4.676
   16MON     H7  674   2.460   5.637   4.721
   16MON     H8  675   2.342   5.420   4.716
   16MON     H9  676   2.089   5.502   4.817
   16MON    H12  677   2.236   5.231   4.219
   16MON    H13  678   2.110   5.174   4.328
   16MON    H14  679   2.257   5.033   4.446
   16MON    H15  680   2.306   5.015   4.279
   16MON    H16  681   2.451   5.164   4.503
   16MON    H17  682   2.503   5.020   4.420
   16MON    H18  683   2.642   5.194   4.339
   16MON    H19  684   2.507   5.306   4.319
   16MON    H20  685   2.711   5.220   4.117
   16MON    H21  686   2.458   5.344   3.995
   16MON    H22  687   2.489   5.451   4.179
   16MON    H23  688   2.752   5.411   3.935
   16MON    H24  689   2.651   5.547   3.746
   16MON    H25  690   2.491   5.523   3.819
   16MON    H26  691   2.596   5.608   4.019
   16MON    H27  692   2.800   5.180   3.869
   16MON    H28  693   2.689   4.992   3.777
   16MON    H29  694   2.509   5.100   3.922
   16MON    H30  695   2.620   4.967   4.085
   17MON      O  696   2.299   5.913   5.324
   17MON      C  697   2.318   5.874   5.210
   17MON     C1  698   2.424   5.775   5.165
   17MON      H  699   2.524   5.820   5.180
   17MON     C2  700   2.399   5.752   5.014
   17MON     C3  701   2.379   5.598   4.994
   17MON     C4  702   2.237   5.563   4.952
   17MON     C6  703   2.417   5.530   5.127
   17MON     C7  704   2.409   5.639   5.236
   17MON     C8  705   2.504   5.625   5.353
   17MON     H1  706   2.485   5.787   4.955
   17MON      N  707   2.240   5.905   5.100
   17MON    C10  708   2.133   6.006   5.105
   17MON    C11  709   2.008   5.965   5.187
   17MON    C12  710   1.960   5.818   5.173
   17MON    C13  711   1.929   5.770   5.030
   17MON     O1  712   1.848   5.868   4.964
   17MON    C14  713   1.798   5.833   4.834
   17MON    C15  714   1.902   5.868   4.723
   17MON     O2  715   2.010   5.775   4.726
   17MON    C16  716   1.836   5.865   4.581
   17MON    C17  717   1.928   5.922   4.471
   17MON     O3  718   2.044   5.840   4.456
   17MON     O4  719   1.716   5.946   4.582
   17MON    C18  720   1.615   5.901   4.672
   17MON     O5  721   1.502   5.985   4.661
   17MON    C19  722   1.669   5.915   4.816
   17MON     O6  723   1.571   5.870   4.909
   17MON    C20  724   2.279   5.842   4.982
   17MON     O7  725   2.227   5.859   4.873
   17MON     H2  726   2.450   5.561   4.919
   17MON     H3  727   2.164   5.568   5.033
   17MON     H6  728   2.518   5.489   5.120
   17MON     H7  729   2.351   5.446   5.151
   17MON     H8  730   2.306   5.635   5.276
   17MON     H9  731   2.453   5.625   5.450
   17MON    H12  732   2.100   6.028   5.003
   17MON    H13  733   2.174   6.099   5.146
   17MON    H14  734   2.030   5.982   5.293
   17MON    H15  735   1.926   6.033   5.163
   17MON    H16  736   2.035   5.751   5.217
   17MON    H17  737   1.869   5.805   5.233
   17MON    H18  738   1.877   5.673   5.034
   17MON    H19  739   2.023   5.754   4.975
   17MON    H20  740   1.773   5.726   4.828
   17MON    H21  741   1.938   5.971   4.741
   17MON    H22  742   2.078   5.807   4.789
   17MON    H23  743   1.810   5.762   4.556
   17MON    H24  744   1.872   5.925   4.376
   17MON    H25  745   1.956   6.025   4.496
   17MON    H26  746   2.065   5.809   4.547
   17MON    H27  747   1.587   5.797   4.651
   17MON    H28  748   1.456   5.971   4.746
   17MON    H29  749   1.692   6.021   4.832
   17MON    H30  750   1.616   5.868   4.996
   18MON      O  751   3.016   5.703   5.565
   18MON      C  752   2.956   5.732   5.463
   18MON     C1  753   2.958   5.654   5.331
   18MON      H  754   3.057   5.667   5.284
   18MON     C2  755   2.849   5.722   5.246
   18MON     C3  756   2.734   5.619   5.233
   18MON     C4  757   2.639   5.620   5.352
   18MON     C6  758   2.812   5.486   5.233
   18MON     C7  759   2.919   5.505   5.343
   18MON     C8  760   3.037   5.411   5.337
   18MON     H1  761   2.889   5.748   5.147
   18MON      N  762   2.871   5.842   5.446
   18MON    C10  763   2.867   5.954   5.542
   18MON    C11  764   2.777   5.931   5.666
   18MON    C12  765   2.635   5.874   5.643
   18MON    C13  766   2.544   5.947   5.541
   18MON     O1  767   2.561   6.089   5.557
   18MON    C14  768   2.465   6.170   5.485
   18MON    C15  769   2.522   6.218   5.349
   18MON     O2  770   2.533   6.109   5.257
   18MON    C16  771   2.431   6.328   5.287
   18MON    C17  772   2.489   6.392   5.160
   18MON     O3  773   2.490   6.297   5.053
   18MON     O4  774   2.412   6.434   5.383
   18MON    C18  775   2.346   6.393   5.504
   18MON     O5  776   2.331   6.505   5.589
   18MON    C19  777   2.435   6.291   5.576
   18MON     O6  778   2.370   6.245   5.696
   18MON    C20  779   2.812   5.849   5.321
   18MON     O7  780   2.746   5.942   5.276
   18MON     H2  781   2.680   5.635   5.139
   18MON     H3  782   2.688   5.614   5.449
   18MON     H6  783   2.860   5.472   5.136
   18MON     H7  784   2.746   5.399   5.251
   18MON     H8  785   2.872   5.491   5.441
   18MON     H9  786   3.119   5.438   5.403
   18MON    H12  787   2.831   6.043   5.490
   18MON    H13  788   2.969   5.975   5.576
   18MON    H14  789   2.830   5.862   5.734
   18MON    H15  790   2.769   6.026   5.721
   18MON    H16  791   2.643   5.769   5.612
   18MON    H17  792   2.583   5.872   5.739
   18MON    H18  793   2.440   5.918   5.560
   18MON    H19  794   2.568   5.916   5.439
   18MON    H20  795   2.371   6.115   5.468
   18MON    H21  796   2.621   6.263   5.368
   18MON    H22  797   2.608   6.052   5.286
   18MON    H23  798   2.333   6.284   5.262
   18MON    H24  799   2.428   6.479   5.132
   18MON    H25  800   2.591   6.429   5.180
   18MON    H26  801   2.514   6.212   5.094
   18MON    H27  802   2.247   6.350   5.482
   18MON    H28  803   2.319   6.463   5.677
   18MON    H29  804   2.530   6.341   5.600
   18MON    H30  805   2.422   6.168   5.726
   19MON      O  806   2.888   4.842   5.215
   19MON      C  807   2.955   4.925   5.275
   19MON     C1  808   3.098   4.967   5.241
   19MON      H  809   3.164   4.880   5.251
   19MON     C2  810   3.134   5.074   5.347
   19MON     C3  811   3.165   5.205   5.269
   19MON     C4  812   3.045   5.299   5.264
   19MON     C6  813   3.202   5.157   5.128
   19MON     C7  814   3.114   5.033   5.102
   19MON     C8  815   3.168   4.937   4.997
   19MON     H1  816   3.221   5.042   5.404
   19MON      N  817   2.917   4.992   5.391
   19MON    C10  818   2.805   4.945   5.475
   19MON    C11  819   2.664   4.987   5.430
   19MON    C12  820   2.644   5.134   5.386
   19MON    C13  821   2.699   5.244   5.479
   19MON     O1  822   2.674   5.210   5.617
   19MON    C14  823   2.737   5.297   5.713
   19MON    C15  824   2.785   5.213   5.833
   19MON     O2  825   2.890   5.123   5.793
   19MON    C16  826   2.834   5.304   5.950
   19MON    C17  827   2.862   5.226   6.080
   19MON     O3  828   2.974   5.138   6.063
   19MON     O4  829   2.733   5.402   5.981
   19MON    C18  830   2.697   5.489   5.872
   19MON     O5  831   2.598   5.580   5.916
   19MON    C19  832   2.634   5.401   5.762
   19MON     O6  833   2.588   5.484   5.654
   19MON    C20  834   3.014   5.080   5.441
   19MON     O7  835   3.007   5.144   5.544
   19MON     H2  836   3.250   5.257   5.316
   19MON     H3  837   2.963   5.267   5.199
   19MON     H6  838   3.308   5.129   5.129
   19MON     H7  839   3.187   5.235   5.053
   19MON     H8  840   3.014   5.067   5.069
   19MON     H9  841   3.117   4.841   4.995
   19MON    H12  842   2.821   4.980   5.578
   19MON    H13  843   2.809   4.835   5.479
   19MON    H14  844   2.633   4.923   5.346
   19MON    H15  845   2.594   4.965   5.512
   19MON    H16  846   2.689   5.148   5.287
   19MON    H17  847   2.536   5.152   5.372
   19MON    H18  848   2.653   5.340   5.453
   19MON    H19  849   2.807   5.254   5.462
   19MON    H20  850   2.824   5.349   5.669
   19MON    H21  851   2.699   5.154   5.870
   19MON    H22  852   2.920   5.147   5.703
   19MON    H23  853   2.927   5.355   5.920
   19MON    H24  854   2.882   5.297   6.161
   19MON    H25  855   2.772   5.169   6.108
   19MON    H26  856   2.966   5.100   5.973
   19MON    H27  857   2.785   5.542   5.834
   19MON    H28  858   2.553   5.602   5.832
   19MON    H29  859   2.550   5.347   5.808
   19MON    H30  860   2.548   5.422   5.590
   20MON      O  861   3.510   5.109   4.457
   20MON      C  862   3.426   5.058   4.529
   20MON     C1  863   3.437   4.922   4.599
   20MON      H  864   3.460   4.843   4.527
   20MON     C2  865   3.297   4.899   4.664
   20MON     C3  866   3.320   4.859   4.812
   20MON     C4  867   3.269   4.961   4.912
   20MON     C6  868   3.473   4.841   4.828
   20MON     C7  869   3.538   4.924   4.716
   20MON     C8  870   3.679   4.879   4.680
   20MON     H1  871   3.245   4.819   4.610
   20MON      N  872   3.303   5.113   4.564
   20MON    C10  873   3.255   5.241   4.506
   20MON    C11  874   3.324   5.368   4.561
   20MON    C12  875   3.345   5.376   4.714
   20MON    C13  876   3.219   5.363   4.802
   20MON     O1  877   3.118   5.452   4.754
   20MON    C14  878   2.993   5.452   4.826
   20MON    C15  879   2.901   5.338   4.773
   20MON     O2  880   2.941   5.213   4.831
   20MON    C16  881   2.751   5.360   4.811
   20MON    C17  882   2.655   5.266   4.735
   20MON     O3  883   2.662   5.135   4.790
   20MON     O4  884   2.710   5.495   4.780
   20MON    C18  885   2.785   5.596   4.850
   20MON     O5  886   2.732   5.723   4.821
   20MON    C19  887   2.930   5.590   4.799
   20MON     O6  888   3.008   5.690   4.865
   20MON    C20  889   3.221   5.030   4.640
   20MON     O7  890   3.107   5.056   4.676
   20MON     H2  891   3.271   4.763   4.831
   20MON     H3  892   3.321   5.057   4.911
   20MON     H6  893   3.498   4.735   4.817
   20MON     H7  894   3.508   4.874   4.926
   20MON     H8  895   3.544   5.028   4.753
   20MON     H9  896   3.752   4.959   4.680
   20MON    H12  897   3.147   5.249   4.525
   20MON    H13  898   3.268   5.237   4.397
   20MON    H14  899   3.422   5.377   4.513
   20MON    H15  900   3.266   5.455   4.528
   20MON    H16  901   3.417   5.299   4.745
   20MON    H17  902   3.393   5.473   4.737
   20MON    H18  903   3.246   5.388   4.906
   20MON    H19  904   3.185   5.259   4.800
   20MON    H20  905   3.008   5.440   4.934
   20MON    H21  906   2.909   5.335   4.663
   20MON    H22  907   3.005   5.168   4.771
   20MON    H23  908   2.738   5.343   4.918
   20MON    H24  909   2.553   5.304   4.744
   20MON    H25  910   2.681   5.265   4.628
   20MON    H26  911   2.756   5.115   4.807
   20MON    H27  912   2.782   5.577   4.957
   20MON    H28  913   2.810   5.781   4.832
   20MON    H29  914   2.928   5.607   4.690
   20MON    H30  915   3.101   5.673   4.839
   21MON      O  916   3.824   4.337   4.884
   21MON      C  917   3.854   4.454   4.864
   21MON     C1  918   3.934   4.507   4.746
   21MON      H  919   4.037   4.471   4.755
   21MON     C2  920   3.931   4.660   4.760
   21MON     C3  921   3.864   4.715   4.632
   21MON     C4  922   3.718   4.753   4.656
   21MON     C6  923   3.881   4.602   4.528
   21MON     C7  924   3.875   4.470   4.608
   21MON     C8  925   3.950   4.350   4.552
   21MON     H1  926   4.034   4.699   4.767
   21MON      N  927   3.827   4.560   4.949
   21MON    C10  928   3.840   4.539   5.095
   21MON    C11  929   3.718   4.477   5.167
   21MON    C12  930   3.581   4.543   5.140
   21MON    C13  931   3.580   4.697   5.134
   21MON     O1  932   3.652   4.750   5.247
   21MON    C14  933   3.671   4.893   5.244
   21MON    C15  934   3.813   4.927   5.296
   21MON     O2  935   3.913   4.880   5.203
   21MON    C16  936   3.831   5.080   5.318
   21MON    C17  937   3.962   5.117   5.390
   21MON     O3  938   4.074   5.092   5.305
   21MON     O4  939   3.723   5.130   5.400
   21MON    C18  940   3.591   5.109   5.347
   21MON     O5  941   3.496   5.162   5.437
   21MON    C19  942   3.567   4.957   5.339
   21MON     O6  943   3.434   4.930   5.294
   21MON    C20  944   3.861   4.685   4.894
   21MON     O7  945   3.847   4.793   4.949
   21MON     H2  946   3.918   4.804   4.597
   21MON     H3  947   3.648   4.670   4.657
   21MON     H6  948   3.979   4.612   4.480
   21MON     H7  949   3.805   4.606   4.448
   21MON     H8  950   3.769   4.444   4.623
   21MON     H9  951   3.971   4.274   4.628
   21MON    H12  952   3.864   4.634   5.143
   21MON    H13  953   3.927   4.473   5.112
   21MON    H14  954   3.711   4.371   5.141
   21MON    H15  955   3.737   4.480   5.275
   21MON    H16  956   3.543   4.506   5.044
   21MON    H17  957   3.510   4.509   5.216
   21MON    H18  958   3.476   4.732   5.132
   21MON    H19  959   3.628   4.728   5.041
   21MON    H20  960   3.659   4.934   5.143
   21MON    H21  961   3.827   4.877   5.393
   21MON    H22  962   3.870   4.857   5.118
   21MON    H23  963   3.829   5.132   5.221
   21MON    H24  964   3.960   5.223   5.418
   21MON    H25  965   3.971   5.058   5.483
   21MON    H26  966   4.057   5.005   5.261
   21MON    H27  967   3.581   5.156   5.248
   21MON    H28  968   3.424   5.097   5.431
   21MON    H29  969   3.583   4.916   5.440
   21MON    H30  970   3.432   4.833   5.281
   22MON      O  971   3.851   4.003   4.056
   22MON      C  972   3.885   4.029   4.170
   22MON     C1  973   4.028   4.044   4.220
   22MON      H  974   4.081   3.948   4.207
   22MON     C2  975   4.016   4.077   4.371
   22MON     C3  976   4.088   4.213   4.395
   22MON     C4  977   3.998   4.331   4.428
   22MON     C6  978   4.174   4.236   4.269
   22MON     C7  979   4.105   4.161   4.154
   22MON     C8  980   4.202   4.114   4.047
   22MON     H1  981   4.064   3.998   4.430
   22MON      N  982   3.800   4.048   4.279
   22MON    C10  983   3.657   4.012   4.273
   22MON    C11  984   3.565   4.114   4.202
   22MON    C12  985   3.594   4.264   4.227
   22MON    C13  986   3.609   4.308   4.374
   22MON     O1  987   3.510   4.242   4.455
   22MON    C14  988   3.528   4.258   4.597
   22MON    C15  989   3.486   4.128   4.670
   22MON     O2  990   3.574   4.020   4.635
   22MON    C16  991   3.485   4.148   4.825
   22MON    C17  992   3.423   4.029   4.901
   22MON     O3  993   3.505   3.913   4.888
   22MON     O4  994   3.407   4.265   4.858
   22MON    C18  995   3.453   4.387   4.799
   22MON     O5  996   3.369   4.494   4.837
   22MON    C19  997   3.439   4.373   4.646
   22MON     O6  998   3.471   4.498   4.583
   22MON    C20  999   3.865   4.073   4.400
   22MON     O7 1000   3.813   4.081   4.509
   22MON     H2 1001   4.157   4.200   4.480
   22MON     H3 1002   3.981   4.404   4.349
   22MON     H6 1003   4.273   4.193   4.286
   22MON     H7 1004   4.188   4.342   4.246
   22MON     H8 1005   4.031   4.229   4.108
   22MON     H9 1006   4.182   4.153   3.947
   22MON    H12 1007   3.620   3.998   4.375
   22MON    H13 1008   3.648   3.915   4.222
   22MON    H14 1009   3.572   4.097   4.093
   22MON    H15 1010   3.461   4.092   4.229
   22MON    H16 1011   3.684   4.293   4.173
   22MON    H17 1012   3.512   4.322   4.182
   22MON    H18 1013   3.601   4.417   4.380
   22MON    H19 1014   3.710   4.282   4.408
   22MON    H20 1015   3.633   4.278   4.623
   22MON    H21 1016   3.384   4.102   4.639
   22MON    H22 1017   3.657   4.058   4.597
   22MON    H23 1018   3.588   4.162   4.860
   22MON    H24 1019   3.413   4.056   5.007
   22MON    H25 1020   3.322   4.009   4.862
   22MON    H26 1021   3.537   3.912   4.795
   22MON    H27 1022   3.557   4.407   4.827
   22MON    H28 1023   3.372   4.548   4.756
   22MON    H29 1024   3.334   4.346   4.626
   22MON    H30 1025   3.465   4.479   4.487
   23MON      O 1026   4.819   3.884   4.164
   23MON      C 1027   4.725   3.949   4.121
   23MON     C1 1028   4.632   3.909   4.007
   23MON      H 1029   4.692   3.883   3.920
   23MON     C2 1030   4.548   4.036   3.977
   23MON     C3 1031   4.401   3.987   3.958
   23MON     C4 1032   4.307   4.032   4.068
   23MON     C6 1033   4.411   3.833   3.953
   23MON     C7 1034   4.533   3.797   4.040
   23MON     C8 1035   4.599   3.659   4.028
   23MON     H1 1036   4.585   4.083   3.885
   23MON      N 1037   4.685   4.075   4.165
   23MON    C10 1038   4.777   4.159   4.245
   23MON    C11 1039   4.792   4.121   4.394
   23MON    C12 1040   4.664   4.077   4.468
   23MON    C13 1041   4.540   4.167   4.450
   23MON     O1 1042   4.580   4.305   4.462
   23MON    C14 1043   4.477   4.400   4.428
   23MON    C15 1044   4.541   4.521   4.356
   23MON     O2 1045   4.595   4.482   4.229
   23MON    C16 1046   4.437   4.636   4.337
   23MON    C17 1047   4.501   4.767   4.285
   23MON     O3 1048   4.539   4.752   4.148
   23MON     O4 1049   4.373   4.666   4.463
   23MON    C18 1050   4.304   4.556   4.524
   23MON     O5 1051   4.248   4.597   4.646
   23MON    C19 1052   4.408   4.448   4.558
   23MON     O6 1053   4.344   4.340   4.627
   23MON    C20 1054   4.578   4.130   4.094
   23MON     O7 1055   4.525   4.237   4.118
   23MON     H2 1056   4.364   4.023   3.861
   23MON     H3 1057   4.328   3.993   4.167
   23MON     H6 1058   4.430   3.804   3.849
   23MON     H7 1059   4.319   3.784   3.987
   23MON     H8 1060   4.503   3.809   4.145
   23MON     H9 1061   4.684   3.650   4.095
   23MON    H12 1062   4.742   4.263   4.240
   23MON    H13 1063   4.876   4.157   4.197
   23MON    H14 1064   4.865   4.039   4.401
   23MON    H15 1065   4.837   4.206   4.447
   23MON    H16 1066   4.637   3.975   4.436
   23MON    H17 1067   4.686   4.070   4.575
   23MON    H18 1068   4.464   4.140   4.524
   23MON    H19 1069   4.497   4.148   4.351
   23MON    H20 1070   4.402   4.356   4.361
   23MON    H21 1071   4.622   4.560   4.420
   23MON    H22 1072   4.558   4.395   4.203
   23MON    H23 1073   4.361   4.604   4.264
   23MON    H24 1074   4.428   4.849   4.295
   23MON    H25 1075   4.587   4.793   4.347
   23MON    H26 1076   4.587   4.667   4.142
   23MON    H27 1077   4.226   4.517   4.457
   23MON    H28 1078   4.257   4.515   4.698
   23MON    H29 1079   4.485   4.495   4.621
   23MON    H30 1080   4.415   4.277   4.650
   24MNL      O 1081   4.756   3.323   3.560
   24MNL      C 1082   4.690   3.414   3.607
   24MNL     C1 1083   4.542   3.409   3.644
   24MNL      H 1084   4.482   3.391   3.554
   24MNL     C2 1085   4.510   3.550   3.702
   24MNL     C3 1086   4.462   3.529   3.848
   24MNL     C4 1087   4.573   3.551   3.951
   24MNL     C6 1088   4.416   3.381   3.850
   24MNL     C7 1089   4.511   3.306   3.755
   24MNL     C8 1090   4.459   3.175   3.699
   24MNL     H1 1091   4.431   3.597   3.642
   24MNL      N 1092   4.737   3.542   3.635
   24MNL    C10 1093   4.872   3.586   3.596
   24MNL    C11 1094   4.986   3.535   3.688
   24MNL    C12 1095   4.965   3.553   3.840
   24MNL    C13 1096   4.941   3.698   3.889
   24MNL     O1 1097   5.042   3.783   3.834
   24MNL    C14 1098   5.037   3.920   3.879
   24MNL    C15 1099   4.980   4.010   3.767
   24MNL     O2 1100   4.842   3.981   3.745
   24MNL    C16 1101   4.997   4.160   3.805
   24MNL    C17 1102   4.956   4.258   3.692
   24MNL     O3 1103   4.814   4.252   3.672
   24MNL     O4 1104   5.136   4.186   3.834
   24MNL    C18 1105   5.188   4.112   3.946
   24MNL     O5 1106   5.324   4.146   3.965
   24MNL    C19 1107   5.182   3.962   3.913
   24MNL     O6 1108   5.228   3.885   4.024
   24MNL    C20 1109   4.640   3.629   3.684
   24MNL     O7 1110   4.655   3.749   3.703
   24MNL     H2 1111   4.375   3.591   3.870
   24MNL     H3 1112   4.638   3.465   3.963
   24MNL     H6 1113   4.313   3.377   3.812
   24MNL     H7 1114   4.416   3.339   3.952
   24MNL     H8 1115   4.604   3.285   3.809
   24MNL     H9 1116   4.523   3.130   3.623
   24MNL    H12 1117   4.875   3.696   3.595
   24MNL    H13 1118   4.891   3.553   3.493
   24MNL    H14 1119   5.000   3.428   3.668
   24MNL    H15 1120   5.079   3.584   3.658
   24MNL    H16 1121   4.881   3.491   3.873
   24MNL    H17 1122   5.054   3.514   3.892
   24MNL    H18 1123   4.945   3.699   3.999
   24MNL    H19 1124   4.842   3.731   3.859
   24MNL    H20 1125   4.976   3.931   3.970
   24MNL    H21 1126   5.038   3.992   3.675
   24MNL    H22 1127   4.832   3.886   3.724
   24MNL    H23 1128   4.936   4.183   3.893
   24MNL    H24 1129   4.986   4.360   3.719
   24MNL    H25 1130   5.009   4.231   3.599
   24MNL    H26 1131   4.790   4.157   3.675
   24MNL    H27 1132   5.131   4.134   4.036
   24MNL    H28 1133   5.358   4.070   4.016
   24MNL    H29 1134   5.245   3.944   3.824
   24MNL    H30 1135   5.205   3.793   4.006
   25CPT     CC 1136   4.345   3.112   3.734
   25CPT    HC1 1137   4.277   3.150   3.809
   25CPT    HC2 1138   4.317   3.018   3.687
   26CPH     CC 1139   1.900   8.231   3.030
   26CPH    HC1 1140   1.876   8.337   3.032
   26CPH    HC2 1141   1.816   8.162   3.023
   27MNF      O 1142   2.413   8.072   2.724
   27MNF      C 1143   2.299   8.059   2.766
   27MNF     C1 1144   2.258   7.979   2.889
   27MNF      H 1145   2.288   7.874   2.877
   27MNF     C2 1146   2.103   7.988   2.894
   27MNF     C3 1147   2.066   8.041   3.035
   27MNF     C4 1148   2.026   8.187   3.036
   27MNF     C6 1149   2.193   8.018   3.120
   27MNF     C7 1150   2.311   8.037   3.022
   27MNF     C8 1151   2.442   7.973   3.062
   27MNF     H1 1152   2.059   7.889   2.878
   27MNF      N 1153   2.184   8.113   2.711
   27MNF    C10 1154   2.184   8.175   2.576
   27MNF    C11 1155   2.248   8.316   2.567
   27MNF    C12 1156   2.236   8.409   2.691
   27MNF    C13 1157   2.095   8.427   2.752
   27MNF     O1 1158   1.998   8.434   2.648
   27MNF    C14 1159   1.860   8.419   2.689
   27MNF    C15 1160   1.784   8.374   2.562
   27MNF     O2 1161   1.817   8.238   2.532
   27MNF    C16 1162   1.630   8.389   2.576
   27MNF    C17 1163   1.555   8.369   2.442
   27MNF     O3 1164   1.567   8.234   2.398
   27MNF     O4 1165   1.600   8.523   2.620
   27MNF    C18 1166   1.652   8.553   2.751
   27MNF     O5 1167   1.610   8.683   2.788
   27MNF    C19 1168   1.806   8.553   2.746
   27MNF     O6 1169   1.852   8.575   2.881
   27MNF    C20 1170   2.065   8.077   2.775
   27MNF     O7 1171   1.953   8.105   2.738
   27MNF     H2 1172   1.982   7.982   3.076
   27MNF     H3 1173   2.108   8.258   3.044
   27MNF     H6 1174   2.194   7.914   3.156
   27MNF     H7 1175   2.199   8.085   3.207
   27MNF     H8 1176   2.327   8.145   3.007
   27MNF     H9 1177   2.514   7.964   2.980
   27MNF    H12 1178   2.081   8.183   2.541
   27MNF    H13 1179   2.236   8.108   2.507
   27MNF    H14 1180   2.355   8.304   2.546
   27MNF    H15 1181   2.206   8.367   2.479
   27MNF    H16 1182   2.303   8.372   2.769
   27MNF    H17 1183   2.274   8.508   2.663
   27MNF    H18 1184   2.095   8.519   2.811
   27MNF    H19 1185   2.074   8.343   2.819
   27MNF    H20 1186   1.849   8.341   2.766
   27MNF    H21 1187   1.816   8.439   2.479
   27MNF    H22 1188   1.863   8.200   2.610
   27MNF    H23 1189   1.592   8.316   2.648
   27MNF    H24 1190   1.449   8.394   2.456
   27MNF    H25 1191   1.596   8.438   2.367
   27MNF    H26 1192   1.659   8.206   2.419
   27MNF    H27 1193   1.616   8.479   2.823
   27MNF    H28 1194   1.672   8.704   2.860
   27MNF    H29 1195   1.838   8.634   2.679
   27MNF    H30 1196   1.949   8.589   2.881
   28MON      O 1197   2.811   8.053   3.600
   28MON      C 1198   2.766   8.041   3.488
   28MON     C1 1199   2.759   7.913   3.406
   28MON      H 1200   2.856   7.862   3.406
   28MON     C2 1201   2.722   7.958   3.262
   28MON     C3 1202   2.611   7.862   3.212
   28MON     C4 1203   2.477   7.929   3.185
   28MON     C6 1204   2.599   7.753   3.320
   28MON     C7 1205   2.646   7.819   3.451
   28MON     C8 1206   2.692   7.725   3.561
   28MON     H1 1207   2.810   7.952   3.197
   28MON      N 1208   2.716   8.144   3.409
   28MON    C10 1209   2.725   8.285   3.451
   28MON    C11 1210   2.621   8.330   3.556
   28MON    C12 1211   2.478   8.271   3.543
   28MON    C13 1212   2.410   8.281   3.405
   28MON     O1 1213   2.440   8.409   3.347
   28MON    C14 1214   2.401   8.425   3.209
   28MON    C15 1215   2.505   8.517   3.140
   28MON     O2 1216   2.631   8.450   3.130
   28MON    C16 1217   2.458   8.562   2.999
   28MON    C17 1218   2.548   8.671   2.936
   28MON     O3 1219   2.676   8.617   2.903
   28MON     O4 1220   2.324   8.616   3.007
   28MON    C18 1221   2.226   8.525   3.058
   28MON     O5 1222   2.099   8.586   3.055
   28MON    C19 1223   2.261   8.492   3.204
   28MON     O6 1224   2.161   8.406   3.258
   28MON    C20 1225   2.686   8.106   3.277
   28MON     O7 1226   2.647   8.181   3.189
   28MON     H2 1227   2.645   7.815   3.119
   28MON     H3 1228   2.410   7.938   3.270
   28MON     H6 1229   2.667   7.670   3.294
   28MON     H7 1230   2.497   7.712   3.328
   28MON     H8 1231   2.563   7.880   3.490
   28MON     H9 1232   2.745   7.774   3.642
   28MON    H12 1233   2.713   8.349   3.362
   28MON    H13 1234   2.825   8.304   3.491
   28MON    H14 1235   2.659   8.303   3.655
   28MON    H15 1236   2.615   8.440   3.555
   28MON    H16 1237   2.481   8.165   3.573
   28MON    H17 1238   2.414   8.320   3.617
   28MON    H18 1239   2.303   8.265   3.417
   28MON    H19 1240   2.447   8.200   3.341
   28MON    H20 1241   2.398   8.329   3.157
   28MON    H21 1242   2.516   8.608   3.202
   28MON    H22 1243   2.619   8.355   3.154
   28MON    H23 1244   2.458   8.475   2.931
   28MON    H24 1245   2.499   8.710   2.846
   28MON    H25 1246   2.558   8.754   3.007
   28MON    H26 1247   2.702   8.559   2.979
   28MON    H27 1248   2.225   8.434   2.997
   28MON    H28 1249   2.053   8.541   3.129
   28MON    H29 1250   2.266   8.587   3.259
   28MON    H30 1251   2.184   8.390   3.351
   29MON      O 1252   2.473   7.133   3.796
   29MON      C 1253   2.501   7.251   3.789
   29MON     C1 1254   2.637   7.315   3.816
   29MON      H 1255   2.664   7.300   3.921
   29MON     C2 1256   2.619   7.466   3.785
   29MON     C3 1257   2.725   7.505   3.678
   29MON     C4 1258   2.673   7.592   3.565
   29MON     C6 1259   2.790   7.374   3.627
   29MON     C7 1260   2.746   7.259   3.721
   29MON     C8 1261   2.861   7.191   3.795
   29MON     H1 1262   2.633   7.525   3.876
   29MON      N 1263   2.415   7.352   3.747
   29MON    C10 1264   2.271   7.329   3.724
   29MON    C11 1265   2.238   7.256   3.592
   29MON    C12 1266   2.316   7.299   3.465
   29MON    C13 1267   2.309   7.448   3.426
   29MON     O1 1268   2.174   7.494   3.440
   29MON    C14 1269   2.148   7.628   3.392
   29MON    C15 1270   2.172   7.734   3.503
   29MON     O2 1271   2.313   7.750   3.526
   29MON    C16 1272   2.112   7.871   3.463
   29MON    C17 1273   2.117   7.977   3.575
   29MON     O3 1274   2.251   8.023   3.592
   29MON     O4 1275   1.974   7.855   3.424
   29MON    C18 1276   1.953   7.769   3.311
   29MON     O5 1277   1.816   7.764   3.281
   29MON    C19 1278   2.000   7.628   3.349
   29MON     O6 1279   1.984   7.540   3.237
   29MON    C20 1280   2.472   7.479   3.743
   29MON     O7 1281   2.414   7.583   3.716
   29MON     H2 1282   2.803   7.562   3.730
   29MON     H3 1283   2.619   7.540   3.487
   29MON     H6 1284   2.899   7.384   3.622
   29MON     H7 1285   2.755   7.352   3.525
   29MON     H8 1286   2.700   7.182   3.658
   29MON     H9 1287   2.870   7.085   3.771
   29MON    H12 1288   2.220   7.426   3.724
   29MON    H13 1289   2.231   7.272   3.809
   29MON    H14 1290   2.257   7.149   3.607
   29MON    H15 1291   2.130   7.265   3.573
   29MON    H16 1292   2.422   7.271   3.476
   29MON    H17 1293   2.278   7.240   3.381
   29MON    H18 1294   2.343   7.459   3.322
   29MON    H19 1295   2.378   7.506   3.488
   29MON    H20 1296   2.210   7.652   3.304
   29MON    H21 1297   2.122   7.700   3.595
   29MON    H22 1298   2.342   7.683   3.592
   29MON    H23 1299   2.169   7.911   3.378
   29MON    H24 1300   2.051   8.061   3.549
   29MON    H25 1301   2.078   7.933   3.669
   29MON    H26 1302   2.306   7.943   3.600
   29MON    H27 1303   2.009   7.806   3.225
   29MON    H28 1304   1.807   7.679   3.235
   29MON    H29 1305   1.939   7.594   3.434
   29MON    H30 1306   2.022   7.454   3.264
   30MON      O 1307   3.241   7.216   4.230
   30MON      C 1308   3.137   7.267   4.192
   30MON     C1 1309   3.124   7.397   4.113
   30MON      H 1310   3.153   7.480   4.177
   30MON     C2 1311   2.973   7.407   4.082
   30MON     C3 1312   2.958   7.388   3.930
   30MON     C4 1313   2.948   7.244   3.883
   30MON     C6 1314   3.088   7.449   3.877
   30MON     C7 1315   3.198   7.405   3.977
   30MON     C8 1316   3.326   7.490   3.986
   30MON     H1 1317   2.934   7.505   4.113
   30MON      N 1318   3.008   7.219   4.217
   30MON    C10 1319   2.979   7.111   4.315
   30MON    C11 1320   2.992   6.966   4.263
   30MON    C12 1321   2.959   6.937   4.114
   30MON    C13 1322   2.817   6.973   4.062
   30MON     O1 1323   2.717   6.917   4.148
   30MON    C14 1324   2.583   6.922   4.094
   30MON    C15 1325   2.501   7.038   4.155
   30MON     O2 1326   2.553   7.164   4.111
   30MON    C16 1327   2.352   7.027   4.111
   30MON    C17 1328   2.260   7.134   4.174
   30MON     O3 1329   2.288   7.261   4.116
   30MON     O4 1330   2.302   6.897   4.150
   30MON    C18 1331   2.369   6.787   4.086
   30MON     O5 1332   2.311   6.665   4.130
   30MON    C19 1333   2.517   6.787   4.129
   30MON     O6 1334   2.587   6.681   4.064
   30MON    C20 1335   2.907   7.298   4.165
   30MON     O7 1336   2.787   7.284   4.182
   30MON     H2 1337   2.872   7.446   3.897
   30MON     H3 1338   3.025   7.178   3.924
   30MON     H6 1339   3.074   7.557   3.879
   30MON     H7 1340   3.110   7.418   3.774
   30MON     H8 1341   3.229   7.303   3.950
   30MON     H9 1342   3.395   7.449   4.060
   30MON    H12 1343   2.876   7.125   4.350
   30MON    H13 1344   3.044   7.123   4.402
   30MON    H14 1345   3.096   6.935   4.279
   30MON    H15 1346   2.932   6.900   4.327
   30MON    H16 1347   3.033   6.987   4.051
   30MON    H17 1348   2.974   6.829   4.097
   30MON    H18 1349   2.807   6.932   3.961
   30MON    H19 1350   2.806   7.081   4.055
   30MON    H20 1351   2.584   6.932   3.984
   30MON    H21 1352   2.506   7.031   4.265
   30MON    H22 1353   2.640   7.181   4.154
   30MON    H23 1354   2.346   7.036   4.002
   30MON    H24 1355   2.156   7.106   4.156
   30MON    H25 1356   2.276   7.136   4.283
   30MON    H26 1357   2.386   7.266   4.110
   30MON    H27 1358   2.360   6.796   3.977
   30MON    H28 1359   2.382   6.601   4.109
   30MON    H29 1360   2.519   6.774   4.239
   30MON    H30 1361   2.682   6.697   4.083
   31MON      O 1362   3.352   8.102   3.999
   31MON      C 1363   3.298   7.996   3.976
   31MON     C1 1364   3.285   7.929   3.840
   31MON      H 1365   3.226   7.993   3.775
   31MON     C2 1366   3.206   7.797   3.865
   31MON     C3 1367   3.295   7.681   3.812
   31MON     C4 1368   3.366   7.602   3.921
   31MON     C6 1369   3.393   7.751   3.716
   31MON     C7 1370   3.419   7.892   3.772
   31MON     C8 1371   3.463   8.005   3.678
   31MON     H1 1372   3.111   7.801   3.811
   31MON      N 1373   3.237   7.913   4.069
   31MON    C10 1374   3.222   7.951   4.211
   31MON    C11 1375   3.352   7.943   4.295
   31MON    C12 1376   3.450   7.827   4.262
   31MON    C13 1377   3.395   7.684   4.277
   31MON     O1 1378   3.348   7.664   4.411
   31MON    C14 1379   3.315   7.527   4.441
   31MON    C15 1380   3.173   7.522   4.502
   31MON     O2 1381   3.077   7.565   4.405
   31MON    C16 1382   3.143   7.378   4.551
   31MON    C17 1383   3.006   7.363   4.620
   31MON     O3 1384   2.901   7.367   4.523
   31MON     O4 1385   3.245   7.338   4.645
   31MON    C18 1386   3.377   7.332   4.589
   31MON     O5 1387   3.468   7.291   4.690
   31MON    C19 1388   3.418   7.473   4.543
   31MON     O6 1389   3.548   7.470   4.483
   31MON    C20 1390   3.177   7.799   4.016
   31MON     O7 1391   3.109   7.718   4.078
   31MON     H2 1392   3.236   7.614   3.749
   31MON     H3 1393   3.463   7.643   3.948
   31MON     H6 1394   3.341   7.757   3.620
   31MON     H7 1395   3.485   7.693   3.702
   31MON     H8 1396   3.494   7.883   3.852
   31MON     H9 1397   3.479   8.098   3.732
   31MON    H12 1398   3.147   7.885   4.257
   31MON    H13 1399   3.182   8.053   4.216
   31MON    H14 1400   3.407   8.037   4.281
   31MON    H15 1401   3.325   7.939   4.402
   31MON    H16 1402   3.488   7.840   4.160
   31MON    H17 1403   3.538   7.837   4.328
   31MON    H18 1404   3.476   7.613   4.254
   31MON    H19 1405   3.314   7.667   4.205
   31MON    H20 1406   3.317   7.463   4.352
   31MON    H21 1407   3.170   7.589   4.590
   31MON    H22 1408   3.110   7.649   4.369
   31MON    H23 1409   3.145   7.309   4.465
   31MON    H24 1410   3.003   7.266   4.673
   31MON    H25 1411   2.993   7.442   4.695
   31MON    H26 1412   2.916   7.448   4.470
   31MON    H27 1413   3.380   7.261   4.505
   31MON    H28 1414   3.554   7.318   4.652
   31MON    H29 1415   3.417   7.538   4.631
   31MON    H30 1416   3.566   7.561   4.453
   32MON      O 1417   3.249   8.149   3.142
   32MON      C 1418   3.261   8.068   3.232
   32MON     C1 1419   3.350   7.944   3.231
   32MON      H 1420   3.311   7.874   3.156
   32MON     C2 1421   3.337   7.884   3.373
   32MON     C3 1422   3.476   7.897   3.442
   32MON     C4 1423   3.484   8.009   3.544
   32MON     C6 1424   3.577   7.919   3.326
   32MON     C7 1425   3.499   7.976   3.206
   32MON     C8 1426   3.548   7.921   3.073
   32MON     H1 1427   3.308   7.778   3.366
   32MON      N 1428   3.194   8.070   3.354
   32MON    C10 1429   3.082   8.164   3.380
   32MON    C11 1430   3.126   8.308   3.419
   32MON    C12 1431   3.232   8.317   3.532
   32MON    C13 1432   3.192   8.251   3.665
   32MON     O1 1433   3.086   8.326   3.727
   32MON    C14 1434   3.059   8.287   3.864
   32MON    C15 1435   2.943   8.184   3.871
   32MON     O2 1436   2.982   8.060   3.812
   32MON    C16 1437   2.901   8.160   4.019
   32MON    C17 1438   2.778   8.068   4.034
   32MON     O3 1439   2.812   7.934   3.998
   32MON     O4 1440   2.868   8.287   4.079
   32MON    C18 1441   2.976   8.382   4.083
   32MON     O5 1442   2.931   8.501   4.144
   32MON    C19 1443   3.019   8.415   3.939
   32MON     O6 1444   3.129   8.506   3.941
   32MON    C20 1445   3.221   7.961   3.436
   32MON     O7 1446   3.157   7.928   3.534
   32MON     H2 1447   3.505   7.803   3.490
   32MON     H3 1448   3.514   8.105   3.502
   32MON     H6 1449   3.620   7.821   3.300
   32MON     H7 1450   3.660   7.984   3.355
   32MON     H8 1451   3.513   8.085   3.207
   32MON     H9 1452   3.572   7.998   2.999
   32MON    H12 1453   3.021   8.124   3.461
   32MON    H13 1454   3.019   8.169   3.291
   32MON    H14 1455   3.168   8.356   3.330
   32MON    H15 1456   3.038   8.366   3.448
   32MON    H16 1457   3.325   8.271   3.497
   32MON    H17 1458   3.255   8.423   3.550
   32MON    H18 1459   3.280   8.249   3.730
   32MON    H19 1460   3.160   8.148   3.646
   32MON    H20 1461   3.148   8.246   3.912
   32MON    H21 1462   2.856   8.225   3.818
   32MON    H22 1463   2.939   8.056   3.723
   32MON    H23 1464   2.985   8.115   4.074
   32MON    H24 1465   2.743   8.072   4.138
   32MON    H25 1466   2.696   8.106   3.971
   32MON    H26 1467   2.872   7.941   3.921
   32MON    H27 1468   3.061   8.341   4.140
   32MON    H28 1469   2.997   8.566   4.113
   32MON    H29 1470   2.932   8.461   3.888
   32MON    H30 1471   3.166   8.505   3.851
   33MON      O 1472   3.854   7.335   2.958
   33MON      C 1473   3.824   7.453   2.966
   33MON     C1 1474   3.737   7.531   2.868
   33MON      H 1475   3.774   7.517   2.766
   33MON     C2 1476   3.750   7.679   2.910
   33MON     C3 1477   3.607   7.740   2.907
   33MON     C4 1478   3.560   7.791   3.042
   33MON     C6 1479   3.515   7.629   2.852
   33MON     C7 1480   3.587   7.495   2.878
   33MON     C8 1481   3.553   7.381   2.784
   33MON     H1 1482   3.816   7.731   2.839
   33MON      N 1483   3.867   7.542   3.064
   33MON    C10 1484   3.987   7.512   3.146
   33MON    C11 1485   3.966   7.414   3.264
   33MON    C12 1486   3.837   7.431   3.348
   33MON    C13 1487   3.802   7.574   3.391
   33MON     O1 1488   3.919   7.642   3.438
   33MON    C14 1489   3.903   7.784   3.458
   33MON    C15 1490   4.036   7.855   3.423
   33MON     O2 1491   4.062   7.843   3.282
   33MON    C16 1492   4.033   8.005   3.463
   33MON    C17 1493   4.170   8.075   3.450
   33MON     O3 1494   4.206   8.087   3.312
   33MON     O4 1495   3.993   8.017   3.602
   33MON    C18 1496   3.864   7.963   3.632
   33MON     O5 1497   3.835   7.983   3.769
   33MON    C19 1498   3.867   7.812   3.606
   33MON     O6 1499   3.739   7.755   3.640
   33MON    C20 1500   3.824   7.674   3.045
   33MON     O7 1501   3.850   7.769   3.117
   33MON     H2 1502   3.607   7.824   2.836
   33MON     H3 1503   3.537   7.714   3.115
   33MON     H6 1504   3.504   7.643   2.743
   33MON     H7 1505   3.415   7.631   2.896
   33MON     H8 1506   3.566   7.463   2.982
   33MON     H9 1507   3.627   7.300   2.782
   33MON    H12 1508   4.026   7.606   3.187
   33MON    H13 1509   4.065   7.472   3.080
   33MON    H14 1510   3.967   7.312   3.224
   33MON    H15 1511   4.054   7.421   3.330
   33MON    H16 1512   3.753   7.389   3.291
   33MON    H17 1513   3.847   7.368   3.438
   33MON    H18 1514   3.725   7.569   3.469
   33MON    H19 1515   3.758   7.627   3.306
   33MON    H20 1516   3.825   7.825   3.393
   33MON    H21 1517   4.117   7.806   3.479
   33MON    H22 1518   3.978   7.818   3.236
   33MON    H23 1519   3.961   8.059   3.400
   33MON    H24 1520   4.165   8.174   3.496
   33MON    H25 1521   4.246   8.017   3.505
   33MON    H26 1522   4.184   8.001   3.270
   33MON    H27 1523   3.787   8.012   3.570
   33MON    H28 1524   3.768   7.914   3.785
   33MON    H29 1525   3.946   7.769   3.670
   33MON    H30 1526   3.746   7.660   3.620
   34MON      O 1527   2.976   7.187   2.589
   34MON      C 1528   3.090   7.171   2.630
   34MON     C1 1529   3.214   7.147   2.544
   34MON      H 1530   3.205   7.049   2.496
   34MON     C2 1531   3.333   7.147   2.643
   34MON     C3 1532   3.430   7.260   2.600
   34MON     C4 1533   3.447   7.372   2.701
   34MON     C6 1534   3.380   7.314   2.464
   34MON     C7 1535   3.238   7.258   2.440
   34MON     C8 1536   3.211   7.212   2.297
   34MON     H1 1537   3.383   7.050   2.639
   34MON      N 1538   3.130   7.172   2.762
   34MON    C10 1539   3.034   7.150   2.872
   34MON    C11 1540   2.947   7.272   2.911
   34MON    C12 1541   3.011   7.413   2.899
   34MON    C13 1542   3.150   7.432   2.964
   34MON     O1 1543   3.150   7.370   3.095
   34MON    C14 1544   3.281   7.350   3.153
   34MON    C15 1545   3.279   7.221   3.238
   34MON     O2 1546   3.265   7.106   3.153
   34MON    C16 1547   3.409   7.206   3.324
   34MON    C17 1548   3.399   7.093   3.429
   34MON     O3 1549   3.398   6.966   3.365
   34MON     O4 1550   3.434   7.329   3.396
   34MON    C18 1551   3.449   7.445   3.313
   34MON     O5 1552   3.476   7.558   3.393
   34MON    C19 1553   3.314   7.470   3.244
   34MON     O6 1554   3.318   7.592   3.171
   34MON    C20 1555   3.268   7.160   2.781
   34MON     O7 1556   3.326   7.155   2.888
   34MON     H2 1557   3.528   7.214   2.584
   34MON     H3 1558   3.370   7.450   2.699
   34MON     H6 1559   3.449   7.284   2.384
   34MON     H7 1560   3.379   7.424   2.462
   34MON     H8 1561   3.168   7.340   2.462
   34MON     H9 1562   3.126   7.262   2.251
   34MON    H12 1563   3.090   7.119   2.961
   34MON    H13 1564   2.969   7.067   2.846
   34MON    H14 1565   2.858   7.271   2.847
   34MON    H15 1566   2.911   7.257   3.014
   34MON    H16 1567   3.019   7.439   2.793
   34MON    H17 1568   2.942   7.486   2.943
   34MON    H18 1569   3.172   7.539   2.970
   34MON    H19 1570   3.226   7.386   2.900
   34MON    H20 1571   3.358   7.340   3.075
   34MON    H21 1572   3.194   7.226   3.307
   34MON    H22 1573   3.293   7.129   3.062
   34MON    H23 1574   3.494   7.185   3.258
   34MON    H24 1575   3.485   7.100   3.497
   34MON    H25 1576   3.308   7.107   3.489
   34MON    H26 1577   3.339   6.973   3.287
   34MON    H27 1578   3.529   7.430   3.239
   34MON    H28 1579   3.439   7.628   3.335
   34MON    H29 1580   3.237   7.475   3.323
   34MON    H30 1581   3.236   7.592   3.118
   35MON      O 1582   3.256   6.794   1.930
   35MON      C 1583   3.279   6.814   2.048
   35MON     C1 1584   3.415   6.846   2.111
   35MON      H 1585   3.475   6.755   2.111
   35MON     C2 1586   3.380   6.885   2.256
   35MON     C3 1587   3.400   7.038   2.266
   35MON     C4 1588   3.277   7.119   2.225
   35MON     C6 1589   3.512   7.065   2.164
   35MON     C7 1590   3.490   6.967   2.047
   35MON     C8 1591   3.617   6.921   1.974
   35MON     H1 1592   3.447   6.833   2.326
   35MON      N 1593   3.186   6.807   2.152
   35MON    C10 1594   3.052   6.745   2.135
   35MON    C11 1595   2.943   6.837   2.076
   35MON    C12 1596   2.933   6.981   2.132
   35MON    C13 1597   2.918   6.998   2.285
   35MON     O1 1598   2.825   6.901   2.334
   35MON    C14 1599   2.782   6.923   2.470
   35MON    C15 1600   2.859   6.832   2.569
   35MON     O2 1601   2.996   6.872   2.578
   35MON    C16 1602   2.794   6.840   2.710
   35MON    C17 1603   2.857   6.744   2.814
   35MON     O3 1604   2.988   6.790   2.849
   35MON     O4 1605   2.654   6.806   2.700
   35MON    C18 1606   2.578   6.896   2.618
   35MON     O5 1607   2.443   6.854   2.616
   35MON    C19 1608   2.631   6.889   2.474
   35MON     O6 1609   2.560   6.980   2.391
   35MON    C20 1610   3.237   6.836   2.277
   35MON     O7 1611   3.181   6.820   2.384
   35MON     H2 1612   3.432   7.063   2.368
   35MON     H3 1613   3.243   7.100   2.124
   35MON     H6 1614   3.609   7.046   2.212
   35MON     H7 1615   3.511   7.170   2.133
   35MON     H8 1616   3.423   7.013   1.973
   35MON     H9 1617   3.622   6.813   1.957
   35MON    H12 1618   3.018   6.709   2.233
   35MON    H13 1619   3.063   6.656   2.070
   35MON    H14 1620   2.961   6.845   1.968
   35MON    H15 1621   2.846   6.787   2.087
   35MON    H16 1622   3.020   7.039   2.099
   35MON    H17 1623   2.847   7.029   2.084
   35MON    H18 1624   2.883   7.100   2.305
   35MON    H19 1625   3.015   6.988   2.334
   35MON    H20 1626   2.794   7.028   2.501
   35MON    H21 1627   2.852   6.728   2.534
   35MON    H22 1628   3.042   6.849   2.494
   35MON    H23 1629   2.804   6.942   2.748
   35MON    H24 1630   2.793   6.740   2.903
   35MON    H25 1631   2.861   6.642   2.772
   35MON    H26 1632   3.031   6.814   2.764
   35MON    H27 1633   2.585   6.998   2.657
   35MON    H28 1634   2.409   6.896   2.535
   35MON    H29 1635   2.618   6.785   2.439
   35MON    H30 1636   2.610   6.984   2.307
   36MNL      O 1637   4.197   7.101   1.900
   36MNL      C 1638   4.088   7.115   1.954
   36MNL     C1 1639   3.978   7.213   1.914
   36MNL      H 1640   4.016   7.316   1.925
   36MNL     C2 1641   3.862   7.187   2.014
   36MNL     C3 1642   3.739   7.145   1.930
   36MNL     C4 1643   3.720   6.994   1.926
   36MNL     C6 1644   3.769   7.199   1.789
   36MNL     C7 1645   3.923   7.188   1.772
   36MNL     C8 1646   3.986   7.279   1.669
   36MNL     H1 1647   3.841   7.279   2.070
   36MNL      N 1648   4.043   7.043   2.065
   36MNL    C10 1649   4.131   6.953   2.142
   36MNL    C11 1650   4.159   6.815   2.075
   36MNL    C12 1651   4.038   6.741   2.012
   36MNL    C13 1652   3.915   6.718   2.103
   36MNL     O1 1653   3.960   6.672   2.231
   36MNL    C14 1654   3.856   6.633   2.325
   36MNL    C15 1655   3.801   6.757   2.400
   36MNL     O2 1656   3.718   6.833   2.312
   36MNL    C16 1657   3.716   6.716   2.525
   36MNL    C17 1658   3.679   6.835   2.616
   36MNL     O3 1659   3.603   6.932   2.544
   36MNL     O4 1660   3.792   6.624   2.605
   36MNL    C18 1661   3.828   6.501   2.540
   36MNL     O5 1662   3.898   6.419   2.631
   36MNL    C19 1663   3.922   6.534   2.423
   36MNL     O6 1664   3.957   6.415   2.353
   36MNL    C20 1665   3.917   7.081   2.110
   36MNL     O7 1666   3.862   7.041   2.211
   36MNL     H2 1667   3.649   7.194   1.967
   36MNL     H3 1668   3.800   6.940   1.875
   36MNL     H6 1669   3.739   7.305   1.786
   36MNL     H7 1670   3.715   7.146   1.710
   36MNL     H8 1671   3.946   7.084   1.744
   36MNL     H9 1672   4.095   7.275   1.666
   36MNL    H12 1673   4.085   6.934   2.240
   36MNL    H13 1674   4.226   7.004   2.160
   36MNL    H14 1675   4.233   6.831   1.996
   36MNL    H15 1676   4.206   6.750   2.149
   36MNL    H16 1677   4.005   6.796   1.923
   36MNL    H17 1678   4.073   6.644   1.976
   36MNL    H18 1679   3.849   6.644   2.055
   36MNL    H19 1680   3.860   6.812   2.111
   36MNL    H20 1681   3.774   6.581   2.273
   36MNL    H21 1682   3.886   6.817   2.436
   36MNL    H22 1683   3.777   6.897   2.266
   36MNL    H23 1684   3.623   6.667   2.492
   36MNL    H24 1685   3.622   6.798   2.702
   36MNL    H25 1686   3.772   6.880   2.655
   36MNL    H26 1687   3.636   6.927   2.451
   36MNL    H27 1688   3.738   6.449   2.504
   36MNL    H28 1689   3.945   6.357   2.571
   36MNL    H29 1690   4.012   6.582   2.466
   36MNL    H30 1691   4.008   6.443   2.274
   37CPT     CC 1692   3.921   7.362   1.584
   37CPT    HC1 1693   3.813   7.370   1.581
   37CPT    HC2 1694   3.977   7.423   1.514
   38CPH     CC 1695   9.108   3.629   2.387
   38CPH    HC1 1696   9.162   3.678   2.468
   38CPH    HC2 1697   9.090   3.688   2.297
   39MNF      O 1698   9.234   3.031   2.303
   39MNF      C 1699   9.203   3.144   2.270
   39MNF     C1 1700   9.062   3.195   2.244
   39MNF      H 1701   9.016   3.135   2.165
   39MNF     C2 1702   9.079   3.341   2.195
   39MNF     C3 1703   8.990   3.429   2.287
   39MNF     C4 1704   9.067   3.502   2.396
   39MNF     C6 1705   8.890   3.329   2.348
   39MNF     C7 1706   8.972   3.199   2.369
   39MNF     C8 1707   8.900   3.066   2.390
   39MNF     H1 1708   9.047   3.349   2.091
   39MNF      N 1709   9.291   3.249   2.246
   39MNF    C10 1710   9.437   3.230   2.244
   39MNF    C11 1711   9.507   3.217   2.382
   39MNF    C12 1712   9.444   3.291   2.503
   39MNF    C13 1713   9.415   3.441   2.486
   39MNF     O1 1714   9.527   3.506   2.424
   39MNF    C14 1715   9.500   3.637   2.369
   39MNF    C15 1716   9.590   3.654   2.244
   39MNF     O2 1717   9.546   3.566   2.140
   39MNF    C16 1718   9.589   3.802   2.193
   39MNF    C17 1719   9.695   3.828   2.083
   39MNF     O3 1720   9.661   3.758   1.964
   39MNF     O4 1721   9.620   3.890   2.303
   39MNF    C18 1722   9.527   3.885   2.412
   39MNF     O5 1723   9.566   3.979   2.510
   39MNF    C19 1724   9.534   3.745   2.475
   39MNF     O6 1725   9.442   3.739   2.586
   39MNF    C20 1726   9.230   3.367   2.202
   39MNF     O7 1727   9.288   3.469   2.169
   39MNF     H2 1728   8.936   3.503   2.226
   39MNF     H3 1729   9.086   3.446   2.488
   39MNF     H6 1730   8.811   3.312   2.275
   39MNF     H7 1731   8.846   3.366   2.441
   39MNF     H8 1732   9.037   3.215   2.456
   39MNF     H9 1733   8.971   2.983   2.399
   39MNF    H12 1734   9.482   3.316   2.192
   39MNF    H13 1735   9.460   3.141   2.183
   39MNF    H14 1736   9.510   3.110   2.407
   39MNF    H15 1737   9.612   3.248   2.371
   39MNF    H16 1738   9.351   3.240   2.530
   39MNF    H17 1739   9.511   3.279   2.589
   39MNF    H18 1740   9.392   3.485   2.583
   39MNF    H19 1741   9.326   3.453   2.423
   39MNF    H20 1742   9.395   3.647   2.339
   39MNF    H21 1743   9.693   3.630   2.273
   39MNF    H22 1744   9.452   3.542   2.157
   39MNF    H23 1745   9.490   3.826   2.153
   39MNF    H24 1746   9.700   3.936   2.064
   39MNF    H25 1747   9.794   3.797   2.120
   39MNF    H26 1748   9.629   3.670   1.991
   39MNF    H27 1749   9.425   3.907   2.376
   39MNF    H28 1750   9.520   3.945   2.590
   39MNF    H29 1751   9.637   3.729   2.509
   39MNF    H30 1752   9.453   3.650   2.624
   40MON      O 1753   8.400   2.833   2.122
   40MON      C 1754   8.476   2.924   2.151
   40MON     C1 1755   8.455   3.029   2.259
   40MON      H 1756   8.362   3.085   2.239
   40MON     C2 1757   8.578   3.123   2.250
   40MON     C3 1758   8.646   3.123   2.390
   40MON     C4 1759   8.769   3.034   2.397
   40MON     C6 1760   8.537   3.069   2.485
   40MON     C7 1761   8.455   2.969   2.401
   40MON     C8 1762   8.317   2.938   2.455
   40MON     H1 1763   8.547   3.224   2.222
   40MON      N 1764   8.599   2.950   2.091
   40MON    C10 1765   8.652   2.869   1.980
   40MON    C11 1766   8.718   2.735   2.023
   40MON    C12 1767   8.823   2.742   2.137
   40MON    C13 1768   8.944   2.835   2.115
   40MON     O1 1769   8.991   2.821   1.980
   40MON    C14 1770   9.107   2.900   1.948
   40MON    C15 1771   9.067   3.012   1.848
   40MON     O2 1772   8.991   3.113   1.915
   40MON    C16 1773   9.192   3.077   1.782
   40MON    C17 1774   9.157   3.173   1.666
   40MON     O3 1775   9.087   3.287   1.715
   40MON     O4 1776   9.277   2.974   1.727
   40MON    C18 1777   9.327   2.880   1.823
   40MON     O5 1778   9.411   2.787   1.758
   40MON    C19 1779   9.208   2.803   1.883
   40MON     O6 1780   9.255   2.710   1.981
   40MON    C20 1781   8.662   3.066   2.136
   40MON     O7 1782   8.762   3.116   2.087
   40MON     H2 1783   8.669   3.225   2.422
   40MON     H3 1784   8.745   2.928   2.412
   40MON     H6 1785   8.472   3.152   2.516
   40MON     H7 1786   8.579   3.023   2.575
   40MON     H8 1787   8.511   2.874   2.395
   40MON     H9 1788   8.250   2.889   2.384
   40MON    H12 1789   8.726   2.928   1.924
   40MON    H13 1790   8.570   2.847   1.910
   40MON    H14 1791   8.638   2.667   2.055
   40MON    H15 1792   8.763   2.688   1.935
   40MON    H16 1793   8.773   2.771   2.230
   40MON    H17 1794   8.861   2.640   2.154
   40MON    H18 1795   9.023   2.809   2.187
   40MON    H19 1796   8.914   2.938   2.135
   40MON    H20 1797   9.154   2.945   2.037
   40MON    H21 1798   9.007   2.966   1.768
   40MON    H22 1799   8.914   3.072   1.959
   40MON    H23 1800   9.248   3.133   1.858
   40MON    H24 1801   9.250   3.204   1.616
   40MON    H25 1802   9.096   3.119   1.592
   40MON    H26 1803   9.029   3.255   1.787
   40MON    H27 1804   9.383   2.933   1.902
   40MON    H28 1805   9.411   2.712   1.821
   40MON    H29 1806   9.158   2.751   1.800
   40MON    H30 1807   9.176   2.675   2.026
   41MON      O 1808   8.164   2.831   3.101
   41MON      C 1809   8.179   2.822   2.980
   41MON     C1 1810   8.088   2.879   2.873
   41MON      H 1811   7.983   2.855   2.894
   41MON     C2 1812   8.135   2.815   2.740
   41MON     C3 1813   8.136   2.928   2.633
   41MON     C4 1814   8.275   2.962   2.581
   41MON     C6 1815   8.075   3.051   2.703
   41MON     C7 1816   8.108   3.031   2.852
   41MON     C8 1817   8.034   3.117   2.952
   41MON     H1 1818   8.067   2.734   2.711
   41MON      N 1819   8.285   2.761   2.915
   41MON    C10 1820   8.398   2.698   2.987
   41MON    C11 1821   8.494   2.798   3.056
   41MON    C12 1822   8.530   2.927   2.978
   41MON    C13 1823   8.593   2.907   2.838
   41MON     O1 1824   8.701   2.814   2.848
   41MON    C14 1825   8.780   2.796   2.728
   41MON    C15 1826   8.723   2.680   2.642
   41MON     O2 1827   8.602   2.721   2.578
   41MON    C16 1828   8.825   2.637   2.533
   41MON    C17 1829   8.783   2.511   2.455
   41MON     O3 1830   8.674   2.541   2.367
   41MON     O4 1831   8.952   2.609   2.594
   41MON    C18 1832   9.013   2.721   2.660
   41MON     O5 1833   9.138   2.681   2.713
   41MON    C19 1834   8.923   2.763   2.777
   41MON     O6 1835   8.978   2.879   2.842
   41MON    C20 1836   8.271   2.752   2.776
   41MON     O7 1837   8.350   2.699   2.700
   41MON     H2 1838   8.072   2.899   2.548
   41MON     H3 1839   8.341   3.008   2.654
   41MON     H6 1840   7.967   3.051   2.687
   41MON     H7 1841   8.116   3.146   2.665
   41MON     H8 1842   8.215   3.052   2.864
   41MON     H9 1843   8.078   3.117   3.051
   41MON    H12 1844   8.456   2.638   2.917
   41MON    H13 1845   8.357   2.630   3.063
   41MON    H14 1846   8.449   2.829   3.151
   41MON    H15 1847   8.586   2.745   3.083
   41MON    H16 1848   8.441   2.989   2.967
   41MON    H17 1849   8.600   2.985   3.038
   41MON    H18 1850   8.629   3.004   2.802
   41MON    H19 1851   8.517   2.872   2.768
   41MON    H20 1852   8.784   2.888   2.669
   41MON    H21 1853   8.705   2.593   2.708
   41MON    H22 1854   8.526   2.709   2.640
   41MON    H23 1855   8.838   2.719   2.461
   41MON    H24 1856   8.868   2.474   2.397
   41MON    H25 1857   8.754   2.432   2.526
   41MON    H26 1858   8.610   2.594   2.418
   41MON    H27 1859   9.027   2.804   2.589
   41MON    H28 1860   9.156   2.751   2.779
   41MON    H29 1861   8.917   2.678   2.847
   41MON    H30 1862   8.912   2.906   2.909
   42MON      O 1863   7.496   3.403   2.785
   42MON      C 1864   7.608   3.411   2.833
   42MON     C1 1865   7.646   3.382   2.978
   42MON      H 1866   7.592   3.450   3.044
   42MON     C2 1867   7.798   3.412   2.986
   42MON     C3 1868   7.865   3.283   3.037
   42MON     C4 1869   7.926   3.194   2.929
   42MON     C6 1870   7.751   3.208   3.108
   42MON     C7 1871   7.625   3.236   3.024
   42MON     C8 1872   7.487   3.219   3.090
   42MON     H1 1873   7.815   3.495   3.056
   42MON      N 1874   7.722   3.455   2.767
   42MON    C10 1875   7.713   3.531   2.640
   42MON    C11 1876   7.696   3.447   2.511
   42MON    C12 1877   7.777   3.315   2.499
   42MON    C13 1878   7.928   3.323   2.530
   42MON     O1 1879   7.984   3.443   2.475
   42MON    C14 1880   8.116   3.477   2.526
   42MON    C15 1881   8.128   3.632   2.531
   42MON     O2 1882   8.040   3.685   2.631
   42MON    C16 1883   8.274   3.678   2.560
   42MON    C17 1884   8.294   3.830   2.542
   42MON     O3 1885   8.229   3.901   2.647
   42MON     O4 1886   8.365   3.611   2.470
   42MON    C18 1887   8.362   3.468   2.479
   42MON     O5 1888   8.456   3.412   2.390
   42MON    C19 1889   8.224   3.421   2.431
   42MON     O6 1890   8.222   3.278   2.424
   42MON    C20 1891   7.837   3.458   2.846
   42MON     O7 1892   7.948   3.495   2.811
   42MON     H2 1893   7.943   3.309   3.110
   42MON     H3 1894   7.878   3.197   2.832
   42MON     H6 1895   7.742   3.253   3.207
   42MON     H7 1896   7.772   3.101   3.118
   42MON     H8 1897   7.629   3.172   2.936
   42MON     H9 1898   7.407   3.248   3.022
   42MON    H12 1899   7.804   3.591   2.629
   42MON    H13 1900   7.629   3.602   2.647
   42MON    H14 1901   7.590   3.421   2.501
   42MON    H15 1902   7.719   3.511   2.425
   42MON    H16 1903   7.732   3.240   2.565
   42MON    H17 1904   7.765   3.277   2.397
   42MON    H18 1905   7.977   3.233   2.490
   42MON    H19 1906   7.941   3.321   2.639
   42MON    H20 1907   8.131   3.437   2.627
   42MON    H21 1908   8.099   3.671   2.433
   42MON    H22 1909   8.017   3.614   2.696
   42MON    H23 1910   8.300   3.652   2.664
   42MON    H24 1911   8.402   3.852   2.543
   42MON    H25 1912   8.255   3.860   2.444
   42MON    H26 1913   8.140   3.860   2.658
   42MON    H27 1914   8.382   3.435   2.581
   42MON    H28 1915   8.409   3.329   2.368
   42MON    H29 1916   8.207   3.464   2.331
   42MON    H30 1917   8.131   3.254   2.396
   43MON      O 1918   7.306   3.359   3.661
   43MON      C 1919   7.390   3.339   3.575
   43MON     C1 1920   7.471   3.211   3.556
   43MON      H 1921   7.530   3.193   3.646
   43MON     C2 1922   7.565   3.240   3.436
   43MON     C3 1923   7.537   3.131   3.329
   43MON     C4 1924   7.450   3.179   3.213
   43MON     C6 1925   7.469   3.019   3.409
   43MON     C7 1926   7.387   3.086   3.521
   43MON     C8 1927   7.353   3.004   3.645
   43MON     H1 1928   7.670   3.235   3.469
   43MON      N 1929   7.431   3.429   3.478
   43MON    C10 1930   7.388   3.571   3.479
   43MON    C11 1931   7.242   3.595   3.432
   43MON    C12 1932   7.190   3.508   3.315
   43MON    C13 1933   7.273   3.510   3.184
   43MON     O1 1934   7.300   3.646   3.147
   43MON    C14 1935   7.366   3.659   3.020
   43MON    C15 1936   7.490   3.750   3.036
   43MON     O2 1937   7.586   3.688   3.122
   43MON    C16 1938   7.553   3.777   2.897
   43MON    C17 1939   7.674   3.873   2.900
   43MON     O3 1940   7.787   3.806   2.956
   43MON     O4 1941   7.453   3.833   2.809
   43MON    C18 1942   7.341   3.747   2.785
   43MON     O5 1943   7.250   3.811   2.698
   43MON    C19 1944   7.268   3.722   2.919
   43MON     O6 1945   7.156   3.636   2.899
   43MON    C20 1946   7.533   3.384   3.394
   43MON     O7 1947   7.588   3.449   3.307
   43MON     H2 1948   7.630   3.088   3.293
   43MON     H3 1949   7.344   3.178   3.236
   43MON     H6 1950   7.551   2.961   3.452
   43MON     H7 1951   7.408   2.952   3.346
   43MON     H8 1952   7.293   3.121   3.476
   43MON     H9 1953   7.297   3.063   3.718
   43MON    H12 1954   7.455   3.629   3.414
   43MON    H13 1955   7.399   3.611   3.580
   43MON    H14 1956   7.176   3.578   3.517
   43MON    H15 1957   7.231   3.701   3.406
   43MON    H16 1958   7.182   3.404   3.349
   43MON    H17 1959   7.088   3.540   3.291
   43MON    H18 1960   7.216   3.459   3.106
   43MON    H19 1961   7.366   3.456   3.198
   43MON    H20 1962   7.399   3.561   2.981
   43MON    H21 1963   7.458   3.846   3.078
   43MON    H22 1964   7.539   3.646   3.197
   43MON    H23 1965   7.588   3.682   2.855
   43MON    H24 1966   7.697   3.905   2.797
   43MON    H25 1967   7.649   3.962   2.958
   43MON    H26 1968   7.758   3.770   3.042
   43MON    H27 1969   7.374   3.651   2.741
   43MON    H28 1970   7.167   3.763   2.716
   43MON    H29 1971   7.236   3.820   2.958
   43MON    H30 1972   7.119   3.618   2.988
   44MON      O 1973   7.697   2.625   3.955
   44MON      C 1974   7.680   2.691   3.854
   44MON     C1 1975   7.637   2.639   3.717
   44MON      H 1976   7.721   2.584   3.675
   44MON     C2 1977   7.609   2.765   3.632
   44MON     C3 1978   7.456   2.768   3.603
   44MON     C4 1979   7.382   2.876   3.681
   44MON     C6 1980   7.402   2.626   3.636
   44MON     C7 1981   7.508   2.553   3.720
   44MON     C8 1982   7.535   2.410   3.676
   44MON     H1 1983   7.665   2.760   3.538
   44MON      N 1984   7.696   2.828   3.842
   44MON    C10 1985   7.770   2.908   3.943
   44MON    C11 1986   7.691   2.937   4.074
   44MON    C12 1987   7.540   2.968   4.059
   44MON    C13 1988   7.503   3.085   3.966
   44MON     O1 1989   7.575   3.202   4.006
   44MON    C14 1990   7.534   3.321   3.936
   44MON    C15 1991   7.658   3.389   3.873
   44MON     O2 1992   7.716   3.303   3.774
   44MON    C16 1993   7.616   3.525   3.810
   44MON    C17 1994   7.734   3.605   3.751
   44MON     O3 1995   7.778   3.543   3.630
   44MON     O4 1996   7.553   3.606   3.911
   44MON    C18 1997   7.432   3.550   3.966
   44MON     O5 1998   7.380   3.638   4.063
   44MON    C19 1999   7.468   3.417   4.036
   44MON     O6 2000   7.349   3.357   4.090
   44MON    C20 2001   7.665   2.880   3.716
   44MON     O7 2002   7.684   2.994   3.679
   44MON     H2 2003   7.438   2.781   3.496
   44MON     H3 2004   7.347   2.843   3.779
   44MON     H6 2005   7.382   2.572   3.543
   44MON     H7 2006   7.306   2.631   3.689
   44MON     H8 2007   7.472   2.551   3.824
   44MON     H9 2008   7.518   2.337   3.756
   44MON    H12 2009   7.798   3.004   3.899
   44MON    H13 2010   7.863   2.855   3.968
   44MON    H14 2011   7.701   2.849   4.139
   44MON    H15 2012   7.741   3.019   4.127
   44MON    H16 2013   7.489   2.878   4.024
   44MON    H17 2014   7.500   2.989   4.159
   44MON    H18 2015   7.395   3.102   3.972
   44MON    H19 2016   7.527   3.060   3.862
   44MON    H20 2017   7.462   3.298   3.856
   44MON    H21 2018   7.731   3.410   3.953
   44MON    H22 2019   7.724   3.214   3.813
   44MON    H23 2020   7.544   3.506   3.729
   44MON    H24 2021   7.700   3.708   3.730
   44MON    H25 2022   7.815   3.611   3.824
   44MON    H26 2023   7.791   3.448   3.651
   44MON    H27 2024   7.358   3.533   3.886
   44MON    H28 2025   7.321   3.579   4.114
   44MON    H29 2026   7.540   3.441   4.116
   44MON    H30 2027   7.377   3.271   4.125
   45MON      O 2028   7.830   2.068   3.376
   45MON      C 2029   7.826   2.189   3.391
   45MON     C1 2030   7.755   2.289   3.299
   45MON      H 2031   7.814   2.302   3.208
   45MON     C2 2032   7.756   2.421   3.380
   45MON     C3 2033   7.610   2.441   3.429
   45MON     C4 2034   7.579   2.364   3.557
   45MON     C6 2035   7.528   2.381   3.313
   45MON     C7 2036   7.607   2.255   3.269
   45MON     C8 2037   7.588   2.213   3.125
   45MON     H1 2038   7.787   2.504   3.316
   45MON      N 2039   7.886   2.262   3.493
   45MON    C10 2040   7.993   2.205   3.579
   45MON    C11 2041   7.943   2.122   3.700
   45MON    C12 2042   7.829   2.184   3.785
   45MON    C13 2043   7.851   2.326   3.841
   45MON     O1 2044   7.986   2.339   3.887
   45MON    C14 2045   8.013   2.459   3.964
   45MON    C15 2046   8.074   2.571   3.875
   45MON     O2 2047   7.976   2.621   3.783
   45MON    C16 2048   8.126   2.687   3.964
   45MON    C17 2049   8.197   2.799   3.885
   45MON     O3 2050   8.101   2.874   3.810
   45MON     O4 2051   8.221   2.634   4.059
   45MON    C18 2052   8.165   2.539   4.151
   45MON     O5 2053   8.266   2.495   4.240
   45MON    C19 2054   8.115   2.417   4.072
   45MON     O6 2055   8.054   2.323   4.161
   45MON    C20 2056   7.860   2.398   3.489
   45MON     O7 2057   7.915   2.485   3.554
   45MON     H2 2058   7.589   2.548   3.440
   45MON     H3 2059   7.593   2.257   3.549
   45MON     H6 2060   7.524   2.453   3.231
   45MON     H7 2061   7.425   2.357   3.343
   45MON     H8 2062   7.579   2.171   3.334
   45MON     H9 2063   7.671   2.157   3.083
   45MON    H12 2064   8.055   2.287   3.616
   45MON    H13 2065   8.057   2.141   3.517
   45MON    H14 2066   7.909   2.025   3.663
   45MON    H15 2067   8.029   2.101   3.765
   45MON    H16 2068   7.736   2.183   3.727
   45MON    H17 2069   7.811   2.116   3.870
   45MON    H18 2070   7.780   2.343   3.924
   45MON    H19 2071   7.828   2.400   3.764
   45MON    H20 2072   7.923   2.496   4.014
   45MON    H21 2073   8.160   2.529   3.820
   45MON    H22 2074   7.964   2.554   3.712
   45MON    H23 2075   8.042   2.731   4.019
   45MON    H24 2076   8.249   2.865   3.956
   45MON    H25 2077   8.273   2.755   3.820
   45MON    H26 2078   8.043   2.807   3.767
   45MON    H27 2079   8.083   2.584   4.208
   45MON    H28 2080   8.229   2.411   4.273
   45MON    H29 2081   8.202   2.372   4.022
   45MON    H30 2082   8.009   2.257   4.104
   46MON      O 2083   7.045   2.029   2.902
   46MON      C 2084   7.166   2.029   2.912
   46MON     C1 2085   7.264   2.097   2.815
   46MON      H 2086   7.253   2.053   2.715
   46MON     C2 2087   7.404   2.064   2.873
   46MON     C3 2088   7.476   2.199   2.901
   46MON     C4 2089   7.482   2.239   3.047
   46MON     C6 2090   7.396   2.303   2.820
   46MON     C7 2091   7.251   2.250   2.812
   46MON     C8 2092   7.174   2.304   2.692
   46MON     H1 2093   7.462   2.005   2.801
   46MON      N 2094   7.240   1.966   3.011
   46MON    C10 2095   7.180   1.868   3.104
   46MON    C11 2096   7.103   1.930   3.224
   46MON    C12 2097   7.166   2.053   3.294
   46MON    C13 2098   7.314   2.041   3.336
   46MON     O1 2099   7.339   1.911   3.391
   46MON    C14 2100   7.478   1.885   3.422
   46MON    C15 2101   7.511   1.737   3.386
   46MON     O2 2102   7.501   1.717   3.244
   46MON    C16 2103   7.653   1.699   3.436
   46MON    C17 2104   7.685   1.548   3.420
   46MON     O3 2105   7.693   1.513   3.282
   46MON     O4 2106   7.664   1.729   3.577
   46MON    C18 2107   7.645   1.868   3.610
   46MON     O5 2108   7.659   1.884   3.750
   46MON    C19 2109   7.500   1.905   3.574
   46MON     O6 2110   7.472   2.040   3.613
   46MON    C20 2111   7.378   1.978   2.996
   46MON     O7 2112   7.464   1.924   3.065
   46MON     H2 2113   7.578   2.194   2.862
   46MON     H3 2114   7.396   2.294   3.086
   46MON     H6 2115   7.440   2.310   2.720
   46MON     H7 2116   7.400   2.402   2.866
   46MON     H8 2117   7.200   2.283   2.904
   46MON     H9 2118   7.074   2.338   2.716
   46MON    H12 2119   7.259   1.804   3.144
   46MON    H13 2120   7.111   1.804   3.048
   46MON    H14 2121   7.003   1.959   3.189
   46MON    H15 2122   7.087   1.851   3.298
   46MON    H16 2123   7.156   2.140   3.228
   46MON    H17 2124   7.106   2.076   3.383
   46MON    H18 2125   7.337   2.120   3.409
   46MON    H19 2126   7.377   2.059   3.249
   46MON    H20 2127   7.546   1.950   3.365
   46MON    H21 2128   7.439   1.672   3.437
   46MON    H22 2129   7.489   1.804   3.199
   46MON    H23 2130   7.729   1.757   3.380
   46MON    H24 2131   7.781   1.527   3.470
   46MON    H25 2132   7.607   1.490   3.471
   46MON    H26 2133   7.621   1.563   3.237
   46MON    H27 2134   7.717   1.931   3.557
   46MON    H28 2135   7.601   1.961   3.767
   46MON    H29 2136   7.434   1.835   3.627
   46MON    H30 2137   7.377   2.054   3.591
   47MON      O 2138   7.483   2.587   2.209
   47MON      C 2139   7.398   2.571   2.294
   47MON     C1 2140   7.263   2.502   2.275
   47MON      H 2141   7.207   2.553   2.195
   47MON     C2 2142   7.190   2.518   2.411
   47MON     C3 2143   7.141   2.376   2.453
   47MON     C4 2144   7.221   2.316   2.567
   47MON     C6 2145   7.154   2.291   2.325
   47MON     C7 2146   7.274   2.350   2.248
   47MON     C8 2147   7.278   2.318   2.099
   47MON     H1 2148   7.104   2.585   2.398
   47MON      N 2149   7.406   2.614   2.426
   47MON    C10 2150   7.502   2.719   2.467
   47MON    C11 2151   7.648   2.671   2.488
   47MON    C12 2152   7.667   2.541   2.569
   47MON    C13 2153   7.604   2.539   2.709
   47MON     O1 2154   7.650   2.651   2.785
   47MON    C14 2155   7.597   2.659   2.920
   47MON    C15 2156   7.464   2.740   2.920
   47MON     O2 2157   7.355   2.656   2.879
   47MON    C16 2158   7.428   2.795   3.061
   47MON    C17 2159   7.314   2.899   3.057
   47MON     O3 2160   7.189   2.834   3.034
   47MON     O4 2161   7.543   2.857   3.122
   47MON    C18 2162   7.654   2.769   3.142
   47MON     O5 2163   7.755   2.838   3.212
   47MON    C19 2164   7.707   2.729   3.003
   47MON     O6 2165   7.817   2.639   3.017
   47MON    C20 2166   7.292   2.586   2.502
   47MON     O7 2167   7.275   2.620   2.618
   47MON     H2 2168   7.035   2.382   2.482
   47MON     H3 2169   7.321   2.282   2.540
   47MON     H6 2170   7.062   2.303   2.265
   47MON     H7 2171   7.166   2.184   2.347
   47MON     H8 2172   7.367   2.315   2.294
   47MON     H9 2173   7.343   2.383   2.041
   47MON    H12 2174   7.468   2.764   2.561
   47MON    H13 2175   7.502   2.798   2.391
   47MON    H14 2176   7.694   2.656   2.389
   47MON    H15 2177   7.705   2.752   2.535
   47MON    H16 2178   7.625   2.458   2.511
   47MON    H17 2179   7.774   2.521   2.578
   47MON    H18 2180   7.633   2.445   2.759
   47MON    H19 2181   7.495   2.540   2.699
   47MON    H20 2182   7.579   2.560   2.962
   47MON    H21 2183   7.475   2.826   2.852
   47MON    H22 2184   7.347   2.653   2.781
   47MON    H23 2185   7.395   2.711   3.125
   47MON    H24 2186   7.310   2.953   3.152
   47MON    H25 2187   7.334   2.973   2.978
   47MON    H26 2188   7.204   2.765   2.966
   47MON    H27 2189   7.623   2.680   3.199
   47MON    H28 2190   7.838   2.793   3.185
   47MON    H29 2191   7.737   2.821   2.952
   47MON    H30 2192   7.832   2.600   2.929
   48MNL      O 2193   7.183   1.741   1.943
   48MNL      C 2194   7.238   1.848   1.924
   48MNL     C1 2195   7.197   1.956   1.824
   48MNL      H 2196   7.207   1.916   1.722
   48MNL     C2 2197   7.298   2.072   1.846
   48MNL     C3 2198   7.215   2.196   1.887
   48MNL     C4 2199   7.210   2.220   2.037
   48MNL     C6 2200   7.074   2.166   1.832
   48MNL     C7 2201   7.056   2.013   1.849
   48MNL     C8 2202   6.951   1.948   1.760
   48MNL     H1 2203   7.353   2.091   1.753
   48MNL      N 2204   7.352   1.894   1.991
   48MNL    C10 2205   7.434   1.804   2.075
   48MNL    C11 2206   7.379   1.780   2.218
   48MNL    C12 2207   7.323   1.902   2.294
   48MNL    C13 2208   7.414   2.027   2.304
   48MNL     O1 2209   7.551   1.986   2.321
   48MNL    C14 2210   7.644   2.094   2.346
   48MNL    C15 2211   7.770   2.072   2.258
   48MNL     O2 2212   7.740   2.110   2.124
   48MNL    C16 2213   7.892   2.156   2.307
   48MNL    C17 2214   8.025   2.111   2.244
   48MNL     O3 2215   8.025   2.139   2.104
   48MNL     O4 2216   7.907   2.146   2.451
   48MNL    C18 2217   7.792   2.189   2.525
   48MNL     O5 2218   7.819   2.183   2.664
   48MNL    C19 2219   7.680   2.088   2.495
   48MNL     O6 2220   7.564   2.113   2.575
   48MNL    C20 2221   7.396   2.020   1.951
   48MNL     O7 2222   7.497   2.075   1.990
   48MNL     H2 2223   7.256   2.285   1.837
   48MNL     H3 2224   7.145   2.153   2.093
   48MNL     H6 2225   7.072   2.192   1.725
   48MNL     H7 2226   6.995   2.223   1.883
   48MNL     H8 2227   7.029   1.993   1.954
   48MNL     H9 2228   6.947   1.839   1.768
   48MNL    H12 2229   7.535   1.847   2.083
   48MNL    H13 2230   7.445   1.708   2.024
   48MNL    H14 2231   7.299   1.705   2.211
   48MNL    H15 2232   7.459   1.733   2.277
   48MNL    H16 2233   7.228   1.933   2.248
   48MNL    H17 2234   7.298   1.870   2.396
   48MNL    H18 2235   7.380   2.088   2.388
   48MNL    H19 2236   7.404   2.087   2.213
   48MNL    H20 2237   7.601   2.192   2.322
   48MNL    H21 2238   7.797   1.966   2.263
   48MNL    H22 2239   7.651   2.079   2.097
   48MNL    H23 2240   7.875   2.262   2.281
   48MNL    H24 2241   8.108   2.164   2.293
   48MNL    H25 2242   8.040   2.004   2.262
   48MNL    H26 2243   7.932   2.128   2.073
   48MNL    H27 2244   7.763   2.290   2.496
   48MNL    H28 2245   7.736   2.147   2.699
   48MNL    H29 2246   7.721   1.987   2.516
   48MNL    H30 2247   7.498   2.049   2.542
   49CPT     CC 2248   6.866   2.011   1.678
   49CPT    HC1 2249   6.862   2.119   1.666
   49CPT    HC2 2250   6.794   1.954   1.618
   50WAT      O 2251  10.588   9.725   6.487
   50WAT     H1 2252  10.580   9.633   6.460
   50WAT     H2 2253  10.546   9.774   6.417
   51WAT      O 2254  10.401   9.902   6.675
   51WAT     H1 2255  10.323   9.854   6.704
   51WAT     H2 2256  10.466   9.834   6.658
   52WAT      O 2257   9.803   9.934   6.763
   52WAT     H1 2258   9.719   9.908   6.803
   52WAT     H2 2259   9.863   9.941   6.837
   53WAT      O 2260   9.643   9.430   6.141
   53WAT     H1 2261   9.555   9.464   6.131
   53WAT     H2 2262   9.672   9.410   6.052
   54WAT      O 2263   9.440   9.690   6.730
   54WAT     H1 2264   9.497   9.613   6.730
   54WAT     H2 2265   9.440   9.720   6.639
   55WAT      O 2266   9.564   9.231   6.909
   55WAT     H1 2267   9.546   9.141   6.937
   55WAT     H2 2268   9.524   9.285   6.976
   56WAT      O 2269  10.448   9.451   6.699
   56WAT     H1 2270  10.486   9.363   6.687
   56WAT     H2 2271  10.438   9.484   6.610
   57WAT      O 2272   9.861   9.288   6.245
   57WAT     H1 2273   9.872   9.378   6.276
   57WAT     H2 2274   9.770   9.283   6.216
   58WAT      O 2275  10.826   9.200   6.392
   58WAT     H1 2276  10.908   9.151   6.396
   58WAT     H2 2277  10.830   9.259   6.467
   59WAT      O 2278   9.626   9.480   6.769
   59WAT     H1 2279   9.694   9.507   6.831
   59WAT     H2 2280   9.594   9.396   6.803
   60WAT      O 2281  10.045   9.585   6.678
   60WAT     H1 2282  10.096   9.635   6.742
   60WAT     H2 2283  10.098   9.507   6.661
   61WAT      O 2284   9.873   9.049   7.105
   61WAT     H1 2285   9.874   9.101   7.024
   61WAT     H2 2286   9.791   9.001   7.102
   62WAT      O 2287   9.999  10.013   6.922
   62WAT     H1 2288   9.965  10.075   6.987
   62WAT     H2 2289  10.016  10.065   6.845
   63WAT      O 2290  10.850   9.394   6.669
   63WAT     H1 2291  10.779   9.423   6.727
   63WAT     H2 2292  10.886   9.475   6.633
   64WAT      O 2293   9.842   9.220   6.905
   64WAT     H1 2294   9.876   9.304   6.876
   64WAT     H2 2295   9.748   9.235   6.917
   65WAT      O 2296  10.210   8.969   6.538
   65WAT     H1 2297  10.241   8.913   6.466
   65WAT     H2 2298  10.117   8.982   6.520
   66WAT      O 2299  10.705  10.031   6.900
   66WAT     H1 2300  10.747  10.009   6.816
   66WAT     H2 2301  10.777  10.056   6.957
   67WAT      O 2302  10.449   9.775   6.212
   67WAT     H1 2303  10.356   9.769   6.234
   67WAT     H2 2304  10.464   9.869   6.200
   68WAT      O 2305  10.447   9.402   5.911
   68WAT     H1 2306  10.353   9.419   5.920
   68WAT     H2 2307  10.479   9.474   5.857
   69WAT      O 2308  10.852   9.931   6.262
   69WAT     H1 2309  10.790   9.898   6.197
   69WAT     H2 2310  10.850   9.867   6.333
   70WAT      O 2311  10.796   9.549   7.004
   70WAT     H1 2312  10.755   9.632   7.029
   70WAT     H2 2313  10.723   9.491   6.984
   71WAT      O 2314  10.009   9.828   6.490
   71WAT     H1 2315   9.969   9.757   6.440
   71WAT     H2 2316  10.018   9.793   6.579
   72WAT      O 2317   9.881   9.505   6.868
   72WAT     H1 2318   9.936   9.516   6.790
   72WAT     H2 2319   9.932   9.543   6.939
   73WAT      O 2320  10.669   9.855   5.963
   73WAT     H1 2321  10.713   9.772   5.948
   73WAT     H2 2322  10.741   9.919   5.971
   74WAT      O 2323   9.848   9.857   7.229
   74WAT     H1 2324   9.834   9.945   7.266
   74WAT     H2 2325   9.760   9.823   7.214
   75WAT      O 2326  11.028   8.981   5.794
   75WAT     H1 2327  10.996   8.990   5.884
   75WAT     H2 2328  11.104   9.039   5.789
   76WAT      O 2329   9.679   9.717   6.240
   76WAT     H1 2330   9.667   9.790   6.179
   76WAT     H2 2331   9.648   9.640   6.192
   77WAT      O 2332   9.443  10.034   6.820
   77WAT     H1 2333   9.451  10.048   6.726
   77WAT     H2 2334   9.505   9.964   6.840
   78WAT      O 2335   9.926   9.052   6.578
   78WAT     H1 2336   9.882   9.130   6.545
   78WAT     H2 2337   9.982   9.084   6.649
   79WAT      O 2338  10.355   9.338   7.138
   79WAT     H1 2339  10.308   9.359   7.220
   79WAT     H2 2340  10.314   9.257   7.108
   80WAT      O 2341  10.855   9.460   7.251
   80WAT     H1 2342  10.770   9.431   7.283
   80WAT     H2 2343  10.839   9.485   7.160
   81WAT      O 2344  10.564   9.610   7.461
   81WAT     H1 2345  10.597   9.527   7.427
   81WAT     H2 2346  10.643   9.663   7.476
   82WAT      O 2347  10.238   9.014   6.066
   82WAT     H1 2348  10.175   9.013   6.139
   82WAT     H2 2349  10.229   8.927   6.026
   83WAT      O 2350  10.130   9.106   6.764
   83WAT     H1 2351  10.159   9.197   6.756
   83WAT     H2 2352  10.185   9.057   6.702
   84WAT      O 2353   9.905   9.564   6.351
   84WAT     H1 2354   9.883   9.542   6.441
   84WAT     H2 2355   9.827   9.607   6.316
   85WAT      O 2356  10.628   9.565   6.211
   85WAT     H1 2357  10.568   9.637   6.192
   85WAT     H2 2358  10.683   9.558   6.132
   86WAT      O 2359  10.149   9.654   7.417
   86WAT     H1 2360  10.140   9.560   7.402
   86WAT     H2 2361  10.233   9.676   7.378
   87WAT      O 2362  10.489   9.428   6.414
   87WAT     H1 2363  10.528   9.460   6.332
   87WAT     H2 2364  10.525   9.340   6.425
   88WAT      O 2365   9.662   9.295   7.233
   88WAT     H1 2366   9.623   9.380   7.253
   88WAT     H2 2367   9.593   9.231   7.252
   89WAT      O 2368   9.392   9.087   6.636
   89WAT     H1 2369   9.364   9.144   6.707
   89WAT     H2 2370   9.467   9.039   6.672
   90WAT      O 2371   9.411   9.481   5.757
   90WAT     H1 2372   9.403   9.576   5.771
   90WAT     H2 2373   9.376   9.467   5.669
   91WAT      O 2374  10.547   9.687   6.823
   91WAT     H1 2375  10.474   9.738   6.858
   91WAT     H2 2376  10.508   9.606   6.793
   92WAT      O 2377  10.191   9.355   6.664
   92WAT     H1 2378  10.191   9.311   6.579
   92WAT     H2 2379  10.281   9.387   6.675
   93WAT      O 2380   9.776   9.343   6.560
   93WAT     H1 2381   9.742   9.391   6.635
   93WAT     H2 2382   9.700   9.298   6.524
   94WAT      O 2383  10.197   9.455   5.963
   94WAT     H1 2384  10.209   9.451   6.058
   94WAT     H2 2385  10.159   9.541   5.947
   95WAT      O 2386  10.594   9.233   6.764
   95WAT     H1 2387  10.595   9.278   6.849
   95WAT     H2 2388  10.569   9.143   6.786
   96WAT      O 2389  10.098   9.686   5.903
   96WAT     H1 2390  10.042   9.641   5.840
   96WAT     H2 2391  10.169   9.722   5.849
   97WAT      O 2392  10.936   8.974   7.348
   97WAT     H1 2393  10.969   8.901   7.401
   97WAT     H2 2394  10.940   8.942   7.258
   98WAT      O 2395  10.221   9.761   6.838
   98WAT     H1 2396  10.258   9.713   6.913
   98WAT     H2 2397  10.202   9.848   6.873
   99WAT      O 2398   9.508   9.235   6.451
   99WAT     H1 2399   9.479   9.199   6.535
   99WAT     H2 2400   9.501   9.162   6.390
  100WAT      O 2401  10.000   9.665   7.070
  100WAT     H1 2402   9.970   9.753   7.093
  100WAT     H2 2403  10.096   9.671   7.074
  101WAT      O 2404   9.853  10.086   6.130
  101WAT     H1 2405   9.776  10.032   6.114
  101WAT     H2 2406   9.926  10.034   6.096
  102WAT      O 2407  10.929   9.985   6.709
  102WAT     H1 2408  11.001  10.035   6.670
  102WAT     H2 2409  10.909   9.917   6.645
  103WAT      O 2410  10.475   9.125   6.124
  103WAT     H1 2411  10.394   9.075   6.116
  103WAT     H2 2412  10.456   9.209   6.082
  104WAT      O 2413  10.467   9.992   7.298
  104WAT     H1 2414  10.460   9.900   7.272
  104WAT     H2 2415  10.404  10.002   7.369
  105WAT      O 2416  10.746   9.562   5.953
  105WAT     H1 2417  10.835   9.593   5.936
  105WAT     H2 2418  10.743   9.475   5.914
  106WAT      O 2419   9.857  10.052   6.494
  106WAT     H1 2420   9.909   9.972   6.488
  106WAT     H2 2421   9.812  10.046   6.578
  107WAT      O 2422   9.606   9.749   7.185
  107WAT     H1 2423   9.570   9.816   7.244
  107WAT     H2 2424   9.576   9.666   7.222
  108WAT      O 2425   9.926   9.795   7.473
  108WAT     H1 2426   9.896   9.809   7.384
  108WAT     H2 2427  10.003   9.739   7.464
  109WAT      O 2428  10.974   9.693   5.900
  109WAT     H1 2429  10.965   9.736   5.815
  109WAT     H2 2430  11.045   9.739   5.943
  110WAT      O 2431   9.457   9.749   5.847
  110WAT     H1 2432   9.544   9.777   5.876
  110WAT     H2 2433   9.408   9.830   5.836
  111WAT      O 2434  10.173   9.888   6.259
  111WAT     H1 2435  10.219   9.969   6.282
  111WAT     H2 2436  10.138   9.856   6.343
  112WAT      O 2437   9.763   8.922   6.307
  112WAT     H1 2438   9.750   8.921   6.402
  112WAT     H2 2439   9.681   8.956   6.272
  113WAT      O 2440   9.463   9.098   7.253
  113WAT     H1 2441   9.392   9.118   7.313
  113WAT     H2 2442   9.505   9.020   7.290
  114WAT      O 2443   9.655   9.931   6.060
  114WAT     H1 2444   9.595  10.005   6.061
  114WAT     H2 2445   9.703   9.940   5.978
  115WAT      O 2446  10.613   9.347   7.028
  115WAT     H1 2447  10.649   9.265   7.061
  115WAT     H2 2448  10.527   9.353   7.069
  116WAT      O 2449  10.949   9.243   6.109
  116WAT     H1 2450  10.886   9.253   6.037
  116WAT     H2 2451  10.900   9.265   6.188
  117WAT      O 2452  10.146   9.471   6.250
  117WAT     H1 2453  10.075   9.517   6.294
  117WAT     H2 2454  10.175   9.405   6.314
  118WAT      O 2455  10.309   9.613   7.050
  118WAT     H1 2456  10.359   9.660   7.117
  118WAT     H2 2457  10.323   9.520   7.071
  119WAT      O 2458  10.549   9.143   6.394
  119WAT     H1 2459  10.537   9.145   6.299
  119WAT     H2 2460  10.644   9.148   6.406
  120WAT      O 2461   9.966   9.301   5.988
  120WAT     H1 2462  10.051   9.345   5.981
  120WAT     H2 2463   9.930   9.333   6.070
  121WAT      O 2464  11.029   9.234   7.134
  121WAT     H1 2465  10.979   9.308   7.168
  121WAT     H2 2466  11.111   9.273   7.103
  122WAT      O 2467  10.859   9.759   6.479
  122WAT     H1 2468  10.764   9.760   6.496
  122WAT     H2 2469  10.890   9.680   6.524
  123WAT      O 2470   9.856   9.927   5.835
  123WAT     H1 2471   9.933   9.916   5.891
  123WAT     H2 2472   9.864   9.857   5.770
  124WAT      O 2473   9.726   9.670   5.903
  124WAT     H1 2474   9.734   9.575   5.915
  124WAT     H2 2475   9.815   9.703   5.914
  125WAT      O 2476   9.479   9.852   7.427
  125WAT     H1 2477   9.529   9.794   7.484
  125WAT     H2 2478   9.405   9.881   7.481
  126WAT      O 2479  10.184   9.993   7.380
  126WAT     H1 2480  10.107  10.050   7.372
  126WAT     H2 2481  10.202   9.964   7.291
  127WAT      O 2482  10.493  10.031   5.843
  127WAT     H1 2483  10.438  10.075   5.907
  127WAT     H2 2484  10.555   9.980   5.895
  128WAT      O 2485  10.060   9.926   6.032
  128WAT     H1 2486  10.102   9.910   6.117
  128WAT     H2 2487  10.072   9.845   5.983
  129WAT      O 2488   9.876   9.524   7.313
  129WAT     H1 2489   9.823   9.475   7.250
  129WAT     H2 2490   9.943   9.567   7.260
  130WAT      O 2491  10.311   9.829   5.757
  130WAT     H1 2492  10.363   9.757   5.721
  130WAT     H2 2493  10.376   9.893   5.787
  131WAT      O 2494  10.766   9.971   7.290
  131WAT     H1 2495  10.807   9.987   7.375
  131WAT     H2 2496  10.672   9.984   7.306
  132WAT      O 2497  10.813   9.705   7.490
  132WAT     H1 2498  10.871   9.630   7.481
  132WAT     H2 2499  10.830   9.758   7.412
  133WAT      O 2500   9.925   9.221   7.321
  133WAT     H1 2501   9.915   9.159   7.249
  133WAT     H2 2502   9.867   9.294   7.298
  134WAT      O 2503  10.201   9.077   7.024
  134WAT     H1 2504  10.156   9.079   6.940
  134WAT     H2 2505  10.138   9.037   7.084
  135WAT      O 2506  10.242   9.966   7.087
  135WAT     H1 2507  10.284  10.051   7.069
  135WAT     H2 2508  10.150   9.980   7.064
  136WAT      O 2509  10.475   9.739   7.225
  136WAT     H1 2510  10.487   9.680   7.299
  136WAT     H2 2511  10.561   9.743   7.183
  137WAT      O 2512  10.709   9.795   7.083
  137WAT     H1 2513  10.657   9.847   7.022
  137WAT     H2 2514  10.744   9.858   7.146
  138WAT      O 2515   9.949   9.534   5.727
  138WAT     H1 2516   9.929   9.447   5.763
  138WAT     H2 2517   9.932   9.525   5.633
  139WAT      O 2518  10.152   9.394   7.351
  139WAT     H1 2519  10.211   9.363   7.419
  139WAT     H2 2520  10.070   9.346   7.366
  140WAT      O 2521  10.634   9.355   7.374
  140WAT     H1 2522  10.565   9.289   7.368
  140WAT     H2 2523  10.706   9.311   7.419
  141WAT      O 2524  10.697   9.015   5.980
  141WAT     H1 2525  10.725   8.931   6.016
  141WAT     H2 2526  10.620   9.038   6.031
  142WAT      O 2527   9.829   9.244   5.726
  142WAT     H1 2528   9.859   9.244   5.635
  142WAT     H2 2529   9.903   9.209   5.776
  143WAT      O 2530  10.151   9.138   5.824
  143WAT     H1 2531  10.116   9.070   5.766
  143WAT     H2 2532  10.171   9.092   5.906
  144WAT      O 2533   9.485   9.791   6.464
  144WAT     H1 2534   9.419   9.764   6.400
  144WAT     H2 2535   9.569   9.780   6.419
  145WAT      O 2536  10.780   9.270   5.886
  145WAT     H1 2537  10.822   9.252   5.802
  145WAT     H2 2538  10.749   9.185   5.917
  146WAT      O 2539   9.589   9.830   6.918
  146WAT     H1 2540   9.625   9.821   7.006
  146WAT     H2 2541   9.532   9.753   6.908
  147WAT      O 2542  11.069   9.676   7.219
  147WAT     H1 2543  11.046   9.653   7.129
  147WAT     H2 2544  11.095   9.768   7.215
  148WAT      O 2545   9.544   9.521   7.309
  148WAT     H1 2546   9.454   9.517   7.343
  148WAT     H2 2547   9.598   9.540   7.385
  149WAT      O 2548   9.406   9.512   6.058
  149WAT     H1 2549   9.316   9.538   6.041
  149WAT     H2 2550   9.455   9.539   5.980
  150WAT      O 2551  11.057   9.584   6.586
  150WAT     H1 2552  11.110   9.535   6.523
  150WAT     H2 2553  11.116   9.598   6.661
  151WAT      O 2554  11.075   9.593   6.938
  151WAT     H1 2555  10.980   9.589   6.950
  151WAT     H2 2556  11.093   9.684   6.915
  152WAT      O 2557   9.661   9.418   5.849
  152WAT     H1 2558   9.731   9.375   5.801
  152WAT     H2 2559   9.589   9.424   5.786
  153WAT      O 2560   9.625   9.023   5.753
  153WAT     H1 2561   9.698   9.077   5.785
  153WAT     H2 2562   9.653   8.996   5.666
  154WAT      O 2563  11.006   9.510   6.180
  154WAT     H1 2564  11.056   9.487   6.258
  154WAT     H2 2565  10.986   9.426   6.138
  155WAT      O 2566   9.594   8.948   6.743
  155WAT     H1 2567   9.659   8.893   6.699
  155WAT     H2 2568   9.636   8.974   6.826
  156WAT      O 2569  10.984   8.967   7.079
  156WAT     H1 2570  11.047   9.029   7.116
  156WAT     H2 2571  10.998   8.971   6.985
  157WAT      O 2572   9.570   8.964   7.018
  157WAT     H1 2573   9.535   9.009   7.094
  157WAT     H2 2574   9.536   8.874   7.026
  158WAT      O 2575  10.321   9.083   7.370
  158WAT     H1 2576  10.315   9.142   7.445
  158WAT     H2 2577  10.415   9.072   7.355
  159WAT      O 2578  10.585   9.048   7.334
  159WAT     H1 2579  10.646   9.080   7.268
  159WAT     H2 2580  10.639   9.000   7.396
  160WAT      O 2581   9.637   8.916   7.345
  160WAT     H1 2582   9.692   8.898   7.269
  160WAT     H2 2583   9.643   8.837   7.399
  161WAT      O 2584  10.659   8.905   6.967
  161WAT     H1 2585  10.571   8.938   6.946
  161WAT     H2 2586  10.648   8.858   7.049
  162WAT      O 2587  10.749   9.125   7.105
  162WAT     H1 2588  10.716   9.044   7.067
  162WAT     H2 2589  10.844   9.121   7.093
  163WAT      O 2590  10.433   8.996   6.860
  163WAT     H1 2591  10.355   9.044   6.888
  163WAT     H2 2592  10.404   8.906   6.850
  164WAT      O 2593  10.889   9.067   6.665
  164WAT     H1 2594  10.933   9.061   6.580
  164WAT     H2 2595  10.862   9.158   6.672
  165WAT      O 2596   9.568   9.027   6.113
  165WAT     H1 2597   9.644   9.038   6.055
  165WAT     H2 2598   9.522   9.111   6.108
  166WAT      O 2599  10.222   9.238   6.412
  166WAT     H1 2600  10.141   9.201   6.378
  166WAT     H2 2601  10.272   9.163   6.442
  167WAT      O 2602  10.672   8.905   6.535
  167WAT     H1 2603  10.732   8.962   6.583
  167WAT     H2 2604  10.598   8.961   6.513
  168WAT      O 2605  10.986   8.945   6.063
  168WAT     H1 2606  11.006   9.035   6.090
  168WAT     H2 2607  10.908   8.922   6.112
  169WAT      O 2608   9.805   9.080   5.967
  169WAT     H1 2609   9.858   9.001   5.954
  169WAT     H2 2610   9.868   9.147   5.990
  170WAT      O 2611  10.024   9.053   6.272
  170WAT     H1 2612   9.961   8.983   6.289
  170WAT     H2 2613   9.970   9.129   6.250
  171WAT      O 2614  10.588   9.725   4.610
  171WAT     H1 2615  10.580   9.633   4.583
  171WAT     H2 2616  10.546   9.774   4.539
  172WAT      O 2617  10.401   9.902   4.798
  172WAT     H1 2618  10.323   9.854   4.827
  172WAT     H2 2619  10.466   9.834   4.780
  173WAT      O 2620   9.803   9.934   4.886
  173WAT     H1 2621   9.719   9.908   4.926
  173WAT     H2 2622   9.863   9.941   4.959
  174WAT      O 2623   9.643   9.430   4.264
  174WAT     H1 2624   9.555   9.464   4.254
  174WAT     H2 2625   9.672   9.410   4.175
  175WAT      O 2626   9.440   9.690   4.852
  175WAT     H1 2627   9.497   9.613   4.852
  175WAT     H2 2628   9.440   9.720   4.762
  176WAT      O 2629   9.564   9.231   5.031
  176WAT     H1 2630   9.546   9.141   5.059
  176WAT     H2 2631   9.524   9.285   5.099
  177WAT      O 2632  10.448   9.451   4.821
  177WAT     H1 2633  10.486   9.363   4.810
  177WAT     H2 2634  10.438   9.484   4.732
  178WAT      O 2635   9.861   9.288   4.367
  178WAT     H1 2636   9.872   9.378   4.398
  178WAT     H2 2637   9.770   9.283   4.338
  179WAT      O 2638  10.826   9.200   4.515
  179WAT     H1 2639  10.908   9.151   4.519
  179WAT     H2 2640  10.830   9.259   4.590
  180WAT      O 2641   9.626   9.480   4.892
  180WAT     H1 2642   9.694   9.507   4.954
  180WAT     H2 2643   9.594   9.396   4.925
  181WAT      O 2644  10.045   9.585   4.801
  181WAT     H1 2645  10.096   9.635   4.865
  181WAT     H2 2646  10.098   9.507   4.783
  182WAT      O 2647   9.873   9.049   5.227
  182WAT     H1 2648   9.874   9.101   5.147
  182WAT     H2 2649   9.791   9.001   5.225
  183WAT      O 2650   9.999  10.013   5.045
  183WAT     H1 2651   9.965  10.075   5.109
  183WAT     H2 2652  10.016  10.065   4.967
  184WAT      O 2653  10.850   9.394   4.792
  184WAT     H1 2654  10.779   9.423   4.850
  184WAT     H2 2655  10.886   9.475   4.756
  185WAT      O 2656   9.842   9.220   5.028
  185WAT     H1 2657   9.876   9.304   4.999
  185WAT     H2 2658   9.748   9.235   5.040
  186WAT      O 2659  10.210   8.969   4.660
  186WAT     H1 2660  10.241   8.913   4.589
  186WAT     H2 2661  10.117   8.982   4.642
  187WAT      O 2662  10.705  10.031   5.022
  187WAT     H1 2663  10.747  10.009   4.939
  187WAT     H2 2664  10.777  10.056   5.079
  188WAT      O 2665  10.449   9.775   4.334
  188WAT     H1 2666  10.356   9.769   4.357
  188WAT     H2 2667  10.464   9.869   4.323
  189WAT      O 2668  10.447   9.402   4.034
  189WAT     H1 2669  10.353   9.419   4.042
  189WAT     H2 2670  10.479   9.474   3.979
  190WAT      O 2671  10.852   9.931   4.384
  190WAT     H1 2672  10.790   9.898   4.320
  190WAT     H2 2673  10.850   9.867   4.455
  191WAT      O 2674  10.796   9.549   5.126
  191WAT     H1 2675  10.755   9.632   5.151
  191WAT     H2 2676  10.723   9.491   5.107
  192WAT      O 2677  10.009   9.828   4.612
  192WAT     H1 2678   9.969   9.757   4.563
  192WAT     H2 2679  10.018   9.793   4.701
  193WAT      O 2680   9.881   9.505   4.990
  193WAT     H1 2681   9.936   9.516   4.913
  193WAT     H2 2682   9.932   9.543   5.062
  194WAT      O 2683  10.669   9.855   4.085
  194WAT     H1 2684  10.713   9.772   4.071
  194WAT     H2 2685  10.741   9.919   4.094
  195WAT      O 2686   9.848   9.857   5.351
  195WAT     H1 2687   9.834   9.945   5.388
  195WAT     H2 2688   9.760   9.823   5.337
  196WAT      O 2689  11.028   8.981   3.917
  196WAT     H1 2690  10.996   8.990   4.007
  196WAT     H2 2691  11.104   9.039   3.912
  197WAT      O 2692   9.679   9.717   4.362
  197WAT     H1 2693   9.667   9.790   4.301
  197WAT     H2 2694   9.648   9.640   4.315
  198WAT      O 2695   9.443  10.034   4.943
  198WAT     H1 2696   9.451  10.048   4.849
  198WAT     H2 2697   9.505   9.964   4.962
  199WAT      O 2698   9.926   9.052   4.701
  199WAT     H1 2699   9.882   9.130   4.667
  199WAT     H2 2700   9.982   9.084   4.771
  200WAT      O 2701  10.355   9.338   5.261
  200WAT     H1 2702  10.308   9.359   5.342
  200WAT     H2 2703  10.314   9.257   5.231
  201WAT      O 2704  10.855   9.460   5.374
  201WAT     H1 2705  10.770   9.431   5.406
  201WAT     H2 2706  10.839   9.485   5.283
  202WAT      O 2707  10.564   9.610   5.584
  202WAT     H1 2708  10.597   9.527   5.550
  202WAT     H2 2709  10.643   9.663   5.599
  203WAT      O 2710  10.238   9.014   4.189
  203WAT     H1 2711  10.175   9.013   4.261
  203WAT     H2 2712  10.229   8.927   4.149
  204WAT      O 2713  10.130   9.106   4.886
  204WAT     H1 2714  10.159   9.197   4.878
  204WAT     H2 2715  10.185   9.057   4.825
  205WAT      O 2716   9.905   9.564   4.473
  205WAT     H1 2717   9.883   9.542   4.564
  205WAT     H2 2718   9.827   9.607   4.439
  206WAT      O 2719  10.628   9.565   4.333
  206WAT     H1 2720  10.568   9.637   4.315
  206WAT     H2 2721  10.683   9.558   4.255
  207WAT      O 2722  10.149   9.654   5.540
  207WAT     H1 2723  10.140   9.560   5.525
  207WAT     H2 2724  10.233   9.676   5.500
  208WAT      O 2725  10.489   9.428   4.536
  208WAT     H1 2726  10.528   9.460   4.455
  208WAT     H2 2727  10.525   9.340   4.548
  209WAT      O 2728   9.662   9.295   5.355
  209WAT     H1 2729   9.623   9.380   5.376
  209WAT     H2 2730   9.593   9.231   5.374
  210WAT      O 2731  10.320   9.303   5.662
  210WAT     H1 2732  10.251   9.284   5.726
  210WAT     H2 2733  10.394   9.332   5.716
  211WAT      O 2734   9.392   9.087   4.759
  211WAT     H1 2735   9.364   9.144   4.830
  211WAT     H2 2736   9.467   9.039   4.795
  212WAT      O 2737   9.411   9.481   3.880
  212WAT     H1 2738   9.403   9.576   3.894
  212WAT     H2 2739   9.376   9.467   3.792
  213WAT      O 2740  10.547   9.687   4.946
  213WAT     H1 2741  10.474   9.738   4.981
  213WAT     H2 2742  10.508   9.606   4.916
  214WAT      O 2743  10.191   9.355   4.786
  214WAT     H1 2744  10.191   9.311   4.701
  214WAT     H2 2745  10.281   9.387   4.797
  215WAT      O 2746   9.776   9.343   4.682
  215WAT     H1 2747   9.742   9.391   4.758
  215WAT     H2 2748   9.700   9.298   4.646
  216WAT      O 2749  10.197   9.455   4.085
  216WAT     H1 2750  10.209   9.451   4.180
  216WAT     H2 2751  10.159   9.541   4.070
  217WAT      O 2752  10.594   9.233   4.887
  217WAT     H1 2753  10.595   9.278   4.971
  217WAT     H2 2754  10.569   9.143   4.908
  218WAT      O 2755  10.098   9.686   4.025
  218WAT     H1 2756  10.042   9.641   3.963
  218WAT     H2 2757  10.169   9.722   3.972
  219WAT      O 2758  10.936   8.974   5.471
  219WAT     H1 2759  10.969   8.901   5.524
  219WAT     H2 2760  10.940   8.942   5.381
  220WAT      O 2761  10.221   9.761   4.961
  220WAT     H1 2762  10.258   9.713   5.036
  220WAT     H2 2763  10.202   9.848   4.995
  221WAT      O 2764   9.508   9.235   4.574
  221WAT     H1 2765   9.479   9.199   4.658
  221WAT     H2 2766   9.501   9.162   4.513
  222WAT      O 2767  10.000   9.665   5.193
  222WAT     H1 2768   9.970   9.753   5.215
  222WAT     H2 2769  10.096   9.671   5.196
  223WAT      O 2770   9.853  10.086   4.253
  223WAT     H1 2771   9.776  10.032   4.237
  223WAT     H2 2772   9.926  10.034   4.219
  224WAT      O 2773  10.929   9.985   4.832
  224WAT     H1 2774  11.001  10.035   4.793
  224WAT     H2 2775  10.909   9.917   4.767
  225WAT      O 2776  10.475   9.125   4.246
  225WAT     H1 2777  10.394   9.075   4.239
  225WAT     H2 2778  10.456   9.209   4.204
  226WAT      O 2779  10.467   9.992   5.420
  226WAT     H1 2780  10.460   9.900   5.395
  226WAT     H2 2781  10.404  10.002   5.492
  227WAT      O 2782  10.746   9.562   4.076
  227WAT     H1 2783  10.835   9.593   4.058
  227WAT     H2 2784  10.743   9.475   4.037
  228WAT      O 2785   9.857  10.052   4.616
  228WAT     H1 2786   9.909   9.972   4.611
  228WAT     H2 2787   9.812  10.046   4.700
  229WAT      O 2788   9.606   9.749   5.308
  229WAT     H1 2789   9.570   9.816   5.366
  229WAT     H2 2790   9.576   9.666   5.345
  230WAT      O 2791   9.926   9.795   5.596
  230WAT     H1 2792   9.896   9.809   5.506
  230WAT     H2 2793  10.003   9.739   5.587
  231WAT      O 2794  10.974   9.693   4.022
  231WAT     H1 2795  10.965   9.736   3.937
  231WAT     H2 2796  11.045   9.739   4.066
  232WAT      O 2797   9.457   9.749   3.970
  232WAT     H1 2798   9.544   9.777   3.998
  232WAT     H2 2799   9.408   9.830   3.958
  233WAT      O 2800  10.173   9.888   4.382
  233WAT     H1 2801  10.219   9.969   4.405
  233WAT     H2 2802  10.138   9.856   4.465
  234WAT      O 2803   9.763   8.922   4.429
  234WAT     H1 2804   9.750   8.921   4.524
  234WAT     H2 2805   9.681   8.956   4.394
  235WAT      O 2806   9.463   9.098   5.375
  235WAT     H1 2807   9.392   9.118   5.436
  235WAT     H2 2808   9.505   9.020   5.412
  236WAT      O 2809   9.655   9.931   4.183
  236WAT     H1 2810   9.595  10.005   4.184
  236WAT     H2 2811   9.703   9.940   4.100
  237WAT      O 2812  10.613   9.347   5.150
  237WAT     H1 2813  10.649   9.265   5.183
  237WAT     H2 2814  10.527   9.353   5.192
  238WAT      O 2815  10.949   9.243   4.231
  238WAT     H1 2816  10.886   9.253   4.160
  238WAT     H2 2817  10.900   9.265   4.310
  239WAT      O 2818  10.146   9.471   4.373
  239WAT     H1 2819  10.075   9.517   4.417
  239WAT     H2 2820  10.175   9.405   4.436
  240WAT      O 2821  10.309   9.613   5.173
  240WAT     H1 2822  10.359   9.660   5.239
  240WAT     H2 2823  10.323   9.520   5.193
  241WAT      O 2824  10.549   9.143   4.517
  241WAT     H1 2825  10.537   9.145   4.422
  241WAT     H2 2826  10.644   9.148   4.529
  242WAT      O 2827   9.966   9.301   4.110
  242WAT     H1 2828  10.051   9.345   4.104
  242WAT     H2 2829   9.930   9.333   4.193
  243WAT      O 2830  11.029   9.234   5.257
  243WAT     H1 2831  10.979   9.308   5.291
  243WAT     H2 2832  11.111   9.273   5.225
  244WAT      O 2833  10.859   9.759   4.602
  244WAT     H1 2834  10.764   9.760   4.619
  244WAT     H2 2835  10.890   9.680   4.646
  245WAT      O 2836   9.856   9.927   3.958
  245WAT     H1 2837   9.933   9.916   4.014
  245WAT     H2 2838   9.864   9.857   3.892
  246WAT      O 2839   9.726   9.670   4.026
  246WAT     H1 2840   9.734   9.575   4.037
  246WAT     H2 2841   9.815   9.703   4.037
  247WAT      O 2842   9.479   9.852   5.550
  247WAT     H1 2843   9.529   9.794   5.607
  247WAT     H2 2844   9.405   9.881   5.603
  248WAT      O 2845  10.184   9.993   5.503
  248WAT     H1 2846  10.107  10.050   5.494
  248WAT     H2 2847  10.202   9.964   5.414
  249WAT      O 2848  10.493  10.031   3.965
  249WAT     H1 2849  10.438  10.075   4.030
  249WAT     H2 2850  10.555   9.980   4.018
  250WAT      O 2851   9.682   9.666   5.639
  250WAT     H1 2852   9.686   9.637   5.730
  250WAT     H2 2853   9.767   9.707   5.623
  251WAT      O 2854  10.060   9.926   4.155
  251WAT     H1 2855  10.102   9.910   4.239
  251WAT     H2 2856  10.072   9.845   4.106
  252WAT      O 2857   9.876   9.524   5.436
  252WAT     H1 2858   9.823   9.475   5.373
  252WAT     H2 2859   9.943   9.567   5.382
  253WAT      O 2860  10.311   9.829   3.880
  253WAT     H1 2861  10.363   9.757   3.843
  253WAT     H2 2862  10.376   9.893   3.910
  254WAT      O 2863  10.766   9.971   5.412
  254WAT     H1 2864  10.807   9.987   5.497
  254WAT     H2 2865  10.672   9.984   5.428
  255WAT      O 2866  10.813   9.705   5.613
  255WAT     H1 2867  10.871   9.630   5.604
  255WAT     H2 2868  10.830   9.758   5.535
  256WAT      O 2869   9.925   9.221   5.444
  256WAT     H1 2870   9.915   9.159   5.371
  256WAT     H2 2871   9.867   9.294   5.421
  257WAT      O 2872  10.201   9.077   5.147
  257WAT     H1 2873  10.156   9.079   5.062
  257WAT     H2 2874  10.138   9.037   5.207
  258WAT      O 2875  10.242   9.966   5.209
  258WAT     H1 2876  10.284  10.051   5.192
  258WAT     H2 2877  10.150   9.980   5.186
  259WAT      O 2878  10.475   9.739   5.348
  259WAT     H1 2879  10.487   9.680   5.421
  259WAT     H2 2880  10.561   9.743   5.306
  260WAT      O 2881  10.709   9.795   5.205
  260WAT     H1 2882  10.657   9.847   5.145
  260WAT     H2 2883  10.744   9.858   5.268
  261WAT      O 2884   9.949   9.534   3.850
  261WAT     H1 2885   9.929   9.447   3.886
  261WAT     H2 2886   9.932   9.525   3.756
  262WAT      O 2887  10.152   9.394   5.473
  262WAT     H1 2888  10.211   9.363   5.542
  262WAT     H2 2889  10.070   9.346   5.489
  263WAT      O 2890  10.634   9.355   5.497
  263WAT     H1 2891  10.565   9.289   5.490
  263WAT     H2 2892  10.706   9.311   5.541
  264WAT      O 2893  10.697   9.015   4.102
  264WAT     H1 2894  10.725   8.931   4.138
  264WAT     H2 2895  10.620   9.038   4.154
  265WAT      O 2896   9.829   9.244   3.848
  265WAT     H1 2897   9.859   9.244   3.758
  265WAT     H2 2898   9.903   9.209   3.898
  266WAT      O 2899  10.151   9.138   3.947
  266WAT     H1 2900  10.116   9.070   3.889
  266WAT     H2 2901  10.171   9.092   4.028
  267WAT      O 2902   9.485   9.791   4.587
  267WAT     H1 2903   9.419   9.764   4.522
  267WAT     H2 2904   9.569   9.780   4.542
  268WAT      O 2905  10.780   9.270   4.009
  268WAT     H1 2906  10.822   9.252   3.925
  268WAT     H2 2907  10.749   9.185   4.040
  269WAT      O 2908   9.589   9.830   5.041
  269WAT     H1 2909   9.625   9.821   5.129
  269WAT     H2 2910   9.532   9.753   5.031
  270WAT      O 2911  11.069   9.676   5.342
  270WAT     H1 2912  11.046   9.653   5.252
  270WAT     H2 2913  11.095   9.768   5.337
  271WAT      O 2914   9.544   9.521   5.431
  271WAT     H1 2915   9.454   9.517   5.465
  271WAT     H2 2916   9.598   9.540   5.508
  272WAT      O 2917  10.913   9.199   5.620
  272WAT     H1 2918  11.000   9.200   5.658
  272WAT     H2 2919  10.914   9.125   5.559
  273WAT      O 2920   9.406   9.512   4.181
  273WAT     H1 2921   9.316   9.538   4.163
  273WAT     H2 2922   9.455   9.539   4.103
  274WAT      O 2923  11.057   9.584   4.709
  274WAT     H1 2924  11.110   9.535   4.646
  274WAT     H2 2925  11.116   9.598   4.783
  275WAT      O 2926  11.075   9.593   5.061
  275WAT     H1 2927  10.980   9.589   5.072
  275WAT     H2 2928  11.093   9.684   5.037
  276WAT      O 2929   9.661   9.418   3.972
  276WAT     H1 2930   9.731   9.375   3.923
  276WAT     H2 2931   9.589   9.424   3.909
  277WAT      O 2932   9.625   9.023   3.876
  277WAT     H1 2933   9.698   9.077   3.908
  277WAT     H2 2934   9.653   8.996   3.788
  278WAT      O 2935  11.006   9.510   4.303
  278WAT     H1 2936  11.056   9.487   4.381
  278WAT     H2 2937  10.986   9.426   4.261
  279WAT      O 2938   9.594   8.948   4.866
  279WAT     H1 2939   9.659   8.893   4.822
  279WAT     H2 2940   9.636   8.974   4.948
  280WAT      O 2941  10.984   8.967   5.202
  280WAT     H1 2942  11.047   9.029   5.238
  280WAT     H2 2943  10.998   8.971   5.107
  281WAT      O 2944   9.570   8.964   5.140
  281WAT     H1 2945   9.535   9.009   5.217
  281WAT     H2 2946   9.536   8.874   5.149
  282WAT      O 2947  10.321   9.083   5.493
  282WAT     H1 2948  10.315   9.142   5.567
  282WAT     H2 2949  10.415   9.072   5.478
  283WAT      O 2950  10.585   9.048   5.456
  283WAT     H1 2951  10.646   9.080   5.390
  283WAT     H2 2952  10.639   9.000   5.518
  284WAT      O 2953   9.637   8.916   5.468
  284WAT     H1 2954   9.692   8.898   5.391
  284WAT     H2 2955   9.643   8.837   5.521
  285WAT      O 2956  10.659   8.905   5.089
  285WAT     H1 2957  10.571   8.938   5.069
  285WAT     H2 2958  10.648   8.858   5.172
  286WAT      O 2959  10.749   9.125   5.228
  286WAT     H1 2960  10.716   9.044   5.190
  286WAT     H2 2961  10.844   9.121   5.215
  287WAT      O 2962  10.433   8.996   4.983
  287WAT     H1 2963  10.355   9.044   5.011
  287WAT     H2 2964  10.404   8.906   4.972
  288WAT      O 2965  10.889   9.067   4.788
  288WAT     H1 2966  10.933   9.061   4.703
  288WAT     H2 2967  10.862   9.158   4.795
  289WAT      O 2968   9.568   9.027   4.235
  289WAT     H1 2969   9.644   9.038   4.178
  289WAT     H2 2970   9.522   9.111   4.231
  290WAT      O 2971  10.222   9.238   4.534
  290WAT     H1 2972  10.141   9.201   4.500
  290WAT     H2 2973  10.272   9.163   4.564
  291WAT      O 2974  10.672   8.905   4.658
  291WAT     H1 2975  10.732   8.962   4.706
  291WAT     H2 2976  10.598   8.961   4.636
  292WAT      O 2977  10.986   8.945   4.185
  292WAT     H1 2978  11.006   9.035   4.212
  292WAT     H2 2979  10.908   8.922   4.235
  293WAT      O 2980   9.805   9.080   4.089
  293WAT     H1 2981   9.858   9.001   4.076
  293WAT     H2 2982   9.868   9.147   4.113
  294WAT      O 2983  10.024   9.053   4.395
  294WAT     H1 2984   9.961   8.983   4.411
  294WAT     H2 2985   9.970   9.129   4.373
  295WAT      O 2986  10.037   8.981   5.638
  295WAT     H1 2987  10.009   9.032   5.562
  295WAT     H2 2988  10.075   8.901   5.602
  296WAT      O 2989  10.697   8.923   5.696
  296WAT     H1 2990  10.686   8.955   5.786
  296WAT     H2 2991  10.779   8.963   5.666
  297WAT      O 2992  10.588   9.725   2.732
  297WAT     H1 2993  10.580   9.633   2.705
  297WAT     H2 2994  10.546   9.774   2.662
  298WAT      O 2995  10.401   9.902   2.920
  298WAT     H1 2996  10.323   9.854   2.949
  298WAT     H2 2997  10.466   9.834   2.903
  299WAT      O 2998   9.803   9.934   3.008
  299WAT     H1 2999   9.719   9.908   3.048
  299WAT     H2 3000   9.863   9.941   3.082
  300WAT      O 3001   9.643   9.430   2.387
  300WAT     H1 3002   9.555   9.464   2.376
  300WAT     H2 3003   9.672   9.410   2.297
  301WAT      O 3004   9.440   9.690   2.975
  301WAT     H1 3005   9.497   9.613   2.975
  301WAT     H2 3006   9.440   9.720   2.884
  302WAT      O 3007   9.564   9.231   3.154
  302WAT     H1 3008   9.546   9.141   3.182
  302WAT     H2 3009   9.524   9.285   3.221
  303WAT      O 3010  10.448   9.451   2.944
  303WAT     H1 3011  10.486   9.363   2.933
  303WAT     H2 3012  10.438   9.484   2.855
  304WAT      O 3013   9.861   9.288   2.490
  304WAT     H1 3014   9.872   9.378   2.521
  304WAT     H2 3015   9.770   9.283   2.461
  305WAT      O 3016  10.826   9.200   2.637
  305WAT     H1 3017  10.908   9.151   2.641
  305WAT     H2 3018  10.830   9.259   2.712
  306WAT      O 3019   9.626   9.480   3.015
  306WAT     H1 3020   9.694   9.507   3.076
  306WAT     H2 3021   9.594   9.396   3.048
  307WAT      O 3022  10.045   9.585   2.923
  307WAT     H1 3023  10.096   9.635   2.987
  307WAT     H2 3024  10.098   9.507   2.906
  308WAT      O 3025   9.873   9.049   3.350
  308WAT     H1 3026   9.874   9.101   3.269
  308WAT     H2 3027   9.791   9.001   3.348
  309WAT      O 3028   9.999  10.013   3.168
  309WAT     H1 3029   9.965  10.075   3.232
  309WAT     H2 3030  10.016  10.065   3.090
  310WAT      O 3031  10.850   9.394   2.914
  310WAT     H1 3032  10.779   9.423   2.972
  310WAT     H2 3033  10.886   9.475   2.878
  311WAT      O 3034   9.842   9.220   3.151
  311WAT     H1 3035   9.876   9.304   3.121
  311WAT     H2 3036   9.748   9.235   3.162
  312WAT      O 3037  10.210   8.969   2.783
  312WAT     H1 3038  10.241   8.913   2.711
  312WAT     H2 3039  10.117   8.982   2.765
  313WAT      O 3040  10.705  10.031   3.145
  313WAT     H1 3041  10.747  10.009   3.061
  313WAT     H2 3042  10.777  10.056   3.202
  314WAT      O 3043  10.449   9.775   2.457
  314WAT     H1 3044  10.356   9.769   2.480
  314WAT     H2 3045  10.464   9.869   2.445
  315WAT      O 3046  10.447   9.402   2.156
  315WAT     H1 3047  10.353   9.419   2.165
  315WAT     H2 3048  10.479   9.474   2.102
  316WAT      O 3049  10.852   9.931   2.507
  316WAT     H1 3050  10.790   9.898   2.442
  316WAT     H2 3051  10.850   9.867   2.578
  317WAT      O 3052  10.796   9.549   3.249
  317WAT     H1 3053  10.755   9.632   3.274
  317WAT     H2 3054  10.723   9.491   3.229
  318WAT      O 3055  10.009   9.828   2.735
  318WAT     H1 3056   9.969   9.757   2.685
  318WAT     H2 3057  10.018   9.793   2.824
  319WAT      O 3058   9.881   9.505   3.113
  319WAT     H1 3059   9.936   9.516   3.035
  319WAT     H2 3060   9.932   9.543   3.184
  320WAT      O 3061  10.669   9.855   2.208
  320WAT     H1 3062  10.713   9.772   2.193
  320WAT     H2 3063  10.741   9.919   2.216
  321WAT      O 3064   9.848   9.857   3.474
  321WAT     H1 3065   9.834   9.945   3.511
  321WAT     H2 3066   9.760   9.823   3.459
  322WAT      O 3067  11.028   8.981   2.039
  322WAT     H1 3068  10.996   8.990   2.129
  322WAT     H2 3069  11.104   9.039   2.034
  323WAT      O 3070   9.679   9.717   2.485
  323WAT     H1 3071   9.667   9.790   2.424
  323WAT     H2 3072   9.648   9.640   2.437
  324WAT      O 3073   9.443  10.034   3.066
  324WAT     H1 3074   9.451  10.048   2.971
  324WAT     H2 3075   9.505   9.964   3.085
  325WAT      O 3076   9.926   9.052   2.823
  325WAT     H1 3077   9.882   9.130   2.790
  325WAT     H2 3078   9.982   9.084   2.894
  326WAT      O 3079  10.355   9.338   3.383
  326WAT     H1 3080  10.308   9.359   3.465
  326WAT     H2 3081  10.314   9.257   3.353
  327WAT      O 3082  10.855   9.460   3.496
  327WAT     H1 3083  10.770   9.431   3.529
  327WAT     H2 3084  10.839   9.485   3.405
  328WAT      O 3085  10.564   9.610   3.706
  328WAT     H1 3086  10.597   9.527   3.672
  328WAT     H2 3087  10.643   9.663   3.721
  329WAT      O 3088  10.238   9.014   2.311
  329WAT     H1 3089  10.175   9.013   2.384
  329WAT     H2 3090  10.229   8.927   2.272
  330WAT      O 3091  10.130   9.106   3.009
  330WAT     H1 3092  10.159   9.197   3.001
  330WAT     H2 3093  10.185   9.057   2.948
  331WAT      O 3094   9.905   9.564   2.596
  331WAT     H1 3095   9.883   9.542   2.686
  331WAT     H2 3096   9.827   9.607   2.561
  332WAT      O 3097  10.628   9.565   2.456
  332WAT     H1 3098  10.568   9.637   2.437
  332WAT     H2 3099  10.683   9.558   2.378
  333WAT      O 3100  10.149   9.654   3.663
  333WAT     H1 3101  10.140   9.560   3.648
  333WAT     H2 3102  10.233   9.676   3.623
  334WAT      O 3103  10.489   9.428   2.659
  334WAT     H1 3104  10.528   9.460   2.578
  334WAT     H2 3105  10.525   9.340   2.670
  335WAT      O 3106   9.662   9.295   3.478
  335WAT     H1 3107   9.623   9.380   3.499
  335WAT     H2 3108   9.593   9.231   3.497
  336WAT      O 3109  10.320   9.303   3.785
  336WAT     H1 3110  10.251   9.284   3.848
  336WAT     H2 3111  10.394   9.332   3.838
  337WAT      O 3112   9.392   9.087   2.881
  337WAT     H1 3113   9.364   9.144   2.952
  337WAT     H2 3114   9.467   9.039   2.917
  338WAT      O 3115   9.411   9.481   2.002
  338WAT     H1 3116   9.403   9.576   2.016
  338WAT     H2 3117   9.376   9.467   1.914
  339WAT      O 3118  10.547   9.687   3.068
  339WAT     H1 3119  10.474   9.738   3.103
  339WAT     H2 3120  10.508   9.606   3.038
  340WAT      O 3121  10.191   9.355   2.909
  340WAT     H1 3122  10.191   9.311   2.824
  340WAT     H2 3123  10.281   9.387   2.920
  341WAT      O 3124   9.776   9.343   2.805
  341WAT     H1 3125   9.742   9.391   2.881
  341WAT     H2 3126   9.700   9.298   2.769
  342WAT      O 3127  10.197   9.455   2.208
  342WAT     H1 3128  10.209   9.451   2.303
  342WAT     H2 3129  10.159   9.541   2.192
  343WAT      O 3130  10.594   9.233   3.010
  343WAT     H1 3131  10.595   9.278   3.094
  343WAT     H2 3132  10.569   9.143   3.031
  344WAT      O 3133  10.098   9.686   2.148
  344WAT     H1 3134  10.042   9.641   2.085
  344WAT     H2 3135  10.169   9.722   2.094
  345WAT      O 3136  10.936   8.974   3.593
  345WAT     H1 3137  10.969   8.901   3.646
  345WAT     H2 3138  10.940   8.942   3.503
  346WAT      O 3139  10.221   9.761   3.084
  346WAT     H1 3140  10.258   9.713   3.158
  346WAT     H2 3141  10.202   9.848   3.118
  347WAT      O 3142   9.508   9.235   2.697
  347WAT     H1 3143   9.479   9.199   2.780
  347WAT     H2 3144   9.501   9.162   2.635
  348WAT      O 3145  10.000   9.665   3.315
  348WAT     H1 3146   9.970   9.753   3.338
  348WAT     H2 3147  10.096   9.671   3.319
  349WAT      O 3148   9.853  10.086   2.375
  349WAT     H1 3149   9.776  10.032   2.359
  349WAT     H2 3150   9.926  10.034   2.341
  350WAT      O 3151  10.929   9.985   2.954
  350WAT     H1 3152  11.001  10.035   2.915
  350WAT     H2 3153  10.909   9.917   2.890
  351WAT      O 3154  10.475   9.125   2.369
  351WAT     H1 3155  10.394   9.075   2.361
  351WAT     H2 3156  10.456   9.209   2.327
  352WAT      O 3157  10.467   9.992   3.543
  352WAT     H1 3158  10.460   9.900   3.518
  352WAT     H2 3159  10.404  10.002   3.614
  353WAT      O 3160  10.746   9.562   2.198
  353WAT     H1 3161  10.835   9.593   2.181
  353WAT     H2 3162  10.743   9.475   2.159
  354WAT      O 3163   9.857  10.052   2.739
  354WAT     H1 3164   9.909   9.972   2.733
  354WAT     H2 3165   9.812  10.046   2.823
  355WAT      O 3166   9.606   9.749   3.430
  355WAT     H1 3167   9.570   9.816   3.489
  355WAT     H2 3168   9.576   9.666   3.467
  356WAT      O 3169   9.926   9.795   3.719
  356WAT     H1 3170   9.896   9.809   3.629
  356WAT     H2 3171  10.003   9.739   3.709
  357WAT      O 3172  10.974   9.693   2.145
  357WAT     H1 3173  10.965   9.736   2.060
  357WAT     H2 3174  11.045   9.739   2.188
  358WAT      O 3175   9.457   9.749   2.092
  358WAT     H1 3176   9.544   9.777   2.121
  358WAT     H2 3177   9.408   9.830   2.081
  359WAT      O 3178  10.173   9.888   2.505
  359WAT     H1 3179  10.219   9.969   2.527
  359WAT     H2 3180  10.138   9.856   2.588
  360WAT      O 3181   9.763   8.922   2.552
  360WAT     H1 3182   9.750   8.921   2.647
  360WAT     H2 3183   9.681   8.956   2.517
  361WAT      O 3184   9.463   9.098   3.498
  361WAT     H1 3185   9.392   9.118   3.558
  361WAT     H2 3186   9.505   9.020   3.535
  362WAT      O 3187   9.655   9.931   2.305
  362WAT     H1 3188   9.595  10.005   2.306
  362WAT     H2 3189   9.703   9.940   2.223
  363WAT      O 3190  10.613   9.347   3.273
  363WAT     H1 3191  10.649   9.265   3.306
  363WAT     H2 3192  10.527   9.353   3.314
  364WAT      O 3193  10.949   9.243   2.354
  364WAT     H1 3194  10.886   9.253   2.282
  364WAT     H2 3195  10.900   9.265   2.433
  365WAT      O 3196  10.146   9.471   2.495
  365WAT     H1 3197  10.075   9.517   2.539
  365WAT     H2 3198  10.175   9.405   2.559
  366WAT      O 3199  10.309   9.613   3.295
  366WAT     H1 3200  10.359   9.660   3.362
  366WAT     H2 3201  10.323   9.520   3.316
  367WAT      O 3202  10.549   9.143   2.639
  367WAT     H1 3203  10.537   9.145   2.544
  367WAT     H2 3204  10.644   9.148   2.651
  368WAT      O 3205   9.966   9.301   2.233
  368WAT     H1 3206  10.051   9.345   2.226
  368WAT     H2 3207   9.930   9.333   2.316
  369WAT      O 3208  11.029   9.234   3.380
  369WAT     H1 3209  10.979   9.308   3.413
  369WAT     H2 3210  11.111   9.273   3.348
  370WAT      O 3211  10.859   9.759   2.724
  370WAT     H1 3212  10.764   9.760   2.742
  370WAT     H2 3213  10.890   9.680   2.769
  371WAT      O 3214   9.856   9.927   2.080
  371WAT     H1 3215   9.933   9.916   2.136
  371WAT     H2 3216   9.864   9.857   2.015
  372WAT      O 3217   9.726   9.670   2.149
  372WAT     H1 3218   9.734   9.575   2.160
  372WAT     H2 3219   9.815   9.703   2.159
  373WAT      O 3220   9.479   9.852   3.672
  373WAT     H1 3221   9.529   9.794   3.729
  373WAT     H2 3222   9.405   9.881   3.726
  374WAT      O 3223  10.184   9.993   3.625
  374WAT     H1 3224  10.107  10.050   3.617
  374WAT     H2 3225  10.202   9.964   3.536
  375WAT      O 3226  10.493  10.031   2.088
  375WAT     H1 3227  10.438  10.075   2.152
  375WAT     H2 3228  10.555   9.980   2.140
  376WAT      O 3229   9.682   9.666   3.762
  376WAT     H1 3230   9.686   9.637   3.852
  376WAT     H2 3231   9.767   9.707   3.746
  377WAT      O 3232  10.060   9.926   2.278
  377WAT     H1 3233  10.102   9.910   2.362
  377WAT     H2 3234  10.072   9.845   2.228
  378WAT      O 3235   9.876   9.524   3.558
  378WAT     H1 3236   9.823   9.475   3.496
  378WAT     H2 3237   9.943   9.567   3.505
  379WAT      O 3238  10.311   9.829   2.002
  379WAT     H1 3239  10.363   9.757   1.966
  379WAT     H2 3240  10.376   9.893   2.032
  380WAT      O 3241  10.766   9.971   3.535
  380WAT     H1 3242  10.807   9.987   3.620
  380WAT     H2 3243  10.672   9.984   3.551
  381WAT      O 3244  10.813   9.705   3.735
  381WAT     H1 3245  10.871   9.630   3.726
  381WAT     H2 3246  10.830   9.758   3.657
  382WAT      O 3247   9.925   9.221   3.566
  382WAT     H1 3248   9.915   9.159   3.494
  382WAT     H2 3249   9.867   9.294   3.544
  383WAT      O 3250  10.201   9.077   3.270
  383WAT     H1 3251  10.156   9.079   3.185
  383WAT     H2 3252  10.138   9.037   3.329
  384WAT      O 3253  10.242   9.966   3.332
  384WAT     H1 3254  10.284  10.051   3.314
  384WAT     H2 3255  10.150   9.980   3.309
  385WAT      O 3256  10.475   9.739   3.470
  385WAT     H1 3257  10.487   9.680   3.544
  385WAT     H2 3258  10.561   9.743   3.428
  386WAT      O 3259  10.709   9.795   3.328
  386WAT     H1 3260  10.657   9.847   3.267
  386WAT     H2 3261  10.744   9.858   3.391
  387WAT      O 3262   9.949   9.534   1.972
  387WAT     H1 3263   9.929   9.447   2.008
  387WAT     H2 3264   9.932   9.525   1.878
  388WAT      O 3265  10.152   9.394   3.596
  388WAT     H1 3266  10.211   9.363   3.665
  388WAT     H2 3267  10.070   9.346   3.611
  389WAT      O 3268  10.634   9.355   3.619
  389WAT     H1 3269  10.565   9.289   3.613
  389WAT     H2 3270  10.706   9.311   3.664
  390WAT      O 3271  10.697   9.015   2.225
  390WAT     H1 3272  10.725   8.931   2.261
  390WAT     H2 3273  10.620   9.038   2.276
  391WAT      O 3274   9.829   9.244   1.971
  391WAT     H1 3275   9.859   9.244   1.880
  391WAT     H2 3276   9.903   9.209   2.021
  392WAT      O 3277  10.151   9.138   2.070
  392WAT     H1 3278  10.116   9.070   2.012
  392WAT     H2 3279  10.171   9.092   2.151
  393WAT      O 3280   9.485   9.791   2.709
  393WAT     H1 3281   9.419   9.764   2.645
  393WAT     H2 3282   9.569   9.780   2.664
  394WAT      O 3283  10.780   9.270   2.131
  394WAT     H1 3284  10.822   9.252   2.047
  394WAT     H2 3285  10.749   9.185   2.162
  395WAT      O 3286   9.589   9.830   3.163
  395WAT     H1 3287   9.625   9.821   3.251
  395WAT     H2 3288   9.532   9.753   3.153
  396WAT      O 3289  11.069   9.676   3.465
  396WAT     H1 3290  11.046   9.653   3.374
  396WAT     H2 3291  11.095   9.768   3.460
  397WAT      O 3292   9.544   9.521   3.554
  397WAT     H1 3293   9.454   9.517   3.588
  397WAT     H2 3294   9.598   9.540   3.630
  398WAT      O 3295  10.913   9.199   3.742
  398WAT     H1 3296  11.000   9.200   3.781
  398WAT     H2 3297  10.914   9.125   3.681
  399WAT      O 3298   9.406   9.512   2.303
  399WAT     H1 3299   9.316   9.538   2.286
  399WAT     H2 3300   9.455   9.539   2.225
  400WAT      O 3301  11.057   9.584   2.831
  400WAT     H1 3302  11.110   9.535   2.768
  400WAT     H2 3303  11.116   9.598   2.906
  401WAT      O 3304  11.075   9.593   3.183
  401WAT     H1 3305  10.980   9.589   3.195
  401WAT     H2 3306  11.093   9.684   3.160
  402WAT      O 3307   9.661   9.418   2.094
  402WAT     H1 3308   9.731   9.375   2.046
  402WAT     H2 3309   9.589   9.424   2.031
  403WAT      O 3310   9.625   9.023   1.998
  403WAT     H1 3311   9.698   9.077   2.030
  403WAT     H2 3312   9.653   8.996   1.911
  404WAT      O 3313  11.006   9.510   2.425
  404WAT     H1 3314  11.056   9.487   2.504
  404WAT     H2 3315  10.986   9.426   2.383
  405WAT      O 3316   9.594   8.948   2.989
  405WAT     H1 3317   9.659   8.893   2.945
  405WAT     H2 3318   9.636   8.974   3.071
  406WAT      O 3319  10.984   8.967   3.324
  406WAT     H1 3320  11.047   9.029   3.361
  406WAT     H2 3321  10.998   8.971   3.230
  407WAT      O 3322   9.570   8.964   3.263
  407WAT     H1 3323   9.535   9.009   3.339
  407WAT     H2 3324   9.536   8.874   3.271
  408WAT      O 3325  10.321   9.083   3.615
  408WAT     H1 3326  10.315   9.142   3.690
  408WAT     H2 3327  10.415   9.072   3.601
  409WAT      O 3328  10.585   9.048   3.579
  409WAT     H1 3329  10.646   9.080   3.513
  409WAT     H2 3330  10.639   9.000   3.641
  410WAT      O 3331   9.637   8.916   3.590
  410WAT     H1 3332   9.692   8.898   3.514
  410WAT     H2 3333   9.643   8.837   3.644
  411WAT      O 3334  10.659   8.905   3.212
  411WAT     H1 3335  10.571   8.938   3.191
  411WAT     H2 3336  10.648   8.858   3.294
  412WAT      O 3337  10.749   9.125   3.350
  412WAT     H1 3338  10.716   9.044   3.312
  412WAT     H2 3339  10.844   9.121   3.338
  413WAT      O 3340  10.433   8.996   3.106
  413WAT     H1 3341  10.355   9.044   3.134
  413WAT     H2 3342  10.404   8.906   3.095
  414WAT      O 3343  10.889   9.067   2.910
  414WAT     H1 3344  10.933   9.061   2.825
  414WAT     H2 3345  10.862   9.158   2.917
  415WAT      O 3346   9.568   9.027   2.358
  415WAT     H1 3347   9.644   9.038   2.300
  415WAT     H2 3348   9.522   9.111   2.353
  416WAT      O 3349  10.222   9.238   2.657
  416WAT     H1 3350  10.141   9.201   2.623
  416WAT     H2 3351  10.272   9.163   2.687
  417WAT      O 3352  10.672   8.905   2.781
  417WAT     H1 3353  10.732   8.962   2.828
  417WAT     H2 3354  10.598   8.961   2.758
  418WAT      O 3355  10.986   8.945   2.308
  418WAT     H1 3356  11.006   9.035   2.335
  418WAT     H2 3357  10.908   8.922   2.357
  419WAT      O 3358   9.805   9.080   2.212
  419WAT     H1 3359   9.858   9.001   2.199
  419WAT     H2 3360   9.868   9.147   2.235
  420WAT      O 3361  10.024   9.053   2.517
  420WAT     H1 3362   9.961   8.983   2.534
  420WAT     H2 3363   9.970   9.129   2.496
  421WAT      O 3364  10.037   8.981   3.761
  421WAT     H1 3365  10.009   9.032   3.684
  421WAT     H2 3366  10.075   8.901   3.724
  422WAT      O 3367  10.697   8.923   3.819
  422WAT     H1 3368  10.686   8.955   3.908
  422WAT     H2 3369  10.779   8.963   3.789
  423WAT      O 3370  10.588   9.725   0.855
  423WAT     H1 3371  10.580   9.633   0.828
  423WAT     H2 3372  10.546   9.774   0.784
  424WAT      O 3373  10.401   9.902   1.043
  424WAT     H1 3374  10.323   9.854   1.072
  424WAT     H2 3375  10.466   9.834   1.026
  425WAT      O 3376   9.803   9.934   1.131
  425WAT     H1 3377   9.719   9.908   1.171
  425WAT     H2 3378   9.863   9.941   1.204
  426WAT      O 3379   9.643   9.430   0.509
  426WAT     H1 3380   9.555   9.464   0.499
  426WAT     H2 3381   9.672   9.410   0.420
  427WAT      O 3382   9.440   9.690   1.098
  427WAT     H1 3383   9.497   9.613   1.098
  427WAT     H2 3384   9.440   9.720   1.007
  428WAT      O 3385   9.564   9.231   1.276
  428WAT     H1 3386   9.546   9.141   1.304
  428WAT     H2 3387   9.524   9.285   1.344
  429WAT      O 3388  10.448   9.451   1.066
  429WAT     H1 3389  10.486   9.363   1.055
  429WAT     H2 3390  10.438   9.484   0.977
  430WAT      O 3391   9.861   9.288   0.613
  430WAT     H1 3392   9.872   9.378   0.643
  430WAT     H2 3393   9.770   9.283   0.584
  431WAT      O 3394  10.826   9.200   0.760
  431WAT     H1 3395  10.908   9.151   0.764
  431WAT     H2 3396  10.830   9.259   0.835
  432WAT      O 3397   9.626   9.480   1.137
  432WAT     H1 3398   9.694   9.507   1.199
  432WAT     H2 3399   9.594   9.396   1.170
  433WAT      O 3400  10.045   9.585   1.046
  433WAT     H1 3401  10.096   9.635   1.110
  433WAT     H2 3402  10.098   9.507   1.028
  434WAT      O 3403   9.873   9.049   1.472
  434WAT     H1 3404   9.874   9.101   1.392
  434WAT     H2 3405   9.791   9.001   1.470
  435WAT      O 3406   9.999  10.013   1.290
  435WAT     H1 3407   9.965  10.075   1.354
  435WAT     H2 3408  10.016  10.065   1.212
  436WAT      O 3409  10.850   9.394   1.037
  436WAT     H1 3410  10.779   9.423   1.095
  436WAT     H2 3411  10.886   9.475   1.001
  437WAT      O 3412   9.842   9.220   1.273
  437WAT     H1 3413   9.876   9.304   1.244
  437WAT     H2 3414   9.748   9.235   1.285
  438WAT      O 3415  10.210   8.969   0.906
  438WAT     H1 3416  10.241   8.913   0.834
  438WAT     H2 3417  10.117   8.982   0.887
  439WAT      O 3418  10.705  10.031   1.267
  439WAT     H1 3419  10.747  10.009   1.184
  439WAT     H2 3420  10.777  10.056   1.325
  440WAT      O 3421  10.449   9.775   0.579
  440WAT     H1 3422  10.356   9.769   0.602
  440WAT     H2 3423  10.464   9.869   0.568
  441WAT      O 3424  10.447   9.402   0.279
  441WAT     H1 3425  10.353   9.419   0.287
  441WAT     H2 3426  10.479   9.474   0.224
  442WAT      O 3427  10.852   9.931   0.630
  442WAT     H1 3428  10.790   9.898   0.565
  442WAT     H2 3429  10.850   9.867   0.700
  443WAT      O 3430  10.796   9.549   1.371
  443WAT     H1 3431  10.755   9.632   1.397
  443WAT     H2 3432  10.723   9.491   1.352
  444WAT      O 3433  10.009   9.828   0.857
  444WAT     H1 3434   9.969   9.757   0.808
  444WAT     H2 3435  10.018   9.793   0.946
  445WAT      O 3436   9.881   9.505   1.235
  445WAT     H1 3437   9.936   9.516   1.158
  445WAT     H2 3438   9.932   9.543   1.307
  446WAT      O 3439  10.669   9.855   0.330
  446WAT     H1 3440  10.713   9.772   0.316
  446WAT     H2 3441  10.741   9.919   0.339
  447WAT      O 3442   9.848   9.857   1.596
  447WAT     H1 3443   9.834   9.945   1.633
  447WAT     H2 3444   9.760   9.823   1.582
  448WAT      O 3445   9.679   9.717   0.607
  448WAT     H1 3446   9.667   9.790   0.546
  448WAT     H2 3447   9.648   9.640   0.560
  449WAT      O 3448   9.443  10.034   1.188
  449WAT     H1 3449   9.451  10.048   1.094
  449WAT     H2 3450   9.505   9.964   1.207
  450WAT      O 3451   9.926   9.052   0.946
  450WAT     H1 3452   9.882   9.130   0.913
  450WAT     H2 3453   9.982   9.084   1.016
  451WAT      O 3454  10.355   9.338   1.506
  451WAT     H1 3455  10.308   9.359   1.587
  451WAT     H2 3456  10.314   9.257   1.476
  452WAT      O 3457  10.855   9.460   1.619
  452WAT     H1 3458  10.770   9.431   1.651
  452WAT     H2 3459  10.839   9.485   1.528
  453WAT      O 3460  10.564   9.610   1.829
  453WAT     H1 3461  10.597   9.527   1.795
  453WAT     H2 3462  10.643   9.663   1.844
  454WAT      O 3463  10.238   9.014   0.434
  454WAT     H1 3464  10.175   9.013   0.506
  454WAT     H2 3465  10.229   8.927   0.394
  455WAT      O 3466  10.130   9.106   1.132
  455WAT     H1 3467  10.159   9.197   1.124
  455WAT     H2 3468  10.185   9.057   1.070
  456WAT      O 3469   9.905   9.564   0.719
  456WAT     H1 3470   9.883   9.542   0.809
  456WAT     H2 3471   9.827   9.607   0.684
  457WAT      O 3472  10.628   9.565   0.578
  457WAT     H1 3473  10.568   9.637   0.560
  457WAT     H2 3474  10.683   9.558   0.500
  458WAT      O 3475  10.149   9.654   1.785
  458WAT     H1 3476  10.140   9.560   1.770
  458WAT     H2 3477  10.233   9.676   1.746
  459WAT      O 3478  10.489   9.428   0.781
  459WAT     H1 3479  10.528   9.460   0.700
  459WAT     H2 3480  10.525   9.340   0.793
  460WAT      O 3481   9.662   9.295   1.600
  460WAT     H1 3482   9.623   9.380   1.621
  460WAT     H2 3483   9.593   9.231   1.620
  461WAT      O 3484  10.320   9.303   1.907
  461WAT     H1 3485  10.251   9.284   1.971
  461WAT     H2 3486  10.394   9.332   1.961
  462WAT      O 3487   9.392   9.087   1.004
  462WAT     H1 3488   9.364   9.144   1.075
  462WAT     H2 3489   9.467   9.039   1.040
  463WAT      O 3490  10.547   9.687   1.191
  463WAT     H1 3491  10.474   9.738   1.226
  463WAT     H2 3492  10.508   9.606   1.161
  464WAT      O 3493  10.191   9.355   1.031
  464WAT     H1 3494  10.191   9.311   0.947
  464WAT     H2 3495  10.281   9.387   1.042
  465WAT      O 3496   9.776   9.343   0.927
  465WAT     H1 3497   9.742   9.391   1.003
  465WAT     H2 3498   9.700   9.298   0.891
  466WAT      O 3499  10.197   9.455   0.331
  466WAT     H1 3500  10.209   9.451   0.425
  466WAT     H2 3501  10.159   9.541   0.315
  467WAT      O 3502  10.594   9.233   1.132
  467WAT     H1 3503  10.595   9.278   1.217
  467WAT     H2 3504  10.569   9.143   1.154
  468WAT      O 3505  10.098   9.686   0.270
  468WAT     H1 3506  10.042   9.641   0.208
  468WAT     H2 3507  10.169   9.722   0.217
  469WAT      O 3508  10.936   8.974   1.716
  469WAT     H1 3509  10.969   8.901   1.769
  469WAT     H2 3510  10.940   8.942   1.626
  470WAT      O 3511  10.221   9.761   1.206
  470WAT     H1 3512  10.258   9.713   1.281
  470WAT     H2 3513  10.202   9.848   1.240
  471WAT      O 3514   9.508   9.235   0.819
  471WAT     H1 3515   9.479   9.199   0.903
  471WAT     H2 3516   9.501   9.162   0.758
  472WAT      O 3517  10.000   9.665   1.438
  472WAT     H1 3518   9.970   9.753   1.460
  472WAT     H2 3519  10.096   9.671   1.442
  473WAT      O 3520   9.853  10.086   0.498
  473WAT     H1 3521   9.776  10.032   0.482
  473WAT     H2 3522   9.926  10.034   0.464
  474WAT      O 3523  10.929   9.985   1.077
  474WAT     H1 3524  11.001  10.035   1.038
  474WAT     H2 3525  10.909   9.917   1.012
  475WAT      O 3526  10.475   9.125   0.491
  475WAT     H1 3527  10.394   9.075   0.484
  475WAT     H2 3528  10.456   9.209   0.450
  476WAT      O 3529  10.467   9.992   1.666
  476WAT     H1 3530  10.460   9.900   1.640
  476WAT     H2 3531  10.404  10.002   1.737
  477WAT      O 3532  10.746   9.562   0.321
  477WAT     H1 3533  10.835   9.593   0.303
  477WAT     H2 3534  10.743   9.475   0.282
  478WAT      O 3535   9.857  10.052   0.861
  478WAT     H1 3536   9.909   9.972   0.856
  478WAT     H2 3537   9.812  10.046   0.946
  479WAT      O 3538   9.606   9.749   1.553
  479WAT     H1 3539   9.570   9.816   1.611
  479WAT     H2 3540   9.576   9.666   1.590
  480WAT      O 3541   9.926   9.795   1.841
  480WAT     H1 3542   9.896   9.809   1.751
  480WAT     H2 3543  10.003   9.739   1.832
  481WAT      O 3544  10.974   9.693   0.268
  481WAT     H1 3545  10.965   9.736   0.183
  481WAT     H2 3546  11.045   9.739   0.311
  482WAT      O 3547   9.457   9.749   0.215
  482WAT     H1 3548   9.544   9.777   0.243
  482WAT     H2 3549   9.408   9.830   0.204
  483WAT      O 3550  10.173   9.888   0.627
  483WAT     H1 3551  10.219   9.969   0.650
  483WAT     H2 3552  10.138   9.856   0.710
  484WAT      O 3553   9.763   8.922   0.674
  484WAT     H1 3554   9.750   8.921   0.769
  484WAT     H2 3555   9.681   8.956   0.639
  485WAT      O 3556   9.463   9.098   1.620
  485WAT     H1 3557   9.392   9.118   1.681
  485WAT     H2 3558   9.505   9.020   1.658
  486WAT      O 3559   9.655   9.931   0.428
  486WAT     H1 3560   9.595  10.005   0.429
  486WAT     H2 3561   9.703   9.940   0.345
  487WAT      O 3562  10.613   9.347   1.395
  487WAT     H1 3563  10.649   9.265   1.428
  487WAT     H2 3564  10.527   9.353   1.437
  488WAT      O 3565  10.949   9.243   0.476
  488WAT     H1 3566  10.886   9.253   0.405
  488WAT     H2 3567  10.900   9.265   0.555
  489WAT      O 3568  10.146   9.471   0.618
  489WAT     H1 3569  10.075   9.517   0.662
  489WAT     H2 3570  10.175   9.405   0.681
  490WAT      O 3571  10.309   9.613   1.418
  490WAT     H1 3572  10.359   9.660   1.484
  490WAT     H2 3573  10.323   9.520   1.439
  491WAT      O 3574  10.549   9.143   0.762
  491WAT     H1 3575  10.537   9.145   0.667
  491WAT     H2 3576  10.644   9.148   0.774
  492WAT      O 3577   9.966   9.301   0.355
  492WAT     H1 3578  10.051   9.345   0.349
  492WAT     H2 3579   9.930   9.333   0.438
  493WAT      O 3580  11.029   9.234   1.502
  493WAT     H1 3581  10.979   9.308   1.536
  493WAT     H2 3582  11.111   9.273   1.470
  494WAT      O 3583  10.859   9.759   0.847
  494WAT     H1 3584  10.764   9.760   0.864
  494WAT     H2 3585  10.890   9.680   0.891
  495WAT      O 3586   9.726   9.670   0.271
  495WAT     H1 3587   9.734   9.575   0.282
  495WAT     H2 3588   9.815   9.703   0.282
  496WAT      O 3589   9.479   9.852   1.795
  496WAT     H1 3590   9.529   9.794   1.852
  496WAT     H2 3591   9.405   9.881   1.848
  497WAT      O 3592  10.184   9.993   1.748
  497WAT     H1 3593  10.107  10.050   1.740
  497WAT     H2 3594  10.202   9.964   1.659
  498WAT      O 3595  10.493  10.031   0.211
  498WAT     H1 3596  10.438  10.075   0.275
  498WAT     H2 3597  10.555   9.980   0.263
  499WAT      O 3598   9.682   9.666   1.884
  499WAT     H1 3599   9.686   9.637   1.975
  499WAT     H2 3600   9.767   9.707   1.868
  500WAT      O 3601  10.060   9.926   0.400
  500WAT     H1 3602  10.102   9.910   0.484
  500WAT     H2 3603  10.072   9.845   0.351
  501WAT      O 3604   9.876   9.524   1.681
  501WAT     H1 3605   9.823   9.475   1.618
  501WAT     H2 3606   9.943   9.567   1.627
  502WAT      O 3607  10.766   9.971   1.657
  502WAT     H1 3608  10.807   9.987   1.742
  502WAT     H2 3609  10.672   9.984   1.674
  503WAT      O 3610  10.813   9.705   1.858
  503WAT     H1 3611  10.871   9.630   1.849
  503WAT     H2 3612  10.830   9.758   1.780
  504WAT      O 3613   9.925   9.221   1.689
  504WAT     H1 3614   9.915   9.159   1.616
  504WAT     H2 3615   9.867   9.294   1.666
  505WAT      O 3616  10.201   9.077   1.392
  505WAT     H1 3617  10.156   9.079   1.308
  505WAT     H2 3618  10.138   9.037   1.452
  506WAT      O 3619  10.242   9.966   1.454
  506WAT     H1 3620  10.284  10.051   1.437
  506WAT     H2 3621  10.150   9.980   1.431
  507WAT      O 3622  10.475   9.739   1.593
  507WAT     H1 3623  10.487   9.680   1.667
  507WAT     H2 3624  10.561   9.743   1.551
  508WAT      O 3625  10.709   9.795   1.450
  508WAT     H1 3626  10.657   9.847   1.390
  508WAT     H2 3627  10.744   9.858   1.513
  509WAT      O 3628  10.152   9.394   1.718
  509WAT     H1 3629  10.211   9.363   1.787
  509WAT     H2 3630  10.070   9.346   1.734
  510WAT      O 3631  10.634   9.355   1.742
  510WAT     H1 3632  10.565   9.289   1.735
  510WAT     H2 3633  10.706   9.311   1.786
  511WAT      O 3634  10.697   9.015   0.348
  511WAT     H1 3635  10.725   8.931   0.383
  511WAT     H2 3636  10.620   9.038   0.399
  512WAT      O 3637   9.485   9.791   0.832
  512WAT     H1 3638   9.419   9.764   0.767
  512WAT     H2 3639   9.569   9.780   0.787
  513WAT      O 3640  10.780   9.270   0.254
  513WAT     H1 3641  10.822   9.252   0.170
  513WAT     H2 3642  10.749   9.185   0.285
  514WAT      O 3643   9.589   9.830   1.286
  514WAT     H1 3644   9.625   9.821   1.374
  514WAT     H2 3645   9.532   9.753   1.276
  515WAT      O 3646  11.069   9.676   1.587
  515WAT     H1 3647  11.046   9.653   1.497
  515WAT     H2 3648  11.095   9.768   1.583
  516WAT      O 3649   9.544   9.521   1.676
  516WAT     H1 3650   9.454   9.517   1.710
  516WAT     H2 3651   9.598   9.540   1.753
  517WAT      O 3652  10.913   9.199   1.865
  517WAT     H1 3653  11.000   9.200   1.903
  517WAT     H2 3654  10.914   9.125   1.804
  518WAT      O 3655   9.406   9.512   0.426
  518WAT     H1 3656   9.316   9.538   0.409
  518WAT     H2 3657   9.455   9.539   0.348
  519WAT      O 3658  11.057   9.584   0.954
  519WAT     H1 3659  11.110   9.535   0.891
  519WAT     H2 3660  11.116   9.598   1.028
  520WAT      O 3661  11.075   9.593   1.306
  520WAT     H1 3662  10.980   9.589   1.317
  520WAT     H2 3663  11.093   9.684   1.282
  521WAT      O 3664  11.006   9.510   0.548
  521WAT     H1 3665  11.056   9.487   0.626
  521WAT     H2 3666  10.986   9.426   0.506
  522WAT      O 3667   9.594   8.948   1.111
  522WAT     H1 3668   9.659   8.893   1.067
  522WAT     H2 3669   9.636   8.974   1.193
  523WAT      O 3670  10.984   8.967   1.447
  523WAT     H1 3671  11.047   9.029   1.483
  523WAT     H2 3672  10.998   8.971   1.352
  524WAT      O 3673   9.570   8.964   1.385
  524WAT     H1 3674   9.535   9.009   1.462
  524WAT     H2 3675   9.536   8.874   1.394
  525WAT      O 3676  10.321   9.083   1.738
  525WAT     H1 3677  10.315   9.142   1.813
  525WAT     H2 3678  10.415   9.072   1.723
  526WAT      O 3679  10.585   9.048   1.702
  526WAT     H1 3680  10.646   9.080   1.635
  526WAT     H2 3681  10.639   9.000   1.764
  527WAT      O 3682   9.637   8.916   1.713
  527WAT     H1 3683   9.692   8.898   1.637
  527WAT     H2 3684   9.643   8.837   1.767
  528WAT      O 3685  10.659   8.905   1.334
  528WAT     H1 3686  10.571   8.938   1.314
  528WAT     H2 3687  10.648   8.858   1.417
  529WAT      O 3688  10.749   9.125   1.473
  529WAT     H1 3689  10.716   9.044   1.435
  529WAT     H2 3690  10.844   9.121   1.460
  530WAT      O 3691  10.433   8.996   1.228
  530WAT     H1 3692  10.355   9.044   1.256
  530WAT     H2 3693  10.404   8.906   1.217
  531WAT      O 3694  10.889   9.067   1.033
  531WAT     H1 3695  10.933   9.061   0.948
  531WAT     H2 3696  10.862   9.158   1.040
  532WAT      O 3697   9.568   9.027   0.480
  532WAT     H1 3698   9.644   9.038   0.423
  532WAT     H2 3699   9.522   9.111   0.476
  533WAT      O 3700  10.222   9.238   0.779
  533WAT     H1 3701  10.141   9.201   0.745
  533WAT     H2 3702  10.272   9.163   0.810
  534WAT      O 3703  10.672   8.905   0.903
  534WAT     H1 3704  10.732   8.962   0.951
  534WAT     H2 3705  10.598   8.961   0.881
  535WAT      O 3706  10.986   8.945   0.431
  535WAT     H1 3707  11.006   9.035   0.457
  535WAT     H2 3708  10.908   8.922   0.480
  536WAT      O 3709   9.805   9.080   0.334
  536WAT     H1 3710   9.858   9.001   0.321
  536WAT     H2 3711   9.868   9.147   0.358
  537WAT      O 3712  10.024   9.053   0.640
  537WAT     H1 3713   9.961   8.983   0.656
  537WAT     H2 3714   9.970   9.129   0.618
  538WAT      O 3715  10.037   8.981   1.883
  538WAT     H1 3716  10.009   9.032   1.807
  538WAT     H2 3717  10.075   8.901   1.847
  539WAT      O 3718  10.697   8.923   1.941
  539WAT     H1 3719  10.686   8.955   2.031
  539WAT     H2 3720  10.779   8.963   1.911
  540WAT      O 3721  10.588   7.847   6.487
  540WAT     H1 3722  10.580   7.756   6.460
  540WAT     H2 3723  10.546   7.897   6.417
  541WAT      O 3724  10.401   8.025   6.675
  541WAT     H1 3725  10.323   7.977   6.704
  541WAT     H2 3726  10.466   7.957   6.658
  542WAT      O 3727   9.803   8.056   6.763
  542WAT     H1 3728   9.719   8.031   6.803
  542WAT     H2 3729   9.863   8.063   6.837
  543WAT      O 3730  10.803   8.466   6.553
  543WAT     H1 3731  10.757   8.388   6.586
  543WAT     H2 3732  10.884   8.468   6.604
  544WAT      O 3733   9.801   8.460   6.783
  544WAT     H1 3734   9.831   8.371   6.765
  544WAT     H2 3735   9.875   8.515   6.760
  545WAT      O 3736   9.643   7.552   6.141
  545WAT     H1 3737   9.555   7.586   6.131
  545WAT     H2 3738   9.672   7.532   6.052
  546WAT      O 3739   9.440   7.812   6.730
  546WAT     H1 3740   9.497   7.735   6.730
  546WAT     H2 3741   9.440   7.842   6.639
  547WAT      O 3742  10.426   8.694   6.515
  547WAT     H1 3743  10.364   8.740   6.458
  547WAT     H2 3744  10.511   8.710   6.475
  548WAT      O 3745  10.345   8.293   6.676
  548WAT     H1 3746  10.338   8.198   6.660
  548WAT     H2 3747  10.421   8.302   6.733
  549WAT      O 3748   9.564   7.353   6.909
  549WAT     H1 3749   9.546   7.263   6.937
  549WAT     H2 3750   9.524   7.408   6.976
  550WAT      O 3751  10.448   7.573   6.699
  550WAT     H1 3752  10.486   7.486   6.687
  550WAT     H2 3753  10.438   7.607   6.610
  551WAT      O 3754   9.861   7.411   6.245
  551WAT     H1 3755   9.872   7.501   6.276
  551WAT     H2 3756   9.770   7.406   6.216
  552WAT      O 3757  10.826   7.323   6.392
  552WAT     H1 3758  10.908   7.274   6.396
  552WAT     H2 3759  10.830   7.382   6.467
  553WAT      O 3760   9.626   7.603   6.769
  553WAT     H1 3761   9.694   7.629   6.831
  553WAT     H2 3762   9.594   7.519   6.803
  554WAT      O 3763  10.045   7.707   6.678
  554WAT     H1 3764  10.096   7.757   6.742
  554WAT     H2 3765  10.098   7.630   6.661
  555WAT      O 3766   9.873   7.171   7.105
  555WAT     H1 3767   9.874   7.223   7.024
  555WAT     H2 3768   9.791   7.124   7.102
  556WAT      O 3769  10.512   8.183   6.255
  556WAT     H1 3770  10.450   8.229   6.198
  556WAT     H2 3771  10.563   8.252   6.296
  557WAT      O 3772   9.999   8.135   6.922
  557WAT     H1 3773   9.965   8.198   6.987
  557WAT     H2 3774  10.016   8.188   6.845
  558WAT      O 3775  10.850   7.517   6.669
  558WAT     H1 3776  10.779   7.546   6.727
  558WAT     H2 3777  10.886   7.598   6.633
  559WAT      O 3778   9.842   7.342   6.905
  559WAT     H1 3779   9.876   7.427   6.876
  559WAT     H2 3780   9.748   7.357   6.917
  560WAT      O 3781   9.920   8.332   7.104
  560WAT     H1 3782   9.981   8.400   7.076
  560WAT     H2 3783   9.834   8.373   7.095
  561WAT      O 3784   9.449   8.251   5.992
  561WAT     H1 3785   9.411   8.300   5.919
  561WAT     H2 3786   9.475   8.318   6.055
  562WAT      O 3787  11.011   8.479   6.896
  562WAT     H1 3788  10.943   8.546   6.895
  562WAT     H2 3789  11.065   8.498   6.819
  563WAT      O 3790  10.210   7.091   6.538
  563WAT     H1 3791  10.241   7.036   6.466
  563WAT     H2 3792  10.117   7.105   6.520
  564WAT      O 3793  10.765   8.663   6.767
  564WAT     H1 3794  10.766   8.623   6.680
  564WAT     H2 3795  10.710   8.740   6.757
  565WAT      O 3796  10.895   8.335   6.276
  565WAT     H1 3797  10.883   8.241   6.288
  565WAT     H2 3798  10.894   8.371   6.365
  566WAT      O 3799  10.705   8.153   6.900
  566WAT     H1 3800  10.747   8.132   6.816
  566WAT     H2 3801  10.777   8.179   6.957
  567WAT      O 3802  10.449   7.898   6.212
  567WAT     H1 3803  10.356   7.891   6.234
  567WAT     H2 3804  10.464   7.992   6.200
  568WAT      O 3805  10.447   7.525   5.911
  568WAT     H1 3806  10.353   7.541   5.920
  568WAT     H2 3807  10.479   7.597   5.857
  569WAT      O 3808  10.852   8.054   6.262
  569WAT     H1 3809  10.790   8.020   6.197
  569WAT     H2 3810  10.850   7.990   6.333
  570WAT      O 3811  10.796   7.672   7.004
  570WAT     H1 3812  10.755   7.754   7.029
  570WAT     H2 3813  10.723   7.613   6.984
  571WAT      O 3814  10.009   7.950   6.490
  571WAT     H1 3815   9.969   7.879   6.440
  571WAT     H2 3816  10.018   7.916   6.579
  572WAT      O 3817  10.056   8.319   6.706
  572WAT     H1 3818  10.026   8.259   6.638
  572WAT     H2 3819  10.151   8.323   6.695
  573WAT      O 3820   9.881   7.628   6.868
  573WAT     H1 3821   9.936   7.639   6.790
  573WAT     H2 3822   9.932   7.665   6.939
  574WAT      O 3823  10.865   8.676   7.072
  574WAT     H1 3824  10.817   8.757   7.053
  574WAT     H2 3825  10.797   8.611   7.088
  575WAT      O 3826   9.965   8.293   7.371
  575WAT     H1 3827   9.876   8.315   7.396
  575WAT     H2 3828   9.968   8.305   7.276
  576WAT      O 3829  10.669   7.978   5.963
  576WAT     H1 3830  10.713   7.894   5.948
  576WAT     H2 3831  10.741   8.041   5.971
  577WAT      O 3832   9.848   7.980   7.229
  577WAT     H1 3833   9.834   8.067   7.266
  577WAT     H2 3834   9.760   7.946   7.214
  578WAT      O 3835  10.480   8.472   6.359
  578WAT     H1 3836  10.524   8.546   6.318
  578WAT     H2 3837  10.474   8.496   6.452
  579WAT      O 3838  10.028   8.574   7.450
  579WAT     H1 3839  10.025   8.615   7.363
  579WAT     H2 3840  10.011   8.481   7.433
  580WAT      O 3841  11.028   7.103   5.794
  580WAT     H1 3842  10.996   7.113   5.884
  580WAT     H2 3843  11.104   7.161   5.789
  581WAT      O 3844   9.679   7.840   6.240
  581WAT     H1 3845   9.667   7.913   6.179
  581WAT     H2 3846   9.648   7.763   6.192
  582WAT      O 3847   9.443   8.157   6.820
  582WAT     H1 3848   9.451   8.171   6.726
  582WAT     H2 3849   9.505   8.086   6.840
  583WAT      O 3850   9.568   8.327   6.462
  583WAT     H1 3851   9.527   8.341   6.376
  583WAT     H2 3852   9.657   8.299   6.441
  584WAT      O 3853  10.549   8.742   7.152
  584WAT     H1 3854  10.601   8.733   7.232
  584WAT     H2 3855  10.465   8.777   7.181
  585WAT      O 3856  10.747   8.771   6.095
  585WAT     H1 3857  10.731   8.742   6.185
  585WAT     H2 3858  10.730   8.693   6.041
  586WAT      O 3859   9.995   8.748   6.273
  586WAT     H1 3860   9.977   8.657   6.251
  586WAT     H2 3861   9.909   8.784   6.297
  587WAT      O 3862  10.717   8.521   5.951
  587WAT     H1 3863  10.648   8.521   5.885
  587WAT     H2 3864  10.791   8.479   5.908
  588WAT      O 3865  10.674   8.684   6.358
  588WAT     H1 3866  10.719   8.606   6.390
  588WAT     H2 3867  10.708   8.755   6.413
  589WAT      O 3868   9.449   8.261   7.074
  589WAT     H1 3869   9.465   8.214   6.993
  589WAT     H2 3870   9.495   8.210   7.141
  590WAT      O 3871   9.926   7.174   6.578
  590WAT     H1 3872   9.882   7.252   6.545
  590WAT     H2 3873   9.982   7.207   6.649
  591WAT      O 3874  10.355   7.461   7.138
  591WAT     H1 3875  10.308   7.482   7.220
  591WAT     H2 3876  10.314   7.380   7.108
  592WAT      O 3877  10.855   7.583   7.251
  592WAT     H1 3878  10.770   7.553   7.283
  592WAT     H2 3879  10.839   7.607   7.160
  593WAT      O 3880  10.564   7.733   7.461
  593WAT     H1 3881  10.597   7.650   7.427
  593WAT     H2 3882  10.643   7.785   7.476
  594WAT      O 3883  10.238   7.136   6.066
  594WAT     H1 3884  10.175   7.136   6.139
  594WAT     H2 3885  10.229   7.050   6.026
  595WAT      O 3886  10.130   7.229   6.764
  595WAT     H1 3887  10.159   7.319   6.756
  595WAT     H2 3888  10.185   7.180   6.702
  596WAT      O 3889   9.905   7.687   6.351
  596WAT     H1 3890   9.883   7.665   6.441
  596WAT     H2 3891   9.827   7.730   6.316
  597WAT      O 3892  10.628   7.687   6.211
  597WAT     H1 3893  10.568   7.760   6.192
  597WAT     H2 3894  10.683   7.681   6.132
  598WAT      O 3895  10.149   7.776   7.417
  598WAT     H1 3896  10.140   7.682   7.402
  598WAT     H2 3897  10.233   7.799   7.378
  599WAT      O 3898  10.489   7.551   6.414
  599WAT     H1 3899  10.528   7.583   6.332
  599WAT     H2 3900  10.525   7.463   6.425
  600WAT      O 3901   9.662   7.418   7.233
  600WAT     H1 3902   9.623   7.502   7.253
  600WAT     H2 3903   9.593   7.354   7.252
  601WAT      O 3904   9.392   7.210   6.636
  601WAT     H1 3905   9.364   7.267   6.707
  601WAT     H2 3906   9.467   7.162   6.672
  602WAT      O 3907   9.411   7.604   5.757
  602WAT     H1 3908   9.403   7.698   5.771
  602WAT     H2 3909   9.376   7.590   5.669
  603WAT      O 3910  10.547   7.810   6.823
  603WAT     H1 3911  10.474   7.861   6.858
  603WAT     H2 3912  10.508   7.728   6.793
  604WAT      O 3913  10.191   7.477   6.664
  604WAT     H1 3914  10.191   7.433   6.579
  604WAT     H2 3915  10.281   7.510   6.675
  605WAT      O 3916   9.776   7.466   6.560
  605WAT     H1 3917   9.742   7.513   6.635
  605WAT     H2 3918   9.700   7.420   6.524
  606WAT      O 3919  10.197   7.578   5.963
  606WAT     H1 3920  10.209   7.573   6.058
  606WAT     H2 3921  10.159   7.664   5.947
  607WAT      O 3922  10.594   7.355   6.764
  607WAT     H1 3923  10.595   7.400   6.849
  607WAT     H2 3924  10.569   7.265   6.786
  608WAT      O 3925  10.098   7.809   5.903
  608WAT     H1 3926  10.042   7.764   5.840
  608WAT     H2 3927  10.169   7.844   5.849
  609WAT      O 3928  10.936   7.097   7.348
  609WAT     H1 3929  10.969   7.023   7.401
  609WAT     H2 3930  10.940   7.065   7.258
  610WAT      O 3931   9.606   8.199   7.290
  610WAT     H1 3932   9.568   8.135   7.350
  610WAT     H2 3933   9.637   8.269   7.347
  611WAT      O 3934  10.221   7.883   6.838
  611WAT     H1 3935  10.258   7.836   6.913
  611WAT     H2 3936  10.202   7.971   6.873
  612WAT      O 3937   9.508   7.358   6.451
  612WAT     H1 3938   9.479   7.321   6.535
  612WAT     H2 3939   9.501   7.285   6.390
  613WAT      O 3940  10.000   7.788   7.070
  613WAT     H1 3941   9.970   7.875   7.093
  613WAT     H2 3942  10.096   7.794   7.074
  614WAT      O 3943   9.853   8.208   6.130
  614WAT     H1 3944   9.776   8.154   6.114
  614WAT     H2 3945   9.926   8.156   6.096
  615WAT      O 3946  10.929   8.108   6.709
  615WAT     H1 3947  11.001   8.157   6.670
  615WAT     H2 3948  10.909   8.040   6.645
  616WAT      O 3949  10.475   7.247   6.124
  616WAT     H1 3950  10.394   7.197   6.116
  616WAT     H2 3951  10.456   7.331   6.082
  617WAT      O 3952  10.467   8.115   7.298
  617WAT     H1 3953  10.460   8.023   7.272
  617WAT     H2 3954  10.404   8.125   7.369
  618WAT      O 3955  10.746   7.684   5.953
  618WAT     H1 3956  10.835   7.716   5.936
  618WAT     H2 3957  10.743   7.597   5.914
  619WAT      O 3958   9.857   8.175   6.494
  619WAT     H1 3959   9.909   8.095   6.488
  619WAT     H2 3960   9.812   8.169   6.578
  620WAT      O 3961  10.346   8.302   6.021
  620WAT     H1 3962  10.380   8.376   5.971
  620WAT     H2 3963  10.263   8.333   6.057
  621WAT      O 3964   9.606   7.872   7.185
  621WAT     H1 3965   9.570   7.938   7.244
  621WAT     H2 3966   9.576   7.788   7.222
  622WAT      O 3967   9.926   7.917   7.473
  622WAT     H1 3968   9.896   7.932   7.384
  622WAT     H2 3969  10.003   7.861   7.464
  623WAT      O 3970  10.460   8.397   7.273
  623WAT     H1 3971  10.462   8.304   7.251
  623WAT     H2 3972  10.389   8.406   7.337
  624WAT      O 3973  10.974   7.816   5.900
  624WAT     H1 3974  10.965   7.859   5.815
  624WAT     H2 3975  11.045   7.861   5.943
  625WAT      O 3976  11.076   8.501   6.173
  625WAT     H1 3977  11.012   8.435   6.200
  625WAT     H2 3978  11.038   8.541   6.095
  626WAT      O 3979  10.634   8.234   6.557
  626WAT     H1 3980  10.670   8.174   6.491
  626WAT     H2 3981  10.546   8.201   6.575
  627WAT      O 3982  10.243   8.310   6.298
  627WAT     H1 3983  10.312   8.364   6.336
  627WAT     H2 3984  10.164   8.364   6.302
  628WAT      O 3985   9.457   7.871   5.847
  628WAT     H1 3986   9.544   7.900   5.876
  628WAT     H2 3987   9.408   7.953   5.836
  629WAT      O 3988  10.173   8.010   6.259
  629WAT     H1 3989  10.219   8.091   6.282
  629WAT     H2 3990  10.138   7.978   6.343
  630WAT      O 3991  10.404   8.561   6.982
  630WAT     H1 3992  10.468   8.582   7.050
  630WAT     H2 3993  10.440   8.485   6.937
  631WAT      O 3994   9.763   7.045   6.307
  631WAT     H1 3995   9.750   7.044   6.402
  631WAT     H2 3996   9.681   7.078   6.272
  632WAT      O 3997  10.531   8.362   6.854
  632WAT     H1 3998  10.595   8.292   6.865
  632WAT     H2 3999  10.583   8.440   6.836
  633WAT      O 4000  10.915   8.390   5.827
  633WAT     H1 4001  10.893   8.318   5.886
  633WAT     H2 4002  10.876   8.365   5.743
  634WAT      O 4003  10.708   8.442   7.174
  634WAT     H1 4004  10.742   8.500   7.242
  634WAT     H2 4005  10.616   8.428   7.197
  635WAT      O 4006   9.494   8.793   5.904
  635WAT     H1 4007   9.530   8.853   5.839
  635WAT     H2 4008   9.479   8.847   5.981
  636WAT      O 4009   9.463   7.221   7.253
  636WAT     H1 4010   9.392   7.240   7.313
  636WAT     H2 4011   9.505   7.143   7.290
  637WAT      O 4012  10.874   8.182   5.993
  637WAT     H1 4013  10.845   8.228   6.071
  637WAT     H2 4014  10.953   8.136   6.019
  638WAT      O 4015   9.492   8.619   7.351
  638WAT     H1 4016   9.503   8.525   7.337
  638WAT     H2 4017   9.427   8.646   7.287
  639WAT      O 4018  10.095   8.531   5.986
  639WAT     H1 4019  10.094   8.604   5.924
  639WAT     H2 4020  10.003   8.506   5.995
  640WAT      O 4021   9.655   8.053   6.060
  640WAT     H1 4022   9.595   8.127   6.061
  640WAT     H2 4023   9.703   8.062   5.978
  641WAT      O 4024  10.613   7.470   7.028
  641WAT     H1 4025  10.649   7.388   7.061
  641WAT     H2 4026  10.527   7.476   7.069
  642WAT      O 4027  10.949   7.365   6.109
  642WAT     H1 4028  10.886   7.376   6.037
  642WAT     H2 4029  10.900   7.387   6.188
  643WAT      O 4030  10.394   8.537   5.852
  643WAT     H1 4031  10.404   8.517   5.759
  643WAT     H2 4032  10.304   8.512   5.872
  644WAT      O 4033  10.146   7.593   6.250
  644WAT     H1 4034  10.075   7.640   6.294
  644WAT     H2 4035  10.175   7.527   6.314
  645WAT      O 4036  10.309   7.735   7.050
  645WAT     H1 4037  10.359   7.783   7.117
  645WAT     H2 4038  10.323   7.643   7.071
  646WAT      O 4039  10.549   7.266   6.394
  646WAT     H1 4040  10.537   7.268   6.299
  646WAT     H2 4041  10.644   7.270   6.406
  647WAT      O 4042  10.258   8.789   6.321
  647WAT     H1 4043  10.283   8.785   6.229
  647WAT     H2 4044  10.163   8.777   6.321
  648WAT      O 4045   9.966   7.424   5.988
  648WAT     H1 4046  10.051   7.468   5.981
  648WAT     H2 4047   9.930   7.455   6.070
  649WAT      O 4048  11.029   7.357   7.134
  649WAT     H1 4049  10.979   7.431   7.168
  649WAT     H2 4050  11.111   7.396   7.103
  650WAT      O 4051  10.859   7.881   6.479
  650WAT     H1 4052  10.764   7.883   6.496
  650WAT     H2 4053  10.890   7.802   6.524
  651WAT      O 4054   9.856   8.049   5.835
  651WAT     H1 4055   9.933   8.038   5.891
  651WAT     H2 4056   9.864   7.980   5.770
  652WAT      O 4057   9.726   7.793   5.903
  652WAT     H1 4058   9.734   7.698   5.915
  652WAT     H2 4059   9.815   7.826   5.914
  653WAT      O 4060   9.806   8.808   6.614
  653WAT     H1 4061   9.880   8.753   6.641
  653WAT     H2 4062   9.844   8.894   6.600
  654WAT      O 4063   9.494   8.414   6.201
  654WAT     H1 4064   9.402   8.438   6.200
  654WAT     H2 4065   9.541   8.497   6.189
  655WAT      O 4066  10.117   8.725   5.796
  655WAT     H1 4067  10.196   8.754   5.751
  655WAT     H2 4068  10.065   8.682   5.728
  656WAT      O 4069  10.733   8.710   7.388
  656WAT     H1 4070  10.828   8.701   7.383
  656WAT     H2 4071  10.718   8.776   7.456
  657WAT      O 4072  11.022   8.648   5.938
  657WAT     H1 4073  10.994   8.606   5.857
  657WAT     H2 4074  11.003   8.740   5.926
  658WAT      O 4075   9.479   7.975   7.427
  658WAT     H1 4076   9.529   7.917   7.484
  658WAT     H2 4077   9.405   8.003   7.481
  659WAT      O 4078  10.169   8.247   5.782
  659WAT     H1 4079  10.158   8.185   5.855
  659WAT     H2 4080  10.152   8.195   5.704
  660WAT      O 4081  10.184   8.115   7.380
  660WAT     H1 4082  10.107   8.172   7.372
  660WAT     H2 4083  10.202   8.086   7.291
  661WAT      O 4084  10.493   8.153   5.843
  661WAT     H1 4085  10.438   8.198   5.907
  661WAT     H2 4086  10.555   8.103   5.895
  662WAT      O 4087  10.898   8.288   7.436
  662WAT     H1 4088  10.972   8.322   7.386
  662WAT     H2 4089  10.822   8.305   7.381
  663WAT      O 4090  10.060   8.049   6.032
  663WAT     H1 4091  10.102   8.032   6.117
  663WAT     H2 4092  10.072   7.968   5.983
  664WAT      O 4093   9.876   7.647   7.313
  664WAT     H1 4094   9.823   7.598   7.250
  664WAT     H2 4095   9.943   7.690   7.260
  665WAT      O 4096  10.311   7.951   5.757
  665WAT     H1 4097  10.363   7.880   5.721
  665WAT     H2 4098  10.376   8.015   5.787
  666WAT      O 4099  10.766   8.094   7.290
  666WAT     H1 4100  10.807   8.109   7.375
  666WAT     H2 4101  10.672   8.106   7.306
  667WAT      O 4102  10.813   7.828   7.490
  667WAT     H1 4103  10.871   7.752   7.481
  667WAT     H2 4104  10.830   7.881   7.412
  668WAT      O 4105   9.925   7.344   7.321
  668WAT     H1 4106   9.915   7.282   7.249
  668WAT     H2 4107   9.867   7.416   7.298
  669WAT      O 4108  10.201   7.199   7.024
  669WAT     H1 4109  10.156   7.202   6.940
  669WAT     H2 4110  10.138   7.159   7.084
  670WAT      O 4111  10.242   8.089   7.087
  670WAT     H1 4112  10.284   8.173   7.069
  670WAT     H2 4113  10.150   8.103   7.064
  671WAT      O 4114  10.475   7.862   7.225
  671WAT     H1 4115  10.487   7.802   7.299
  671WAT     H2 4116  10.561   7.866   7.183
  672WAT      O 4117  10.709   7.917   7.083
  672WAT     H1 4118  10.657   7.970   7.022
  672WAT     H2 4119  10.744   7.981   7.146
  673WAT      O 4120   9.949   7.656   5.727
  673WAT     H1 4121   9.929   7.570   5.763
  673WAT     H2 4122   9.932   7.648   5.633
  674WAT      O 4123  10.027   8.719   7.198
  674WAT     H1 4124   9.973   8.792   7.166
  674WAT     H2 4125  10.052   8.672   7.119
  675WAT      O 4126  10.152   7.516   7.351
  675WAT     H1 4127  10.211   7.485   7.419
  675WAT     H2 4128  10.070   7.469   7.366
  676WAT      O 4129  10.634   7.478   7.374
  676WAT     H1 4130  10.565   7.412   7.368
  676WAT     H2 4131  10.706   7.433   7.419
  677WAT      O 4132  10.697   7.137   5.980
  677WAT     H1 4133  10.725   7.053   6.016
  677WAT     H2 4134  10.620   7.161   6.031
  678WAT      O 4135   9.829   7.366   5.726
  678WAT     H1 4136   9.859   7.367   5.635
  678WAT     H2 4137   9.903   7.331   5.776
  679WAT      O 4138  10.312   8.843   7.224
  679WAT     H1 4139  10.305   8.933   7.255
  679WAT     H2 4140  10.222   8.811   7.221
  680WAT      O 4141  10.151   7.261   5.824
  680WAT     H1 4142  10.116   7.193   5.766
  680WAT     H2 4143  10.171   7.215   5.906
  681WAT      O 4144  10.367   8.759   5.986
  681WAT     H1 4145  10.457   8.793   5.988
  681WAT     H2 4146  10.370   8.687   5.924
  682WAT      O 4147   9.731   8.297   5.809
  682WAT     H1 4148   9.775   8.351   5.875
  682WAT     H2 4149   9.780   8.214   5.810
  683WAT      O 4150   9.453   8.576   6.554
  683WAT     H1 4151   9.486   8.489   6.531
  683WAT     H2 4152   9.496   8.596   6.637
  684WAT      O 4153   9.912   8.409   6.320
  684WAT     H1 4154   9.882   8.396   6.410
  684WAT     H2 4155   9.902   8.323   6.280
  685WAT      O 4156   9.502   8.662   6.828
  685WAT     H1 4157   9.458   8.680   6.911
  685WAT     H2 4158   9.558   8.738   6.814
  686WAT      O 4159  11.065   8.613   7.257
  686WAT     H1 4160  11.005   8.618   7.183
  686WAT     H2 4161  11.078   8.519   7.270
  687WAT      O 4162   9.485   7.914   6.464
  687WAT     H1 4163   9.419   7.887   6.400
  687WAT     H2 4164   9.569   7.903   6.419
  688WAT      O 4165  10.934   8.285   7.067
  688WAT     H1 4166  10.852   8.328   7.093
  688WAT     H2 4167  10.975   8.346   7.005
  689WAT      O 4168  10.780   7.393   5.886
  689WAT     H1 4169  10.822   7.374   5.802
  689WAT     H2 4170  10.749   7.308   5.917
  690WAT      O 4171   9.589   7.952   6.918
  690WAT     H1 4172   9.625   7.943   7.006
  690WAT     H2 4173   9.532   7.876   6.908
  691WAT      O 4174  11.069   7.799   7.219
  691WAT     H1 4175  11.046   7.776   7.129
  691WAT     H2 4176  11.095   7.891   7.215
  692WAT      O 4177   9.544   7.643   7.309
  692WAT     H1 4178   9.454   7.640   7.343
  692WAT     H2 4179   9.598   7.663   7.385
  693WAT      O 4180   9.406   7.635   6.058
  693WAT     H1 4181   9.316   7.661   6.041
  693WAT     H2 4182   9.455   7.662   5.980
  694WAT      O 4183  11.057   7.707   6.586
  694WAT     H1 4184  11.110   7.657   6.523
  694WAT     H2 4185  11.116   7.720   6.661
  695WAT      O 4186  11.075   7.715   6.938
  695WAT     H1 4187  10.980   7.712   6.950
  695WAT     H2 4188  11.093   7.806   6.915
  696WAT      O 4189   9.661   7.540   5.849
  696WAT     H1 4190   9.731   7.498   5.801
  696WAT     H2 4191   9.589   7.547   5.786
  697WAT      O 4192   9.625   7.146   5.753
  697WAT     H1 4193   9.698   7.200   5.785
  697WAT     H2 4194   9.653   7.118   5.666
  698WAT      O 4195  11.006   7.633   6.180
  698WAT     H1 4196  11.056   7.609   6.258
  698WAT     H2 4197  10.986   7.549   6.138
  699WAT      O 4198   9.594   7.071   6.743
  699WAT     H1 4199   9.659   7.016   6.699
  699WAT     H2 4200   9.636   7.096   6.826
  700WAT      O 4201  10.984   7.090   7.079
  700WAT     H1 4202  11.047   7.151   7.116
  700WAT     H2 4203  10.998   7.094   6.985
  701WAT      O 4204  10.940   8.760   6.419
  701WAT     H1 4205  10.999   8.728   6.352
  701WAT     H2 4206  10.965   8.713   6.499
  702WAT      O 4207   9.570   7.086   7.018
  702WAT     H1 4208   9.535   7.132   7.094
  702WAT     H2 4209   9.536   6.997   7.026
  703WAT      O 4210  10.100   8.559   6.994
  703WAT     H1 4211  10.076   8.586   6.906
  703WAT     H2 4212  10.194   8.576   7.000
  704WAT      O 4213  10.321   7.205   7.370
  704WAT     H1 4214  10.315   7.265   7.445
  704WAT     H2 4215  10.415   7.195   7.355
  705WAT      O 4216  10.585   7.171   7.334
  705WAT     H1 4217  10.646   7.203   7.268
  705WAT     H2 4218  10.639   7.123   7.396
  706WAT      O 4219   9.637   7.039   7.345
  706WAT     H1 4220   9.692   7.021   7.269
  706WAT     H2 4221   9.643   6.960   7.399
  707WAT      O 4222   9.714   8.698   7.146
  707WAT     H1 4223   9.655   8.685   7.220
  707WAT     H2 4224   9.713   8.614   7.100
  708WAT      O 4225  10.659   7.027   6.967
  708WAT     H1 4226  10.571   7.061   6.946
  708WAT     H2 4227  10.648   6.980   7.049
  709WAT      O 4228  10.749   7.248   7.105
  709WAT     H1 4229  10.716   7.167   7.067
  709WAT     H2 4230  10.844   7.244   7.093
  710WAT      O 4231  10.995   8.825   6.802
  710WAT     H1 4232  10.949   8.900   6.765
  710WAT     H2 4233  10.932   8.753   6.796
  711WAT      O 4234   9.677   8.435   7.041
  711WAT     H1 4235   9.605   8.373   7.035
  711WAT     H2 4236   9.683   8.474   6.954
  712WAT      O 4237  10.038   8.656   6.720
  712WAT     H1 4238  10.089   8.595   6.667
  712WAT     H2 4239  10.103   8.706   6.769
  713WAT      O 4240  10.312   8.745   6.803
  713WAT     H1 4241  10.340   8.720   6.715
  713WAT     H2 4242  10.363   8.690   6.862
  714WAT      O 4243  10.433   7.119   6.860
  714WAT     H1 4244  10.355   7.166   6.888
  714WAT     H2 4245  10.404   7.029   6.850
  715WAT      O 4246  10.889   7.189   6.665
  715WAT     H1 4247  10.933   7.184   6.580
  715WAT     H2 4248  10.862   7.281   6.672
  716WAT      O 4249   9.505   8.766   6.362
  716WAT     H1 4250   9.489   8.703   6.432
  716WAT     H2 4251   9.419   8.787   6.327
  717WAT      O 4252   9.568   7.150   6.113
  717WAT     H1 4253   9.644   7.161   6.055
  717WAT     H2 4254   9.522   7.233   6.108
  718WAT      O 4255  10.222   7.361   6.412
  718WAT     H1 4256  10.141   7.323   6.378
  718WAT     H2 4257  10.272   7.285   6.442
  719WAT      O 4258  10.672   7.027   6.535
  719WAT     H1 4259  10.732   7.085   6.583
  719WAT     H2 4260  10.598   7.084   6.513
  720WAT      O 4261  10.986   7.068   6.063
  720WAT     H1 4262  11.006   7.157   6.090
  720WAT     H2 4263  10.908   7.044   6.112
  721WAT      O 4264   9.666   8.636   6.107
  721WAT     H1 4265   9.614   8.674   6.036
  721WAT     H2 4266   9.659   8.698   6.179
  722WAT      O 4267   9.805   7.202   5.967
  722WAT     H1 4268   9.858   7.123   5.954
  722WAT     H2 4269   9.868   7.270   5.990
  723WAT      O 4270  10.024   7.176   6.272
  723WAT     H1 4271   9.961   7.106   6.289
  723WAT     H2 4272   9.970   7.252   6.250
  724WAT      O 4273   9.926   8.831   5.994
  724WAT     H1 4274   9.999   8.802   5.940
  724WAT     H2 4275   9.952   8.807   6.083
  725WAT      O 4276   9.842   8.442   5.995
  725WAT     H1 4277   9.779   8.489   6.050
  725WAT     H2 4278   9.854   8.358   6.038
  726WAT      O 4279  10.588   7.847   4.610
  726WAT     H1 4280  10.580   7.756   4.583
  726WAT     H2 4281  10.546   7.897   4.539
  727WAT      O 4282  10.401   8.025   4.798
  727WAT     H1 4283  10.323   7.977   4.827
  727WAT     H2 4284  10.466   7.957   4.780
  728WAT      O 4285   9.803   8.056   4.886
  728WAT     H1 4286   9.719   8.031   4.926
  728WAT     H2 4287   9.863   8.063   4.959
  729WAT      O 4288  10.803   8.466   4.676
  729WAT     H1 4289  10.757   8.388   4.709
  729WAT     H2 4290  10.884   8.468   4.726
  730WAT      O 4291   9.801   8.460   4.905
  730WAT     H1 4292   9.831   8.371   4.887
  730WAT     H2 4293   9.875   8.515   4.882
  731WAT      O 4294   9.643   7.552   4.264
  731WAT     H1 4295   9.555   7.586   4.254
  731WAT     H2 4296   9.672   7.532   4.175
  732WAT      O 4297   9.440   7.812   4.852
  732WAT     H1 4298   9.497   7.735   4.852
  732WAT     H2 4299   9.440   7.842   4.762
  733WAT      O 4300  10.426   8.694   4.638
  733WAT     H1 4301  10.364   8.740   4.581
  733WAT     H2 4302  10.511   8.710   4.598
  734WAT      O 4303  10.345   8.293   4.799
  734WAT     H1 4304  10.338   8.198   4.782
  734WAT     H2 4305  10.421   8.302   4.856
  735WAT      O 4306   9.564   7.353   5.031
  735WAT     H1 4307   9.546   7.263   5.059
  735WAT     H2 4308   9.524   7.408   5.099
  736WAT      O 4309  10.448   7.573   4.821
  736WAT     H1 4310  10.486   7.486   4.810
  736WAT     H2 4311  10.438   7.607   4.732
  737WAT      O 4312   9.861   7.411   4.367
  737WAT     H1 4313   9.872   7.501   4.398
  737WAT     H2 4314   9.770   7.406   4.338
  738WAT      O 4315  10.826   7.323   4.515
  738WAT     H1 4316  10.908   7.274   4.519
  738WAT     H2 4317  10.830   7.382   4.590
  739WAT      O 4318   9.626   7.603   4.892
  739WAT     H1 4319   9.694   7.629   4.954
  739WAT     H2 4320   9.594   7.519   4.925
  740WAT      O 4321  10.045   7.707   4.801
  740WAT     H1 4322  10.096   7.757   4.865
  740WAT     H2 4323  10.098   7.630   4.783
  741WAT      O 4324   9.873   7.171   5.227
  741WAT     H1 4325   9.874   7.223   5.147
  741WAT     H2 4326   9.791   7.124   5.225
  742WAT      O 4327  10.512   8.183   4.377
  742WAT     H1 4328  10.450   8.229   4.321
  742WAT     H2 4329  10.563   8.252   4.419
  743WAT      O 4330   9.999   8.135   5.045
  743WAT     H1 4331   9.965   8.198   5.109
  743WAT     H2 4332  10.016   8.188   4.967
  744WAT      O 4333  10.850   7.517   4.792
  744WAT     H1 4334  10.779   7.546   4.850
  744WAT     H2 4335  10.886   7.598   4.756
  745WAT      O 4336   9.842   7.342   5.028
  745WAT     H1 4337   9.876   7.427   4.999
  745WAT     H2 4338   9.748   7.357   5.040
  746WAT      O 4339   9.920   8.332   5.227
  746WAT     H1 4340   9.981   8.400   5.198
  746WAT     H2 4341   9.834   8.373   5.217
  747WAT      O 4342   9.449   8.251   4.115
  747WAT     H1 4343   9.411   8.300   4.041
  747WAT     H2 4344   9.475   8.318   4.178
  748WAT      O 4345  11.011   8.479   5.018
  748WAT     H1 4346  10.943   8.546   5.017
  748WAT     H2 4347  11.065   8.498   4.942
  749WAT      O 4348  10.210   7.091   4.660
  749WAT     H1 4349  10.241   7.036   4.589
  749WAT     H2 4350  10.117   7.105   4.642
  750WAT      O 4351  10.765   8.663   4.890
  750WAT     H1 4352  10.766   8.623   4.803
  750WAT     H2 4353  10.710   8.740   4.879
  751WAT      O 4354  10.895   8.335   4.398
  751WAT     H1 4355  10.883   8.241   4.411
  751WAT     H2 4356  10.894   8.371   4.487
  752WAT      O 4357  10.705   8.153   5.022
  752WAT     H1 4358  10.747   8.132   4.939
  752WAT     H2 4359  10.777   8.179   5.079
  753WAT      O 4360  10.449   7.898   4.334
  753WAT     H1 4361  10.356   7.891   4.357
  753WAT     H2 4362  10.464   7.992   4.323
  754WAT      O 4363  10.447   7.525   4.034
  754WAT     H1 4364  10.353   7.541   4.042
  754WAT     H2 4365  10.479   7.597   3.979
  755WAT      O 4366  10.852   8.054   4.384
  755WAT     H1 4367  10.790   8.020   4.320
  755WAT     H2 4368  10.850   7.990   4.455
  756WAT      O 4369  10.796   7.672   5.126
  756WAT     H1 4370  10.755   7.754   5.151
  756WAT     H2 4371  10.723   7.613   5.107
  757WAT      O 4372  10.009   7.950   4.612
  757WAT     H1 4373   9.969   7.879   4.563
  757WAT     H2 4374  10.018   7.916   4.701
  758WAT      O 4375  10.056   8.319   4.829
  758WAT     H1 4376  10.026   8.259   4.761
  758WAT     H2 4377  10.151   8.323   4.818
  759WAT      O 4378   9.881   7.628   4.990
  759WAT     H1 4379   9.936   7.639   4.913
  759WAT     H2 4380   9.932   7.665   5.062
  760WAT      O 4381  10.865   8.676   5.195
  760WAT     H1 4382  10.817   8.757   5.176
  760WAT     H2 4383  10.797   8.611   5.210
  761WAT      O 4384   9.965   8.293   5.494
  761WAT     H1 4385   9.876   8.315   5.518
  761WAT     H2 4386   9.968   8.305   5.399
  762WAT      O 4387  10.669   7.978   4.085
  762WAT     H1 4388  10.713   7.894   4.071
  762WAT     H2 4389  10.741   8.041   4.094
  763WAT      O 4390   9.848   7.980   5.351
  763WAT     H1 4391   9.834   8.067   5.388
  763WAT     H2 4392   9.760   7.946   5.337
  764WAT      O 4393  10.480   8.472   4.482
  764WAT     H1 4394  10.524   8.546   4.441
  764WAT     H2 4395  10.474   8.496   4.574
  765WAT      O 4396  10.028   8.574   5.572
  765WAT     H1 4397  10.025   8.615   5.485
  765WAT     H2 4398  10.011   8.481   5.556
  766WAT      O 4399  11.028   7.103   3.917
  766WAT     H1 4400  10.996   7.113   4.007
  766WAT     H2 4401  11.104   7.161   3.912
  767WAT      O 4402   9.679   7.840   4.362
  767WAT     H1 4403   9.667   7.913   4.301
  767WAT     H2 4404   9.648   7.763   4.315
  768WAT      O 4405   9.443   8.157   4.943
  768WAT     H1 4406   9.451   8.171   4.849
  768WAT     H2 4407   9.505   8.086   4.962
  769WAT      O 4408   9.568   8.327   4.584
  769WAT     H1 4409   9.527   8.341   4.499
  769WAT     H2 4410   9.657   8.299   4.564
  770WAT      O 4411  10.549   8.742   5.275
  770WAT     H1 4412  10.601   8.733   5.355
  770WAT     H2 4413  10.465   8.777   5.304
  771WAT      O 4414  10.747   8.771   4.218
  771WAT     H1 4415  10.731   8.742   4.307
  771WAT     H2 4416  10.730   8.693   4.164
  772WAT      O 4417   9.995   8.748   4.395
  772WAT     H1 4418   9.977   8.657   4.374
  772WAT     H2 4419   9.909   8.784   4.419
  773WAT      O 4420  10.717   8.521   4.074
  773WAT     H1 4421  10.648   8.521   4.008
  773WAT     H2 4422  10.791   8.479   4.031
  774WAT      O 4423  10.674   8.684   4.481
  774WAT     H1 4424  10.719   8.606   4.512
  774WAT     H2 4425  10.708   8.755   4.535
  775WAT      O 4426   9.449   8.261   5.197
  775WAT     H1 4427   9.465   8.214   5.115
  775WAT     H2 4428   9.495   8.210   5.263
  776WAT      O 4429   9.926   7.174   4.701
  776WAT     H1 4430   9.882   7.252   4.667
  776WAT     H2 4431   9.982   7.207   4.771
  777WAT      O 4432  10.355   7.461   5.261
  777WAT     H1 4433  10.308   7.482   5.342
  777WAT     H2 4434  10.314   7.380   5.231
  778WAT      O 4435  10.855   7.583   5.374
  778WAT     H1 4436  10.770   7.553   5.406
  778WAT     H2 4437  10.839   7.607   5.283
  779WAT      O 4438  10.564   7.733   5.584
  779WAT     H1 4439  10.597   7.650   5.550
  779WAT     H2 4440  10.643   7.785   5.599
  780WAT      O 4441  10.238   7.136   4.189
  780WAT     H1 4442  10.175   7.136   4.261
  780WAT     H2 4443  10.229   7.050   4.149
  781WAT      O 4444  10.130   7.229   4.886
  781WAT     H1 4445  10.159   7.319   4.878
  781WAT     H2 4446  10.185   7.180   4.825
  782WAT      O 4447   9.905   7.687   4.473
  782WAT     H1 4448   9.883   7.665   4.564
  782WAT     H2 4449   9.827   7.730   4.439
  783WAT      O 4450  10.628   7.687   4.333
  783WAT     H1 4451  10.568   7.760   4.315
  783WAT     H2 4452  10.683   7.681   4.255
  784WAT      O 4453  10.149   7.776   5.540
  784WAT     H1 4454  10.140   7.682   5.525
  784WAT     H2 4455  10.233   7.799   5.500
  785WAT      O 4456  10.489   7.551   4.536
  785WAT     H1 4457  10.528   7.583   4.455
  785WAT     H2 4458  10.525   7.463   4.548
  786WAT      O 4459   9.662   7.418   5.355
  786WAT     H1 4460   9.623   7.502   5.376
  786WAT     H2 4461   9.593   7.354   5.374
  787WAT      O 4462  10.320   7.426   5.662
  787WAT     H1 4463  10.251   7.407   5.726
  787WAT     H2 4464  10.394   7.454   5.716
  788WAT      O 4465   9.392   7.210   4.759
  788WAT     H1 4466   9.364   7.267   4.830
  788WAT     H2 4467   9.467   7.162   4.795
  789WAT      O 4468   9.411   7.604   3.880
  789WAT     H1 4469   9.403   7.698   3.894
  789WAT     H2 4470   9.376   7.590   3.792
  790WAT      O 4471  10.547   7.810   4.946
  790WAT     H1 4472  10.474   7.861   4.981
  790WAT     H2 4473  10.508   7.728   4.916
  791WAT      O 4474  10.191   7.477   4.786
  791WAT     H1 4475  10.191   7.433   4.701
  791WAT     H2 4476  10.281   7.510   4.797
  792WAT      O 4477   9.776   7.466   4.682
  792WAT     H1 4478   9.742   7.513   4.758
  792WAT     H2 4479   9.700   7.420   4.646
  793WAT      O 4480  10.197   7.578   4.085
  793WAT     H1 4481  10.209   7.573   4.180
  793WAT     H2 4482  10.159   7.664   4.070
  794WAT      O 4483  10.594   7.355   4.887
  794WAT     H1 4484  10.595   7.400   4.971
  794WAT     H2 4485  10.569   7.265   4.908
  795WAT      O 4486  10.098   7.809   4.025
  795WAT     H1 4487  10.042   7.764   3.963
  795WAT     H2 4488  10.169   7.844   3.972
  796WAT      O 4489  10.936   7.097   5.471
  796WAT     H1 4490  10.969   7.023   5.524
  796WAT     H2 4491  10.940   7.065   5.381
  797WAT      O 4492   9.606   8.199   5.413
  797WAT     H1 4493   9.568   8.135   5.473
  797WAT     H2 4494   9.637   8.269   5.470
  798WAT      O 4495  10.221   7.883   4.961
  798WAT     H1 4496  10.258   7.836   5.036
  798WAT     H2 4497  10.202   7.971   4.995
  799WAT      O 4498   9.508   7.358   4.574
  799WAT     H1 4499   9.479   7.321   4.658
  799WAT     H2 4500   9.501   7.285   4.513
  800WAT      O 4501  10.000   7.788   5.193
  800WAT     H1 4502   9.970   7.875   5.215
  800WAT     H2 4503  10.096   7.794   5.196
  801WAT      O 4504   9.853   8.208   4.253
  801WAT     H1 4505   9.776   8.154   4.237
  801WAT     H2 4506   9.926   8.156   4.219
  802WAT      O 4507  10.929   8.108   4.832
  802WAT     H1 4508  11.001   8.157   4.793
  802WAT     H2 4509  10.909   8.040   4.767
  803WAT      O 4510  10.475   7.247   4.246
  803WAT     H1 4511  10.394   7.197   4.239
  803WAT     H2 4512  10.456   7.331   4.204
  804WAT      O 4513  10.467   8.115   5.420
  804WAT     H1 4514  10.460   8.023   5.395
  804WAT     H2 4515  10.404   8.125   5.492
  805WAT      O 4516  10.746   7.684   4.076
  805WAT     H1 4517  10.835   7.716   4.058
  805WAT     H2 4518  10.743   7.597   4.037
  806WAT      O 4519   9.857   8.175   4.616
  806WAT     H1 4520   9.909   8.095   4.611
  806WAT     H2 4521   9.812   8.169   4.700
  807WAT      O 4522  10.346   8.302   4.144
  807WAT     H1 4523  10.380   8.376   4.094
  807WAT     H2 4524  10.263   8.333   4.180
  808WAT      O 4525   9.606   7.872   5.308
  808WAT     H1 4526   9.570   7.938   5.366
  808WAT     H2 4527   9.576   7.788   5.345
  809WAT      O 4528   9.926   7.917   5.596
  809WAT     H1 4529   9.896   7.932   5.506
  809WAT     H2 4530  10.003   7.861   5.587
  810WAT      O 4531  10.460   8.397   5.396
  810WAT     H1 4532  10.462   8.304   5.374
  810WAT     H2 4533  10.389   8.406   5.459
  811WAT      O 4534  10.974   7.816   4.022
  811WAT     H1 4535  10.965   7.859   3.937
  811WAT     H2 4536  11.045   7.861   4.066
  812WAT      O 4537  11.076   8.501   4.295
  812WAT     H1 4538  11.012   8.435   4.323
  812WAT     H2 4539  11.038   8.541   4.218
  813WAT      O 4540  10.634   8.234   4.680
  813WAT     H1 4541  10.670   8.174   4.614
  813WAT     H2 4542  10.546   8.201   4.697
  814WAT      O 4543  10.243   8.310   4.421
  814WAT     H1 4544  10.312   8.364   4.459
  814WAT     H2 4545  10.164   8.364   4.424
  815WAT      O 4546   9.457   7.871   3.970
  815WAT     H1 4547   9.544   7.900   3.998
  815WAT     H2 4548   9.408   7.953   3.958
  816WAT      O 4549  10.173   8.010   4.382
  816WAT     H1 4550  10.219   8.091   4.405
  816WAT     H2 4551  10.138   7.978   4.465
  817WAT      O 4552  10.404   8.561   5.105
  817WAT     H1 4553  10.468   8.582   5.173
  817WAT     H2 4554  10.440   8.485   5.060
  818WAT      O 4555   9.763   7.045   4.429
  818WAT     H1 4556   9.750   7.044   4.524
  818WAT     H2 4557   9.681   7.078   4.394
  819WAT      O 4558  10.531   8.362   4.977
  819WAT     H1 4559  10.595   8.292   4.988
  819WAT     H2 4560  10.583   8.440   4.959
  820WAT      O 4561  10.915   8.390   3.949
  820WAT     H1 4562  10.893   8.318   4.008
  820WAT     H2 4563  10.876   8.365   3.865
  821WAT      O 4564  10.708   8.442   5.297
  821WAT     H1 4565  10.742   8.500   5.365
  821WAT     H2 4566  10.616   8.428   5.320
  822WAT      O 4567   9.494   8.793   4.027
  822WAT     H1 4568   9.530   8.853   3.961
  822WAT     H2 4569   9.479   8.847   4.104
  823WAT      O 4570   9.463   7.221   5.375
  823WAT     H1 4571   9.392   7.240   5.436
  823WAT     H2 4572   9.505   7.143   5.412
  824WAT      O 4573  10.874   8.182   4.115
  824WAT     H1 4574  10.845   8.228   4.194
  824WAT     H2 4575  10.953   8.136   4.142
  825WAT      O 4576   9.492   8.619   5.474
  825WAT     H1 4577   9.503   8.525   5.460
  825WAT     H2 4578   9.427   8.646   5.409
  826WAT      O 4579  10.291   8.446   5.614
  826WAT     H1 4580  10.259   8.375   5.668
  826WAT     H2 4581  10.224   8.514   5.621
  827WAT      O 4582  10.095   8.531   4.108
  827WAT     H1 4583  10.094   8.604   4.047
  827WAT     H2 4584  10.003   8.506   4.118
  828WAT      O 4585   9.655   8.053   4.183
  828WAT     H1 4586   9.595   8.127   4.184
  828WAT     H2 4587   9.703   8.062   4.100
  829WAT      O 4588  10.613   7.470   5.150
  829WAT     H1 4589  10.649   7.388   5.183
  829WAT     H2 4590  10.527   7.476   5.192
  830WAT      O 4591  10.949   7.365   4.231
  830WAT     H1 4592  10.886   7.376   4.160
  830WAT     H2 4593  10.900   7.387   4.310
  831WAT      O 4594  10.394   8.537   3.975
  831WAT     H1 4595  10.404   8.517   3.882
  831WAT     H2 4596  10.304   8.512   3.995
  832WAT      O 4597  10.146   7.593   4.373
  832WAT     H1 4598  10.075   7.640   4.417
  832WAT     H2 4599  10.175   7.527   4.436
  833WAT      O 4600  10.309   7.735   5.173
  833WAT     H1 4601  10.359   7.783   5.239
  833WAT     H2 4602  10.323   7.643   5.193
  834WAT      O 4603  10.549   7.266   4.517
  834WAT     H1 4604  10.537   7.268   4.422
  834WAT     H2 4605  10.644   7.270   4.529
  835WAT      O 4606  10.258   8.789   4.444
  835WAT     H1 4607  10.283   8.785   4.352
  835WAT     H2 4608  10.163   8.777   4.443
  836WAT      O 4609   9.966   7.424   4.110
  836WAT     H1 4610  10.051   7.468   4.104
  836WAT     H2 4611   9.930   7.455   4.193
  837WAT      O 4612  11.029   7.357   5.257
  837WAT     H1 4613  10.979   7.431   5.291
  837WAT     H2 4614  11.111   7.396   5.225
  838WAT      O 4615  10.859   7.881   4.602
  838WAT     H1 4616  10.764   7.883   4.619
  838WAT     H2 4617  10.890   7.802   4.646
  839WAT      O 4618   9.856   8.049   3.958
  839WAT     H1 4619   9.933   8.038   4.014
  839WAT     H2 4620   9.864   7.980   3.892
  840WAT      O 4621   9.726   7.793   4.026
  840WAT     H1 4622   9.734   7.698   4.037
  840WAT     H2 4623   9.815   7.826   4.037
  841WAT      O 4624   9.806   8.808   4.736
  841WAT     H1 4625   9.880   8.753   4.763
  841WAT     H2 4626   9.844   8.894   4.722
  842WAT      O 4627   9.494   8.414   4.324
  842WAT     H1 4628   9.402   8.438   4.323
  842WAT     H2 4629   9.541   8.497   4.312
  843WAT      O 4630   9.707   8.726   5.655
  843WAT     H1 4631   9.787   8.758   5.696
  843WAT     H2 4632   9.655   8.690   5.727
  844WAT      O 4633  10.117   8.725   3.919
  844WAT     H1 4634  10.196   8.754   3.873
  844WAT     H2 4635  10.065   8.682   3.851
  845WAT      O 4636  10.590   8.337   5.650
  845WAT     H1 4637  10.530   8.339   5.576
  845WAT     H2 4638  10.560   8.264   5.704
  846WAT      O 4639  10.733   8.710   5.511
  846WAT     H1 4640  10.828   8.701   5.506
  846WAT     H2 4641  10.718   8.776   5.578
  847WAT      O 4642  11.022   8.648   4.061
  847WAT     H1 4643  10.994   8.606   3.979
  847WAT     H2 4644  11.003   8.740   4.049
  848WAT      O 4645   9.479   7.975   5.550
  848WAT     H1 4646   9.529   7.917   5.607
  848WAT     H2 4647   9.405   8.003   5.603
  849WAT      O 4648  10.169   8.247   3.905
  849WAT     H1 4649  10.158   8.185   3.978
  849WAT     H2 4650  10.152   8.195   3.827
  850WAT      O 4651  10.184   8.115   5.503
  850WAT     H1 4652  10.107   8.172   5.494
  850WAT     H2 4653  10.202   8.086   5.414
  851WAT      O 4654  10.493   8.153   3.965
  851WAT     H1 4655  10.438   8.198   4.030
  851WAT     H2 4656  10.555   8.103   4.018
  852WAT      O 4657  10.898   8.288   5.559
  852WAT     H1 4658  10.972   8.322   5.508
  852WAT     H2 4659  10.822   8.305   5.503
  853WAT      O 4660   9.682   7.789   5.639
  853WAT     H1 4661   9.686   7.759   5.730
  853WAT     H2 4662   9.767   7.829   5.623
  854WAT      O 4663  10.060   8.049   4.155
  854WAT     H1 4664  10.102   8.032   4.239
  854WAT     H2 4665  10.072   7.968   4.106
  855WAT      O 4666   9.876   7.647   5.436
  855WAT     H1 4667   9.823   7.598   5.373
  855WAT     H2 4668   9.943   7.690   5.382
  856WAT      O 4669  10.311   7.951   3.880
  856WAT     H1 4670  10.363   7.880   3.843
  856WAT     H2 4671  10.376   8.015   3.910
  857WAT      O 4672  10.766   8.094   5.412
  857WAT     H1 4673  10.807   8.109   5.497
  857WAT     H2 4674  10.672   8.106   5.428
  858WAT      O 4675  10.813   7.828   5.613
  858WAT     H1 4676  10.871   7.752   5.604
  858WAT     H2 4677  10.830   7.881   5.535
  859WAT      O 4678   9.925   7.344   5.444
  859WAT     H1 4679   9.915   7.282   5.371
  859WAT     H2 4680   9.867   7.416   5.421
  860WAT      O 4681  10.201   7.199   5.147
  860WAT     H1 4682  10.156   7.202   5.062
  860WAT     H2 4683  10.138   7.159   5.207
  861WAT      O 4684  10.242   8.089   5.209
  861WAT     H1 4685  10.284   8.173   5.192
  861WAT     H2 4686  10.150   8.103   5.186
  862WAT      O 4687  10.475   7.862   5.348
  862WAT     H1 4688  10.487   7.802   5.421
  862WAT     H2 4689  10.561   7.866   5.306
  863WAT      O 4690  10.709   7.917   5.205
  863WAT     H1 4691  10.657   7.970   5.145
  863WAT     H2 4692  10.744   7.981   5.268
  864WAT      O 4693   9.949   7.656   3.850
  864WAT     H1 4694   9.929   7.570   3.886
  864WAT     H2 4695   9.932   7.648   3.756
  865WAT      O 4696  10.027   8.719   5.321
  865WAT     H1 4697   9.973   8.792   5.289
  865WAT     H2 4698  10.052   8.672   5.242
  866WAT      O 4699  10.152   7.516   5.473
  866WAT     H1 4700  10.211   7.485   5.542
  866WAT     H2 4701  10.070   7.469   5.489
  867WAT      O 4702  10.634   7.478   5.497
  867WAT     H1 4703  10.565   7.412   5.490
  867WAT     H2 4704  10.706   7.433   5.541
  868WAT      O 4705  10.697   7.137   4.102
  868WAT     H1 4706  10.725   7.053   4.138
  868WAT     H2 4707  10.620   7.161   4.154
  869WAT      O 4708   9.829   7.366   3.848
  869WAT     H1 4709   9.859   7.367   3.758
  869WAT     H2 4710   9.903   7.331   3.898
  870WAT      O 4711  10.312   8.843   5.347
  870WAT     H1 4712  10.305   8.933   5.377
  870WAT     H2 4713  10.222   8.811   5.344
  871WAT      O 4714  10.151   7.261   3.947
  871WAT     H1 4715  10.116   7.193   3.889
  871WAT     H2 4716  10.171   7.215   4.028
  872WAT      O 4717  10.367   8.759   4.109
  872WAT     H1 4718  10.457   8.793   4.111
  872WAT     H2 4719  10.370   8.687   4.046
  873WAT      O 4720   9.731   8.297   3.932
  873WAT     H1 4721   9.775   8.351   3.997
  873WAT     H2 4722   9.780   8.214   3.933
  874WAT      O 4723   9.453   8.576   4.677
  874WAT     H1 4724   9.486   8.489   4.654
  874WAT     H2 4725   9.496   8.596   4.760
  875WAT      O 4726   9.912   8.409   4.443
  875WAT     H1 4727   9.882   8.396   4.533
  875WAT     H2 4728   9.902   8.323   4.402
  876WAT      O 4729   9.502   8.662   4.951
  876WAT     H1 4730   9.458   8.680   5.034
  876WAT     H2 4731   9.558   8.738   4.937
  877WAT      O 4732  11.065   8.613   5.379
  877WAT     H1 4733  11.005   8.618   5.305
  877WAT     H2 4734  11.078   8.519   5.392
  878WAT      O 4735   9.485   7.914   4.587
  878WAT     H1 4736   9.419   7.887   4.522
  878WAT     H2 4737   9.569   7.903   4.542
  879WAT      O 4738  10.934   8.285   5.189
  879WAT     H1 4739  10.852   8.328   5.216
  879WAT     H2 4740  10.975   8.346   5.128
  880WAT      O 4741  10.780   7.393   4.009
  880WAT     H1 4742  10.822   7.374   3.925
  880WAT     H2 4743  10.749   7.308   4.040
  881WAT      O 4744   9.589   7.952   5.041
  881WAT     H1 4745   9.625   7.943   5.129
  881WAT     H2 4746   9.532   7.876   5.031
  882WAT      O 4747  11.069   7.799   5.342
  882WAT     H1 4748  11.046   7.776   5.252
  882WAT     H2 4749  11.095   7.891   5.337
  883WAT      O 4750   9.544   7.643   5.431
  883WAT     H1 4751   9.454   7.640   5.465
  883WAT     H2 4752   9.598   7.663   5.508
  884WAT      O 4753  10.913   7.321   5.620
  884WAT     H1 4754  11.000   7.322   5.658
  884WAT     H2 4755  10.914   7.248   5.559
  885WAT      O 4756   9.406   7.635   4.181
  885WAT     H1 4757   9.316   7.661   4.163
  885WAT     H2 4758   9.455   7.662   4.103
  886WAT      O 4759  11.057   7.707   4.709
  886WAT     H1 4760  11.110   7.657   4.646
  886WAT     H2 4761  11.116   7.720   4.783
  887WAT      O 4762  11.075   7.715   5.061
  887WAT     H1 4763  10.980   7.712   5.072
  887WAT     H2 4764  11.093   7.806   5.037
  888WAT      O 4765   9.661   7.540   3.972
  888WAT     H1 4766   9.731   7.498   3.923
  888WAT     H2 4767   9.589   7.547   3.909
  889WAT      O 4768   9.625   7.146   3.876
  889WAT     H1 4769   9.698   7.200   3.908
  889WAT     H2 4770   9.653   7.118   3.788
  890WAT      O 4771  11.006   7.633   4.303
  890WAT     H1 4772  11.056   7.609   4.381
  890WAT     H2 4773  10.986   7.549   4.261
  891WAT      O 4774   9.594   7.071   4.866
  891WAT     H1 4775   9.659   7.016   4.822
  891WAT     H2 4776   9.636   7.096   4.948
  892WAT      O 4777  10.984   7.090   5.202
  892WAT     H1 4778  11.047   7.151   5.238
  892WAT     H2 4779  10.998   7.094   5.107
  893WAT      O 4780  10.940   8.760   4.542
  893WAT     H1 4781  10.999   8.728   4.474
  893WAT     H2 4782  10.965   8.713   4.621
  894WAT      O 4783   9.570   7.086   5.140
  894WAT     H1 4784   9.535   7.132   5.217
  894WAT     H2 4785   9.536   6.997   5.149
  895WAT      O 4786   9.730   8.403   5.557
  895WAT     H1 4787   9.726   8.366   5.645
  895WAT     H2 4788   9.743   8.497   5.571
  896WAT      O 4789  10.100   8.559   5.117
  896WAT     H1 4790  10.076   8.586   5.028
  896WAT     H2 4791  10.194   8.576   5.122
  897WAT      O 4792  10.321   7.205   5.493
  897WAT     H1 4793  10.315   7.265   5.567
  897WAT     H2 4794  10.415   7.195   5.478
  898WAT      O 4795  10.585   7.171   5.456
  898WAT     H1 4796  10.646   7.203   5.390
  898WAT     H2 4797  10.639   7.123   5.518
  899WAT      O 4798   9.637   7.039   5.468
  899WAT     H1 4799   9.692   7.021   5.391
  899WAT     H2 4800   9.643   6.960   5.521
  900WAT      O 4801   9.714   8.698   5.269
  900WAT     H1 4802   9.655   8.685   5.343
  900WAT     H2 4803   9.713   8.614   5.222
  901WAT      O 4804  10.659   7.027   5.089
  901WAT     H1 4805  10.571   7.061   5.069
  901WAT     H2 4806  10.648   6.980   5.172
  902WAT      O 4807  10.749   7.248   5.228
  902WAT     H1 4808  10.716   7.167   5.190
  902WAT     H2 4809  10.844   7.244   5.215
  903WAT      O 4810  10.995   8.825   4.925
  903WAT     H1 4811  10.949   8.900   4.887
  903WAT     H2 4812  10.932   8.753   4.919
  904WAT      O 4813   9.677   8.435   5.164
  904WAT     H1 4814   9.605   8.373   5.157
  904WAT     H2 4815   9.683   8.474   5.077
  905WAT      O 4816  10.038   8.656   4.842
  905WAT     H1 4817  10.089   8.595   4.790
  905WAT     H2 4818  10.103   8.706   4.892
  906WAT      O 4819  10.312   8.745   4.925
  906WAT     H1 4820  10.340   8.720   4.837
  906WAT     H2 4821  10.363   8.690   4.984
  907WAT      O 4822  10.433   7.119   4.983
  907WAT     H1 4823  10.355   7.166   5.011
  907WAT     H2 4824  10.404   7.029   4.972
  908WAT      O 4825  10.889   7.189   4.788
  908WAT     H1 4826  10.933   7.184   4.703
  908WAT     H2 4827  10.862   7.281   4.795
  909WAT      O 4828   9.505   8.766   4.485
  909WAT     H1 4829   9.489   8.703   4.555
  909WAT     H2 4830   9.419   8.787   4.450
  910WAT      O 4831   9.568   7.150   4.235
  910WAT     H1 4832   9.644   7.161   4.178
  910WAT     H2 4833   9.522   7.233   4.231
  911WAT      O 4834  10.222   7.361   4.534
  911WAT     H1 4835  10.141   7.323   4.500
  911WAT     H2 4836  10.272   7.285   4.564
  912WAT      O 4837  10.672   7.027   4.658
  912WAT     H1 4838  10.732   7.085   4.706
  912WAT     H2 4839  10.598   7.084   4.636
  913WAT      O 4840  10.986   7.068   4.185
  913WAT     H1 4841  11.006   7.157   4.212
  913WAT     H2 4842  10.908   7.044   4.235
  914WAT      O 4843   9.666   8.636   4.229
  914WAT     H1 4844   9.614   8.674   4.159
  914WAT     H2 4845   9.659   8.698   4.301
  915WAT      O 4846   9.805   7.202   4.089
  915WAT     H1 4847   9.858   7.123   4.076
  915WAT     H2 4848   9.868   7.270   4.113
  916WAT      O 4849  10.024   7.176   4.395
  916WAT     H1 4850   9.961   7.106   4.411
  916WAT     H2 4851   9.970   7.252   4.373
  917WAT      O 4852  10.318   8.837   5.662
  917WAT     H1 4853  10.411   8.814   5.666
  917WAT     H2 4854  10.317   8.920   5.614
  918WAT      O 4855  10.037   7.104   5.638
  918WAT     H1 4856  10.009   7.154   5.562
  918WAT     H2 4857  10.075   7.024   5.602
  919WAT      O 4858   9.926   8.831   4.117
  919WAT     H1 4859   9.999   8.802   4.062
  919WAT     H2 4860   9.952   8.807   4.206
  920WAT      O 4861   9.842   8.442   4.117
  920WAT     H1 4862   9.779   8.489   4.172
  920WAT     H2 4863   9.854   8.358   4.161
  921WAT      O 4864  10.697   7.045   5.696
  921WAT     H1 4865  10.686   7.077   5.786
  921WAT     H2 4866  10.779   7.085   5.666
  922WAT      O 4867  10.975   8.760   5.644
  922WAT     H1 4868  11.054   8.710   5.623
  922WAT     H2 4869  11.004   8.828   5.705
  923WAT      O 4870  10.588   7.847   2.732
  923WAT     H1 4871  10.580   7.756   2.705
  923WAT     H2 4872  10.546   7.897   2.662
  924WAT      O 4873  10.401   8.025   2.920
  924WAT     H1 4874  10.323   7.977   2.949
  924WAT     H2 4875  10.466   7.957   2.903
  925WAT      O 4876   9.803   8.056   3.008
  925WAT     H1 4877   9.719   8.031   3.048
  925WAT     H2 4878   9.863   8.063   3.082
  926WAT      O 4879  10.803   8.466   2.798
  926WAT     H1 4880  10.757   8.388   2.831
  926WAT     H2 4881  10.884   8.468   2.849
  927WAT      O 4882   9.801   8.460   3.028
  927WAT     H1 4883   9.831   8.371   3.010
  927WAT     H2 4884   9.875   8.515   3.005
  928WAT      O 4885   9.643   7.552   2.387
  928WAT     H1 4886   9.555   7.586   2.376
  928WAT     H2 4887   9.672   7.532   2.297
  929WAT      O 4888   9.440   7.812   2.975
  929WAT     H1 4889   9.497   7.735   2.975
  929WAT     H2 4890   9.440   7.842   2.884
  930WAT      O 4891  10.426   8.694   2.760
  930WAT     H1 4892  10.364   8.740   2.703
  930WAT     H2 4893  10.511   8.710   2.720
  931WAT      O 4894  10.345   8.293   2.921
  931WAT     H1 4895  10.338   8.198   2.905
  931WAT     H2 4896  10.421   8.302   2.978
  932WAT      O 4897   9.564   7.353   3.154
  932WAT     H1 4898   9.546   7.263   3.182
  932WAT     H2 4899   9.524   7.408   3.221
  933WAT      O 4900  10.448   7.573   2.944
  933WAT     H1 4901  10.486   7.486   2.933
  933WAT     H2 4902  10.438   7.607   2.855
  934WAT      O 4903   9.861   7.411   2.490
  934WAT     H1 4904   9.872   7.501   2.521
  934WAT     H2 4905   9.770   7.406   2.461
  935WAT      O 4906  10.826   7.323   2.637
  935WAT     H1 4907  10.908   7.274   2.641
  935WAT     H2 4908  10.830   7.382   2.712
  936WAT      O 4909   9.626   7.603   3.015
  936WAT     H1 4910   9.694   7.629   3.076
  936WAT     H2 4911   9.594   7.519   3.048
  937WAT      O 4912  10.045   7.707   2.923
  937WAT     H1 4913  10.096   7.757   2.987
  937WAT     H2 4914  10.098   7.630   2.906
  938WAT      O 4915   9.873   7.171   3.350
  938WAT     H1 4916   9.874   7.223   3.269
  938WAT     H2 4917   9.791   7.124   3.348
  939WAT      O 4918  10.512   8.183   2.500
  939WAT     H1 4919  10.450   8.229   2.443
  939WAT     H2 4920  10.563   8.252   2.541
  940WAT      O 4921   9.999   8.135   3.168
  940WAT     H1 4922   9.965   8.198   3.232
  940WAT     H2 4923  10.016   8.188   3.090
  941WAT      O 4924  10.850   7.517   2.914
  941WAT     H1 4925  10.779   7.546   2.972
  941WAT     H2 4926  10.886   7.598   2.878
  942WAT      O 4927   9.842   7.342   3.151
  942WAT     H1 4928   9.876   7.427   3.121
  942WAT     H2 4929   9.748   7.357   3.162
  943WAT      O 4930   9.920   8.332   3.349
  943WAT     H1 4931   9.981   8.400   3.321
  943WAT     H2 4932   9.834   8.373   3.340
  944WAT      O 4933   9.449   8.251   2.237
  944WAT     H1 4934   9.411   8.300   2.164
  944WAT     H2 4935   9.475   8.318   2.300
  945WAT      O 4936  11.011   8.479   3.141
  945WAT     H1 4937  10.943   8.546   3.140
  945WAT     H2 4938  11.065   8.498   3.064
  946WAT      O 4939  10.210   7.091   2.783
  946WAT     H1 4940  10.241   7.036   2.711
  946WAT     H2 4941  10.117   7.105   2.765
  947WAT      O 4942  10.765   8.663   3.012
  947WAT     H1 4943  10.766   8.623   2.925
  947WAT     H2 4944  10.710   8.740   3.002
  948WAT      O 4945  10.895   8.335   2.521
  948WAT     H1 4946  10.883   8.241   2.534
  948WAT     H2 4947  10.894   8.371   2.610
  949WAT      O 4948  10.705   8.153   3.145
  949WAT     H1 4949  10.747   8.132   3.061
  949WAT     H2 4950  10.777   8.179   3.202
  950WAT      O 4951  10.449   7.898   2.457
  950WAT     H1 4952  10.356   7.891   2.480
  950WAT     H2 4953  10.464   7.992   2.445
  951WAT      O 4954  10.447   7.525   2.156
  951WAT     H1 4955  10.353   7.541   2.165
  951WAT     H2 4956  10.479   7.597   2.102
  952WAT      O 4957  10.852   8.054   2.507
  952WAT     H1 4958  10.790   8.020   2.442
  952WAT     H2 4959  10.850   7.990   2.578
  953WAT      O 4960  10.796   7.672   3.249
  953WAT     H1 4961  10.755   7.754   3.274
  953WAT     H2 4962  10.723   7.613   3.229
  954WAT      O 4963  10.009   7.950   2.735
  954WAT     H1 4964   9.969   7.879   2.685
  954WAT     H2 4965  10.018   7.916   2.824
  955WAT      O 4966  10.056   8.319   2.951
  955WAT     H1 4967  10.026   8.259   2.883
  955WAT     H2 4968  10.151   8.323   2.940
  956WAT      O 4969   9.881   7.628   3.113
  956WAT     H1 4970   9.936   7.639   3.035
  956WAT     H2 4971   9.932   7.665   3.184
  957WAT      O 4972  10.865   8.676   3.317
  957WAT     H1 4973  10.817   8.757   3.298
  957WAT     H2 4974  10.797   8.611   3.333
  958WAT      O 4975   9.965   8.293   3.616
  958WAT     H1 4976   9.876   8.315   3.641
  958WAT     H2 4977   9.968   8.305   3.521
  959WAT      O 4978  10.669   7.978   2.208
  959WAT     H1 4979  10.713   7.894   2.193
  959WAT     H2 4980  10.741   8.041   2.216
  960WAT      O 4981   9.848   7.980   3.474
  960WAT     H1 4982   9.834   8.067   3.511
  960WAT     H2 4983   9.760   7.946   3.459
  961WAT      O 4984  10.480   8.472   2.605
  961WAT     H1 4985  10.524   8.546   2.563
  961WAT     H2 4986  10.474   8.496   2.697
  962WAT      O 4987  10.028   8.574   3.695
  962WAT     H1 4988  10.025   8.615   3.608
  962WAT     H2 4989  10.011   8.481   3.678
  963WAT      O 4990  11.028   7.103   2.039
  963WAT     H1 4991  10.996   7.113   2.129
  963WAT     H2 4992  11.104   7.161   2.034
  964WAT      O 4993   9.679   7.840   2.485
  964WAT     H1 4994   9.667   7.913   2.424
  964WAT     H2 4995   9.648   7.763   2.437
  965WAT      O 4996   9.443   8.157   3.066
  965WAT     H1 4997   9.451   8.171   2.971
  965WAT     H2 4998   9.505   8.086   3.085
  966WAT      O 4999   9.568   8.327   2.707
  966WAT     H1 5000   9.527   8.341   2.621
  966WAT     H2 5001   9.657   8.299   2.686
  967WAT      O 5002  10.549   8.742   3.397
  967WAT     H1 5003  10.601   8.733   3.478
  967WAT     H2 5004  10.465   8.777   3.427
  968WAT      O 5005  10.747   8.771   2.340
  968WAT     H1 5006  10.731   8.742   2.430
  968WAT     H2 5007  10.730   8.693   2.287
  969WAT      O 5008   9.995   8.748   2.518
  969WAT     H1 5009   9.977   8.657   2.497
  969WAT     H2 5010   9.909   8.784   2.542
  970WAT      O 5011  10.717   8.521   2.196
  970WAT     H1 5012  10.648   8.521   2.130
  970WAT     H2 5013  10.791   8.479   2.153
  971WAT      O 5014  10.674   8.684   2.604
  971WAT     H1 5015  10.719   8.606   2.635
  971WAT     H2 5016  10.708   8.755   2.658
  972WAT      O 5017   9.449   8.261   3.320
  972WAT     H1 5018   9.465   8.214   3.238
  972WAT     H2 5019   9.495   8.210   3.386
  973WAT      O 5020   9.926   7.174   2.823
  973WAT     H1 5021   9.882   7.252   2.790
  973WAT     H2 5022   9.982   7.207   2.894
  974WAT      O 5023  10.355   7.461   3.383
  974WAT     H1 5024  10.308   7.482   3.465
  974WAT     H2 5025  10.314   7.380   3.353
  975WAT      O 5026  10.855   7.583   3.496
  975WAT     H1 5027  10.770   7.553   3.529
  975WAT     H2 5028  10.839   7.607   3.405
  976WAT      O 5029  10.564   7.733   3.706
  976WAT     H1 5030  10.597   7.650   3.672
  976WAT     H2 5031  10.643   7.785   3.721
  977WAT      O 5032  10.238   7.136   2.311
  977WAT     H1 5033  10.175   7.136   2.384
  977WAT     H2 5034  10.229   7.050   2.272
  978WAT      O 5035  10.130   7.229   3.009
  978WAT     H1 5036  10.159   7.319   3.001
  978WAT     H2 5037  10.185   7.180   2.948
  979WAT      O 5038   9.905   7.687   2.596
  979WAT     H1 5039   9.883   7.665   2.686
  979WAT     H2 5040   9.827   7.730   2.561
  980WAT      O 5041  10.628   7.687   2.456
  980WAT     H1 5042  10.568   7.760   2.437
  980WAT     H2 5043  10.683   7.681   2.378
  981WAT      O 5044  10.149   7.776   3.663
  981WAT     H1 5045  10.140   7.682   3.648
  981WAT     H2 5046  10.233   7.799   3.623
  982WAT      O 5047  10.489   7.551   2.659
  982WAT     H1 5048  10.528   7.583   2.578
  982WAT     H2 5049  10.525   7.463   2.670
  983WAT      O 5050   9.662   7.418   3.478
  983WAT     H1 5051   9.623   7.502   3.499
  983WAT     H2 5052   9.593   7.354   3.497
  984WAT      O 5053  10.320   7.426   3.785
  984WAT     H1 5054  10.251   7.407   3.848
  984WAT     H2 5055  10.394   7.454   3.838
  985WAT      O 5056   9.392   7.210   2.881
  985WAT     H1 5057   9.364   7.267   2.952
  985WAT     H2 5058   9.467   7.162   2.917
  986WAT      O 5059   9.411   7.604   2.002
  986WAT     H1 5060   9.403   7.698   2.016
  986WAT     H2 5061   9.376   7.590   1.914
  987WAT      O 5062  10.547   7.810   3.068
  987WAT     H1 5063  10.474   7.861   3.103
  987WAT     H2 5064  10.508   7.728   3.038
  988WAT      O 5065  10.191   7.477   2.909
  988WAT     H1 5066  10.191   7.433   2.824
  988WAT     H2 5067  10.281   7.510   2.920
  989WAT      O 5068   9.776   7.466   2.805
  989WAT     H1 5069   9.742   7.513   2.881
  989WAT     H2 5070   9.700   7.420   2.769
  990WAT      O 5071  10.197   7.578   2.208
  990WAT     H1 5072  10.209   7.573   2.303
  990WAT     H2 5073  10.159   7.664   2.192
  991WAT      O 5074  10.594   7.355   3.010
  991WAT     H1 5075  10.595   7.400   3.094
  991WAT     H2 5076  10.569   7.265   3.031
  992WAT      O 5077  10.098   7.809   2.148
  992WAT     H1 5078  10.042   7.764   2.085
  992WAT     H2 5079  10.169   7.844   2.094
  993WAT      O 5080  10.936   7.097   3.593
  993WAT     H1 5081  10.969   7.023   3.646
  993WAT     H2 5082  10.940   7.065   3.503
  994WAT      O 5083   9.606   8.199   3.535
  994WAT     H1 5084   9.568   8.135   3.595
  994WAT     H2 5085   9.637   8.269   3.592
  995WAT      O 5086  10.221   7.883   3.084
  995WAT     H1 5087  10.258   7.836   3.158
  995WAT     H2 5088  10.202   7.971   3.118
  996WAT      O 5089   9.508   7.358   2.697
  996WAT     H1 5090   9.479   7.321   2.780
  996WAT     H2 5091   9.501   7.285   2.635
  997WAT      O 5092  10.000   7.788   3.315
  997WAT     H1 5093   9.970   7.875   3.338
  997WAT     H2 5094  10.096   7.794   3.319
  998WAT      O 5095   9.853   8.208   2.375
  998WAT     H1 5096   9.776   8.154   2.359
  998WAT     H2 5097   9.926   8.156   2.341
  999WAT      O 5098  10.929   8.108   2.954
  999WAT     H1 5099  11.001   8.157   2.915
  999WAT     H2 5100  10.909   8.040   2.890
 1000WAT      O 5101  10.475   7.247   2.369
 1000WAT     H1 5102  10.394   7.197   2.361
 1000WAT     H2 5103  10.456   7.331   2.327
 1001WAT      O 5104  10.467   8.115   3.543
 1001WAT     H1 5105  10.460   8.023   3.518
 1001WAT     H2 5106  10.404   8.125   3.614
 1002WAT      O 5107  10.746   7.684   2.198
 1002WAT     H1 5108  10.835   7.716   2.181
 1002WAT     H2 5109  10.743   7.597   2.159
 1003WAT      O 5110   9.857   8.175   2.739
 1003WAT     H1 5111   9.909   8.095   2.733
 1003WAT     H2 5112   9.812   8.169   2.823
 1004WAT      O 5113  10.346   8.302   2.266
 1004WAT     H1 5114  10.380   8.376   2.217
 1004WAT     H2 5115  10.263   8.333   2.302
 1005WAT      O 5116   9.606   7.872   3.430
 1005WAT     H1 5117   9.570   7.938   3.489
 1005WAT     H2 5118   9.576   7.788   3.467
 1006WAT      O 5119   9.926   7.917   3.719
 1006WAT     H1 5120   9.896   7.932   3.629
 1006WAT     H2 5121  10.003   7.861   3.709
 1007WAT      O 5122  10.460   8.397   3.518
 1007WAT     H1 5123  10.462   8.304   3.496
 1007WAT     H2 5124  10.389   8.406   3.582
 1008WAT      O 5125  10.974   7.816   2.145
 1008WAT     H1 5126  10.965   7.859   2.060
 1008WAT     H2 5127  11.045   7.861   2.188
 1009WAT      O 5128  11.076   8.501   2.418
 1009WAT     H1 5129  11.012   8.435   2.445
 1009WAT     H2 5130  11.038   8.541   2.340
 1010WAT      O 5131  10.634   8.234   2.803
 1010WAT     H1 5132  10.670   8.174   2.737
 1010WAT     H2 5133  10.546   8.201   2.820
 1011WAT      O 5134  10.243   8.310   2.543
 1011WAT     H1 5135  10.312   8.364   2.581
 1011WAT     H2 5136  10.164   8.364   2.547
 1012WAT      O 5137   9.457   7.871   2.092
 1012WAT     H1 5138   9.544   7.900   2.121
 1012WAT     H2 5139   9.408   7.953   2.081
 1013WAT      O 5140  10.173   8.010   2.505
 1013WAT     H1 5141  10.219   8.091   2.527
 1013WAT     H2 5142  10.138   7.978   2.588
 1014WAT      O 5143  10.404   8.561   3.227
 1014WAT     H1 5144  10.468   8.582   3.295
 1014WAT     H2 5145  10.440   8.485   3.182
 1015WAT      O 5146   9.763   7.045   2.552
 1015WAT     H1 5147   9.750   7.044   2.647
 1015WAT     H2 5148   9.681   7.078   2.517
 1016WAT      O 5149  10.531   8.362   3.099
 1016WAT     H1 5150  10.595   8.292   3.111
 1016WAT     H2 5151  10.583   8.440   3.081
 1017WAT      O 5152  10.915   8.390   2.072
 1017WAT     H1 5153  10.893   8.318   2.131
 1017WAT     H2 5154  10.876   8.365   1.988
 1018WAT      O 5155  10.708   8.442   3.420
 1018WAT     H1 5156  10.742   8.500   3.487
 1018WAT     H2 5157  10.616   8.428   3.443
 1019WAT      O 5158   9.494   8.793   2.149
 1019WAT     H1 5159   9.530   8.853   2.084
 1019WAT     H2 5160   9.479   8.847   2.226
 1020WAT      O 5161   9.463   7.221   3.498
 1020WAT     H1 5162   9.392   7.240   3.558
 1020WAT     H2 5163   9.505   7.143   3.535
 1021WAT      O 5164  10.874   8.182   2.238
 1021WAT     H1 5165  10.845   8.228   2.317
 1021WAT     H2 5166  10.953   8.136   2.265
 1022WAT      O 5167   9.492   8.619   3.597
 1022WAT     H1 5168   9.503   8.525   3.582
 1022WAT     H2 5169   9.427   8.646   3.532
 1023WAT      O 5170  10.291   8.446   3.736
 1023WAT     H1 5171  10.259   8.375   3.791
 1023WAT     H2 5172  10.224   8.514   3.744
 1024WAT      O 5173  10.095   8.531   2.231
 1024WAT     H1 5174  10.094   8.604   2.169
 1024WAT     H2 5175  10.003   8.506   2.240
 1025WAT      O 5176   9.655   8.053   2.305
 1025WAT     H1 5177   9.595   8.127   2.306
 1025WAT     H2 5178   9.703   8.062   2.223
 1026WAT      O 5179  10.613   7.470   3.273
 1026WAT     H1 5180  10.649   7.388   3.306
 1026WAT     H2 5181  10.527   7.476   3.314
 1027WAT      O 5182  10.949   7.365   2.354
 1027WAT     H1 5183  10.886   7.376   2.282
 1027WAT     H2 5184  10.900   7.387   2.433
 1028WAT      O 5185  10.394   8.537   2.097
 1028WAT     H1 5186  10.404   8.517   2.004
 1028WAT     H2 5187  10.304   8.512   2.118
 1029WAT      O 5188  10.146   7.593   2.495
 1029WAT     H1 5189  10.075   7.640   2.539
 1029WAT     H2 5190  10.175   7.527   2.559
 1030WAT      O 5191  10.309   7.735   3.295
 1030WAT     H1 5192  10.359   7.783   3.362
 1030WAT     H2 5193  10.323   7.643   3.316
 1031WAT      O 5194  10.549   7.266   2.639
 1031WAT     H1 5195  10.537   7.268   2.544
 1031WAT     H2 5196  10.644   7.270   2.651
 1032WAT      O 5197  10.258   8.789   2.567
 1032WAT     H1 5198  10.283   8.785   2.474
 1032WAT     H2 5199  10.163   8.777   2.566
 1033WAT      O 5200   9.966   7.424   2.233
 1033WAT     H1 5201  10.051   7.468   2.226
 1033WAT     H2 5202   9.930   7.455   2.316
 1034WAT      O 5203  11.029   7.357   3.380
 1034WAT     H1 5204  10.979   7.431   3.413
 1034WAT     H2 5205  11.111   7.396   3.348
 1035WAT      O 5206  10.859   7.881   2.724
 1035WAT     H1 5207  10.764   7.883   2.742
 1035WAT     H2 5208  10.890   7.802   2.769
 1036WAT      O 5209   9.856   8.049   2.080
 1036WAT     H1 5210   9.933   8.038   2.136
 1036WAT     H2 5211   9.864   7.980   2.015
 1037WAT      O 5212   9.726   7.793   2.149
 1037WAT     H1 5213   9.734   7.698   2.160
 1037WAT     H2 5214   9.815   7.826   2.159
 1038WAT      O 5215   9.806   8.808   2.859
 1038WAT     H1 5216   9.880   8.753   2.886
 1038WAT     H2 5217   9.844   8.894   2.845
 1039WAT      O 5218   9.494   8.414   2.446
 1039WAT     H1 5219   9.402   8.438   2.445
 1039WAT     H2 5220   9.541   8.497   2.434
 1040WAT      O 5221   9.707   8.726   3.778
 1040WAT     H1 5222   9.787   8.758   3.819
 1040WAT     H2 5223   9.655   8.690   3.850
 1041WAT      O 5224  10.117   8.725   2.041
 1041WAT     H1 5225  10.196   8.754   1.996
 1041WAT     H2 5226  10.065   8.682   1.973
 1042WAT      O 5227  10.590   8.337   3.772
 1042WAT     H1 5228  10.530   8.339   3.698
 1042WAT     H2 5229  10.560   8.264   3.826
 1043WAT      O 5230  10.733   8.710   3.634
 1043WAT     H1 5231  10.828   8.701   3.629
 1043WAT     H2 5232  10.718   8.776   3.701
 1044WAT      O 5233  11.022   8.648   2.183
 1044WAT     H1 5234  10.994   8.606   2.102
 1044WAT     H2 5235  11.003   8.740   2.171
 1045WAT      O 5236   9.479   7.975   3.672
 1045WAT     H1 5237   9.529   7.917   3.729
 1045WAT     H2 5238   9.405   8.003   3.726
 1046WAT      O 5239  10.169   8.247   2.028
 1046WAT     H1 5240  10.158   8.185   2.100
 1046WAT     H2 5241  10.152   8.195   1.949
 1047WAT      O 5242  10.184   8.115   3.625
 1047WAT     H1 5243  10.107   8.172   3.617
 1047WAT     H2 5244  10.202   8.086   3.536
 1048WAT      O 5245  10.493   8.153   2.088
 1048WAT     H1 5246  10.438   8.198   2.152
 1048WAT     H2 5247  10.555   8.103   2.140
 1049WAT      O 5248  10.898   8.288   3.681
 1049WAT     H1 5249  10.972   8.322   3.631
 1049WAT     H2 5250  10.822   8.305   3.626
 1050WAT      O 5251   9.682   7.789   3.762
 1050WAT     H1 5252   9.686   7.759   3.852
 1050WAT     H2 5253   9.767   7.829   3.746
 1051WAT      O 5254  10.060   8.049   2.278
 1051WAT     H1 5255  10.102   8.032   2.362
 1051WAT     H2 5256  10.072   7.968   2.228
 1052WAT      O 5257   9.876   7.647   3.558
 1052WAT     H1 5258   9.823   7.598   3.496
 1052WAT     H2 5259   9.943   7.690   3.505
 1053WAT      O 5260  10.311   7.951   2.002
 1053WAT     H1 5261  10.363   7.880   1.966
 1053WAT     H2 5262  10.376   8.015   2.032
 1054WAT      O 5263  10.766   8.094   3.535
 1054WAT     H1 5264  10.807   8.109   3.620
 1054WAT     H2 5265  10.672   8.106   3.551
 1055WAT      O 5266  10.813   7.828   3.735
 1055WAT     H1 5267  10.871   7.752   3.726
 1055WAT     H2 5268  10.830   7.881   3.657
 1056WAT      O 5269   9.925   7.344   3.566
 1056WAT     H1 5270   9.915   7.282   3.494
 1056WAT     H2 5271   9.867   7.416   3.544
 1057WAT      O 5272  10.201   7.199   3.270
 1057WAT     H1 5273  10.156   7.202   3.185
 1057WAT     H2 5274  10.138   7.159   3.329
 1058WAT      O 5275  10.242   8.089   3.332
 1058WAT     H1 5276  10.284   8.173   3.314
 1058WAT     H2 5277  10.150   8.103   3.309
 1059WAT      O 5278  10.475   7.862   3.470
 1059WAT     H1 5279  10.487   7.802   3.544
 1059WAT     H2 5280  10.561   7.866   3.428
 1060WAT      O 5281  10.709   7.917   3.328
 1060WAT     H1 5282  10.657   7.970   3.267
 1060WAT     H2 5283  10.744   7.981   3.391
 1061WAT      O 5284   9.949   7.656   1.972
 1061WAT     H1 5285   9.929   7.570   2.008
 1061WAT     H2 5286   9.932   7.648   1.878
 1062WAT      O 5287  10.027   8.719   3.443
 1062WAT     H1 5288   9.973   8.792   3.411
 1062WAT     H2 5289  10.052   8.672   3.364
 1063WAT      O 5290  10.152   7.516   3.596
 1063WAT     H1 5291  10.211   7.485   3.665
 1063WAT     H2 5292  10.070   7.469   3.611
 1064WAT      O 5293  10.634   7.478   3.619
 1064WAT     H1 5294  10.565   7.412   3.613
 1064WAT     H2 5295  10.706   7.433   3.664
 1065WAT      O 5296  10.697   7.137   2.225
 1065WAT     H1 5297  10.725   7.053   2.261
 1065WAT     H2 5298  10.620   7.161   2.276
 1066WAT      O 5299   9.829   7.366   1.971
 1066WAT     H1 5300   9.859   7.367   1.880
 1066WAT     H2 5301   9.903   7.331   2.021
 1067WAT      O 5302  10.312   8.843   3.469
 1067WAT     H1 5303  10.305   8.933   3.500
 1067WAT     H2 5304  10.222   8.811   3.466
 1068WAT      O 5305  10.151   7.261   2.070
 1068WAT     H1 5306  10.116   7.193   2.012
 1068WAT     H2 5307  10.171   7.215   2.151
 1069WAT      O 5308  10.367   8.759   2.231
 1069WAT     H1 5309  10.457   8.793   2.234
 1069WAT     H2 5310  10.370   8.687   2.169
 1070WAT      O 5311   9.731   8.297   2.054
 1070WAT     H1 5312   9.775   8.351   2.120
 1070WAT     H2 5313   9.780   8.214   2.055
 1071WAT      O 5314   9.453   8.576   2.799
 1071WAT     H1 5315   9.486   8.489   2.776
 1071WAT     H2 5316   9.496   8.596   2.883
 1072WAT      O 5317   9.912   8.409   2.565
 1072WAT     H1 5318   9.882   8.396   2.656
 1072WAT     H2 5319   9.902   8.323   2.525
 1073WAT      O 5320   9.502   8.662   3.073
 1073WAT     H1 5321   9.458   8.680   3.157
 1073WAT     H2 5322   9.558   8.738   3.059
 1074WAT      O 5323  11.065   8.613   3.502
 1074WAT     H1 5324  11.005   8.618   3.428
 1074WAT     H2 5325  11.078   8.519   3.515
 1075WAT      O 5326   9.485   7.914   2.709
 1075WAT     H1 5327   9.419   7.887   2.645
 1075WAT     H2 5328   9.569   7.903   2.664
 1076WAT      O 5329  10.934   8.285   3.312
 1076WAT     H1 5330  10.852   8.328   3.338
 1076WAT     H2 5331  10.975   8.346   3.251
 1077WAT      O 5332  10.780   7.393   2.131
 1077WAT     H1 5333  10.822   7.374   2.047
 1077WAT     H2 5334  10.749   7.308   2.162
 1078WAT      O 5335   9.589   7.952   3.163
 1078WAT     H1 5336   9.625   7.943   3.251
 1078WAT     H2 5337   9.532   7.876   3.153
 1079WAT      O 5338  11.069   7.799   3.465
 1079WAT     H1 5339  11.046   7.776   3.374
 1079WAT     H2 5340  11.095   7.891   3.460
 1080WAT      O 5341   9.544   7.643   3.554
 1080WAT     H1 5342   9.454   7.640   3.588
 1080WAT     H2 5343   9.598   7.663   3.630
 1081WAT      O 5344  10.913   7.321   3.742
 1081WAT     H1 5345  11.000   7.322   3.781
 1081WAT     H2 5346  10.914   7.248   3.681
 1082WAT      O 5347   9.406   7.635   2.303
 1082WAT     H1 5348   9.316   7.661   2.286
 1082WAT     H2 5349   9.455   7.662   2.225
 1083WAT      O 5350  11.057   7.707   2.831
 1083WAT     H1 5351  11.110   7.657   2.768
 1083WAT     H2 5352  11.116   7.720   2.906
 1084WAT      O 5353  11.075   7.715   3.183
 1084WAT     H1 5354  10.980   7.712   3.195
 1084WAT     H2 5355  11.093   7.806   3.160
 1085WAT      O 5356   9.661   7.540   2.094
 1085WAT     H1 5357   9.731   7.498   2.046
 1085WAT     H2 5358   9.589   7.547   2.031
 1086WAT      O 5359   9.625   7.146   1.998
 1086WAT     H1 5360   9.698   7.200   2.030
 1086WAT     H2 5361   9.653   7.118   1.911
 1087WAT      O 5362  11.006   7.633   2.425
 1087WAT     H1 5363  11.056   7.609   2.504
 1087WAT     H2 5364  10.986   7.549   2.383
 1088WAT      O 5365   9.594   7.071   2.989
 1088WAT     H1 5366   9.659   7.016   2.945
 1088WAT     H2 5367   9.636   7.096   3.071
 1089WAT      O 5368  10.984   7.090   3.324
 1089WAT     H1 5369  11.047   7.151   3.361
 1089WAT     H2 5370  10.998   7.094   3.230
 1090WAT      O 5371  10.940   8.760   2.665
 1090WAT     H1 5372  10.999   8.728   2.597
 1090WAT     H2 5373  10.965   8.713   2.744
 1091WAT      O 5374   9.570   7.086   3.263
 1091WAT     H1 5375   9.535   7.132   3.339
 1091WAT     H2 5376   9.536   6.997   3.271
 1092WAT      O 5377   9.730   8.403   3.679
 1092WAT     H1 5378   9.726   8.366   3.768
 1092WAT     H2 5379   9.743   8.497   3.693
 1093WAT      O 5380  10.100   8.559   3.240
 1093WAT     H1 5381  10.076   8.586   3.151
 1093WAT     H2 5382  10.194   8.576   3.245
 1094WAT      O 5383  10.321   7.205   3.615
 1094WAT     H1 5384  10.315   7.265   3.690
 1094WAT     H2 5385  10.415   7.195   3.601
 1095WAT      O 5386  10.585   7.171   3.579
 1095WAT     H1 5387  10.646   7.203   3.513
 1095WAT     H2 5388  10.639   7.123   3.641
 1096WAT      O 5389   9.637   7.039   3.590
 1096WAT     H1 5390   9.692   7.021   3.514
 1096WAT     H2 5391   9.643   6.960   3.644
 1097WAT      O 5392   9.714   8.698   3.391
 1097WAT     H1 5393   9.655   8.685   3.465
 1097WAT     H2 5394   9.713   8.614   3.345
 1098WAT      O 5395  10.659   7.027   3.212
 1098WAT     H1 5396  10.571   7.061   3.191
 1098WAT     H2 5397  10.648   6.980   3.294
 1099WAT      O 5398  10.749   7.248   3.350
 1099WAT     H1 5399  10.716   7.167   3.312
 1099WAT     H2 5400  10.844   7.244   3.338
 1100WAT      O 5401  10.995   8.825   3.047
 1100WAT     H1 5402  10.949   8.900   3.010
 1100WAT     H2 5403  10.932   8.753   3.042
 1101WAT      O 5404   9.677   8.435   3.286
 1101WAT     H1 5405   9.605   8.373   3.280
 1101WAT     H2 5406   9.683   8.474   3.199
 1102WAT      O 5407  10.038   8.656   2.965
 1102WAT     H1 5408  10.089   8.595   2.912
 1102WAT     H2 5409  10.103   8.706   3.014
 1103WAT      O 5410  10.312   8.745   3.048
 1103WAT     H1 5411  10.340   8.720   2.960
 1103WAT     H2 5412  10.363   8.690   3.107
 1104WAT      O 5413  10.433   7.119   3.106
 1104WAT     H1 5414  10.355   7.166   3.134
 1104WAT     H2 5415  10.404   7.029   3.095
 1105WAT      O 5416  10.889   7.189   2.910
 1105WAT     H1 5417  10.933   7.184   2.825
 1105WAT     H2 5418  10.862   7.281   2.917
 1106WAT      O 5419   9.505   8.766   2.607
 1106WAT     H1 5420   9.489   8.703   2.677
 1106WAT     H2 5421   9.419   8.787   2.572
 1107WAT      O 5422   9.568   7.150   2.358
 1107WAT     H1 5423   9.644   7.161   2.300
 1107WAT     H2 5424   9.522   7.233   2.353
 1108WAT      O 5425  10.222   7.361   2.657
 1108WAT     H1 5426  10.141   7.323   2.623
 1108WAT     H2 5427  10.272   7.285   2.687
 1109WAT      O 5428  10.672   7.027   2.781
 1109WAT     H1 5429  10.732   7.085   2.828
 1109WAT     H2 5430  10.598   7.084   2.758
 1110WAT      O 5431  10.986   7.068   2.308
 1110WAT     H1 5432  11.006   7.157   2.335
 1110WAT     H2 5433  10.908   7.044   2.357
 1111WAT      O 5434   9.666   8.636   2.352
 1111WAT     H1 5435   9.614   8.674   2.282
 1111WAT     H2 5436   9.659   8.698   2.424
 1112WAT      O 5437   9.805   7.202   2.212
 1112WAT     H1 5438   9.858   7.123   2.199
 1112WAT     H2 5439   9.868   7.270   2.235
 1113WAT      O 5440  10.024   7.176   2.517
 1113WAT     H1 5441   9.961   7.106   2.534
 1113WAT     H2 5442   9.970   7.252   2.496
 1114WAT      O 5443  10.318   8.837   3.784
 1114WAT     H1 5444  10.411   8.814   3.789
 1114WAT     H2 5445  10.317   8.920   3.736
 1115WAT      O 5446  10.037   7.104   3.761
 1115WAT     H1 5447  10.009   7.154   3.684
 1115WAT     H2 5448  10.075   7.024   3.724
 1116WAT      O 5449   9.926   8.831   2.239
 1116WAT     H1 5450   9.999   8.802   2.185
 1116WAT     H2 5451   9.952   8.807   2.328
 1117WAT      O 5452   9.842   8.442   2.240
 1117WAT     H1 5453   9.779   8.489   2.295
 1117WAT     H2 5454   9.854   8.358   2.283
 1118WAT      O 5455  10.697   7.045   3.819
 1118WAT     H1 5456  10.686   7.077   3.908
 1118WAT     H2 5457  10.779   7.085   3.789
 1119WAT      O 5458  10.975   8.760   3.767
 1119WAT     H1 5459  11.054   8.710   3.746
 1119WAT     H2 5460  11.004   8.828   3.827
 1120WAT      O 5461  10.588   7.847   0.855
 1120WAT     H1 5462  10.580   7.756   0.828
 1120WAT     H2 5463  10.546   7.897   0.784
 1121WAT      O 5464  10.401   8.025   1.043
 1121WAT     H1 5465  10.323   7.977   1.072
 1121WAT     H2 5466  10.466   7.957   1.026
 1122WAT      O 5467   9.803   8.056   1.131
 1122WAT     H1 5468   9.719   8.031   1.171
 1122WAT     H2 5469   9.863   8.063   1.204
 1123WAT      O 5470  10.803   8.466   0.921
 1123WAT     H1 5471  10.757   8.388   0.954
 1123WAT     H2 5472  10.884   8.468   0.972
 1124WAT      O 5473   9.801   8.460   1.150
 1124WAT     H1 5474   9.831   8.371   1.132
 1124WAT     H2 5475   9.875   8.515   1.128
 1125WAT      O 5476   9.643   7.552   0.509
 1125WAT     H1 5477   9.555   7.586   0.499
 1125WAT     H2 5478   9.672   7.532   0.420
 1126WAT      O 5479   9.440   7.812   1.098
 1126WAT     H1 5480   9.497   7.735   1.098
 1126WAT     H2 5481   9.440   7.842   1.007
 1127WAT      O 5482  10.426   8.694   0.883
 1127WAT     H1 5483  10.364   8.740   0.826
 1127WAT     H2 5484  10.511   8.710   0.843
 1128WAT      O 5485  10.345   8.293   1.044
 1128WAT     H1 5486  10.338   8.198   1.028
 1128WAT     H2 5487  10.421   8.302   1.101
 1129WAT      O 5488   9.564   7.353   1.276
 1129WAT     H1 5489   9.546   7.263   1.304
 1129WAT     H2 5490   9.524   7.408   1.344
 1130WAT      O 5491  10.448   7.573   1.066
 1130WAT     H1 5492  10.486   7.486   1.055
 1130WAT     H2 5493  10.438   7.607   0.977
 1131WAT      O 5494   9.861   7.411   0.613
 1131WAT     H1 5495   9.872   7.501   0.643
 1131WAT     H2 5496   9.770   7.406   0.584
 1132WAT      O 5497  10.826   7.323   0.760
 1132WAT     H1 5498  10.908   7.274   0.764
 1132WAT     H2 5499  10.830   7.382   0.835
 1133WAT      O 5500   9.626   7.603   1.137
 1133WAT     H1 5501   9.694   7.629   1.199
 1133WAT     H2 5502   9.594   7.519   1.170
 1134WAT      O 5503  10.045   7.707   1.046
 1134WAT     H1 5504  10.096   7.757   1.110
 1134WAT     H2 5505  10.098   7.630   1.028
 1135WAT      O 5506   9.873   7.171   1.472
 1135WAT     H1 5507   9.874   7.223   1.392
 1135WAT     H2 5508   9.791   7.124   1.470
 1136WAT      O 5509  10.512   8.183   0.622
 1136WAT     H1 5510  10.450   8.229   0.566
 1136WAT     H2 5511  10.563   8.252   0.664
 1137WAT      O 5512   9.999   8.135   1.290
 1137WAT     H1 5513   9.965   8.198   1.354
 1137WAT     H2 5514  10.016   8.188   1.212
 1138WAT      O 5515  10.850   7.517   1.037
 1138WAT     H1 5516  10.779   7.546   1.095
 1138WAT     H2 5517  10.886   7.598   1.001
 1139WAT      O 5518   9.842   7.342   1.273
 1139WAT     H1 5519   9.876   7.427   1.244
 1139WAT     H2 5520   9.748   7.357   1.285
 1140WAT      O 5521   9.920   8.332   1.472
 1140WAT     H1 5522   9.981   8.400   1.444
 1140WAT     H2 5523   9.834   8.373   1.463
 1141WAT      O 5524   9.449   8.251   0.360
 1141WAT     H1 5525   9.411   8.300   0.287
 1141WAT     H2 5526   9.475   8.318   0.423
 1142WAT      O 5527  11.011   8.479   1.263
 1142WAT     H1 5528  10.943   8.546   1.262
 1142WAT     H2 5529  11.065   8.498   1.187
 1143WAT      O 5530  10.210   7.091   0.906
 1143WAT     H1 5531  10.241   7.036   0.834
 1143WAT     H2 5532  10.117   7.105   0.887
 1144WAT      O 5533  10.765   8.663   1.135
 1144WAT     H1 5534  10.766   8.623   1.048
 1144WAT     H2 5535  10.710   8.740   1.124
 1145WAT      O 5536  10.895   8.335   0.644
 1145WAT     H1 5537  10.883   8.241   0.656
 1145WAT     H2 5538  10.894   8.371   0.732
 1146WAT      O 5539  10.705   8.153   1.267
 1146WAT     H1 5540  10.747   8.132   1.184
 1146WAT     H2 5541  10.777   8.179   1.325
 1147WAT      O 5542  10.449   7.898   0.579
 1147WAT     H1 5543  10.356   7.891   0.602
 1147WAT     H2 5544  10.464   7.992   0.568
 1148WAT      O 5545  10.447   7.525   0.279
 1148WAT     H1 5546  10.353   7.541   0.287
 1148WAT     H2 5547  10.479   7.597   0.224
 1149WAT      O 5548  10.852   8.054   0.630
 1149WAT     H1 5549  10.790   8.020   0.565
 1149WAT     H2 5550  10.850   7.990   0.700
 1150WAT      O 5551  10.796   7.672   1.371
 1150WAT     H1 5552  10.755   7.754   1.397
 1150WAT     H2 5553  10.723   7.613   1.352
 1151WAT      O 5554  10.009   7.950   0.857
 1151WAT     H1 5555   9.969   7.879   0.808
 1151WAT     H2 5556  10.018   7.916   0.946
 1152WAT      O 5557  10.056   8.319   1.074
 1152WAT     H1 5558  10.026   8.259   1.006
 1152WAT     H2 5559  10.151   8.323   1.063
 1153WAT      O 5560   9.881   7.628   1.235
 1153WAT     H1 5561   9.936   7.639   1.158
 1153WAT     H2 5562   9.932   7.665   1.307
 1154WAT      O 5563  10.865   8.676   1.440
 1154WAT     H1 5564  10.817   8.757   1.421
 1154WAT     H2 5565  10.797   8.611   1.455
 1155WAT      O 5566   9.965   8.293   1.739
 1155WAT     H1 5567   9.876   8.315   1.764
 1155WAT     H2 5568   9.968   8.305   1.644
 1156WAT      O 5569  10.669   7.978   0.330
 1156WAT     H1 5570  10.713   7.894   0.316
 1156WAT     H2 5571  10.741   8.041   0.339
 1157WAT      O 5572   9.848   7.980   1.596
 1157WAT     H1 5573   9.834   8.067   1.633
 1157WAT     H2 5574   9.760   7.946   1.582
 1158WAT      O 5575  10.480   8.472   0.727
 1158WAT     H1 5576  10.524   8.546   0.686
 1158WAT     H2 5577  10.474   8.496   0.819
 1159WAT      O 5578  10.028   8.574   1.817
 1159WAT     H1 5579  10.025   8.615   1.731
 1159WAT     H2 5580  10.011   8.481   1.801
 1160WAT      O 5581   9.679   7.840   0.607
 1160WAT     H1 5582   9.667   7.913   0.546
 1160WAT     H2 5583   9.648   7.763   0.560
 1161WAT      O 5584   9.443   8.157   1.188
 1161WAT     H1 5585   9.451   8.171   1.094
 1161WAT     H2 5586   9.505   8.086   1.207
 1162WAT      O 5587   9.568   8.327   0.829
 1162WAT     H1 5588   9.527   8.341   0.744
 1162WAT     H2 5589   9.657   8.299   0.809
 1163WAT      O 5590  10.549   8.742   1.520
 1163WAT     H1 5591  10.601   8.733   1.600
 1163WAT     H2 5592  10.465   8.777   1.549
 1164WAT      O 5593  10.747   8.771   0.463
 1164WAT     H1 5594  10.731   8.742   0.553
 1164WAT     H2 5595  10.730   8.693   0.409
 1165WAT      O 5596   9.995   8.748   0.640
 1165WAT     H1 5597   9.977   8.657   0.619
 1165WAT     H2 5598   9.909   8.784   0.664
 1166WAT      O 5599  10.717   8.521   0.319
 1166WAT     H1 5600  10.648   8.521   0.253
 1166WAT     H2 5601  10.791   8.479   0.276
 1167WAT      O 5602  10.674   8.684   0.726
 1167WAT     H1 5603  10.719   8.606   0.758
 1167WAT     H2 5604  10.708   8.755   0.781
 1168WAT      O 5605   9.449   8.261   1.442
 1168WAT     H1 5606   9.465   8.214   1.360
 1168WAT     H2 5607   9.495   8.210   1.509
 1169WAT      O 5608   9.926   7.174   0.946
 1169WAT     H1 5609   9.882   7.252   0.913
 1169WAT     H2 5610   9.982   7.207   1.016
 1170WAT      O 5611  10.355   7.461   1.506
 1170WAT     H1 5612  10.308   7.482   1.587
 1170WAT     H2 5613  10.314   7.380   1.476
 1171WAT      O 5614  10.855   7.583   1.619
 1171WAT     H1 5615  10.770   7.553   1.651
 1171WAT     H2 5616  10.839   7.607   1.528
 1172WAT      O 5617  10.564   7.733   1.829
 1172WAT     H1 5618  10.597   7.650   1.795
 1172WAT     H2 5619  10.643   7.785   1.844
 1173WAT      O 5620  10.238   7.136   0.434
 1173WAT     H1 5621  10.175   7.136   0.506
 1173WAT     H2 5622  10.229   7.050   0.394
 1174WAT      O 5623  10.130   7.229   1.132
 1174WAT     H1 5624  10.159   7.319   1.124
 1174WAT     H2 5625  10.185   7.180   1.070
 1175WAT      O 5626   9.905   7.687   0.719
 1175WAT     H1 5627   9.883   7.665   0.809
 1175WAT     H2 5628   9.827   7.730   0.684
 1176WAT      O 5629  10.628   7.687   0.578
 1176WAT     H1 5630  10.568   7.760   0.560
 1176WAT     H2 5631  10.683   7.681   0.500
 1177WAT      O 5632  10.149   7.776   1.785
 1177WAT     H1 5633  10.140   7.682   1.770
 1177WAT     H2 5634  10.233   7.799   1.746
 1178WAT      O 5635  10.489   7.551   0.781
 1178WAT     H1 5636  10.528   7.583   0.700
 1178WAT     H2 5637  10.525   7.463   0.793
 1179WAT      O 5638   9.662   7.418   1.600
 1179WAT     H1 5639   9.623   7.502   1.621
 1179WAT     H2 5640   9.593   7.354   1.620
 1180WAT      O 5641  10.320   7.426   1.907
 1180WAT     H1 5642  10.251   7.407   1.971
 1180WAT     H2 5643  10.394   7.454   1.961
 1181WAT      O 5644   9.392   7.210   1.004
 1181WAT     H1 5645   9.364   7.267   1.075
 1181WAT     H2 5646   9.467   7.162   1.040
 1182WAT      O 5647  10.547   7.810   1.191
 1182WAT     H1 5648  10.474   7.861   1.226
 1182WAT     H2 5649  10.508   7.728   1.161
 1183WAT      O 5650  10.191   7.477   1.031
 1183WAT     H1 5651  10.191   7.433   0.947
 1183WAT     H2 5652  10.281   7.510   1.042
 1184WAT      O 5653   9.776   7.466   0.927
 1184WAT     H1 5654   9.742   7.513   1.003
 1184WAT     H2 5655   9.700   7.420   0.891
 1185WAT      O 5656  10.197   7.578   0.331
 1185WAT     H1 5657  10.209   7.573   0.425
 1185WAT     H2 5658  10.159   7.664   0.315
 1186WAT      O 5659  10.594   7.355   1.132
 1186WAT     H1 5660  10.595   7.400   1.217
 1186WAT     H2 5661  10.569   7.265   1.154
 1187WAT      O 5662  10.098   7.809   0.270
 1187WAT     H1 5663  10.042   7.764   0.208
 1187WAT     H2 5664  10.169   7.844   0.217
 1188WAT      O 5665  10.936   7.097   1.716
 1188WAT     H1 5666  10.969   7.023   1.769
 1188WAT     H2 5667  10.940   7.065   1.626
 1189WAT      O 5668   9.606   8.199   1.658
 1189WAT     H1 5669   9.568   8.135   1.718
 1189WAT     H2 5670   9.637   8.269   1.715
 1190WAT      O 5671  10.221   7.883   1.206
 1190WAT     H1 5672  10.258   7.836   1.281
 1190WAT     H2 5673  10.202   7.971   1.240
 1191WAT      O 5674   9.508   7.358   0.819
 1191WAT     H1 5675   9.479   7.321   0.903
 1191WAT     H2 5676   9.501   7.285   0.758
 1192WAT      O 5677  10.000   7.788   1.438
 1192WAT     H1 5678   9.970   7.875   1.460
 1192WAT     H2 5679  10.096   7.794   1.442
 1193WAT      O 5680   9.853   8.208   0.498
 1193WAT     H1 5681   9.776   8.154   0.482
 1193WAT     H2 5682   9.926   8.156   0.464
 1194WAT      O 5683  10.929   8.108   1.077
 1194WAT     H1 5684  11.001   8.157   1.038
 1194WAT     H2 5685  10.909   8.040   1.012
 1195WAT      O 5686  10.475   7.247   0.491
 1195WAT     H1 5687  10.394   7.197   0.484
 1195WAT     H2 5688  10.456   7.331   0.450
 1196WAT      O 5689  10.467   8.115   1.666
 1196WAT     H1 5690  10.460   8.023   1.640
 1196WAT     H2 5691  10.404   8.125   1.737
 1197WAT      O 5692  10.746   7.684   0.321
 1197WAT     H1 5693  10.835   7.716   0.303
 1197WAT     H2 5694  10.743   7.597   0.282
 1198WAT      O 5695   9.857   8.175   0.861
 1198WAT     H1 5696   9.909   8.095   0.856
 1198WAT     H2 5697   9.812   8.169   0.946
 1199WAT      O 5698  10.346   8.302   0.389
 1199WAT     H1 5699  10.380   8.376   0.339
 1199WAT     H2 5700  10.263   8.333   0.425
 1200WAT      O 5701   9.606   7.872   1.553
 1200WAT     H1 5702   9.570   7.938   1.611
 1200WAT     H2 5703   9.576   7.788   1.590
 1201WAT      O 5704   9.926   7.917   1.841
 1201WAT     H1 5705   9.896   7.932   1.751
 1201WAT     H2 5706  10.003   7.861   1.832
 1202WAT      O 5707  10.460   8.397   1.641
 1202WAT     H1 5708  10.462   8.304   1.619
 1202WAT     H2 5709  10.389   8.406   1.705
 1203WAT      O 5710  10.974   7.816   0.268
 1203WAT     H1 5711  10.965   7.859   0.183
 1203WAT     H2 5712  11.045   7.861   0.311
 1204WAT      O 5713  11.076   8.501   0.540
 1204WAT     H1 5714  11.012   8.435   0.568
 1204WAT     H2 5715  11.038   8.541   0.463
 1205WAT      O 5716  10.634   8.234   0.925
 1205WAT     H1 5717  10.670   8.174   0.859
 1205WAT     H2 5718  10.546   8.201   0.942
 1206WAT      O 5719  10.243   8.310   0.666
 1206WAT     H1 5720  10.312   8.364   0.704
 1206WAT     H2 5721  10.164   8.364   0.669
 1207WAT      O 5722   9.457   7.871   0.215
 1207WAT     H1 5723   9.544   7.900   0.243
 1207WAT     H2 5724   9.408   7.953   0.204
 1208WAT      O 5725  10.173   8.010   0.627
 1208WAT     H1 5726  10.219   8.091   0.650
 1208WAT     H2 5727  10.138   7.978   0.710
 1209WAT      O 5728  10.404   8.561   1.350
 1209WAT     H1 5729  10.468   8.582   1.418
 1209WAT     H2 5730  10.440   8.485   1.305
 1210WAT      O 5731   9.763   7.045   0.674
 1210WAT     H1 5732   9.750   7.044   0.769
 1210WAT     H2 5733   9.681   7.078   0.639
 1211WAT      O 5734  10.531   8.362   1.222
 1211WAT     H1 5735  10.595   8.292   1.233
 1211WAT     H2 5736  10.583   8.440   1.204
 1212WAT      O 5737  10.708   8.442   1.542
 1212WAT     H1 5738  10.742   8.500   1.610
 1212WAT     H2 5739  10.616   8.428   1.565
 1213WAT      O 5740   9.494   8.793   0.272
 1213WAT     H1 5741   9.530   8.853   0.206
 1213WAT     H2 5742   9.479   8.847   0.349
 1214WAT      O 5743   9.463   7.221   1.620
 1214WAT     H1 5744   9.392   7.240   1.681
 1214WAT     H2 5745   9.505   7.143   1.658
 1215WAT      O 5746  10.874   8.182   0.360
 1215WAT     H1 5747  10.845   8.228   0.439
 1215WAT     H2 5748  10.953   8.136   0.387
 1216WAT      O 5749   9.492   8.619   1.719
 1216WAT     H1 5750   9.503   8.525   1.705
 1216WAT     H2 5751   9.427   8.646   1.654
 1217WAT      O 5752  10.291   8.446   1.859
 1217WAT     H1 5753  10.259   8.375   1.914
 1217WAT     H2 5754  10.224   8.514   1.866
 1218WAT      O 5755  10.095   8.531   0.353
 1218WAT     H1 5756  10.094   8.604   0.292
 1218WAT     H2 5757  10.003   8.506   0.363
 1219WAT      O 5758   9.655   8.053   0.428
 1219WAT     H1 5759   9.595   8.127   0.429
 1219WAT     H2 5760   9.703   8.062   0.345
 1220WAT      O 5761  10.613   7.470   1.395
 1220WAT     H1 5762  10.649   7.388   1.428
 1220WAT     H2 5763  10.527   7.476   1.437
 1221WAT      O 5764  10.949   7.365   0.476
 1221WAT     H1 5765  10.886   7.376   0.405
 1221WAT     H2 5766  10.900   7.387   0.555
 1222WAT      O 5767  10.146   7.593   0.618
 1222WAT     H1 5768  10.075   7.640   0.662
 1222WAT     H2 5769  10.175   7.527   0.681
 1223WAT      O 5770  10.309   7.735   1.418
 1223WAT     H1 5771  10.359   7.783   1.484
 1223WAT     H2 5772  10.323   7.643   1.439
 1224WAT      O 5773  10.549   7.266   0.762
 1224WAT     H1 5774  10.537   7.268   0.667
 1224WAT     H2 5775  10.644   7.270   0.774
 1225WAT      O 5776  10.258   8.789   0.689
 1225WAT     H1 5777  10.283   8.785   0.597
 1225WAT     H2 5778  10.163   8.777   0.688
 1226WAT      O 5779   9.966   7.424   0.355
 1226WAT     H1 5780  10.051   7.468   0.349
 1226WAT     H2 5781   9.930   7.455   0.438
 1227WAT      O 5782  11.029   7.357   1.502
 1227WAT     H1 5783  10.979   7.431   1.536
 1227WAT     H2 5784  11.111   7.396   1.470
 1228WAT      O 5785  10.859   7.881   0.847
 1228WAT     H1 5786  10.764   7.883   0.864
 1228WAT     H2 5787  10.890   7.802   0.891
 1229WAT      O 5788   9.726   7.793   0.271
 1229WAT     H1 5789   9.734   7.698   0.282
 1229WAT     H2 5790   9.815   7.826   0.282
 1230WAT      O 5791   9.806   8.808   0.981
 1230WAT     H1 5792   9.880   8.753   1.009
 1230WAT     H2 5793   9.844   8.894   0.967
 1231WAT      O 5794   9.494   8.414   0.569
 1231WAT     H1 5795   9.402   8.438   0.568
 1231WAT     H2 5796   9.541   8.497   0.557
 1232WAT      O 5797   9.707   8.726   1.900
 1232WAT     H1 5798   9.787   8.758   1.942
 1232WAT     H2 5799   9.655   8.690   1.972
 1233WAT      O 5800  10.590   8.337   1.895
 1233WAT     H1 5801  10.530   8.339   1.821
 1233WAT     H2 5802  10.560   8.264   1.949
 1234WAT      O 5803  10.733   8.710   1.756
 1234WAT     H1 5804  10.828   8.701   1.751
 1234WAT     H2 5805  10.718   8.776   1.823
 1235WAT      O 5806  11.022   8.648   0.306
 1235WAT     H1 5807  10.994   8.606   0.225
 1235WAT     H2 5808  11.003   8.740   0.294
 1236WAT      O 5809   9.479   7.975   1.795
 1236WAT     H1 5810   9.529   7.917   1.852
 1236WAT     H2 5811   9.405   8.003   1.848
 1237WAT      O 5812  10.184   8.115   1.748
 1237WAT     H1 5813  10.107   8.172   1.740
 1237WAT     H2 5814  10.202   8.086   1.659
 1238WAT      O 5815  10.493   8.153   0.211
 1238WAT     H1 5816  10.438   8.198   0.275
 1238WAT     H2 5817  10.555   8.103   0.263
 1239WAT      O 5818  10.898   8.288   1.804
 1239WAT     H1 5819  10.972   8.322   1.753
 1239WAT     H2 5820  10.822   8.305   1.748
 1240WAT      O 5821   9.682   7.789   1.884
 1240WAT     H1 5822   9.686   7.759   1.975
 1240WAT     H2 5823   9.767   7.829   1.868
 1241WAT      O 5824  10.060   8.049   0.400
 1241WAT     H1 5825  10.102   8.032   0.484
 1241WAT     H2 5826  10.072   7.968   0.351
 1242WAT      O 5827   9.876   7.647   1.681
 1242WAT     H1 5828   9.823   7.598   1.618
 1242WAT     H2 5829   9.943   7.690   1.627
 1243WAT      O 5830  10.766   8.094   1.657
 1243WAT     H1 5831  10.807   8.109   1.742
 1243WAT     H2 5832  10.672   8.106   1.674
 1244WAT      O 5833  10.813   7.828   1.858
 1244WAT     H1 5834  10.871   7.752   1.849
 1244WAT     H2 5835  10.830   7.881   1.780
 1245WAT      O 5836   9.925   7.344   1.689
 1245WAT     H1 5837   9.915   7.282   1.616
 1245WAT     H2 5838   9.867   7.416   1.666
 1246WAT      O 5839  10.201   7.199   1.392
 1246WAT     H1 5840  10.156   7.202   1.308
 1246WAT     H2 5841  10.138   7.159   1.452
 1247WAT      O 5842  10.242   8.089   1.454
 1247WAT     H1 5843  10.284   8.173   1.437
 1247WAT     H2 5844  10.150   8.103   1.431
 1248WAT      O 5845  10.475   7.862   1.593
 1248WAT     H1 5846  10.487   7.802   1.667
 1248WAT     H2 5847  10.561   7.866   1.551
 1249WAT      O 5848  10.709   7.917   1.450
 1249WAT     H1 5849  10.657   7.970   1.390
 1249WAT     H2 5850  10.744   7.981   1.513
 1250WAT      O 5851  10.027   8.719   1.566
 1250WAT     H1 5852   9.973   8.792   1.534
 1250WAT     H2 5853  10.052   8.672   1.487
 1251WAT      O 5854  10.152   7.516   1.718
 1251WAT     H1 5855  10.211   7.485   1.787
 1251WAT     H2 5856  10.070   7.469   1.734
 1252WAT      O 5857  10.634   7.478   1.742
 1252WAT     H1 5858  10.565   7.412   1.735
 1252WAT     H2 5859  10.706   7.433   1.786
 1253WAT      O 5860  10.697   7.137   0.348
 1253WAT     H1 5861  10.725   7.053   0.383
 1253WAT     H2 5862  10.620   7.161   0.399
 1254WAT      O 5863  10.312   8.843   1.592
 1254WAT     H1 5864  10.305   8.933   1.622
 1254WAT     H2 5865  10.222   8.811   1.589
 1255WAT      O 5866  10.367   8.759   0.354
 1255WAT     H1 5867  10.457   8.793   0.356
 1255WAT     H2 5868  10.370   8.687   0.291
 1256WAT      O 5869   9.731   8.297   0.177
 1256WAT     H1 5870   9.775   8.351   0.242
 1256WAT     H2 5871   9.780   8.214   0.178
 1257WAT      O 5872   9.453   8.576   0.922
 1257WAT     H1 5873   9.486   8.489   0.899
 1257WAT     H2 5874   9.496   8.596   1.005
 1258WAT      O 5875   9.912   8.409   0.688
 1258WAT     H1 5876   9.882   8.396   0.778
 1258WAT     H2 5877   9.902   8.323   0.647
 1259WAT      O 5878   9.502   8.662   1.196
 1259WAT     H1 5879   9.458   8.680   1.279
 1259WAT     H2 5880   9.558   8.738   1.182
 1260WAT      O 5881  11.065   8.613   1.625
 1260WAT     H1 5882  11.005   8.618   1.550
 1260WAT     H2 5883  11.078   8.519   1.638
 1261WAT      O 5884   9.485   7.914   0.832
 1261WAT     H1 5885   9.419   7.887   0.767
 1261WAT     H2 5886   9.569   7.903   0.787
 1262WAT      O 5887  10.934   8.285   1.434
 1262WAT     H1 5888  10.852   8.328   1.461
 1262WAT     H2 5889  10.975   8.346   1.373
 1263WAT      O 5890  10.780   7.393   0.254
 1263WAT     H1 5891  10.822   7.374   0.170
 1263WAT     H2 5892  10.749   7.308   0.285
 1264WAT      O 5893   9.589   7.952   1.286
 1264WAT     H1 5894   9.625   7.943   1.374
 1264WAT     H2 5895   9.532   7.876   1.276
 1265WAT      O 5896  11.069   7.799   1.587
 1265WAT     H1 5897  11.046   7.776   1.497
 1265WAT     H2 5898  11.095   7.891   1.583
 1266WAT      O 5899   9.544   7.643   1.676
 1266WAT     H1 5900   9.454   7.640   1.710
 1266WAT     H2 5901   9.598   7.663   1.753
 1267WAT      O 5902  10.913   7.321   1.865
 1267WAT     H1 5903  11.000   7.322   1.903
 1267WAT     H2 5904  10.914   7.248   1.804
 1268WAT      O 5905   9.406   7.635   0.426
 1268WAT     H1 5906   9.316   7.661   0.409
 1268WAT     H2 5907   9.455   7.662   0.348
 1269WAT      O 5908  11.057   7.707   0.954
 1269WAT     H1 5909  11.110   7.657   0.891
 1269WAT     H2 5910  11.116   7.720   1.028
 1270WAT      O 5911  11.075   7.715   1.306
 1270WAT     H1 5912  10.980   7.712   1.317
 1270WAT     H2 5913  11.093   7.806   1.282
 1271WAT      O 5914  11.006   7.633   0.548
 1271WAT     H1 5915  11.056   7.609   0.626
 1271WAT     H2 5916  10.986   7.549   0.506
 1272WAT      O 5917   9.594   7.071   1.111
 1272WAT     H1 5918   9.659   7.016   1.067
 1272WAT     H2 5919   9.636   7.096   1.193
 1273WAT      O 5920  10.984   7.090   1.447
 1273WAT     H1 5921  11.047   7.151   1.483
 1273WAT     H2 5922  10.998   7.094   1.352
 1274WAT      O 5923  10.940   8.760   0.787
 1274WAT     H1 5924  10.999   8.728   0.719
 1274WAT     H2 5925  10.965   8.713   0.866
 1275WAT      O 5926   9.570   7.086   1.385
 1275WAT     H1 5927   9.535   7.132   1.462
 1275WAT     H2 5928   9.536   6.997   1.394
 1276WAT      O 5929   9.730   8.403   1.802
 1276WAT     H1 5930   9.726   8.366   1.890
 1276WAT     H2 5931   9.743   8.497   1.816
 1277WAT      O 5932  10.100   8.559   1.362
 1277WAT     H1 5933  10.076   8.586   1.273
 1277WAT     H2 5934  10.194   8.576   1.368
 1278WAT      O 5935  10.321   7.205   1.738
 1278WAT     H1 5936  10.315   7.265   1.813
 1278WAT     H2 5937  10.415   7.195   1.723
 1279WAT      O 5938  10.585   7.171   1.702
 1279WAT     H1 5939  10.646   7.203   1.635
 1279WAT     H2 5940  10.639   7.123   1.764
 1280WAT      O 5941   9.637   7.039   1.713
 1280WAT     H1 5942   9.692   7.021   1.637
 1280WAT     H2 5943   9.643   6.960   1.767
 1281WAT      O 5944   9.714   8.698   1.514
 1281WAT     H1 5945   9.655   8.685   1.588
 1281WAT     H2 5946   9.713   8.614   1.467
 1282WAT      O 5947  10.659   7.027   1.334
 1282WAT     H1 5948  10.571   7.061   1.314
 1282WAT     H2 5949  10.648   6.980   1.417
 1283WAT      O 5950  10.749   7.248   1.473
 1283WAT     H1 5951  10.716   7.167   1.435
 1283WAT     H2 5952  10.844   7.244   1.460
 1284WAT      O 5953  10.995   8.825   1.170
 1284WAT     H1 5954  10.949   8.900   1.133
 1284WAT     H2 5955  10.932   8.753   1.164
 1285WAT      O 5956   9.677   8.435   1.409
 1285WAT     H1 5957   9.605   8.373   1.402
 1285WAT     H2 5958   9.683   8.474   1.322
 1286WAT      O 5959  10.038   8.656   1.088
 1286WAT     H1 5960  10.089   8.595   1.035
 1286WAT     H2 5961  10.103   8.706   1.137
 1287WAT      O 5962  10.312   8.745   1.170
 1287WAT     H1 5963  10.340   8.720   1.083
 1287WAT     H2 5964  10.363   8.690   1.229
 1288WAT      O 5965  10.433   7.119   1.228
 1288WAT     H1 5966  10.355   7.166   1.256
 1288WAT     H2 5967  10.404   7.029   1.217
 1289WAT      O 5968  10.889   7.189   1.033
 1289WAT     H1 5969  10.933   7.184   0.948
 1289WAT     H2 5970  10.862   7.281   1.040
 1290WAT      O 5971   9.505   8.766   0.730
 1290WAT     H1 5972   9.489   8.703   0.800
 1290WAT     H2 5973   9.419   8.787   0.695
 1291WAT      O 5974   9.568   7.150   0.480
 1291WAT     H1 5975   9.644   7.161   0.423
 1291WAT     H2 5976   9.522   7.233   0.476
 1292WAT      O 5977  10.222   7.361   0.779
 1292WAT     H1 5978  10.141   7.323   0.745
 1292WAT     H2 5979  10.272   7.285   0.810
 1293WAT      O 5980  10.672   7.027   0.903
 1293WAT     H1 5981  10.732   7.085   0.951
 1293WAT     H2 5982  10.598   7.084   0.881
 1294WAT      O 5983  10.986   7.068   0.431
 1294WAT     H1 5984  11.006   7.157   0.457
 1294WAT     H2 5985  10.908   7.044   0.480
 1295WAT      O 5986   9.666   8.636   0.474
 1295WAT     H1 5987   9.614   8.674   0.404
 1295WAT     H2 5988   9.659   8.698   0.547
 1296WAT      O 5989   9.805   7.202   0.334
 1296WAT     H1 5990   9.858   7.123   0.321
 1296WAT     H2 5991   9.868   7.270   0.358
 1297WAT      O 5992  10.024   7.176   0.640
 1297WAT     H1 5993   9.961   7.106   0.656
 1297WAT     H2 5994   9.970   7.252   0.618
 1298WAT      O 5995  10.318   8.837   1.907
 1298WAT     H1 5996  10.411   8.814   1.911
 1298WAT     H2 5997  10.317   8.920   1.859
 1299WAT      O 5998  10.037   7.104   1.883
 1299WAT     H1 5999  10.009   7.154   1.807
 1299WAT     H2 6000  10.075   7.024   1.847
 1300WAT      O 6001   9.926   8.831   0.362
 1300WAT     H1 6002   9.999   8.802   0.307
 1300WAT     H2 6003   9.952   8.807   0.451
 1301WAT      O 6004   9.842   8.442   0.362
 1301WAT     H1 6005   9.779   8.489   0.417
 1301WAT     H2 6006   9.854   8.358   0.406
 1302WAT      O 6007  10.697   7.045   1.941
 1302WAT     H1 6008  10.686   7.077   2.031
 1302WAT     H2 6009  10.779   7.085   1.911
 1303WAT      O 6010  10.975   8.760   1.889
 1303WAT     H1 6011  11.054   8.710   1.869
 1303WAT     H2 6012  11.004   8.828   1.950
 1304WAT      O 6013  10.588   5.970   6.487
 1304WAT     H1 6014  10.580   5.878   6.460
 1304WAT     H2 6015  10.546   6.019   6.417
 1305WAT      O 6016  10.401   6.148   6.675
 1305WAT     H1 6017  10.323   6.100   6.704
 1305WAT     H2 6018  10.466   6.080   6.658
 1306WAT      O 6019   9.803   6.179   6.763
 1306WAT     H1 6020   9.719   6.153   6.803
 1306WAT     H2 6021   9.863   6.186   6.837
 1307WAT      O 6022  10.803   6.588   6.553
 1307WAT     H1 6023  10.757   6.511   6.586
 1307WAT     H2 6024  10.884   6.591   6.604
 1308WAT      O 6025   9.801   6.582   6.783
 1308WAT     H1 6026   9.831   6.493   6.765
 1308WAT     H2 6027   9.875   6.638   6.760
 1309WAT      O 6028   9.643   5.675   6.141
 1309WAT     H1 6029   9.555   5.709   6.131
 1309WAT     H2 6030   9.672   5.655   6.052
 1310WAT      O 6031   9.440   5.935   6.730
 1310WAT     H1 6032   9.497   5.858   6.730
 1310WAT     H2 6033   9.440   5.965   6.639
 1311WAT      O 6034  10.426   6.817   6.515
 1311WAT     H1 6035  10.364   6.862   6.458
 1311WAT     H2 6036  10.511   6.832   6.475
 1312WAT      O 6037  10.345   6.415   6.676
 1312WAT     H1 6038  10.338   6.321   6.660
 1312WAT     H2 6039  10.421   6.424   6.733
 1313WAT      O 6040   9.564   5.476   6.909
 1313WAT     H1 6041   9.546   5.386   6.937
 1313WAT     H2 6042   9.524   5.530   6.976
 1314WAT      O 6043  10.448   5.696   6.699
 1314WAT     H1 6044  10.486   5.609   6.687
 1314WAT     H2 6045  10.438   5.729   6.610
 1315WAT      O 6046   9.861   5.533   6.245
 1315WAT     H1 6047   9.872   5.623   6.276
 1315WAT     H2 6048   9.770   5.528   6.216
 1316WAT      O 6049  10.826   5.445   6.392
 1316WAT     H1 6050  10.908   5.396   6.396
 1316WAT     H2 6051  10.830   5.504   6.467
 1317WAT      O 6052   9.626   5.725   6.769
 1317WAT     H1 6053   9.694   5.752   6.831
 1317WAT     H2 6054   9.594   5.641   6.803
 1318WAT      O 6055  10.045   5.830   6.678
 1318WAT     H1 6056  10.096   5.880   6.742
 1318WAT     H2 6057  10.098   5.752   6.661
 1319WAT      O 6058   9.873   5.294   7.105
 1319WAT     H1 6059   9.874   5.346   7.024
 1319WAT     H2 6060   9.791   5.246   7.102
 1320WAT      O 6061  10.512   6.305   6.255
 1320WAT     H1 6062  10.450   6.352   6.198
 1320WAT     H2 6063  10.563   6.374   6.296
 1321WAT      O 6064   9.999   6.258   6.922
 1321WAT     H1 6065   9.965   6.321   6.987
 1321WAT     H2 6066  10.016   6.311   6.845
 1322WAT      O 6067  10.850   5.639   6.669
 1322WAT     H1 6068  10.779   5.668   6.727
 1322WAT     H2 6069  10.886   5.720   6.633
 1323WAT      O 6070   9.842   5.465   6.905
 1323WAT     H1 6071   9.876   5.549   6.876
 1323WAT     H2 6072   9.748   5.480   6.917
 1324WAT      O 6073   9.920   6.455   7.104
 1324WAT     H1 6074   9.981   6.522   7.076
 1324WAT     H2 6075   9.834   6.496   7.095
 1325WAT      O 6076   9.449   6.374   5.992
 1325WAT     H1 6077   9.411   6.423   5.919
 1325WAT     H2 6078   9.475   6.441   6.055
 1326WAT      O 6079  11.011   6.601   6.896
 1326WAT     H1 6080  10.943   6.668   6.895
 1326WAT     H2 6081  11.065   6.621   6.819
 1327WAT      O 6082  10.210   5.214   6.538
 1327WAT     H1 6083  10.241   5.158   6.466
 1327WAT     H2 6084  10.117   5.227   6.520
 1328WAT      O 6085  10.765   6.786   6.767
 1328WAT     H1 6086  10.766   6.745   6.680
 1328WAT     H2 6087  10.710   6.863   6.757
 1329WAT      O 6088  10.895   6.458   6.276
 1329WAT     H1 6089  10.883   6.363   6.288
 1329WAT     H2 6090  10.894   6.494   6.365
 1330WAT      O 6091  10.705   6.276   6.900
 1330WAT     H1 6092  10.747   6.254   6.816
 1330WAT     H2 6093  10.777   6.302   6.957
 1331WAT      O 6094  10.449   6.020   6.212
 1331WAT     H1 6095  10.356   6.014   6.234
 1331WAT     H2 6096  10.464   6.114   6.200
 1332WAT      O 6097  10.447   5.648   5.911
 1332WAT     H1 6098  10.353   5.664   5.920
 1332WAT     H2 6099  10.479   5.719   5.857
 1333WAT      O 6100  10.852   6.177   6.262
 1333WAT     H1 6101  10.790   6.143   6.197
 1333WAT     H2 6102  10.850   6.112   6.333
 1334WAT      O 6103  10.796   5.794   7.004
 1334WAT     H1 6104  10.755   5.877   7.029
 1334WAT     H2 6105  10.723   5.736   6.984
 1335WAT      O 6106  10.009   6.073   6.490
 1335WAT     H1 6107   9.969   6.002   6.440
 1335WAT     H2 6108  10.018   6.039   6.579
 1336WAT      O 6109  10.056   6.442   6.706
 1336WAT     H1 6110  10.026   6.381   6.638
 1336WAT     H2 6111  10.151   6.445   6.695
 1337WAT      O 6112   9.881   5.750   6.868
 1337WAT     H1 6113   9.936   5.761   6.790
 1337WAT     H2 6114   9.932   5.788   6.939
 1338WAT      O 6115  10.865   6.799   7.072
 1338WAT     H1 6116  10.817   6.880   7.053
 1338WAT     H2 6117  10.797   6.734   7.088
 1339WAT      O 6118   9.965   6.415   7.371
 1339WAT     H1 6119   9.876   6.438   7.396
 1339WAT     H2 6120   9.968   6.428   7.276
 1340WAT      O 6121  10.669   6.100   5.963
 1340WAT     H1 6122  10.713   6.017   5.948
 1340WAT     H2 6123  10.741   6.164   5.971
 1341WAT      O 6124   9.848   6.103   7.229
 1341WAT     H1 6125   9.834   6.190   7.266
 1341WAT     H2 6126   9.760   6.068   7.214
 1342WAT      O 6127  10.480   6.594   6.359
 1342WAT     H1 6128  10.524   6.669   6.318
 1342WAT     H2 6129  10.474   6.619   6.452
 1343WAT      O 6130  10.028   6.697   7.450
 1343WAT     H1 6131  10.025   6.737   7.363
 1343WAT     H2 6132  10.011   6.604   7.433
 1344WAT      O 6133  11.028   5.226   5.794
 1344WAT     H1 6134  10.996   5.235   5.884
 1344WAT     H2 6135  11.104   5.284   5.789
 1345WAT      O 6136   9.679   5.962   6.240
 1345WAT     H1 6137   9.667   6.035   6.179
 1345WAT     H2 6138   9.648   5.885   6.192
 1346WAT      O 6139   9.443   6.280   6.820
 1346WAT     H1 6140   9.451   6.293   6.726
 1346WAT     H2 6141   9.505   6.209   6.840
 1347WAT      O 6142   9.568   6.450   6.462
 1347WAT     H1 6143   9.527   6.464   6.376
 1347WAT     H2 6144   9.657   6.421   6.441
 1348WAT      O 6145  10.549   6.865   7.152
 1348WAT     H1 6146  10.601   6.856   7.232
 1348WAT     H2 6147  10.465   6.899   7.181
 1349WAT      O 6148  10.747   6.893   6.095
 1349WAT     H1 6149  10.731   6.864   6.185
 1349WAT     H2 6150  10.730   6.815   6.041
 1350WAT      O 6151   9.995   6.871   6.273
 1350WAT     H1 6152   9.977   6.779   6.251
 1350WAT     H2 6153   9.909   6.907   6.297
 1351WAT      O 6154  10.717   6.644   5.951
 1351WAT     H1 6155  10.648   6.644   5.885
 1351WAT     H2 6156  10.791   6.602   5.908
 1352WAT      O 6157  10.674   6.807   6.358
 1352WAT     H1 6158  10.719   6.728   6.390
 1352WAT     H2 6159  10.708   6.878   6.413
 1353WAT      O 6160   9.449   6.384   7.074
 1353WAT     H1 6161   9.465   6.337   6.993
 1353WAT     H2 6162   9.495   6.333   7.141
 1354WAT      O 6163   9.926   5.297   6.578
 1354WAT     H1 6164   9.882   5.375   6.545
 1354WAT     H2 6165   9.982   5.329   6.649
 1355WAT      O 6166  10.355   5.583   7.138
 1355WAT     H1 6167  10.308   5.604   7.220
 1355WAT     H2 6168  10.314   5.502   7.108
 1356WAT      O 6169  10.855   5.706   7.251
 1356WAT     H1 6170  10.770   5.676   7.283
 1356WAT     H2 6171  10.839   5.730   7.160
 1357WAT      O 6172  10.564   5.856   7.461
 1357WAT     H1 6173  10.597   5.772   7.427
 1357WAT     H2 6174  10.643   5.908   7.476
 1358WAT      O 6175  10.238   5.259   6.066
 1358WAT     H1 6176  10.175   5.259   6.139
 1358WAT     H2 6177  10.229   5.172   6.026
 1359WAT      O 6178  10.130   5.351   6.764
 1359WAT     H1 6179  10.159   5.442   6.756
 1359WAT     H2 6180  10.185   5.302   6.702
 1360WAT      O 6181   9.905   5.809   6.351
 1360WAT     H1 6182   9.883   5.788   6.441
 1360WAT     H2 6183   9.827   5.852   6.316
 1361WAT      O 6184  10.628   5.810   6.211
 1361WAT     H1 6185  10.568   5.882   6.192
 1361WAT     H2 6186  10.683   5.804   6.132
 1362WAT      O 6187  10.149   5.899   7.417
 1362WAT     H1 6188  10.140   5.805   7.402
 1362WAT     H2 6189  10.233   5.921   7.378
 1363WAT      O 6190  10.489   5.673   6.414
 1363WAT     H1 6191  10.528   5.705   6.332
 1363WAT     H2 6192  10.525   5.586   6.425
 1364WAT      O 6193   9.662   5.540   7.233
 1364WAT     H1 6194   9.623   5.625   7.253
 1364WAT     H2 6195   9.593   5.476   7.252
 1365WAT      O 6196   9.392   5.332   6.636
 1365WAT     H1 6197   9.364   5.389   6.707
 1365WAT     H2 6198   9.467   5.284   6.672
 1366WAT      O 6199   9.411   5.727   5.757
 1366WAT     H1 6200   9.403   5.821   5.771
 1366WAT     H2 6201   9.376   5.712   5.669
 1367WAT      O 6202  10.547   5.932   6.823
 1367WAT     H1 6203  10.474   5.983   6.858
 1367WAT     H2 6204  10.508   5.851   6.793
 1368WAT      O 6205  10.191   5.600   6.664
 1368WAT     H1 6206  10.191   5.556   6.579
 1368WAT     H2 6207  10.281   5.632   6.675
 1369WAT      O 6208   9.776   5.588   6.560
 1369WAT     H1 6209   9.742   5.636   6.635
 1369WAT     H2 6210   9.700   5.543   6.524
 1370WAT      O 6211  10.197   5.700   5.963
 1370WAT     H1 6212  10.209   5.696   6.058
 1370WAT     H2 6213  10.159   5.786   5.947
 1371WAT      O 6214  10.594   5.478   6.764
 1371WAT     H1 6215  10.595   5.523   6.849
 1371WAT     H2 6216  10.569   5.388   6.786
 1372WAT      O 6217  10.098   5.931   5.903
 1372WAT     H1 6218  10.042   5.886   5.840
 1372WAT     H2 6219  10.169   5.967   5.849
 1373WAT      O 6220  10.936   5.219   7.348
 1373WAT     H1 6221  10.969   5.146   7.401
 1373WAT     H2 6222  10.940   5.187   7.258
 1374WAT      O 6223   9.606   6.321   7.290
 1374WAT     H1 6224   9.568   6.257   7.350
 1374WAT     H2 6225   9.637   6.392   7.347
 1375WAT      O 6226  10.221   6.006   6.838
 1375WAT     H1 6227  10.258   5.959   6.913
 1375WAT     H2 6228  10.202   6.093   6.873
 1376WAT      O 6229   9.508   5.480   6.451
 1376WAT     H1 6230   9.479   5.444   6.535
 1376WAT     H2 6231   9.501   5.407   6.390
 1377WAT      O 6232  10.000   5.910   7.070
 1377WAT     H1 6233   9.970   5.998   7.093
 1377WAT     H2 6234  10.096   5.916   7.074
 1378WAT      O 6235   9.853   6.331   6.130
 1378WAT     H1 6236   9.776   6.277   6.114
 1378WAT     H2 6237   9.926   6.279   6.096
 1379WAT      O 6238  10.929   6.230   6.709
 1379WAT     H1 6239  11.001   6.280   6.670
 1379WAT     H2 6240  10.909   6.163   6.645
 1380WAT      O 6241  10.475   5.370   6.124
 1380WAT     H1 6242  10.394   5.320   6.116
 1380WAT     H2 6243  10.456   5.454   6.082
 1381WAT      O 6244  10.467   6.237   7.298
 1381WAT     H1 6245  10.460   6.145   7.272
 1381WAT     H2 6246  10.404   6.247   7.369
 1382WAT      O 6247  10.746   5.807   5.953
 1382WAT     H1 6248  10.835   5.838   5.936
 1382WAT     H2 6249  10.743   5.720   5.914
 1383WAT      O 6250   9.857   6.298   6.494
 1383WAT     H1 6251   9.909   6.217   6.488
 1383WAT     H2 6252   9.812   6.291   6.578
 1384WAT      O 6253  10.346   6.424   6.021
 1384WAT     H1 6254  10.380   6.499   5.971
 1384WAT     H2 6255  10.263   6.455   6.057
 1385WAT      O 6256   9.606   5.994   7.185
 1385WAT     H1 6257   9.570   6.061   7.244
 1385WAT     H2 6258   9.576   5.911   7.222
 1386WAT      O 6259   9.926   6.040   7.473
 1386WAT     H1 6260   9.896   6.055   7.384
 1386WAT     H2 6261  10.003   5.984   7.464
 1387WAT      O 6262  10.460   6.520   7.273
 1387WAT     H1 6263  10.462   6.426   7.251
 1387WAT     H2 6264  10.389   6.528   7.337
 1388WAT      O 6265  10.974   5.938   5.900
 1388WAT     H1 6266  10.965   5.981   5.815
 1388WAT     H2 6267  11.045   5.984   5.943
 1389WAT      O 6268  11.076   6.623   6.173
 1389WAT     H1 6269  11.012   6.558   6.200
 1389WAT     H2 6270  11.038   6.664   6.095
 1390WAT      O 6271  10.634   6.356   6.557
 1390WAT     H1 6272  10.670   6.297   6.491
 1390WAT     H2 6273  10.546   6.324   6.575
 1391WAT      O 6274  10.243   6.432   6.298
 1391WAT     H1 6275  10.312   6.487   6.336
 1391WAT     H2 6276  10.164   6.487   6.302
 1392WAT      O 6277   9.457   5.994   5.847
 1392WAT     H1 6278   9.544   6.022   5.876
 1392WAT     H2 6279   9.408   6.075   5.836
 1393WAT      O 6280  10.173   6.133   6.259
 1393WAT     H1 6281  10.219   6.214   6.282
 1393WAT     H2 6282  10.138   6.101   6.343
 1394WAT      O 6283  10.404   6.684   6.982
 1394WAT     H1 6284  10.468   6.704   7.050
 1394WAT     H2 6285  10.440   6.608   6.937
 1395WAT      O 6286   9.763   5.167   6.307
 1395WAT     H1 6287   9.750   5.166   6.402
 1395WAT     H2 6288   9.681   5.201   6.272
 1396WAT      O 6289  10.531   6.484   6.854
 1396WAT     H1 6290  10.595   6.414   6.865
 1396WAT     H2 6291  10.583   6.562   6.836
 1397WAT      O 6292  10.915   6.513   5.827
 1397WAT     H1 6293  10.893   6.441   5.886
 1397WAT     H2 6294  10.876   6.488   5.743
 1398WAT      O 6295  10.708   6.564   7.174
 1398WAT     H1 6296  10.742   6.623   7.242
 1398WAT     H2 6297  10.616   6.551   7.197
 1399WAT      O 6298   9.494   6.915   5.904
 1399WAT     H1 6299   9.530   6.975   5.839
 1399WAT     H2 6300   9.479   6.970   5.981
 1400WAT      O 6301   9.463   5.343   7.253
 1400WAT     H1 6302   9.392   5.363   7.313
 1400WAT     H2 6303   9.505   5.265   7.290
 1401WAT      O 6304  10.874   6.304   5.993
 1401WAT     H1 6305  10.845   6.350   6.071
 1401WAT     H2 6306  10.953   6.258   6.019
 1402WAT      O 6307   9.492   6.742   7.351
 1402WAT     H1 6308   9.503   6.648   7.337
 1402WAT     H2 6309   9.427   6.768   7.287
 1403WAT      O 6310  10.095   6.654   5.986
 1403WAT     H1 6311  10.094   6.727   5.924
 1403WAT     H2 6312  10.003   6.629   5.995
 1404WAT      O 6313   9.655   6.176   6.060
 1404WAT     H1 6314   9.595   6.250   6.061
 1404WAT     H2 6315   9.703   6.185   5.978
 1405WAT      O 6316  10.613   5.592   7.028
 1405WAT     H1 6317  10.649   5.510   7.061
 1405WAT     H2 6318  10.527   5.598   7.069
 1406WAT      O 6319  10.949   5.488   6.109
 1406WAT     H1 6320  10.886   5.498   6.037
 1406WAT     H2 6321  10.900   5.510   6.188
 1407WAT      O 6322  10.394   6.660   5.852
 1407WAT     H1 6323  10.404   6.640   5.759
 1407WAT     H2 6324  10.304   6.634   5.872
 1408WAT      O 6325  10.146   5.716   6.250
 1408WAT     H1 6326  10.075   5.763   6.294
 1408WAT     H2 6327  10.175   5.650   6.314
 1409WAT      O 6328  10.309   5.858   7.050
 1409WAT     H1 6329  10.359   5.905   7.117
 1409WAT     H2 6330  10.323   5.765   7.071
 1410WAT      O 6331  10.549   5.388   6.394
 1410WAT     H1 6332  10.537   5.390   6.299
 1410WAT     H2 6333  10.644   5.393   6.406
 1411WAT      O 6334  10.258   6.912   6.321
 1411WAT     H1 6335  10.283   6.908   6.229
 1411WAT     H2 6336  10.163   6.899   6.321
 1412WAT      O 6337   9.966   5.547   5.988
 1412WAT     H1 6338  10.051   5.590   5.981
 1412WAT     H2 6339   9.930   5.578   6.070
 1413WAT      O 6340  11.029   5.479   7.134
 1413WAT     H1 6341  10.979   5.553   7.168
 1413WAT     H2 6342  11.111   5.518   7.103
 1414WAT      O 6343  10.859   6.004   6.479
 1414WAT     H1 6344  10.764   6.005   6.496
 1414WAT     H2 6345  10.890   5.925   6.524
 1415WAT      O 6346   9.856   6.172   5.835
 1415WAT     H1 6347   9.933   6.161   5.891
 1415WAT     H2 6348   9.864   6.102   5.770
 1416WAT      O 6349   9.726   5.915   5.903
 1416WAT     H1 6350   9.734   5.820   5.915
 1416WAT     H2 6351   9.815   5.948   5.914
 1417WAT      O 6352   9.806   6.930   6.614
 1417WAT     H1 6353   9.880   6.875   6.641
 1417WAT     H2 6354   9.844   7.017   6.600
 1418WAT      O 6355   9.494   6.537   6.201
 1418WAT     H1 6356   9.402   6.561   6.200
 1418WAT     H2 6357   9.541   6.620   6.189
 1419WAT      O 6358  10.117   6.847   5.796
 1419WAT     H1 6359  10.196   6.876   5.751
 1419WAT     H2 6360  10.065   6.804   5.728
 1420WAT      O 6361  10.733   6.832   7.388
 1420WAT     H1 6362  10.828   6.824   7.383
 1420WAT     H2 6363  10.718   6.899   7.456
 1421WAT      O 6364  11.022   6.770   5.938
 1421WAT     H1 6365  10.994   6.729   5.857
 1421WAT     H2 6366  11.003   6.863   5.926
 1422WAT      O 6367   9.479   6.097   7.427
 1422WAT     H1 6368   9.529   6.039   7.484
 1422WAT     H2 6369   9.405   6.126   7.481
 1423WAT      O 6370  10.169   6.369   5.782
 1423WAT     H1 6371  10.158   6.308   5.855
 1423WAT     H2 6372  10.152   6.317   5.704
 1424WAT      O 6373  10.184   6.238   7.380
 1424WAT     H1 6374  10.107   6.295   7.372
 1424WAT     H2 6375  10.202   6.209   7.291
 1425WAT      O 6376  10.493   6.276   5.843
 1425WAT     H1 6377  10.438   6.320   5.907
 1425WAT     H2 6378  10.555   6.225   5.895
 1426WAT      O 6379  10.898   6.411   7.436
 1426WAT     H1 6380  10.972   6.445   7.386
 1426WAT     H2 6381  10.822   6.428   7.381
 1427WAT      O 6382  10.060   6.172   6.032
 1427WAT     H1 6383  10.102   6.155   6.117
 1427WAT     H2 6384  10.072   6.091   5.983
 1428WAT      O 6385   9.876   5.770   7.313
 1428WAT     H1 6386   9.823   5.720   7.250
 1428WAT     H2 6387   9.943   5.812   7.260
 1429WAT      O 6388  10.311   6.074   5.757
 1429WAT     H1 6389  10.363   6.002   5.721
 1429WAT     H2 6390  10.376   6.138   5.787
 1430WAT      O 6391  10.766   6.216   7.290
 1430WAT     H1 6392  10.807   6.232   7.375
 1430WAT     H2 6393  10.672   6.229   7.306
 1431WAT      O 6394  10.813   5.950   7.490
 1431WAT     H1 6395  10.871   5.875   7.481
 1431WAT     H2 6396  10.830   6.003   7.412
 1432WAT      O 6397   9.925   5.466   7.321
 1432WAT     H1 6398   9.915   5.404   7.249
 1432WAT     H2 6399   9.867   5.539   7.298
 1433WAT      O 6400  10.201   5.322   7.024
 1433WAT     H1 6401  10.156   5.324   6.940
 1433WAT     H2 6402  10.138   5.282   7.084
 1434WAT      O 6403  10.242   6.211   7.087
 1434WAT     H1 6404  10.284   6.296   7.069
 1434WAT     H2 6405  10.150   6.225   7.064
 1435WAT      O 6406  10.475   5.985   7.225
 1435WAT     H1 6407  10.487   5.925   7.299
 1435WAT     H2 6408  10.561   5.988   7.183
 1436WAT      O 6409  10.709   6.040   7.083
 1436WAT     H1 6410  10.657   6.092   7.022
 1436WAT     H2 6411  10.744   6.103   7.146
 1437WAT      O 6412   9.949   5.779   5.727
 1437WAT     H1 6413   9.929   5.693   5.763
 1437WAT     H2 6414   9.932   5.770   5.633
 1438WAT      O 6415  10.027   6.842   7.198
 1438WAT     H1 6416   9.973   6.914   7.166
 1438WAT     H2 6417  10.052   6.794   7.119
 1439WAT      O 6418  10.152   5.639   7.351
 1439WAT     H1 6419  10.211   5.608   7.419
 1439WAT     H2 6420  10.070   5.592   7.366
 1440WAT      O 6421  10.634   5.600   7.374
 1440WAT     H1 6422  10.565   5.534   7.368
 1440WAT     H2 6423  10.706   5.556   7.419
 1441WAT      O 6424  10.697   5.260   5.980
 1441WAT     H1 6425  10.725   5.176   6.016
 1441WAT     H2 6426  10.620   5.283   6.031
 1442WAT      O 6427   9.829   5.489   5.726
 1442WAT     H1 6428   9.859   5.490   5.635
 1442WAT     H2 6429   9.903   5.454   5.776
 1443WAT      O 6430  10.312   6.965   7.224
 1443WAT     H1 6431  10.305   7.056   7.255
 1443WAT     H2 6432  10.222   6.934   7.221
 1444WAT      O 6433  10.151   5.383   5.824
 1444WAT     H1 6434  10.116   5.315   5.766
 1444WAT     H2 6435  10.171   5.337   5.906
 1445WAT      O 6436  10.367   6.882   5.986
 1445WAT     H1 6437  10.457   6.916   5.988
 1445WAT     H2 6438  10.370   6.810   5.924
 1446WAT      O 6439   9.731   6.419   5.809
 1446WAT     H1 6440   9.775   6.474   5.875
 1446WAT     H2 6441   9.780   6.337   5.810
 1447WAT      O 6442   9.453   6.698   6.554
 1447WAT     H1 6443   9.486   6.611   6.531
 1447WAT     H2 6444   9.496   6.719   6.637
 1448WAT      O 6445   9.912   6.531   6.320
 1448WAT     H1 6446   9.882   6.519   6.410
 1448WAT     H2 6447   9.902   6.445   6.280
 1449WAT      O 6448   9.502   6.785   6.828
 1449WAT     H1 6449   9.458   6.803   6.911
 1449WAT     H2 6450   9.558   6.861   6.814
 1450WAT      O 6451  11.065   6.735   7.257
 1450WAT     H1 6452  11.005   6.741   7.183
 1450WAT     H2 6453  11.078   6.641   7.270
 1451WAT      O 6454   9.485   6.036   6.464
 1451WAT     H1 6455   9.419   6.009   6.400
 1451WAT     H2 6456   9.569   6.025   6.419
 1452WAT      O 6457  10.934   6.408   7.067
 1452WAT     H1 6458  10.852   6.451   7.093
 1452WAT     H2 6459  10.975   6.469   7.005
 1453WAT      O 6460  10.780   5.516   5.886
 1453WAT     H1 6461  10.822   5.497   5.802
 1453WAT     H2 6462  10.749   5.430   5.917
 1454WAT      O 6463   9.589   6.075   6.918
 1454WAT     H1 6464   9.625   6.066   7.006
 1454WAT     H2 6465   9.532   5.998   6.908
 1455WAT      O 6466  11.069   5.921   7.219
 1455WAT     H1 6467  11.046   5.899   7.129
 1455WAT     H2 6468  11.095   6.013   7.215
 1456WAT      O 6469   9.544   5.766   7.309
 1456WAT     H1 6470   9.454   5.762   7.343
 1456WAT     H2 6471   9.598   5.786   7.385
 1457WAT      O 6472   9.406   5.757   6.058
 1457WAT     H1 6473   9.316   5.783   6.041
 1457WAT     H2 6474   9.455   5.784   5.980
 1458WAT      O 6475  11.057   5.829   6.586
 1458WAT     H1 6476  11.110   5.780   6.523
 1458WAT     H2 6477  11.116   5.843   6.661
 1459WAT      O 6478  11.075   5.838   6.938
 1459WAT     H1 6479  10.980   5.834   6.950
 1459WAT     H2 6480  11.093   5.929   6.915
 1460WAT      O 6481   9.661   5.663   5.849
 1460WAT     H1 6482   9.731   5.621   5.801
 1460WAT     H2 6483   9.589   5.670   5.786
 1461WAT      O 6484   9.625   5.268   5.753
 1461WAT     H1 6485   9.698   5.322   5.785
 1461WAT     H2 6486   9.653   5.241   5.666
 1462WAT      O 6487  11.006   5.755   6.180
 1462WAT     H1 6488  11.056   5.732   6.258
 1462WAT     H2 6489  10.986   5.671   6.138
 1463WAT      O 6490   9.594   5.193   6.743
 1463WAT     H1 6491   9.659   5.138   6.699
 1463WAT     H2 6492   9.636   5.219   6.826
 1464WAT      O 6493  10.984   5.213   7.079
 1464WAT     H1 6494  11.047   5.274   7.116
 1464WAT     H2 6495  10.998   5.216   6.985
 1465WAT      O 6496  10.940   6.883   6.419
 1465WAT     H1 6497  10.999   6.851   6.352
 1465WAT     H2 6498  10.965   6.835   6.499
 1466WAT      O 6499   9.570   5.209   7.018
 1466WAT     H1 6500   9.535   5.254   7.094
 1466WAT     H2 6501   9.536   5.119   7.026
 1467WAT      O 6502  10.100   6.682   6.994
 1467WAT     H1 6503  10.076   6.708   6.906
 1467WAT     H2 6504  10.194   6.699   7.000
 1468WAT      O 6505  10.321   5.328   7.370
 1468WAT     H1 6506  10.315   5.387   7.445
 1468WAT     H2 6507  10.415   5.317   7.355
 1469WAT      O 6508  10.585   5.294   7.334
 1469WAT     H1 6509  10.646   5.325   7.268
 1469WAT     H2 6510  10.639   5.245   7.396
 1470WAT      O 6511   9.637   5.162   7.345
 1470WAT     H1 6512   9.692   5.143   7.269
 1470WAT     H2 6513   9.643   5.082   7.399
 1471WAT      O 6514   9.714   6.821   7.146
 1471WAT     H1 6515   9.655   6.807   7.220
 1471WAT     H2 6516   9.713   6.737   7.100
 1472WAT      O 6517  10.659   5.150   6.967
 1472WAT     H1 6518  10.571   5.183   6.946
 1472WAT     H2 6519  10.648   5.103   7.049
 1473WAT      O 6520  10.749   5.371   7.105
 1473WAT     H1 6521  10.716   5.289   7.067
 1473WAT     H2 6522  10.844   5.366   7.093
 1474WAT      O 6523  10.995   6.948   6.802
 1474WAT     H1 6524  10.949   7.023   6.765
 1474WAT     H2 6525  10.932   6.876   6.796
 1475WAT      O 6526   9.677   6.557   7.041
 1475WAT     H1 6527   9.605   6.495   7.035
 1475WAT     H2 6528   9.683   6.597   6.954
 1476WAT      O 6529  10.038   6.779   6.720
 1476WAT     H1 6530  10.089   6.717   6.667
 1476WAT     H2 6531  10.103   6.829   6.769
 1477WAT      O 6532  10.312   6.868   6.803
 1477WAT     H1 6533  10.340   6.842   6.715
 1477WAT     H2 6534  10.363   6.812   6.862
 1478WAT      O 6535  10.433   5.242   6.860
 1478WAT     H1 6536  10.355   5.289   6.888
 1478WAT     H2 6537  10.404   5.151   6.850
 1479WAT      O 6538  10.889   5.312   6.665
 1479WAT     H1 6539  10.933   5.306   6.580
 1479WAT     H2 6540  10.862   5.403   6.672
 1480WAT      O 6541   9.505   6.889   6.362
 1480WAT     H1 6542   9.489   6.826   6.432
 1480WAT     H2 6543   9.419   6.910   6.327
 1481WAT      O 6544   9.568   5.272   6.113
 1481WAT     H1 6545   9.644   5.283   6.055
 1481WAT     H2 6546   9.522   5.356   6.108
 1482WAT      O 6547  10.222   5.483   6.412
 1482WAT     H1 6548  10.141   5.446   6.378
 1482WAT     H2 6549  10.272   5.408   6.442
 1483WAT      O 6550  10.672   5.150   6.535
 1483WAT     H1 6551  10.732   5.207   6.583
 1483WAT     H2 6552  10.598   5.206   6.513
 1484WAT      O 6553  10.986   5.190   6.063
 1484WAT     H1 6554  11.006   5.280   6.090
 1484WAT     H2 6555  10.908   5.167   6.112
 1485WAT      O 6556   9.666   6.758   6.107
 1485WAT     H1 6557   9.614   6.796   6.036
 1485WAT     H2 6558   9.659   6.821   6.179
 1486WAT      O 6559   9.805   5.325   5.967
 1486WAT     H1 6560   9.858   5.246   5.954
 1486WAT     H2 6561   9.868   5.393   5.990
 1487WAT      O 6562  10.024   5.298   6.272
 1487WAT     H1 6563   9.961   5.228   6.289
 1487WAT     H2 6564   9.970   5.375   6.250
 1488WAT      O 6565   9.926   6.953   5.994
 1488WAT     H1 6566   9.999   6.925   5.940
 1488WAT     H2 6567   9.952   6.929   6.083
 1489WAT      O 6568   9.842   6.565   5.995
 1489WAT     H1 6569   9.779   6.612   6.050
 1489WAT     H2 6570   9.854   6.480   6.038
 1490WAT      O 6571  10.588   5.970   4.610
 1490WAT     H1 6572  10.580   5.878   4.583
 1490WAT     H2 6573  10.546   6.019   4.539
 1491WAT      O 6574  10.401   6.148   4.798
 1491WAT     H1 6575  10.323   6.100   4.827
 1491WAT     H2 6576  10.466   6.080   4.780
 1492WAT      O 6577   9.803   6.179   4.886
 1492WAT     H1 6578   9.719   6.153   4.926
 1492WAT     H2 6579   9.863   6.186   4.959
 1493WAT      O 6580  10.803   6.588   4.676
 1493WAT     H1 6581  10.757   6.511   4.709
 1493WAT     H2 6582  10.884   6.591   4.726
 1494WAT      O 6583   9.801   6.582   4.905
 1494WAT     H1 6584   9.831   6.493   4.887
 1494WAT     H2 6585   9.875   6.638   4.882
 1495WAT      O 6586   9.643   5.675   4.264
 1495WAT     H1 6587   9.555   5.709   4.254
 1495WAT     H2 6588   9.672   5.655   4.175
 1496WAT      O 6589   9.440   5.935   4.852
 1496WAT     H1 6590   9.497   5.858   4.852
 1496WAT     H2 6591   9.440   5.965   4.762
 1497WAT      O 6592  10.426   6.817   4.638
 1497WAT     H1 6593  10.364   6.862   4.581
 1497WAT     H2 6594  10.511   6.832   4.598
 1498WAT      O 6595  10.345   6.415   4.799
 1498WAT     H1 6596  10.338   6.321   4.782
 1498WAT     H2 6597  10.421   6.424   4.856
 1499WAT      O 6598   9.564   5.476   5.031
 1499WAT     H1 6599   9.546   5.386   5.059
 1499WAT     H2 6600   9.524   5.530   5.099
 1500WAT      O 6601  10.448   5.696   4.821
 1500WAT     H1 6602  10.486   5.609   4.810
 1500WAT     H2 6603  10.438   5.729   4.732
 1501WAT      O 6604   9.861   5.533   4.367
 1501WAT     H1 6605   9.872   5.623   4.398
 1501WAT     H2 6606   9.770   5.528   4.338
 1502WAT      O 6607  10.826   5.445   4.515
 1502WAT     H1 6608  10.908   5.396   4.519
 1502WAT     H2 6609  10.830   5.504   4.590
 1503WAT      O 6610   9.626   5.725   4.892
 1503WAT     H1 6611   9.694   5.752   4.954
 1503WAT     H2 6612   9.594   5.641   4.925
 1504WAT      O 6613  10.045   5.830   4.801
 1504WAT     H1 6614  10.096   5.880   4.865
 1504WAT     H2 6615  10.098   5.752   4.783
 1505WAT      O 6616   9.873   5.294   5.227
 1505WAT     H1 6617   9.874   5.346   5.147
 1505WAT     H2 6618   9.791   5.246   5.225
 1506WAT      O 6619  10.512   6.305   4.377
 1506WAT     H1 6620  10.450   6.352   4.321
 1506WAT     H2 6621  10.563   6.374   4.419
 1507WAT      O 6622   9.999   6.258   5.045
 1507WAT     H1 6623   9.965   6.321   5.109
 1507WAT     H2 6624  10.016   6.311   4.967
 1508WAT      O 6625  10.850   5.639   4.792
 1508WAT     H1 6626  10.779   5.668   4.850
 1508WAT     H2 6627  10.886   5.720   4.756
 1509WAT      O 6628   9.842   5.465   5.028
 1509WAT     H1 6629   9.876   5.549   4.999
 1509WAT     H2 6630   9.748   5.480   5.040
 1510WAT      O 6631   9.920   6.455   5.227
 1510WAT     H1 6632   9.981   6.522   5.198
 1510WAT     H2 6633   9.834   6.496   5.217
 1511WAT      O 6634   9.449   6.374   4.115
 1511WAT     H1 6635   9.411   6.423   4.041
 1511WAT     H2 6636   9.475   6.441   4.178
 1512WAT      O 6637  11.011   6.601   5.018
 1512WAT     H1 6638  10.943   6.668   5.017
 1512WAT     H2 6639  11.065   6.621   4.942
 1513WAT      O 6640  10.210   5.214   4.660
 1513WAT     H1 6641  10.241   5.158   4.589
 1513WAT     H2 6642  10.117   5.227   4.642
 1514WAT      O 6643  10.765   6.786   4.890
 1514WAT     H1 6644  10.766   6.745   4.803
 1514WAT     H2 6645  10.710   6.863   4.879
 1515WAT      O 6646  10.895   6.458   4.398
 1515WAT     H1 6647  10.883   6.363   4.411
 1515WAT     H2 6648  10.894   6.494   4.487
 1516WAT      O 6649  10.705   6.276   5.022
 1516WAT     H1 6650  10.747   6.254   4.939
 1516WAT     H2 6651  10.777   6.302   5.079
 1517WAT      O 6652  10.449   6.020   4.334
 1517WAT     H1 6653  10.356   6.014   4.357
 1517WAT     H2 6654  10.464   6.114   4.323
 1518WAT      O 6655  10.447   5.648   4.034
 1518WAT     H1 6656  10.353   5.664   4.042
 1518WAT     H2 6657  10.479   5.719   3.979
 1519WAT      O 6658  10.852   6.177   4.384
 1519WAT     H1 6659  10.790   6.143   4.320
 1519WAT     H2 6660  10.850   6.112   4.455
 1520WAT      O 6661  10.796   5.794   5.126
 1520WAT     H1 6662  10.755   5.877   5.151
 1520WAT     H2 6663  10.723   5.736   5.107
 1521WAT      O 6664  10.009   6.073   4.612
 1521WAT     H1 6665   9.969   6.002   4.563
 1521WAT     H2 6666  10.018   6.039   4.701
 1522WAT      O 6667  10.056   6.442   4.829
 1522WAT     H1 6668  10.026   6.381   4.761
 1522WAT     H2 6669  10.151   6.445   4.818
 1523WAT      O 6670   9.881   5.750   4.990
 1523WAT     H1 6671   9.936   5.761   4.913
 1523WAT     H2 6672   9.932   5.788   5.062
 1524WAT      O 6673  10.865   6.799   5.195
 1524WAT     H1 6674  10.817   6.880   5.176
 1524WAT     H2 6675  10.797   6.734   5.210
 1525WAT      O 6676   9.965   6.415   5.494
 1525WAT     H1 6677   9.876   6.438   5.518
 1525WAT     H2 6678   9.968   6.428   5.399
 1526WAT      O 6679  10.669   6.100   4.085
 1526WAT     H1 6680  10.713   6.017   4.071
 1526WAT     H2 6681  10.741   6.164   4.094
 1527WAT      O 6682   9.848   6.103   5.351
 1527WAT     H1 6683   9.834   6.190   5.388
 1527WAT     H2 6684   9.760   6.068   5.337
 1528WAT      O 6685  10.480   6.594   4.482
 1528WAT     H1 6686  10.524   6.669   4.441
 1528WAT     H2 6687  10.474   6.619   4.574
 1529WAT      O 6688  10.028   6.697   5.572
 1529WAT     H1 6689  10.025   6.737   5.485
 1529WAT     H2 6690  10.011   6.604   5.556
 1530WAT      O 6691  11.028   5.226   3.917
 1530WAT     H1 6692  10.996   5.235   4.007
 1530WAT     H2 6693  11.104   5.284   3.912
 1531WAT      O 6694   9.679   5.962   4.362
 1531WAT     H1 6695   9.667   6.035   4.301
 1531WAT     H2 6696   9.648   5.885   4.315
 1532WAT      O 6697   9.443   6.280   4.943
 1532WAT     H1 6698   9.451   6.293   4.849
 1532WAT     H2 6699   9.505   6.209   4.962
 1533WAT      O 6700   9.568   6.450   4.584
 1533WAT     H1 6701   9.527   6.464   4.499
 1533WAT     H2 6702   9.657   6.421   4.564
 1534WAT      O 6703  10.549   6.865   5.275
 1534WAT     H1 6704  10.601   6.856   5.355
 1534WAT     H2 6705  10.465   6.899   5.304
 1535WAT      O 6706  10.747   6.893   4.218
 1535WAT     H1 6707  10.731   6.864   4.307
 1535WAT     H2 6708  10.730   6.815   4.164
 1536WAT      O 6709   9.995   6.871   4.395
 1536WAT     H1 6710   9.977   6.779   4.374
 1536WAT     H2 6711   9.909   6.907   4.419
 1537WAT      O 6712  10.717   6.644   4.074
 1537WAT     H1 6713  10.648   6.644   4.008
 1537WAT     H2 6714  10.791   6.602   4.031
 1538WAT      O 6715  10.674   6.807   4.481
 1538WAT     H1 6716  10.719   6.728   4.512
 1538WAT     H2 6717  10.708   6.878   4.535
 1539WAT      O 6718   9.449   6.384   5.197
 1539WAT     H1 6719   9.465   6.337   5.115
 1539WAT     H2 6720   9.495   6.333   5.263
 1540WAT      O 6721   9.926   5.297   4.701
 1540WAT     H1 6722   9.882   5.375   4.667
 1540WAT     H2 6723   9.982   5.329   4.771
 1541WAT      O 6724  10.355   5.583   5.261
 1541WAT     H1 6725  10.308   5.604   5.342
 1541WAT     H2 6726  10.314   5.502   5.231
 1542WAT      O 6727  10.855   5.706   5.374
 1542WAT     H1 6728  10.770   5.676   5.406
 1542WAT     H2 6729  10.839   5.730   5.283
 1543WAT      O 6730  10.564   5.856   5.584
 1543WAT     H1 6731  10.597   5.772   5.550
 1543WAT     H2 6732  10.643   5.908   5.599
 1544WAT      O 6733  10.238   5.259   4.189
 1544WAT     H1 6734  10.175   5.259   4.261
 1544WAT     H2 6735  10.229   5.172   4.149
 1545WAT      O 6736  10.130   5.351   4.886
 1545WAT     H1 6737  10.159   5.442   4.878
 1545WAT     H2 6738  10.185   5.302   4.825
 1546WAT      O 6739   9.905   5.809   4.473
 1546WAT     H1 6740   9.883   5.788   4.564
 1546WAT     H2 6741   9.827   5.852   4.439
 1547WAT      O 6742  10.628   5.810   4.333
 1547WAT     H1 6743  10.568   5.882   4.315
 1547WAT     H2 6744  10.683   5.804   4.255
 1548WAT      O 6745  10.149   5.899   5.540
 1548WAT     H1 6746  10.140   5.805   5.525
 1548WAT     H2 6747  10.233   5.921   5.500
 1549WAT      O 6748  10.489   5.673   4.536
 1549WAT     H1 6749  10.528   5.705   4.455
 1549WAT     H2 6750  10.525   5.586   4.548
 1550WAT      O 6751   9.662   5.540   5.355
 1550WAT     H1 6752   9.623   5.625   5.376
 1550WAT     H2 6753   9.593   5.476   5.374
 1551WAT      O 6754  10.320   5.548   5.662
 1551WAT     H1 6755  10.251   5.529   5.726
 1551WAT     H2 6756  10.394   5.577   5.716
 1552WAT      O 6757   9.392   5.332   4.759
 1552WAT     H1 6758   9.364   5.389   4.830
 1552WAT     H2 6759   9.467   5.284   4.795
 1553WAT      O 6760   9.411   5.727   3.880
 1553WAT     H1 6761   9.403   5.821   3.894
 1553WAT     H2 6762   9.376   5.712   3.792
 1554WAT      O 6763  10.547   5.932   4.946
 1554WAT     H1 6764  10.474   5.983   4.981
 1554WAT     H2 6765  10.508   5.851   4.916
 1555WAT      O 6766  10.191   5.600   4.786
 1555WAT     H1 6767  10.191   5.556   4.701
 1555WAT     H2 6768  10.281   5.632   4.797
 1556WAT      O 6769   9.776   5.588   4.682
 1556WAT     H1 6770   9.742   5.636   4.758
 1556WAT     H2 6771   9.700   5.543   4.646
 1557WAT      O 6772  10.197   5.700   4.085
 1557WAT     H1 6773  10.209   5.696   4.180
 1557WAT     H2 6774  10.159   5.786   4.070
 1558WAT      O 6775  10.594   5.478   4.887
 1558WAT     H1 6776  10.595   5.523   4.971
 1558WAT     H2 6777  10.569   5.388   4.908
 1559WAT      O 6778  10.098   5.931   4.025
 1559WAT     H1 6779  10.042   5.886   3.963
 1559WAT     H2 6780  10.169   5.967   3.972
 1560WAT      O 6781  10.936   5.219   5.471
 1560WAT     H1 6782  10.969   5.146   5.524
 1560WAT     H2 6783  10.940   5.187   5.381
 1561WAT      O 6784   9.606   6.321   5.413
 1561WAT     H1 6785   9.568   6.257   5.473
 1561WAT     H2 6786   9.637   6.392   5.470
 1562WAT      O 6787  10.221   6.006   4.961
 1562WAT     H1 6788  10.258   5.959   5.036
 1562WAT     H2 6789  10.202   6.093   4.995
 1563WAT      O 6790   9.508   5.480   4.574
 1563WAT     H1 6791   9.479   5.444   4.658
 1563WAT     H2 6792   9.501   5.407   4.513
 1564WAT      O 6793  10.000   5.910   5.193
 1564WAT     H1 6794   9.970   5.998   5.215
 1564WAT     H2 6795  10.096   5.916   5.196
 1565WAT      O 6796   9.853   6.331   4.253
 1565WAT     H1 6797   9.776   6.277   4.237
 1565WAT     H2 6798   9.926   6.279   4.219
 1566WAT      O 6799  10.929   6.230   4.832
 1566WAT     H1 6800  11.001   6.280   4.793
 1566WAT     H2 6801  10.909   6.163   4.767
 1567WAT      O 6802  10.475   5.370   4.246
 1567WAT     H1 6803  10.394   5.320   4.239
 1567WAT     H2 6804  10.456   5.454   4.204
 1568WAT      O 6805  10.467   6.237   5.420
 1568WAT     H1 6806  10.460   6.145   5.395
 1568WAT     H2 6807  10.404   6.247   5.492
 1569WAT      O 6808  10.746   5.807   4.076
 1569WAT     H1 6809  10.835   5.838   4.058
 1569WAT     H2 6810  10.743   5.720   4.037
 1570WAT      O 6811   9.857   6.298   4.616
 1570WAT     H1 6812   9.909   6.217   4.611
 1570WAT     H2 6813   9.812   6.291   4.700
 1571WAT      O 6814  10.346   6.424   4.144
 1571WAT     H1 6815  10.380   6.499   4.094
 1571WAT     H2 6816  10.263   6.455   4.180
 1572WAT      O 6817   9.606   5.994   5.308
 1572WAT     H1 6818   9.570   6.061   5.366
 1572WAT     H2 6819   9.576   5.911   5.345
 1573WAT      O 6820   9.926   6.040   5.596
 1573WAT     H1 6821   9.896   6.055   5.506
 1573WAT     H2 6822  10.003   5.984   5.587
 1574WAT      O 6823  10.460   6.520   5.396
 1574WAT     H1 6824  10.462   6.426   5.374
 1574WAT     H2 6825  10.389   6.528   5.459
 1575WAT      O 6826  10.974   5.938   4.022
 1575WAT     H1 6827  10.965   5.981   3.937
 1575WAT     H2 6828  11.045   5.984   4.066
 1576WAT      O 6829  11.076   6.623   4.295
 1576WAT     H1 6830  11.012   6.558   4.323
 1576WAT     H2 6831  11.038   6.664   4.218
 1577WAT      O 6832  10.634   6.356   4.680
 1577WAT     H1 6833  10.670   6.297   4.614
 1577WAT     H2 6834  10.546   6.324   4.697
 1578WAT      O 6835  10.243   6.432   4.421
 1578WAT     H1 6836  10.312   6.487   4.459
 1578WAT     H2 6837  10.164   6.487   4.424
 1579WAT      O 6838   9.457   5.994   3.970
 1579WAT     H1 6839   9.544   6.022   3.998
 1579WAT     H2 6840   9.408   6.075   3.958
 1580WAT      O 6841  10.173   6.133   4.382
 1580WAT     H1 6842  10.219   6.214   4.405
 1580WAT     H2 6843  10.138   6.101   4.465
 1581WAT      O 6844  10.404   6.684   5.105
 1581WAT     H1 6845  10.468   6.704   5.173
 1581WAT     H2 6846  10.440   6.608   5.060
 1582WAT      O 6847   9.763   5.167   4.429
 1582WAT     H1 6848   9.750   5.166   4.524
 1582WAT     H2 6849   9.681   5.201   4.394
 1583WAT      O 6850  10.531   6.484   4.977
 1583WAT     H1 6851  10.595   6.414   4.988
 1583WAT     H2 6852  10.583   6.562   4.959
 1584WAT      O 6853  10.915   6.513   3.949
 1584WAT     H1 6854  10.893   6.441   4.008
 1584WAT     H2 6855  10.876   6.488   3.865
 1585WAT      O 6856  10.708   6.564   5.297
 1585WAT     H1 6857  10.742   6.623   5.365
 1585WAT     H2 6858  10.616   6.551   5.320
 1586WAT      O 6859   9.494   6.915   4.027
 1586WAT     H1 6860   9.530   6.975   3.961
 1586WAT     H2 6861   9.479   6.970   4.104
 1587WAT      O 6862   9.463   5.343   5.375
 1587WAT     H1 6863   9.392   5.363   5.436
 1587WAT     H2 6864   9.505   5.265   5.412
 1588WAT      O 6865  10.874   6.304   4.115
 1588WAT     H1 6866  10.845   6.350   4.194
 1588WAT     H2 6867  10.953   6.258   4.142
 1589WAT      O 6868   9.492   6.742   5.474
 1589WAT     H1 6869   9.503   6.648   5.460
 1589WAT     H2 6870   9.427   6.768   5.409
 1590WAT      O 6871  10.291   6.569   5.614
 1590WAT     H1 6872  10.259   6.497   5.668
 1590WAT     H2 6873  10.224   6.637   5.621
 1591WAT      O 6874  10.095   6.654   4.108
 1591WAT     H1 6875  10.094   6.727   4.047
 1591WAT     H2 6876  10.003   6.629   4.118
 1592WAT      O 6877   9.655   6.176   4.183
 1592WAT     H1 6878   9.595   6.250   4.184
 1592WAT     H2 6879   9.703   6.185   4.100
 1593WAT      O 6880  10.613   5.592   5.150
 1593WAT     H1 6881  10.649   5.510   5.183
 1593WAT     H2 6882  10.527   5.598   5.192
 1594WAT      O 6883  10.949   5.488   4.231
 1594WAT     H1 6884  10.886   5.498   4.160
 1594WAT     H2 6885  10.900   5.510   4.310
 1595WAT      O 6886  10.394   6.660   3.975
 1595WAT     H1 6887  10.404   6.640   3.882
 1595WAT     H2 6888  10.304   6.634   3.995
 1596WAT      O 6889  10.146   5.716   4.373
 1596WAT     H1 6890  10.075   5.763   4.417
 1596WAT     H2 6891  10.175   5.650   4.436
 1597WAT      O 6892  10.309   5.858   5.173
 1597WAT     H1 6893  10.359   5.905   5.239
 1597WAT     H2 6894  10.323   5.765   5.193
 1598WAT      O 6895  10.549   5.388   4.517
 1598WAT     H1 6896  10.537   5.390   4.422
 1598WAT     H2 6897  10.644   5.393   4.529
 1599WAT      O 6898  10.258   6.912   4.444
 1599WAT     H1 6899  10.283   6.908   4.352
 1599WAT     H2 6900  10.163   6.899   4.443
 1600WAT      O 6901   9.966   5.547   4.110
 1600WAT     H1 6902  10.051   5.590   4.104
 1600WAT     H2 6903   9.930   5.578   4.193
 1601WAT      O 6904  11.029   5.479   5.257
 1601WAT     H1 6905  10.979   5.553   5.291
 1601WAT     H2 6906  11.111   5.518   5.225
 1602WAT      O 6907  10.859   6.004   4.602
 1602WAT     H1 6908  10.764   6.005   4.619
 1602WAT     H2 6909  10.890   5.925   4.646
 1603WAT      O 6910   9.856   6.172   3.958
 1603WAT     H1 6911   9.933   6.161   4.014
 1603WAT     H2 6912   9.864   6.102   3.892
 1604WAT      O 6913   9.726   5.915   4.026
 1604WAT     H1 6914   9.734   5.820   4.037
 1604WAT     H2 6915   9.815   5.948   4.037
 1605WAT      O 6916   9.806   6.930   4.736
 1605WAT     H1 6917   9.880   6.875   4.763
 1605WAT     H2 6918   9.844   7.017   4.722
 1606WAT      O 6919   9.494   6.537   4.324
 1606WAT     H1 6920   9.402   6.561   4.323
 1606WAT     H2 6921   9.541   6.620   4.312
 1607WAT      O 6922   9.707   6.849   5.655
 1607WAT     H1 6923   9.787   6.881   5.696
 1607WAT     H2 6924   9.655   6.813   5.727
 1608WAT      O 6925  10.117   6.847   3.919
 1608WAT     H1 6926  10.196   6.876   3.873
 1608WAT     H2 6927  10.065   6.804   3.851
 1609WAT      O 6928  10.590   6.459   5.650
 1609WAT     H1 6929  10.530   6.462   5.576
 1609WAT     H2 6930  10.560   6.386   5.704
 1610WAT      O 6931  10.733   6.832   5.511
 1610WAT     H1 6932  10.828   6.824   5.506
 1610WAT     H2 6933  10.718   6.899   5.578
 1611WAT      O 6934  11.022   6.770   4.061
 1611WAT     H1 6935  10.994   6.729   3.979
 1611WAT     H2 6936  11.003   6.863   4.049
 1612WAT      O 6937   9.479   6.097   5.550
 1612WAT     H1 6938   9.529   6.039   5.607
 1612WAT     H2 6939   9.405   6.126   5.603
 1613WAT      O 6940  10.169   6.369   3.905
 1613WAT     H1 6941  10.158   6.308   3.978
 1613WAT     H2 6942  10.152   6.317   3.827
 1614WAT      O 6943  10.184   6.238   5.503
 1614WAT     H1 6944  10.107   6.295   5.494
 1614WAT     H2 6945  10.202   6.209   5.414
 1615WAT      O 6946  10.493   6.276   3.965
 1615WAT     H1 6947  10.438   6.320   4.030
 1615WAT     H2 6948  10.555   6.225   4.018
 1616WAT      O 6949  10.898   6.411   5.559
 1616WAT     H1 6950  10.972   6.445   5.508
 1616WAT     H2 6951  10.822   6.428   5.503
 1617WAT      O 6952   9.682   5.912   5.639
 1617WAT     H1 6953   9.686   5.882   5.730
 1617WAT     H2 6954   9.767   5.952   5.623
 1618WAT      O 6955  10.060   6.172   4.155
 1618WAT     H1 6956  10.102   6.155   4.239
 1618WAT     H2 6957  10.072   6.091   4.106
 1619WAT      O 6958   9.876   5.770   5.436
 1619WAT     H1 6959   9.823   5.720   5.373
 1619WAT     H2 6960   9.943   5.812   5.382
 1620WAT      O 6961  10.311   6.074   3.880
 1620WAT     H1 6962  10.363   6.002   3.843
 1620WAT     H2 6963  10.376   6.138   3.910
 1621WAT      O 6964  10.766   6.216   5.412
 1621WAT     H1 6965  10.807   6.232   5.497
 1621WAT     H2 6966  10.672   6.229   5.428
 1622WAT      O 6967  10.813   5.950   5.613
 1622WAT     H1 6968  10.871   5.875   5.604
 1622WAT     H2 6969  10.830   6.003   5.535
 1623WAT      O 6970   9.925   5.466   5.444
 1623WAT     H1 6971   9.915   5.404   5.371
 1623WAT     H2 6972   9.867   5.539   5.421
 1624WAT      O 6973  10.201   5.322   5.147
 1624WAT     H1 6974  10.156   5.324   5.062
 1624WAT     H2 6975  10.138   5.282   5.207
 1625WAT      O 6976  10.242   6.211   5.209
 1625WAT     H1 6977  10.284   6.296   5.192
 1625WAT     H2 6978  10.150   6.225   5.186
 1626WAT      O 6979  10.475   5.985   5.348
 1626WAT     H1 6980  10.487   5.925   5.421
 1626WAT     H2 6981  10.561   5.988   5.306
 1627WAT      O 6982  10.709   6.040   5.205
 1627WAT     H1 6983  10.657   6.092   5.145
 1627WAT     H2 6984  10.744   6.103   5.268
 1628WAT      O 6985   9.949   5.779   3.850
 1628WAT     H1 6986   9.929   5.693   3.886
 1628WAT     H2 6987   9.932   5.770   3.756
 1629WAT      O 6988  10.027   6.842   5.321
 1629WAT     H1 6989   9.973   6.914   5.289
 1629WAT     H2 6990  10.052   6.794   5.242
 1630WAT      O 6991  10.152   5.639   5.473
 1630WAT     H1 6992  10.211   5.608   5.542
 1630WAT     H2 6993  10.070   5.592   5.489
 1631WAT      O 6994  10.634   5.600   5.497
 1631WAT     H1 6995  10.565   5.534   5.490
 1631WAT     H2 6996  10.706   5.556   5.541
 1632WAT      O 6997  10.697   5.260   4.102
 1632WAT     H1 6998  10.725   5.176   4.138
 1632WAT     H2 6999  10.620   5.283   4.154
 1633WAT      O 7000   9.829   5.489   3.848
 1633WAT     H1 7001   9.859   5.490   3.758
 1633WAT     H2 7002   9.903   5.454   3.898
 1634WAT      O 7003  10.312   6.965   5.347
 1634WAT     H1 7004  10.305   7.056   5.377
 1634WAT     H2 7005  10.222   6.934   5.344
 1635WAT      O 7006  10.151   5.383   3.947
 1635WAT     H1 7007  10.116   5.315   3.889
 1635WAT     H2 7008  10.171   5.337   4.028
 1636WAT      O 7009  10.367   6.882   4.109
 1636WAT     H1 7010  10.457   6.916   4.111
 1636WAT     H2 7011  10.370   6.810   4.046
 1637WAT      O 7012   9.731   6.419   3.932
 1637WAT     H1 7013   9.775   6.474   3.997
 1637WAT     H2 7014   9.780   6.337   3.933
 1638WAT      O 7015   9.453   6.698   4.677
 1638WAT     H1 7016   9.486   6.611   4.654
 1638WAT     H2 7017   9.496   6.719   4.760
 1639WAT      O 7018   9.912   6.531   4.443
 1639WAT     H1 7019   9.882   6.519   4.533
 1639WAT     H2 7020   9.902   6.445   4.402
 1640WAT      O 7021   9.502   6.785   4.951
 1640WAT     H1 7022   9.458   6.803   5.034
 1640WAT     H2 7023   9.558   6.861   4.937
 1641WAT      O 7024  11.065   6.735   5.379
 1641WAT     H1 7025  11.005   6.741   5.305
 1641WAT     H2 7026  11.078   6.641   5.392
 1642WAT      O 7027   9.485   6.036   4.587
 1642WAT     H1 7028   9.419   6.009   4.522
 1642WAT     H2 7029   9.569   6.025   4.542
 1643WAT      O 7030  10.934   6.408   5.189
 1643WAT     H1 7031  10.852   6.451   5.216
 1643WAT     H2 7032  10.975   6.469   5.128
 1644WAT      O 7033  10.780   5.516   4.009
 1644WAT     H1 7034  10.822   5.497   3.925
 1644WAT     H2 7035  10.749   5.430   4.040
 1645WAT      O 7036   9.589   6.075   5.041
 1645WAT     H1 7037   9.625   6.066   5.129
 1645WAT     H2 7038   9.532   5.998   5.031
 1646WAT      O 7039  11.069   5.921   5.342
 1646WAT     H1 7040  11.046   5.899   5.252
 1646WAT     H2 7041  11.095   6.013   5.337
 1647WAT      O 7042   9.544   5.766   5.431
 1647WAT     H1 7043   9.454   5.762   5.465
 1647WAT     H2 7044   9.598   5.786   5.508
 1648WAT      O 7045  10.913   5.444   5.620
 1648WAT     H1 7046  11.000   5.445   5.658
 1648WAT     H2 7047  10.914   5.370   5.559
 1649WAT      O 7048   9.406   5.757   4.181
 1649WAT     H1 7049   9.316   5.783   4.163
 1649WAT     H2 7050   9.455   5.784   4.103
 1650WAT      O 7051  11.057   5.829   4.709
 1650WAT     H1 7052  11.110   5.780   4.646
 1650WAT     H2 7053  11.116   5.843   4.783
 1651WAT      O 7054  11.075   5.838   5.061
 1651WAT     H1 7055  10.980   5.834   5.072
 1651WAT     H2 7056  11.093   5.929   5.037
 1652WAT      O 7057   9.661   5.663   3.972
 1652WAT     H1 7058   9.731   5.621   3.923
 1652WAT     H2 7059   9.589   5.670   3.909
 1653WAT      O 7060   9.625   5.268   3.876
 1653WAT     H1 7061   9.698   5.322   3.908
 1653WAT     H2 7062   9.653   5.241   3.788
 1654WAT      O 7063  11.006   5.755   4.303
 1654WAT     H1 7064  11.056   5.732   4.381
 1654WAT     H2 7065  10.986   5.671   4.261
 1655WAT      O 7066   9.594   5.193   4.866
 1655WAT     H1 7067   9.659   5.138   4.822
 1655WAT     H2 7068   9.636   5.219   4.948
 1656WAT      O 7069  10.984   5.213   5.202
 1656WAT     H1 7070  11.047   5.274   5.238
 1656WAT     H2 7071  10.998   5.216   5.107
 1657WAT      O 7072  10.940   6.883   4.542
 1657WAT     H1 7073  10.999   6.851   4.474
 1657WAT     H2 7074  10.965   6.835   4.621
 1658WAT      O 7075   9.570   5.209   5.140
 1658WAT     H1 7076   9.535   5.254   5.217
 1658WAT     H2 7077   9.536   5.119   5.149
 1659WAT      O 7078   9.730   6.526   5.557
 1659WAT     H1 7079   9.726   6.489   5.645
 1659WAT     H2 7080   9.743   6.620   5.571
 1660WAT      O 7081  10.100   6.682   5.117
 1660WAT     H1 7082  10.076   6.708   5.028
 1660WAT     H2 7083  10.194   6.699   5.122
 1661WAT      O 7084  10.321   5.328   5.493
 1661WAT     H1 7085  10.315   5.387   5.567
 1661WAT     H2 7086  10.415   5.317   5.478
 1662WAT      O 7087  10.585   5.294   5.456
 1662WAT     H1 7088  10.646   5.325   5.390
 1662WAT     H2 7089  10.639   5.245   5.518
 1663WAT      O 7090   9.637   5.162   5.468
 1663WAT     H1 7091   9.692   5.143   5.391
 1663WAT     H2 7092   9.643   5.082   5.521
 1664WAT      O 7093   9.714   6.821   5.269
 1664WAT     H1 7094   9.655   6.807   5.343
 1664WAT     H2 7095   9.713   6.737   5.222
 1665WAT      O 7096  10.659   5.150   5.089
 1665WAT     H1 7097  10.571   5.183   5.069
 1665WAT     H2 7098  10.648   5.103   5.172
 1666WAT      O 7099  10.749   5.371   5.228
 1666WAT     H1 7100  10.716   5.289   5.190
 1666WAT     H2 7101  10.844   5.366   5.215
 1667WAT      O 7102  10.995   6.948   4.925
 1667WAT     H1 7103  10.949   7.023   4.887
 1667WAT     H2 7104  10.932   6.876   4.919
 1668WAT      O 7105   9.677   6.557   5.164
 1668WAT     H1 7106   9.605   6.495   5.157
 1668WAT     H2 7107   9.683   6.597   5.077
 1669WAT      O 7108  10.038   6.779   4.842
 1669WAT     H1 7109  10.089   6.717   4.790
 1669WAT     H2 7110  10.103   6.829   4.892
 1670WAT      O 7111  10.312   6.868   4.925
 1670WAT     H1 7112  10.340   6.842   4.837
 1670WAT     H2 7113  10.363   6.812   4.984
 1671WAT      O 7114  10.433   5.242   4.983
 1671WAT     H1 7115  10.355   5.289   5.011
 1671WAT     H2 7116  10.404   5.151   4.972
 1672WAT      O 7117  10.889   5.312   4.788
 1672WAT     H1 7118  10.933   5.306   4.703
 1672WAT     H2 7119  10.862   5.403   4.795
 1673WAT      O 7120   9.505   6.889   4.485
 1673WAT     H1 7121   9.489   6.826   4.555
 1673WAT     H2 7122   9.419   6.910   4.450
 1674WAT      O 7123   9.568   5.272   4.235
 1674WAT     H1 7124   9.644   5.283   4.178
 1674WAT     H2 7125   9.522   5.356   4.231
 1675WAT      O 7126  10.222   5.483   4.534
 1675WAT     H1 7127  10.141   5.446   4.500
 1675WAT     H2 7128  10.272   5.408   4.564
 1676WAT      O 7129  10.672   5.150   4.658
 1676WAT     H1 7130  10.732   5.207   4.706
 1676WAT     H2 7131  10.598   5.206   4.636
 1677WAT      O 7132  10.986   5.190   4.185
 1677WAT     H1 7133  11.006   5.280   4.212
 1677WAT     H2 7134  10.908   5.167   4.235
 1678WAT      O 7135   9.666   6.758   4.229
 1678WAT     H1 7136   9.614   6.796   4.159
 1678WAT     H2 7137   9.659   6.821   4.301
 1679WAT      O 7138   9.805   5.325   4.089
 1679WAT     H1 7139   9.858   5.246   4.076
 1679WAT     H2 7140   9.868   5.393   4.113
 1680WAT      O 7141  10.024   5.298   4.395
 1680WAT     H1 7142   9.961   5.228   4.411
 1680WAT     H2 7143   9.970   5.375   4.373
 1681WAT      O 7144  10.318   6.960   5.662
 1681WAT     H1 7145  10.411   6.936   5.666
 1681WAT     H2 7146  10.317   7.043   5.614
 1682WAT      O 7147  10.037   5.226   5.638
 1682WAT     H1 7148  10.009   5.277   5.562
 1682WAT     H2 7149  10.075   5.147   5.602
 1683WAT      O 7150   9.926   6.953   4.117
 1683WAT     H1 7151   9.999   6.925   4.062
 1683WAT     H2 7152   9.952   6.929   4.206
 1684WAT      O 7153   9.842   6.565   4.117
 1684WAT     H1 7154   9.779   6.612   4.172
 1684WAT     H2 7155   9.854   6.480   4.161
 1685WAT      O 7156  10.697   5.168   5.696
 1685WAT     H1 7157  10.686   5.200   5.786
 1685WAT     H2 7158  10.779   5.208   5.666
 1686WAT      O 7159  10.975   6.883   5.644
 1686WAT     H1 7160  11.054   6.833   5.623
 1686WAT     H2 7161  11.004   6.950   5.705
 1687WAT      O 7162  10.588   5.970   2.732
 1687WAT     H1 7163  10.580   5.878   2.705
 1687WAT     H2 7164  10.546   6.019   2.662
 1688WAT      O 7165  10.401   6.148   2.920
 1688WAT     H1 7166  10.323   6.100   2.949
 1688WAT     H2 7167  10.466   6.080   2.903
 1689WAT      O 7168   9.803   6.179   3.008
 1689WAT     H1 7169   9.719   6.153   3.048
 1689WAT     H2 7170   9.863   6.186   3.082
 1690WAT      O 7171  10.803   6.588   2.798
 1690WAT     H1 7172  10.757   6.511   2.831
 1690WAT     H2 7173  10.884   6.591   2.849
 1691WAT      O 7174   9.801   6.582   3.028
 1691WAT     H1 7175   9.831   6.493   3.010
 1691WAT     H2 7176   9.875   6.638   3.005
 1692WAT      O 7177   9.643   5.675   2.387
 1692WAT     H1 7178   9.555   5.709   2.376
 1692WAT     H2 7179   9.672   5.655   2.297
 1693WAT      O 7180   9.440   5.935   2.975
 1693WAT     H1 7181   9.497   5.858   2.975
 1693WAT     H2 7182   9.440   5.965   2.884
 1694WAT      O 7183  10.426   6.817   2.760
 1694WAT     H1 7184  10.364   6.862   2.703
 1694WAT     H2 7185  10.511   6.832   2.720
 1695WAT      O 7186  10.345   6.415   2.921
 1695WAT     H1 7187  10.338   6.321   2.905
 1695WAT     H2 7188  10.421   6.424   2.978
 1696WAT      O 7189   9.564   5.476   3.154
 1696WAT     H1 7190   9.546   5.386   3.182
 1696WAT     H2 7191   9.524   5.530   3.221
 1697WAT      O 7192  10.448   5.696   2.944
 1697WAT     H1 7193  10.486   5.609   2.933
 1697WAT     H2 7194  10.438   5.729   2.855
 1698WAT      O 7195   9.861   5.533   2.490
 1698WAT     H1 7196   9.872   5.623   2.521
 1698WAT     H2 7197   9.770   5.528   2.461
 1699WAT      O 7198  10.826   5.445   2.637
 1699WAT     H1 7199  10.908   5.396   2.641
 1699WAT     H2 7200  10.830   5.504   2.712
 1700WAT      O 7201   9.626   5.725   3.015
 1700WAT     H1 7202   9.694   5.752   3.076
 1700WAT     H2 7203   9.594   5.641   3.048
 1701WAT      O 7204  10.045   5.830   2.923
 1701WAT     H1 7205  10.096   5.880   2.987
 1701WAT     H2 7206  10.098   5.752   2.906
 1702WAT      O 7207   9.873   5.294   3.350
 1702WAT     H1 7208   9.874   5.346   3.269
 1702WAT     H2 7209   9.791   5.246   3.348
 1703WAT      O 7210  10.512   6.305   2.500
 1703WAT     H1 7211  10.450   6.352   2.443
 1703WAT     H2 7212  10.563   6.374   2.541
 1704WAT      O 7213   9.999   6.258   3.168
 1704WAT     H1 7214   9.965   6.321   3.232
 1704WAT     H2 7215  10.016   6.311   3.090
 1705WAT      O 7216  10.850   5.639   2.914
 1705WAT     H1 7217  10.779   5.668   2.972
 1705WAT     H2 7218  10.886   5.720   2.878
 1706WAT      O 7219   9.842   5.465   3.151
 1706WAT     H1 7220   9.876   5.549   3.121
 1706WAT     H2 7221   9.748   5.480   3.162
 1707WAT      O 7222   9.920   6.455   3.349
 1707WAT     H1 7223   9.981   6.522   3.321
 1707WAT     H2 7224   9.834   6.496   3.340
 1708WAT      O 7225   9.449   6.374   2.237
 1708WAT     H1 7226   9.411   6.423   2.164
 1708WAT     H2 7227   9.475   6.441   2.300
 1709WAT      O 7228  11.011   6.601   3.141
 1709WAT     H1 7229  10.943   6.668   3.140
 1709WAT     H2 7230  11.065   6.621   3.064
 1710WAT      O 7231  10.210   5.214   2.783
 1710WAT     H1 7232  10.241   5.158   2.711
 1710WAT     H2 7233  10.117   5.227   2.765
 1711WAT      O 7234  10.765   6.786   3.012
 1711WAT     H1 7235  10.766   6.745   2.925
 1711WAT     H2 7236  10.710   6.863   3.002
 1712WAT      O 7237  10.895   6.458   2.521
 1712WAT     H1 7238  10.883   6.363   2.534
 1712WAT     H2 7239  10.894   6.494   2.610
 1713WAT      O 7240  10.705   6.276   3.145
 1713WAT     H1 7241  10.747   6.254   3.061
 1713WAT     H2 7242  10.777   6.302   3.202
 1714WAT      O 7243  10.449   6.020   2.457
 1714WAT     H1 7244  10.356   6.014   2.480
 1714WAT     H2 7245  10.464   6.114   2.445
 1715WAT      O 7246  10.447   5.648   2.156
 1715WAT     H1 7247  10.353   5.664   2.165
 1715WAT     H2 7248  10.479   5.719   2.102
 1716WAT      O 7249  10.852   6.177   2.507
 1716WAT     H1 7250  10.790   6.143   2.442
 1716WAT     H2 7251  10.850   6.112   2.578
 1717WAT      O 7252  10.796   5.794   3.249
 1717WAT     H1 7253  10.755   5.877   3.274
 1717WAT     H2 7254  10.723   5.736   3.229
 1718WAT      O 7255  10.009   6.073   2.735
 1718WAT     H1 7256   9.969   6.002   2.685
 1718WAT     H2 7257  10.018   6.039   2.824
 1719WAT      O 7258  10.056   6.442   2.951
 1719WAT     H1 7259  10.026   6.381   2.883
 1719WAT     H2 7260  10.151   6.445   2.940
 1720WAT      O 7261   9.881   5.750   3.113
 1720WAT     H1 7262   9.936   5.761   3.035
 1720WAT     H2 7263   9.932   5.788   3.184
 1721WAT      O 7264  10.865   6.799   3.317
 1721WAT     H1 7265  10.817   6.880   3.298
 1721WAT     H2 7266  10.797   6.734   3.333
 1722WAT      O 7267   9.965   6.415   3.616
 1722WAT     H1 7268   9.876   6.438   3.641
 1722WAT     H2 7269   9.968   6.428   3.521
 1723WAT      O 7270  10.669   6.100   2.208
 1723WAT     H1 7271  10.713   6.017   2.193
 1723WAT     H2 7272  10.741   6.164   2.216
 1724WAT      O 7273   9.848   6.103   3.474
 1724WAT     H1 7274   9.834   6.190   3.511
 1724WAT     H2 7275   9.760   6.068   3.459
 1725WAT      O 7276  10.480   6.594   2.605
 1725WAT     H1 7277  10.524   6.669   2.563
 1725WAT     H2 7278  10.474   6.619   2.697
 1726WAT      O 7279  10.028   6.697   3.695
 1726WAT     H1 7280  10.025   6.737   3.608
 1726WAT     H2 7281  10.011   6.604   3.678
 1727WAT      O 7282  11.028   5.226   2.039
 1727WAT     H1 7283  10.996   5.235   2.129
 1727WAT     H2 7284  11.104   5.284   2.034
 1728WAT      O 7285   9.679   5.962   2.485
 1728WAT     H1 7286   9.667   6.035   2.424
 1728WAT     H2 7287   9.648   5.885   2.437
 1729WAT      O 7288   9.443   6.280   3.066
 1729WAT     H1 7289   9.451   6.293   2.971
 1729WAT     H2 7290   9.505   6.209   3.085
 1730WAT      O 7291   9.568   6.450   2.707
 1730WAT     H1 7292   9.527   6.464   2.621
 1730WAT     H2 7293   9.657   6.421   2.686
 1731WAT      O 7294  10.549   6.865   3.397
 1731WAT     H1 7295  10.601   6.856   3.478
 1731WAT     H2 7296  10.465   6.899   3.427
 1732WAT      O 7297  10.747   6.893   2.340
 1732WAT     H1 7298  10.731   6.864   2.430
 1732WAT     H2 7299  10.730   6.815   2.287
 1733WAT      O 7300   9.995   6.871   2.518
 1733WAT     H1 7301   9.977   6.779   2.497
 1733WAT     H2 7302   9.909   6.907   2.542
 1734WAT      O 7303  10.717   6.644   2.196
 1734WAT     H1 7304  10.648   6.644   2.130
 1734WAT     H2 7305  10.791   6.602   2.153
 1735WAT      O 7306  10.674   6.807   2.604
 1735WAT     H1 7307  10.719   6.728   2.635
 1735WAT     H2 7308  10.708   6.878   2.658
 1736WAT      O 7309   9.449   6.384   3.320
 1736WAT     H1 7310   9.465   6.337   3.238
 1736WAT     H2 7311   9.495   6.333   3.386
 1737WAT      O 7312   9.926   5.297   2.823
 1737WAT     H1 7313   9.882   5.375   2.790
 1737WAT     H2 7314   9.982   5.329   2.894
 1738WAT      O 7315  10.355   5.583   3.383
 1738WAT     H1 7316  10.308   5.604   3.465
 1738WAT     H2 7317  10.314   5.502   3.353
 1739WAT      O 7318  10.855   5.706   3.496
 1739WAT     H1 7319  10.770   5.676   3.529
 1739WAT     H2 7320  10.839   5.730   3.405
 1740WAT      O 7321  10.564   5.856   3.706
 1740WAT     H1 7322  10.597   5.772   3.672
 1740WAT     H2 7323  10.643   5.908   3.721
 1741WAT      O 7324  10.238   5.259   2.311
 1741WAT     H1 7325  10.175   5.259   2.384
 1741WAT     H2 7326  10.229   5.172   2.272
 1742WAT      O 7327  10.130   5.351   3.009
 1742WAT     H1 7328  10.159   5.442   3.001
 1742WAT     H2 7329  10.185   5.302   2.948
 1743WAT      O 7330   9.905   5.809   2.596
 1743WAT     H1 7331   9.883   5.788   2.686
 1743WAT     H2 7332   9.827   5.852   2.561
 1744WAT      O 7333  10.628   5.810   2.456
 1744WAT     H1 7334  10.568   5.882   2.437
 1744WAT     H2 7335  10.683   5.804   2.378
 1745WAT      O 7336  10.149   5.899   3.663
 1745WAT     H1 7337  10.140   5.805   3.648
 1745WAT     H2 7338  10.233   5.921   3.623
 1746WAT      O 7339  10.489   5.673   2.659
 1746WAT     H1 7340  10.528   5.705   2.578
 1746WAT     H2 7341  10.525   5.586   2.670
 1747WAT      O 7342   9.662   5.540   3.478
 1747WAT     H1 7343   9.623   5.625   3.499
 1747WAT     H2 7344   9.593   5.476   3.497
 1748WAT      O 7345  10.320   5.548   3.785
 1748WAT     H1 7346  10.251   5.529   3.848
 1748WAT     H2 7347  10.394   5.577   3.838
 1749WAT      O 7348   9.392   5.332   2.881
 1749WAT     H1 7349   9.364   5.389   2.952
 1749WAT     H2 7350   9.467   5.284   2.917
 1750WAT      O 7351   9.411   5.727   2.002
 1750WAT     H1 7352   9.403   5.821   2.016
 1750WAT     H2 7353   9.376   5.712   1.914
 1751WAT      O 7354  10.547   5.932   3.068
 1751WAT     H1 7355  10.474   5.983   3.103
 1751WAT     H2 7356  10.508   5.851   3.038
 1752WAT      O 7357  10.191   5.600   2.909
 1752WAT     H1 7358  10.191   5.556   2.824
 1752WAT     H2 7359  10.281   5.632   2.920
 1753WAT      O 7360   9.776   5.588   2.805
 1753WAT     H1 7361   9.742   5.636   2.881
 1753WAT     H2 7362   9.700   5.543   2.769
 1754WAT      O 7363  10.197   5.700   2.208
 1754WAT     H1 7364  10.209   5.696   2.303
 1754WAT     H2 7365  10.159   5.786   2.192
 1755WAT      O 7366  10.594   5.478   3.010
 1755WAT     H1 7367  10.595   5.523   3.094
 1755WAT     H2 7368  10.569   5.388   3.031
 1756WAT      O 7369  10.098   5.931   2.148
 1756WAT     H1 7370  10.042   5.886   2.085
 1756WAT     H2 7371  10.169   5.967   2.094
 1757WAT      O 7372  10.936   5.219   3.593
 1757WAT     H1 7373  10.969   5.146   3.646
 1757WAT     H2 7374  10.940   5.187   3.503
 1758WAT      O 7375   9.606   6.321   3.535
 1758WAT     H1 7376   9.568   6.257   3.595
 1758WAT     H2 7377   9.637   6.392   3.592
 1759WAT      O 7378  10.221   6.006   3.084
 1759WAT     H1 7379  10.258   5.959   3.158
 1759WAT     H2 7380  10.202   6.093   3.118
 1760WAT      O 7381   9.508   5.480   2.697
 1760WAT     H1 7382   9.479   5.444   2.780
 1760WAT     H2 7383   9.501   5.407   2.635
 1761WAT      O 7384  10.000   5.910   3.315
 1761WAT     H1 7385   9.970   5.998   3.338
 1761WAT     H2 7386  10.096   5.916   3.319
 1762WAT      O 7387   9.853   6.331   2.375
 1762WAT     H1 7388   9.776   6.277   2.359
 1762WAT     H2 7389   9.926   6.279   2.341
 1763WAT      O 7390  10.929   6.230   2.954
 1763WAT     H1 7391  11.001   6.280   2.915
 1763WAT     H2 7392  10.909   6.163   2.890
 1764WAT      O 7393  10.475   5.370   2.369
 1764WAT     H1 7394  10.394   5.320   2.361
 1764WAT     H2 7395  10.456   5.454   2.327
 1765WAT      O 7396  10.467   6.237   3.543
 1765WAT     H1 7397  10.460   6.145   3.518
 1765WAT     H2 7398  10.404   6.247   3.614
 1766WAT      O 7399  10.746   5.807   2.198
 1766WAT     H1 7400  10.835   5.838   2.181
 1766WAT     H2 7401  10.743   5.720   2.159
 1767WAT      O 7402   9.857   6.298   2.739
 1767WAT     H1 7403   9.909   6.217   2.733
 1767WAT     H2 7404   9.812   6.291   2.823
 1768WAT      O 7405  10.346   6.424   2.266
 1768WAT     H1 7406  10.380   6.499   2.217
 1768WAT     H2 7407  10.263   6.455   2.302
 1769WAT      O 7408   9.606   5.994   3.430
 1769WAT     H1 7409   9.570   6.061   3.489
 1769WAT     H2 7410   9.576   5.911   3.467
 1770WAT      O 7411   9.926   6.040   3.719
 1770WAT     H1 7412   9.896   6.055   3.629
 1770WAT     H2 7413  10.003   5.984   3.709
 1771WAT      O 7414  10.460   6.520   3.518
 1771WAT     H1 7415  10.462   6.426   3.496
 1771WAT     H2 7416  10.389   6.528   3.582
 1772WAT      O 7417  10.974   5.938   2.145
 1772WAT     H1 7418  10.965   5.981   2.060
 1772WAT     H2 7419  11.045   5.984   2.188
 1773WAT      O 7420  11.076   6.623   2.418
 1773WAT     H1 7421  11.012   6.558   2.445
 1773WAT     H2 7422  11.038   6.664   2.340
 1774WAT      O 7423  10.634   6.356   2.803
 1774WAT     H1 7424  10.670   6.297   2.737
 1774WAT     H2 7425  10.546   6.324   2.820
 1775WAT      O 7426  10.243   6.432   2.543
 1775WAT     H1 7427  10.312   6.487   2.581
 1775WAT     H2 7428  10.164   6.487   2.547
 1776WAT      O 7429   9.457   5.994   2.092
 1776WAT     H1 7430   9.544   6.022   2.121
 1776WAT     H2 7431   9.408   6.075   2.081
 1777WAT      O 7432  10.173   6.133   2.505
 1777WAT     H1 7433  10.219   6.214   2.527
 1777WAT     H2 7434  10.138   6.101   2.588
 1778WAT      O 7435  10.404   6.684   3.227
 1778WAT     H1 7436  10.468   6.704   3.295
 1778WAT     H2 7437  10.440   6.608   3.182
 1779WAT      O 7438   9.763   5.167   2.552
 1779WAT     H1 7439   9.750   5.166   2.647
 1779WAT     H2 7440   9.681   5.201   2.517
 1780WAT      O 7441  10.531   6.484   3.099
 1780WAT     H1 7442  10.595   6.414   3.111
 1780WAT     H2 7443  10.583   6.562   3.081
 1781WAT      O 7444  10.915   6.513   2.072
 1781WAT     H1 7445  10.893   6.441   2.131
 1781WAT     H2 7446  10.876   6.488   1.988
 1782WAT      O 7447  10.708   6.564   3.420
 1782WAT     H1 7448  10.742   6.623   3.487
 1782WAT     H2 7449  10.616   6.551   3.443
 1783WAT      O 7450   9.494   6.915   2.149
 1783WAT     H1 7451   9.530   6.975   2.084
 1783WAT     H2 7452   9.479   6.970   2.226
 1784WAT      O 7453   9.463   5.343   3.498
 1784WAT     H1 7454   9.392   5.363   3.558
 1784WAT     H2 7455   9.505   5.265   3.535
 1785WAT      O 7456  10.874   6.304   2.238
 1785WAT     H1 7457  10.845   6.350   2.317
 1785WAT     H2 7458  10.953   6.258   2.265
 1786WAT      O 7459   9.492   6.742   3.597
 1786WAT     H1 7460   9.503   6.648   3.582
 1786WAT     H2 7461   9.427   6.768   3.532
 1787WAT      O 7462  10.291   6.569   3.736
 1787WAT     H1 7463  10.259   6.497   3.791
 1787WAT     H2 7464  10.224   6.637   3.744
 1788WAT      O 7465  10.095   6.654   2.231
 1788WAT     H1 7466  10.094   6.727   2.169
 1788WAT     H2 7467  10.003   6.629   2.240
 1789WAT      O 7468   9.655   6.176   2.305
 1789WAT     H1 7469   9.595   6.250   2.306
 1789WAT     H2 7470   9.703   6.185   2.223
 1790WAT      O 7471  10.613   5.592   3.273
 1790WAT     H1 7472  10.649   5.510   3.306
 1790WAT     H2 7473  10.527   5.598   3.314
 1791WAT      O 7474  10.949   5.488   2.354
 1791WAT     H1 7475  10.886   5.498   2.282
 1791WAT     H2 7476  10.900   5.510   2.433
 1792WAT      O 7477  10.394   6.660   2.097
 1792WAT     H1 7478  10.404   6.640   2.004
 1792WAT     H2 7479  10.304   6.634   2.118
 1793WAT      O 7480  10.146   5.716   2.495
 1793WAT     H1 7481  10.075   5.763   2.539
 1793WAT     H2 7482  10.175   5.650   2.559
 1794WAT      O 7483  10.309   5.858   3.295
 1794WAT     H1 7484  10.359   5.905   3.362
 1794WAT     H2 7485  10.323   5.765   3.316
 1795WAT      O 7486  10.549   5.388   2.639
 1795WAT     H1 7487  10.537   5.390   2.544
 1795WAT     H2 7488  10.644   5.393   2.651
 1796WAT      O 7489  10.258   6.912   2.567
 1796WAT     H1 7490  10.283   6.908   2.474
 1796WAT     H2 7491  10.163   6.899   2.566
 1797WAT      O 7492   9.966   5.547   2.233
 1797WAT     H1 7493  10.051   5.590   2.226
 1797WAT     H2 7494   9.930   5.578   2.316
 1798WAT      O 7495  11.029   5.479   3.380
 1798WAT     H1 7496  10.979   5.553   3.413
 1798WAT     H2 7497  11.111   5.518   3.348
 1799WAT      O 7498  10.859   6.004   2.724
 1799WAT     H1 7499  10.764   6.005   2.742
 1799WAT     H2 7500  10.890   5.925   2.769
 1800WAT      O 7501   9.856   6.172   2.080
 1800WAT     H1 7502   9.933   6.161   2.136
 1800WAT     H2 7503   9.864   6.102   2.015
 1801WAT      O 7504   9.726   5.915   2.149
 1801WAT     H1 7505   9.734   5.820   2.160
 1801WAT     H2 7506   9.815   5.948   2.159
 1802WAT      O 7507   9.806   6.930   2.859
 1802WAT     H1 7508   9.880   6.875   2.886
 1802WAT     H2 7509   9.844   7.017   2.845
 1803WAT      O 7510   9.494   6.537   2.446
 1803WAT     H1 7511   9.402   6.561   2.445
 1803WAT     H2 7512   9.541   6.620   2.434
 1804WAT      O 7513   9.707   6.849   3.778
 1804WAT     H1 7514   9.787   6.881   3.819
 1804WAT     H2 7515   9.655   6.813   3.850
 1805WAT      O 7516  10.117   6.847   2.041
 1805WAT     H1 7517  10.196   6.876   1.996
 1805WAT     H2 7518  10.065   6.804   1.973
 1806WAT      O 7519  10.590   6.459   3.772
 1806WAT     H1 7520  10.530   6.462   3.698
 1806WAT     H2 7521  10.560   6.386   3.826
 1807WAT      O 7522  10.733   6.832   3.634
 1807WAT     H1 7523  10.828   6.824   3.629
 1807WAT     H2 7524  10.718   6.899   3.701
 1808WAT      O 7525  11.022   6.770   2.183
 1808WAT     H1 7526  10.994   6.729   2.102
 1808WAT     H2 7527  11.003   6.863   2.171
 1809WAT      O 7528   9.479   6.097   3.672
 1809WAT     H1 7529   9.529   6.039   3.729
 1809WAT     H2 7530   9.405   6.126   3.726
 1810WAT      O 7531  10.169   6.369   2.028
 1810WAT     H1 7532  10.158   6.308   2.100
 1810WAT     H2 7533  10.152   6.317   1.949
 1811WAT      O 7534  10.184   6.238   3.625
 1811WAT     H1 7535  10.107   6.295   3.617
 1811WAT     H2 7536  10.202   6.209   3.536
 1812WAT      O 7537  10.493   6.276   2.088
 1812WAT     H1 7538  10.438   6.320   2.152
 1812WAT     H2 7539  10.555   6.225   2.140
 1813WAT      O 7540  10.898   6.411   3.681
 1813WAT     H1 7541  10.972   6.445   3.631
 1813WAT     H2 7542  10.822   6.428   3.626
 1814WAT      O 7543   9.682   5.912   3.762
 1814WAT     H1 7544   9.686   5.882   3.852
 1814WAT     H2 7545   9.767   5.952   3.746
 1815WAT      O 7546  10.060   6.172   2.278
 1815WAT     H1 7547  10.102   6.155   2.362
 1815WAT     H2 7548  10.072   6.091   2.228
 1816WAT      O 7549   9.876   5.770   3.558
 1816WAT     H1 7550   9.823   5.720   3.496
 1816WAT     H2 7551   9.943   5.812   3.505
 1817WAT      O 7552  10.311   6.074   2.002
 1817WAT     H1 7553  10.363   6.002   1.966
 1817WAT     H2 7554  10.376   6.138   2.032
 1818WAT      O 7555  10.766   6.216   3.535
 1818WAT     H1 7556  10.807   6.232   3.620
 1818WAT     H2 7557  10.672   6.229   3.551
 1819WAT      O 7558  10.813   5.950   3.735
 1819WAT     H1 7559  10.871   5.875   3.726
 1819WAT     H2 7560  10.830   6.003   3.657
 1820WAT      O 7561   9.925   5.466   3.566
 1820WAT     H1 7562   9.915   5.404   3.494
 1820WAT     H2 7563   9.867   5.539   3.544
 1821WAT      O 7564  10.201   5.322   3.270
 1821WAT     H1 7565  10.156   5.324   3.185
 1821WAT     H2 7566  10.138   5.282   3.329
 1822WAT      O 7567  10.242   6.211   3.332
 1822WAT     H1 7568  10.284   6.296   3.314
 1822WAT     H2 7569  10.150   6.225   3.309
 1823WAT      O 7570  10.475   5.985   3.470
 1823WAT     H1 7571  10.487   5.925   3.544
 1823WAT     H2 7572  10.561   5.988   3.428
 1824WAT      O 7573  10.709   6.040   3.328
 1824WAT     H1 7574  10.657   6.092   3.267
 1824WAT     H2 7575  10.744   6.103   3.391
 1825WAT      O 7576   9.949   5.779   1.972
 1825WAT     H1 7577   9.929   5.693   2.008
 1825WAT     H2 7578   9.932   5.770   1.878
 1826WAT      O 7579  10.027   6.842   3.443
 1826WAT     H1 7580   9.973   6.914   3.411
 1826WAT     H2 7581  10.052   6.794   3.364
 1827WAT      O 7582  10.152   5.639   3.596
 1827WAT     H1 7583  10.211   5.608   3.665
 1827WAT     H2 7584  10.070   5.592   3.611
 1828WAT      O 7585  10.634   5.600   3.619
 1828WAT     H1 7586  10.565   5.534   3.613
 1828WAT     H2 7587  10.706   5.556   3.664
 1829WAT      O 7588  10.697   5.260   2.225
 1829WAT     H1 7589  10.725   5.176   2.261
 1829WAT     H2 7590  10.620   5.283   2.276
 1830WAT      O 7591   9.829   5.489   1.971
 1830WAT     H1 7592   9.859   5.490   1.880
 1830WAT     H2 7593   9.903   5.454   2.021
 1831WAT      O 7594  10.312   6.965   3.469
 1831WAT     H1 7595  10.305   7.056   3.500
 1831WAT     H2 7596  10.222   6.934   3.466
 1832WAT      O 7597  10.151   5.383   2.070
 1832WAT     H1 7598  10.116   5.315   2.012
 1832WAT     H2 7599  10.171   5.337   2.151
 1833WAT      O 7600  10.367   6.882   2.231
 1833WAT     H1 7601  10.457   6.916   2.234
 1833WAT     H2 7602  10.370   6.810   2.169
 1834WAT      O 7603   9.731   6.419   2.054
 1834WAT     H1 7604   9.775   6.474   2.120
 1834WAT     H2 7605   9.780   6.337   2.055
 1835WAT      O 7606   9.453   6.698   2.799
 1835WAT     H1 7607   9.486   6.611   2.776
 1835WAT     H2 7608   9.496   6.719   2.883
 1836WAT      O 7609   9.912   6.531   2.565
 1836WAT     H1 7610   9.882   6.519   2.656
 1836WAT     H2 7611   9.902   6.445   2.525
 1837WAT      O 7612   9.502   6.785   3.073
 1837WAT     H1 7613   9.458   6.803   3.157
 1837WAT     H2 7614   9.558   6.861   3.059
 1838WAT      O 7615  11.065   6.735   3.502
 1838WAT     H1 7616  11.005   6.741   3.428
 1838WAT     H2 7617  11.078   6.641   3.515
 1839WAT      O 7618   9.485   6.036   2.709
 1839WAT     H1 7619   9.419   6.009   2.645
 1839WAT     H2 7620   9.569   6.025   2.664
 1840WAT      O 7621  10.934   6.408   3.312
 1840WAT     H1 7622  10.852   6.451   3.338
 1840WAT     H2 7623  10.975   6.469   3.251
 1841WAT      O 7624  10.780   5.516   2.131
 1841WAT     H1 7625  10.822   5.497   2.047
 1841WAT     H2 7626  10.749   5.430   2.162
 1842WAT      O 7627   9.589   6.075   3.163
 1842WAT     H1 7628   9.625   6.066   3.251
 1842WAT     H2 7629   9.532   5.998   3.153
 1843WAT      O 7630  11.069   5.921   3.465
 1843WAT     H1 7631  11.046   5.899   3.374
 1843WAT     H2 7632  11.095   6.013   3.460
 1844WAT      O 7633   9.544   5.766   3.554
 1844WAT     H1 7634   9.454   5.762   3.588
 1844WAT     H2 7635   9.598   5.786   3.630
 1845WAT      O 7636  10.913   5.444   3.742
 1845WAT     H1 7637  11.000   5.445   3.781
 1845WAT     H2 7638  10.914   5.370   3.681
 1846WAT      O 7639   9.406   5.757   2.303
 1846WAT     H1 7640   9.316   5.783   2.286
 1846WAT     H2 7641   9.455   5.784   2.225
 1847WAT      O 7642  11.057   5.829   2.831
 1847WAT     H1 7643  11.110   5.780   2.768
 1847WAT     H2 7644  11.116   5.843   2.906
 1848WAT      O 7645  11.075   5.838   3.183
 1848WAT     H1 7646  10.980   5.834   3.195
 1848WAT     H2 7647  11.093   5.929   3.160
 1849WAT      O 7648   9.661   5.663   2.094
 1849WAT     H1 7649   9.731   5.621   2.046
 1849WAT     H2 7650   9.589   5.670   2.031
 1850WAT      O 7651   9.625   5.268   1.998
 1850WAT     H1 7652   9.698   5.322   2.030
 1850WAT     H2 7653   9.653   5.241   1.911
 1851WAT      O 7654  11.006   5.755   2.425
 1851WAT     H1 7655  11.056   5.732   2.504
 1851WAT     H2 7656  10.986   5.671   2.383
 1852WAT      O 7657   9.594   5.193   2.989
 1852WAT     H1 7658   9.659   5.138   2.945
 1852WAT     H2 7659   9.636   5.219   3.071
 1853WAT      O 7660  10.984   5.213   3.324
 1853WAT     H1 7661  11.047   5.274   3.361
 1853WAT     H2 7662  10.998   5.216   3.230
 1854WAT      O 7663  10.940   6.883   2.665
 1854WAT     H1 7664  10.999   6.851   2.597
 1854WAT     H2 7665  10.965   6.835   2.744
 1855WAT      O 7666   9.570   5.209   3.263
 1855WAT     H1 7667   9.535   5.254   3.339
 1855WAT     H2 7668   9.536   5.119   3.271
 1856WAT      O 7669   9.730   6.526   3.679
 1856WAT     H1 7670   9.726   6.489   3.768
 1856WAT     H2 7671   9.743   6.620   3.693
 1857WAT      O 7672  10.100   6.682   3.240
 1857WAT     H1 7673  10.076   6.708   3.151
 1857WAT     H2 7674  10.194   6.699   3.245
 1858WAT      O 7675  10.321   5.328   3.615
 1858WAT     H1 7676  10.315   5.387   3.690
 1858WAT     H2 7677  10.415   5.317   3.601
 1859WAT      O 7678  10.585   5.294   3.579
 1859WAT     H1 7679  10.646   5.325   3.513
 1859WAT     H2 7680  10.639   5.245   3.641
 1860WAT      O 7681   9.637   5.162   3.590
 1860WAT     H1 7682   9.692   5.143   3.514
 1860WAT     H2 7683   9.643   5.082   3.644
 1861WAT      O 7684   9.714   6.821   3.391
 1861WAT     H1 7685   9.655   6.807   3.465
 1861WAT     H2 7686   9.713   6.737   3.345
 1862WAT      O 7687  10.659   5.150   3.212
 1862WAT     H1 7688  10.571   5.183   3.191
 1862WAT     H2 7689  10.648   5.103   3.294
 1863WAT      O 7690  10.749   5.371   3.350
 1863WAT     H1 7691  10.716   5.289   3.312
 1863WAT     H2 7692  10.844   5.366   3.338
 1864WAT      O 7693  10.995   6.948   3.047
 1864WAT     H1 7694  10.949   7.023   3.010
 1864WAT     H2 7695  10.932   6.876   3.042
 1865WAT      O 7696   9.677   6.557   3.286
 1865WAT     H1 7697   9.605   6.495   3.280
 1865WAT     H2 7698   9.683   6.597   3.199
 1866WAT      O 7699  10.038   6.779   2.965
 1866WAT     H1 7700  10.089   6.717   2.912
 1866WAT     H2 7701  10.103   6.829   3.014
 1867WAT      O 7702  10.312   6.868   3.048
 1867WAT     H1 7703  10.340   6.842   2.960
 1867WAT     H2 7704  10.363   6.812   3.107
 1868WAT      O 7705  10.433   5.242   3.106
 1868WAT     H1 7706  10.355   5.289   3.134
 1868WAT     H2 7707  10.404   5.151   3.095
 1869WAT      O 7708  10.889   5.312   2.910
 1869WAT     H1 7709  10.933   5.306   2.825
 1869WAT     H2 7710  10.862   5.403   2.917
 1870WAT      O 7711   9.505   6.889   2.607
 1870WAT     H1 7712   9.489   6.826   2.677
 1870WAT     H2 7713   9.419   6.910   2.572
 1871WAT      O 7714   9.568   5.272   2.358
 1871WAT     H1 7715   9.644   5.283   2.300
 1871WAT     H2 7716   9.522   5.356   2.353
 1872WAT      O 7717  10.222   5.483   2.657
 1872WAT     H1 7718  10.141   5.446   2.623
 1872WAT     H2 7719  10.272   5.408   2.687
 1873WAT      O 7720  10.672   5.150   2.781
 1873WAT     H1 7721  10.732   5.207   2.828
 1873WAT     H2 7722  10.598   5.206   2.758
 1874WAT      O 7723  10.986   5.190   2.308
 1874WAT     H1 7724  11.006   5.280   2.335
 1874WAT     H2 7725  10.908   5.167   2.357
 1875WAT      O 7726   9.666   6.758   2.352
 1875WAT     H1 7727   9.614   6.796   2.282
 1875WAT     H2 7728   9.659   6.821   2.424
 1876WAT      O 7729   9.805   5.325   2.212
 1876WAT     H1 7730   9.858   5.246   2.199
 1876WAT     H2 7731   9.868   5.393   2.235
 1877WAT      O 7732  10.024   5.298   2.517
 1877WAT     H1 7733   9.961   5.228   2.534
 1877WAT     H2 7734   9.970   5.375   2.496
 1878WAT      O 7735  10.318   6.960   3.784
 1878WAT     H1 7736  10.411   6.936   3.789
 1878WAT     H2 7737  10.317   7.043   3.736
 1879WAT      O 7738  10.037   5.226   3.761
 1879WAT     H1 7739  10.009   5.277   3.684
 1879WAT     H2 7740  10.075   5.147   3.724
 1880WAT      O 7741   9.926   6.953   2.239
 1880WAT     H1 7742   9.999   6.925   2.185
 1880WAT     H2 7743   9.952   6.929   2.328
 1881WAT      O 7744   9.842   6.565   2.240
 1881WAT     H1 7745   9.779   6.612   2.295
 1881WAT     H2 7746   9.854   6.480   2.283
 1882WAT      O 7747  10.697   5.168   3.819
 1882WAT     H1 7748  10.686   5.200   3.908
 1882WAT     H2 7749  10.779   5.208   3.789
 1883WAT      O 7750  10.975   6.883   3.767
 1883WAT     H1 7751  11.054   6.833   3.746
 1883WAT     H2 7752  11.004   6.950   3.827
 1884WAT      O 7753  10.588   5.970   0.855
 1884WAT     H1 7754  10.580   5.878   0.828
 1884WAT     H2 7755  10.546   6.019   0.784
 1885WAT      O 7756  10.401   6.148   1.043
 1885WAT     H1 7757  10.323   6.100   1.072
 1885WAT     H2 7758  10.466   6.080   1.026
 1886WAT      O 7759   9.803   6.179   1.131
 1886WAT     H1 7760   9.719   6.153   1.171
 1886WAT     H2 7761   9.863   6.186   1.204
 1887WAT      O 7762  10.803   6.588   0.921
 1887WAT     H1 7763  10.757   6.511   0.954
 1887WAT     H2 7764  10.884   6.591   0.972
 1888WAT      O 7765   9.801   6.582   1.150
 1888WAT     H1 7766   9.831   6.493   1.132
 1888WAT     H2 7767   9.875   6.638   1.128
 1889WAT      O 7768   9.643   5.675   0.509
 1889WAT     H1 7769   9.555   5.709   0.499
 1889WAT     H2 7770   9.672   5.655   0.420
 1890WAT      O 7771   9.440   5.935   1.098
 1890WAT     H1 7772   9.497   5.858   1.098
 1890WAT     H2 7773   9.440   5.965   1.007
 1891WAT      O 7774  10.426   6.817   0.883
 1891WAT     H1 7775  10.364   6.862   0.826
 1891WAT     H2 7776  10.511   6.832   0.843
 1892WAT      O 7777  10.345   6.415   1.044
 1892WAT     H1 7778  10.338   6.321   1.028
 1892WAT     H2 7779  10.421   6.424   1.101
 1893WAT      O 7780   9.564   5.476   1.276
 1893WAT     H1 7781   9.546   5.386   1.304
 1893WAT     H2 7782   9.524   5.530   1.344
 1894WAT      O 7783  10.448   5.696   1.066
 1894WAT     H1 7784  10.486   5.609   1.055
 1894WAT     H2 7785  10.438   5.729   0.977
 1895WAT      O 7786   9.861   5.533   0.613
 1895WAT     H1 7787   9.872   5.623   0.643
 1895WAT     H2 7788   9.770   5.528   0.584
 1896WAT      O 7789  10.826   5.445   0.760
 1896WAT     H1 7790  10.908   5.396   0.764
 1896WAT     H2 7791  10.830   5.504   0.835
 1897WAT      O 7792   9.626   5.725   1.137
 1897WAT     H1 7793   9.694   5.752   1.199
 1897WAT     H2 7794   9.594   5.641   1.170
 1898WAT      O 7795  10.045   5.830   1.046
 1898WAT     H1 7796  10.096   5.880   1.110
 1898WAT     H2 7797  10.098   5.752   1.028
 1899WAT      O 7798   9.873   5.294   1.472
 1899WAT     H1 7799   9.874   5.346   1.392
 1899WAT     H2 7800   9.791   5.246   1.470
 1900WAT      O 7801  10.512   6.305   0.622
 1900WAT     H1 7802  10.450   6.352   0.566
 1900WAT     H2 7803  10.563   6.374   0.664
 1901WAT      O 7804   9.999   6.258   1.290
 1901WAT     H1 7805   9.965   6.321   1.354
 1901WAT     H2 7806  10.016   6.311   1.212
 1902WAT      O 7807  10.850   5.639   1.037
 1902WAT     H1 7808  10.779   5.668   1.095
 1902WAT     H2 7809  10.886   5.720   1.001
 1903WAT      O 7810   9.842   5.465   1.273
 1903WAT     H1 7811   9.876   5.549   1.244
 1903WAT     H2 7812   9.748   5.480   1.285
 1904WAT      O 7813   9.920   6.455   1.472
 1904WAT     H1 7814   9.981   6.522   1.444
 1904WAT     H2 7815   9.834   6.496   1.463
 1905WAT      O 7816   9.449   6.374   0.360
 1905WAT     H1 7817   9.411   6.423   0.287
 1905WAT     H2 7818   9.475   6.441   0.423
 1906WAT      O 7819  11.011   6.601   1.263
 1906WAT     H1 7820  10.943   6.668   1.262
 1906WAT     H2 7821  11.065   6.621   1.187
 1907WAT      O 7822  10.210   5.214   0.906
 1907WAT     H1 7823  10.241   5.158   0.834
 1907WAT     H2 7824  10.117   5.227   0.887
 1908WAT      O 7825  10.765   6.786   1.135
 1908WAT     H1 7826  10.766   6.745   1.048
 1908WAT     H2 7827  10.710   6.863   1.124
 1909WAT      O 7828  10.895   6.458   0.644
 1909WAT     H1 7829  10.883   6.363   0.656
 1909WAT     H2 7830  10.894   6.494   0.732
 1910WAT      O 7831  10.705   6.276   1.267
 1910WAT     H1 7832  10.747   6.254   1.184
 1910WAT     H2 7833  10.777   6.302   1.325
 1911WAT      O 7834  10.449   6.020   0.579
 1911WAT     H1 7835  10.356   6.014   0.602
 1911WAT     H2 7836  10.464   6.114   0.568
 1912WAT      O 7837  10.447   5.648   0.279
 1912WAT     H1 7838  10.353   5.664   0.287
 1912WAT     H2 7839  10.479   5.719   0.224
 1913WAT      O 7840  10.852   6.177   0.630
 1913WAT     H1 7841  10.790   6.143   0.565
 1913WAT     H2 7842  10.850   6.112   0.700
 1914WAT      O 7843  10.796   5.794   1.371
 1914WAT     H1 7844  10.755   5.877   1.397
 1914WAT     H2 7845  10.723   5.736   1.352
 1915WAT      O 7846  10.009   6.073   0.857
 1915WAT     H1 7847   9.969   6.002   0.808
 1915WAT     H2 7848  10.018   6.039   0.946
 1916WAT      O 7849  10.056   6.442   1.074
 1916WAT     H1 7850  10.026   6.381   1.006
 1916WAT     H2 7851  10.151   6.445   1.063
 1917WAT      O 7852   9.881   5.750   1.235
 1917WAT     H1 7853   9.936   5.761   1.158
 1917WAT     H2 7854   9.932   5.788   1.307
 1918WAT      O 7855  10.865   6.799   1.440
 1918WAT     H1 7856  10.817   6.880   1.421
 1918WAT     H2 7857  10.797   6.734   1.455
 1919WAT      O 7858   9.965   6.415   1.739
 1919WAT     H1 7859   9.876   6.438   1.764
 1919WAT     H2 7860   9.968   6.428   1.644
 1920WAT      O 7861  10.669   6.100   0.330
 1920WAT     H1 7862  10.713   6.017   0.316
 1920WAT     H2 7863  10.741   6.164   0.339
 1921WAT      O 7864   9.848   6.103   1.596
 1921WAT     H1 7865   9.834   6.190   1.633
 1921WAT     H2 7866   9.760   6.068   1.582
 1922WAT      O 7867  10.480   6.594   0.727
 1922WAT     H1 7868  10.524   6.669   0.686
 1922WAT     H2 7869  10.474   6.619   0.819
 1923WAT      O 7870  10.028   6.697   1.817
 1923WAT     H1 7871  10.025   6.737   1.731
 1923WAT     H2 7872  10.011   6.604   1.801
 1924WAT      O 7873   9.679   5.962   0.607
 1924WAT     H1 7874   9.667   6.035   0.546
 1924WAT     H2 7875   9.648   5.885   0.560
 1925WAT      O 7876   9.443   6.280   1.188
 1925WAT     H1 7877   9.451   6.293   1.094
 1925WAT     H2 7878   9.505   6.209   1.207
 1926WAT      O 7879   9.568   6.450   0.829
 1926WAT     H1 7880   9.527   6.464   0.744
 1926WAT     H2 7881   9.657   6.421   0.809
 1927WAT      O 7882  10.549   6.865   1.520
 1927WAT     H1 7883  10.601   6.856   1.600
 1927WAT     H2 7884  10.465   6.899   1.549
 1928WAT      O 7885  10.747   6.893   0.463
 1928WAT     H1 7886  10.731   6.864   0.553
 1928WAT     H2 7887  10.730   6.815   0.409
 1929WAT      O 7888   9.995   6.871   0.640
 1929WAT     H1 7889   9.977   6.779   0.619
 1929WAT     H2 7890   9.909   6.907   0.664
 1930WAT      O 7891  10.717   6.644   0.319
 1930WAT     H1 7892  10.648   6.644   0.253
 1930WAT     H2 7893  10.791   6.602   0.276
 1931WAT      O 7894  10.674   6.807   0.726
 1931WAT     H1 7895  10.719   6.728   0.758
 1931WAT     H2 7896  10.708   6.878   0.781
 1932WAT      O 7897   9.449   6.384   1.442
 1932WAT     H1 7898   9.465   6.337   1.360
 1932WAT     H2 7899   9.495   6.333   1.509
 1933WAT      O 7900   9.926   5.297   0.946
 1933WAT     H1 7901   9.882   5.375   0.913
 1933WAT     H2 7902   9.982   5.329   1.016
 1934WAT      O 7903  10.355   5.583   1.506
 1934WAT     H1 7904  10.308   5.604   1.587
 1934WAT     H2 7905  10.314   5.502   1.476
 1935WAT      O 7906  10.855   5.706   1.619
 1935WAT     H1 7907  10.770   5.676   1.651
 1935WAT     H2 7908  10.839   5.730   1.528
 1936WAT      O 7909  10.564   5.856   1.829
 1936WAT     H1 7910  10.597   5.772   1.795
 1936WAT     H2 7911  10.643   5.908   1.844
 1937WAT      O 7912  10.238   5.259   0.434
 1937WAT     H1 7913  10.175   5.259   0.506
 1937WAT     H2 7914  10.229   5.172   0.394
 1938WAT      O 7915  10.130   5.351   1.132
 1938WAT     H1 7916  10.159   5.442   1.124
 1938WAT     H2 7917  10.185   5.302   1.070
 1939WAT      O 7918   9.905   5.809   0.719
 1939WAT     H1 7919   9.883   5.788   0.809
 1939WAT     H2 7920   9.827   5.852   0.684
 1940WAT      O 7921  10.628   5.810   0.578
 1940WAT     H1 7922  10.568   5.882   0.560
 1940WAT     H2 7923  10.683   5.804   0.500
 1941WAT      O 7924  10.149   5.899   1.785
 1941WAT     H1 7925  10.140   5.805   1.770
 1941WAT     H2 7926  10.233   5.921   1.746
 1942WAT      O 7927  10.489   5.673   0.781
 1942WAT     H1 7928  10.528   5.705   0.700
 1942WAT     H2 7929  10.525   5.586   0.793
 1943WAT      O 7930   9.662   5.540   1.600
 1943WAT     H1 7931   9.623   5.625   1.621
 1943WAT     H2 7932   9.593   5.476   1.620
 1944WAT      O 7933  10.320   5.548   1.907
 1944WAT     H1 7934  10.251   5.529   1.971
 1944WAT     H2 7935  10.394   5.577   1.961
 1945WAT      O 7936   9.392   5.332   1.004
 1945WAT     H1 7937   9.364   5.389   1.075
 1945WAT     H2 7938   9.467   5.284   1.040
 1946WAT      O 7939  10.547   5.932   1.191
 1946WAT     H1 7940  10.474   5.983   1.226
 1946WAT     H2 7941  10.508   5.851   1.161
 1947WAT      O 7942  10.191   5.600   1.031
 1947WAT     H1 7943  10.191   5.556   0.947
 1947WAT     H2 7944  10.281   5.632   1.042
 1948WAT      O 7945   9.776   5.588   0.927
 1948WAT     H1 7946   9.742   5.636   1.003
 1948WAT     H2 7947   9.700   5.543   0.891
 1949WAT      O 7948  10.197   5.700   0.331
 1949WAT     H1 7949  10.209   5.696   0.425
 1949WAT     H2 7950  10.159   5.786   0.315
 1950WAT      O 7951  10.594   5.478   1.132
 1950WAT     H1 7952  10.595   5.523   1.217
 1950WAT     H2 7953  10.569   5.388   1.154
 1951WAT      O 7954  10.098   5.931   0.270
 1951WAT     H1 7955  10.042   5.886   0.208
 1951WAT     H2 7956  10.169   5.967   0.217
 1952WAT      O 7957  10.936   5.219   1.716
 1952WAT     H1 7958  10.969   5.146   1.769
 1952WAT     H2 7959  10.940   5.187   1.626
 1953WAT      O 7960   9.606   6.321   1.658
 1953WAT     H1 7961   9.568   6.257   1.718
 1953WAT     H2 7962   9.637   6.392   1.715
 1954WAT      O 7963  10.221   6.006   1.206
 1954WAT     H1 7964  10.258   5.959   1.281
 1954WAT     H2 7965  10.202   6.093   1.240
 1955WAT      O 7966   9.508   5.480   0.819
 1955WAT     H1 7967   9.479   5.444   0.903
 1955WAT     H2 7968   9.501   5.407   0.758
 1956WAT      O 7969  10.000   5.910   1.438
 1956WAT     H1 7970   9.970   5.998   1.460
 1956WAT     H2 7971  10.096   5.916   1.442
 1957WAT      O 7972   9.853   6.331   0.498
 1957WAT     H1 7973   9.776   6.277   0.482
 1957WAT     H2 7974   9.926   6.279   0.464
 1958WAT      O 7975  10.929   6.230   1.077
 1958WAT     H1 7976  11.001   6.280   1.038
 1958WAT     H2 7977  10.909   6.163   1.012
 1959WAT      O 7978  10.475   5.370   0.491
 1959WAT     H1 7979  10.394   5.320   0.484
 1959WAT     H2 7980  10.456   5.454   0.450
 1960WAT      O 7981  10.467   6.237   1.666
 1960WAT     H1 7982  10.460   6.145   1.640
 1960WAT     H2 7983  10.404   6.247   1.737
 1961WAT      O 7984  10.746   5.807   0.321
 1961WAT     H1 7985  10.835   5.838   0.303
 1961WAT     H2 7986  10.743   5.720   0.282
 1962WAT      O 7987   9.857   6.298   0.861
 1962WAT     H1 7988   9.909   6.217   0.856
 1962WAT     H2 7989   9.812   6.291   0.946
 1963WAT      O 7990  10.346   6.424   0.389
 1963WAT     H1 7991  10.380   6.499   0.339
 1963WAT     H2 7992  10.263   6.455   0.425
 1964WAT      O 7993   9.606   5.994   1.553
 1964WAT     H1 7994   9.570   6.061   1.611
 1964WAT     H2 7995   9.576   5.911   1.590
 1965WAT      O 7996   9.926   6.040   1.841
 1965WAT     H1 7997   9.896   6.055   1.751
 1965WAT     H2 7998  10.003   5.984   1.832
 1966WAT      O 7999  10.460   6.520   1.641
 1966WAT     H1 8000  10.462   6.426   1.619
 1966WAT     H2 8001  10.389   6.528   1.705
 1967WAT      O 8002  10.974   5.938   0.268
 1967WAT     H1 8003  10.965   5.981   0.183
 1967WAT     H2 8004  11.045   5.984   0.311
 1968WAT      O 8005  11.076   6.623   0.540
 1968WAT     H1 8006  11.012   6.558   0.568
 1968WAT     H2 8007  11.038   6.664   0.463
 1969WAT      O 8008  10.634   6.356   0.925
 1969WAT     H1 8009  10.670   6.297   0.859
 1969WAT     H2 8010  10.546   6.324   0.942
 1970WAT      O 8011  10.243   6.432   0.666
 1970WAT     H1 8012  10.312   6.487   0.704
 1970WAT     H2 8013  10.164   6.487   0.669
 1971WAT      O 8014   9.457   5.994   0.215
 1971WAT     H1 8015   9.544   6.022   0.243
 1971WAT     H2 8016   9.408   6.075   0.204
 1972WAT      O 8017  10.173   6.133   0.627
 1972WAT     H1 8018  10.219   6.214   0.650
 1972WAT     H2 8019  10.138   6.101   0.710
 1973WAT      O 8020  10.404   6.684   1.350
 1973WAT     H1 8021  10.468   6.704   1.418
 1973WAT     H2 8022  10.440   6.608   1.305
 1974WAT      O 8023   9.763   5.167   0.674
 1974WAT     H1 8024   9.750   5.166   0.769
 1974WAT     H2 8025   9.681   5.201   0.639
 1975WAT      O 8026  10.531   6.484   1.222
 1975WAT     H1 8027  10.595   6.414   1.233
 1975WAT     H2 8028  10.583   6.562   1.204
 1976WAT      O 8029  10.708   6.564   1.542
 1976WAT     H1 8030  10.742   6.623   1.610
 1976WAT     H2 8031  10.616   6.551   1.565
 1977WAT      O 8032   9.494   6.915   0.272
 1977WAT     H1 8033   9.530   6.975   0.206
 1977WAT     H2 8034   9.479   6.970   0.349
 1978WAT      O 8035   9.463   5.343   1.620
 1978WAT     H1 8036   9.392   5.363   1.681
 1978WAT     H2 8037   9.505   5.265   1.658
 1979WAT      O 8038  10.874   6.304   0.360
 1979WAT     H1 8039  10.845   6.350   0.439
 1979WAT     H2 8040  10.953   6.258   0.387
 1980WAT      O 8041   9.492   6.742   1.719
 1980WAT     H1 8042   9.503   6.648   1.705
 1980WAT     H2 8043   9.427   6.768   1.654
 1981WAT      O 8044  10.291   6.569   1.859
 1981WAT     H1 8045  10.259   6.497   1.914
 1981WAT     H2 8046  10.224   6.637   1.866
 1982WAT      O 8047  10.095   6.654   0.353
 1982WAT     H1 8048  10.094   6.727   0.292
 1982WAT     H2 8049  10.003   6.629   0.363
 1983WAT      O 8050   9.655   6.176   0.428
 1983WAT     H1 8051   9.595   6.250   0.429
 1983WAT     H2 8052   9.703   6.185   0.345
 1984WAT      O 8053  10.613   5.592   1.395
 1984WAT     H1 8054  10.649   5.510   1.428
 1984WAT     H2 8055  10.527   5.598   1.437
 1985WAT      O 8056  10.949   5.488   0.476
 1985WAT     H1 8057  10.886   5.498   0.405
 1985WAT     H2 8058  10.900   5.510   0.555
 1986WAT      O 8059  10.146   5.716   0.618
 1986WAT     H1 8060  10.075   5.763   0.662
 1986WAT     H2 8061  10.175   5.650   0.681
 1987WAT      O 8062  10.309   5.858   1.418
 1987WAT     H1 8063  10.359   5.905   1.484
 1987WAT     H2 8064  10.323   5.765   1.439
 1988WAT      O 8065  10.549   5.388   0.762
 1988WAT     H1 8066  10.537   5.390   0.667
 1988WAT     H2 8067  10.644   5.393   0.774
 1989WAT      O 8068  10.258   6.912   0.689
 1989WAT     H1 8069  10.283   6.908   0.597
 1989WAT     H2 8070  10.163   6.899   0.688
 1990WAT      O 8071   9.966   5.547   0.355
 1990WAT     H1 8072  10.051   5.590   0.349
 1990WAT     H2 8073   9.930   5.578   0.438
 1991WAT      O 8074  11.029   5.479   1.502
 1991WAT     H1 8075  10.979   5.553   1.536
 1991WAT     H2 8076  11.111   5.518   1.470
 1992WAT      O 8077  10.859   6.004   0.847
 1992WAT     H1 8078  10.764   6.005   0.864
 1992WAT     H2 8079  10.890   5.925   0.891
 1993WAT      O 8080   9.726   5.915   0.271
 1993WAT     H1 8081   9.734   5.820   0.282
 1993WAT     H2 8082   9.815   5.948   0.282
 1994WAT      O 8083   9.806   6.930   0.981
 1994WAT     H1 8084   9.880   6.875   1.009
 1994WAT     H2 8085   9.844   7.017   0.967
 1995WAT      O 8086   9.494   6.537   0.569
 1995WAT     H1 8087   9.402   6.561   0.568
 1995WAT     H2 8088   9.541   6.620   0.557
 1996WAT      O 8089   9.707   6.849   1.900
 1996WAT     H1 8090   9.787   6.881   1.942
 1996WAT     H2 8091   9.655   6.813   1.972
 1997WAT      O 8092  10.590   6.459   1.895
 1997WAT     H1 8093  10.530   6.462   1.821
 1997WAT     H2 8094  10.560   6.386   1.949
 1998WAT      O 8095  10.733   6.832   1.756
 1998WAT     H1 8096  10.828   6.824   1.751
 1998WAT     H2 8097  10.718   6.899   1.823
 1999WAT      O 8098  11.022   6.770   0.306
 1999WAT     H1 8099  10.994   6.729   0.225
 1999WAT     H2 8100  11.003   6.863   0.294
 2000WAT      O 8101   9.479   6.097   1.795
 2000WAT     H1 8102   9.529   6.039   1.852
 2000WAT     H2 8103   9.405   6.126   1.848
 2001WAT      O 8104  10.184   6.238   1.748
 2001WAT     H1 8105  10.107   6.295   1.740
 2001WAT     H2 8106  10.202   6.209   1.659
 2002WAT      O 8107  10.493   6.276   0.211
 2002WAT     H1 8108  10.438   6.320   0.275
 2002WAT     H2 8109  10.555   6.225   0.263
 2003WAT      O 8110  10.898   6.411   1.804
 2003WAT     H1 8111  10.972   6.445   1.753
 2003WAT     H2 8112  10.822   6.428   1.748
 2004WAT      O 8113   9.682   5.912   1.884
 2004WAT     H1 8114   9.686   5.882   1.975
 2004WAT     H2 8115   9.767   5.952   1.868
 2005WAT      O 8116  10.060   6.172   0.400
 2005WAT     H1 8117  10.102   6.155   0.484
 2005WAT     H2 8118  10.072   6.091   0.351
 2006WAT      O 8119   9.876   5.770   1.681
 2006WAT     H1 8120   9.823   5.720   1.618
 2006WAT     H2 8121   9.943   5.812   1.627
 2007WAT      O 8122  10.766   6.216   1.657
 2007WAT     H1 8123  10.807   6.232   1.742
 2007WAT     H2 8124  10.672   6.229   1.674
 2008WAT      O 8125  10.813   5.950   1.858
 2008WAT     H1 8126  10.871   5.875   1.849
 2008WAT     H2 8127  10.830   6.003   1.780
 2009WAT      O 8128   9.925   5.466   1.689
 2009WAT     H1 8129   9.915   5.404   1.616
 2009WAT     H2 8130   9.867   5.539   1.666
 2010WAT      O 8131  10.201   5.322   1.392
 2010WAT     H1 8132  10.156   5.324   1.308
 2010WAT     H2 8133  10.138   5.282   1.452
 2011WAT      O 8134  10.242   6.211   1.454
 2011WAT     H1 8135  10.284   6.296   1.437
 2011WAT     H2 8136  10.150   6.225   1.431
 2012WAT      O 8137  10.475   5.985   1.593
 2012WAT     H1 8138  10.487   5.925   1.667
 2012WAT     H2 8139  10.561   5.988   1.551
 2013WAT      O 8140  10.709   6.040   1.450
 2013WAT     H1 8141  10.657   6.092   1.390
 2013WAT     H2 8142  10.744   6.103   1.513
 2014WAT      O 8143  10.027   6.842   1.566
 2014WAT     H1 8144   9.973   6.914   1.534
 2014WAT     H2 8145  10.052   6.794   1.487
 2015WAT      O 8146  10.152   5.639   1.718
 2015WAT     H1 8147  10.211   5.608   1.787
 2015WAT     H2 8148  10.070   5.592   1.734
 2016WAT      O 8149  10.634   5.600   1.742
 2016WAT     H1 8150  10.565   5.534   1.735
 2016WAT     H2 8151  10.706   5.556   1.786
 2017WAT      O 8152  10.697   5.260   0.348
 2017WAT     H1 8153  10.725   5.176   0.383
 2017WAT     H2 8154  10.620   5.283   0.399
 2018WAT      O 8155  10.312   6.965   1.592
 2018WAT     H1 8156  10.305   7.056   1.622
 2018WAT     H2 8157  10.222   6.934   1.589
 2019WAT      O 8158  10.367   6.882   0.354
 2019WAT     H1 8159  10.457   6.916   0.356
 2019WAT     H2 8160  10.370   6.810   0.291
 2020WAT      O 8161   9.731   6.419   0.177
 2020WAT     H1 8162   9.775   6.474   0.242
 2020WAT     H2 8163   9.780   6.337   0.178
 2021WAT      O 8164   9.453   6.698   0.922
 2021WAT     H1 8165   9.486   6.611   0.899
 2021WAT     H2 8166   9.496   6.719   1.005
 2022WAT      O 8167   9.912   6.531   0.688
 2022WAT     H1 8168   9.882   6.519   0.778
 2022WAT     H2 8169   9.902   6.445   0.647
 2023WAT      O 8170   9.502   6.785   1.196
 2023WAT     H1 8171   9.458   6.803   1.279
 2023WAT     H2 8172   9.558   6.861   1.182
 2024WAT      O 8173  11.065   6.735   1.625
 2024WAT     H1 8174  11.005   6.741   1.550
 2024WAT     H2 8175  11.078   6.641   1.638
 2025WAT      O 8176   9.485   6.036   0.832
 2025WAT     H1 8177   9.419   6.009   0.767
 2025WAT     H2 8178   9.569   6.025   0.787
 2026WAT      O 8179  10.934   6.408   1.434
 2026WAT     H1 8180  10.852   6.451   1.461
 2026WAT     H2 8181  10.975   6.469   1.373
 2027WAT      O 8182  10.780   5.516   0.254
 2027WAT     H1 8183  10.822   5.497   0.170
 2027WAT     H2 8184  10.749   5.430   0.285
 2028WAT      O 8185   9.589   6.075   1.286
 2028WAT     H1 8186   9.625   6.066   1.374
 2028WAT     H2 8187   9.532   5.998   1.276
 2029WAT      O 8188  11.069   5.921   1.587
 2029WAT     H1 8189  11.046   5.899   1.497
 2029WAT     H2 8190  11.095   6.013   1.583
 2030WAT      O 8191   9.544   5.766   1.676
 2030WAT     H1 8192   9.454   5.762   1.710
 2030WAT     H2 8193   9.598   5.786   1.753
 2031WAT      O 8194  10.913   5.444   1.865
 2031WAT     H1 8195  11.000   5.445   1.903
 2031WAT     H2 8196  10.914   5.370   1.804
 2032WAT      O 8197   9.406   5.757   0.426
 2032WAT     H1 8198   9.316   5.783   0.409
 2032WAT     H2 8199   9.455   5.784   0.348
 2033WAT      O 8200  11.057   5.829   0.954
 2033WAT     H1 8201  11.110   5.780   0.891
 2033WAT     H2 8202  11.116   5.843   1.028
 2034WAT      O 8203  11.075   5.838   1.306
 2034WAT     H1 8204  10.980   5.834   1.317
 2034WAT     H2 8205  11.093   5.929   1.282
 2035WAT      O 8206  11.006   5.755   0.548
 2035WAT     H1 8207  11.056   5.732   0.626
 2035WAT     H2 8208  10.986   5.671   0.506
 2036WAT      O 8209   9.594   5.193   1.111
 2036WAT     H1 8210   9.659   5.138   1.067
 2036WAT     H2 8211   9.636   5.219   1.193
 2037WAT      O 8212  10.984   5.213   1.447
 2037WAT     H1 8213  11.047   5.274   1.483
 2037WAT     H2 8214  10.998   5.216   1.352
 2038WAT      O 8215  10.940   6.883   0.787
 2038WAT     H1 8216  10.999   6.851   0.719
 2038WAT     H2 8217  10.965   6.835   0.866
 2039WAT      O 8218   9.570   5.209   1.385
 2039WAT     H1 8219   9.535   5.254   1.462
 2039WAT     H2 8220   9.536   5.119   1.394
 2040WAT      O 8221   9.730   6.526   1.802
 2040WAT     H1 8222   9.726   6.489   1.890
 2040WAT     H2 8223   9.743   6.620   1.816
 2041WAT      O 8224  10.100   6.682   1.362
 2041WAT     H1 8225  10.076   6.708   1.273
 2041WAT     H2 8226  10.194   6.699   1.368
 2042WAT      O 8227  10.321   5.328   1.738
 2042WAT     H1 8228  10.315   5.387   1.813
 2042WAT     H2 8229  10.415   5.317   1.723
 2043WAT      O 8230  10.585   5.294   1.702
 2043WAT     H1 8231  10.646   5.325   1.635
 2043WAT     H2 8232  10.639   5.245   1.764
 2044WAT      O 8233   9.637   5.162   1.713
 2044WAT     H1 8234   9.692   5.143   1.637
 2044WAT     H2 8235   9.643   5.082   1.767
 2045WAT      O 8236   9.714   6.821   1.514
 2045WAT     H1 8237   9.655   6.807   1.588
 2045WAT     H2 8238   9.713   6.737   1.467
 2046WAT      O 8239  10.659   5.150   1.334
 2046WAT     H1 8240  10.571   5.183   1.314
 2046WAT     H2 8241  10.648   5.103   1.417
 2047WAT      O 8242  10.749   5.371   1.473
 2047WAT     H1 8243  10.716   5.289   1.435
 2047WAT     H2 8244  10.844   5.366   1.460
 2048WAT      O 8245  10.995   6.948   1.170
 2048WAT     H1 8246  10.949   7.023   1.133
 2048WAT     H2 8247  10.932   6.876   1.164
 2049WAT      O 8248   9.677   6.557   1.409
 2049WAT     H1 8249   9.605   6.495   1.402
 2049WAT     H2 8250   9.683   6.597   1.322
 2050WAT      O 8251  10.038   6.779   1.088
 2050WAT     H1 8252  10.089   6.717   1.035
 2050WAT     H2 8253  10.103   6.829   1.137
 2051WAT      O 8254  10.312   6.868   1.170
 2051WAT     H1 8255  10.340   6.842   1.083
 2051WAT     H2 8256  10.363   6.812   1.229
 2052WAT      O 8257  10.433   5.242   1.228
 2052WAT     H1 8258  10.355   5.289   1.256
 2052WAT     H2 8259  10.404   5.151   1.217
 2053WAT      O 8260  10.889   5.312   1.033
 2053WAT     H1 8261  10.933   5.306   0.948
 2053WAT     H2 8262  10.862   5.403   1.040
 2054WAT      O 8263   9.505   6.889   0.730
 2054WAT     H1 8264   9.489   6.826   0.800
 2054WAT     H2 8265   9.419   6.910   0.695
 2055WAT      O 8266   9.568   5.272   0.480
 2055WAT     H1 8267   9.644   5.283   0.423
 2055WAT     H2 8268   9.522   5.356   0.476
 2056WAT      O 8269  10.222   5.483   0.779
 2056WAT     H1 8270  10.141   5.446   0.745
 2056WAT     H2 8271  10.272   5.408   0.810
 2057WAT      O 8272  10.672   5.150   0.903
 2057WAT     H1 8273  10.732   5.207   0.951
 2057WAT     H2 8274  10.598   5.206   0.881
 2058WAT      O 8275  10.986   5.190   0.431
 2058WAT     H1 8276  11.006   5.280   0.457
 2058WAT     H2 8277  10.908   5.167   0.480
 2059WAT      O 8278   9.666   6.758   0.474
 2059WAT     H1 8279   9.614   6.796   0.404
 2059WAT     H2 8280   9.659   6.821   0.547
 2060WAT      O 8281   9.805   5.325   0.334
 2060WAT     H1 8282   9.858   5.246   0.321
 2060WAT     H2 8283   9.868   5.393   0.358
 2061WAT      O 8284  10.024   5.298   0.640
 2061WAT     H1 8285   9.961   5.228   0.656
 2061WAT     H2 8286   9.970   5.375   0.618
 2062WAT      O 8287  10.318   6.960   1.907
 2062WAT     H1 8288  10.411   6.936   1.911
 2062WAT     H2 8289  10.317   7.043   1.859
 2063WAT      O 8290  10.037   5.226   1.883
 2063WAT     H1 8291  10.009   5.277   1.807
 2063WAT     H2 8292  10.075   5.147   1.847
 2064WAT      O 8293   9.926   6.953   0.362
 2064WAT     H1 8294   9.999   6.925   0.307
 2064WAT     H2 8295   9.952   6.929   0.451
 2065WAT      O 8296   9.842   6.565   0.362
 2065WAT     H1 8297   9.779   6.612   0.417
 2065WAT     H2 8298   9.854   6.480   0.406
 2066WAT      O 8299  10.697   5.168   1.941
 2066WAT     H1 8300  10.686   5.200   2.031
 2066WAT     H2 8301  10.779   5.208   1.911
 2067WAT      O 8302  10.975   6.883   1.889
 2067WAT     H1 8303  11.054   6.833   1.869
 2067WAT     H2 8304  11.004   6.950   1.950
 2068WAT      O 8305  10.588   4.092   6.487
 2068WAT     H1 8306  10.580   4.001   6.460
 2068WAT     H2 8307  10.546   4.142   6.417
 2069WAT      O 8308  10.401   4.270   6.675
 2069WAT     H1 8309  10.323   4.222   6.704
 2069WAT     H2 8310  10.466   4.202   6.658
 2070WAT      O 8311   9.803   4.301   6.763
 2070WAT     H1 8312   9.719   4.276   6.803
 2070WAT     H2 8313   9.863   4.308   6.837
 2071WAT      O 8314  10.803   4.711   6.553
 2071WAT     H1 8315  10.757   4.634   6.586
 2071WAT     H2 8316  10.884   4.713   6.604
 2072WAT      O 8317   9.801   4.705   6.783
 2072WAT     H1 8318   9.831   4.616   6.765
 2072WAT     H2 8319   9.875   4.760   6.760
 2073WAT      O 8320   9.643   3.797   6.141
 2073WAT     H1 8321   9.555   3.832   6.131
 2073WAT     H2 8322   9.672   3.777   6.052
 2074WAT      O 8323   9.440   4.057   6.730
 2074WAT     H1 8324   9.497   3.981   6.730
 2074WAT     H2 8325   9.440   4.087   6.639
 2075WAT      O 8326  10.426   4.939   6.515
 2075WAT     H1 8327  10.364   4.985   6.458
 2075WAT     H2 8328  10.511   4.955   6.475
 2076WAT      O 8329  10.345   4.538   6.676
 2076WAT     H1 8330  10.338   4.444   6.660
 2076WAT     H2 8331  10.421   4.547   6.733
 2077WAT      O 8332   9.564   3.598   6.909
 2077WAT     H1 8333   9.546   3.508   6.937
 2077WAT     H2 8334   9.524   3.653   6.976
 2078WAT      O 8335  10.448   3.818   6.699
 2078WAT     H1 8336  10.486   3.731   6.687
 2078WAT     H2 8337  10.438   3.852   6.610
 2079WAT      O 8338   9.861   3.656   6.245
 2079WAT     H1 8339   9.872   3.746   6.276
 2079WAT     H2 8340   9.770   3.651   6.216
 2080WAT      O 8341  10.826   3.568   6.392
 2080WAT     H1 8342  10.908   3.519   6.396
 2080WAT     H2 8343  10.830   3.627   6.467
 2081WAT      O 8344   9.626   3.848   6.769
 2081WAT     H1 8345   9.694   3.874   6.831
 2081WAT     H2 8346   9.594   3.764   6.803
 2082WAT      O 8347  10.045   3.953   6.678
 2082WAT     H1 8348  10.096   4.002   6.742
 2082WAT     H2 8349  10.098   3.875   6.661
 2083WAT      O 8350   9.873   3.417   7.105
 2083WAT     H1 8351   9.874   3.468   7.024
 2083WAT     H2 8352   9.791   3.369   7.102
 2084WAT      O 8353  10.512   4.428   6.255
 2084WAT     H1 8354  10.450   4.474   6.198
 2084WAT     H2 8355  10.563   4.497   6.296
 2085WAT      O 8356   9.999   4.380   6.922
 2085WAT     H1 8357   9.965   4.443   6.987
 2085WAT     H2 8358  10.016   4.433   6.845
 2086WAT      O 8359  10.850   3.762   6.669
 2086WAT     H1 8360  10.779   3.791   6.727
 2086WAT     H2 8361  10.886   3.843   6.633
 2087WAT      O 8362   9.842   3.588   6.905
 2087WAT     H1 8363   9.876   3.672   6.876
 2087WAT     H2 8364   9.748   3.602   6.917
 2088WAT      O 8365   9.920   4.577   7.104
 2088WAT     H1 8366   9.981   4.645   7.076
 2088WAT     H2 8367   9.834   4.618   7.095
 2089WAT      O 8368   9.449   4.496   5.992
 2089WAT     H1 8369   9.411   4.545   5.919
 2089WAT     H2 8370   9.475   4.564   6.055
 2090WAT      O 8371  11.011   4.724   6.896
 2090WAT     H1 8372  10.943   4.791   6.895
 2090WAT     H2 8373  11.065   4.743   6.819
 2091WAT      O 8374  10.210   3.336   6.538
 2091WAT     H1 8375  10.241   3.281   6.466
 2091WAT     H2 8376  10.117   3.350   6.520
 2092WAT      O 8377  10.765   4.908   6.767
 2092WAT     H1 8378  10.766   4.868   6.680
 2092WAT     H2 8379  10.710   4.986   6.757
 2093WAT      O 8380  10.895   4.580   6.276
 2093WAT     H1 8381  10.883   4.486   6.288
 2093WAT     H2 8382  10.894   4.616   6.365
 2094WAT      O 8383  10.705   4.398   6.900
 2094WAT     H1 8384  10.747   4.377   6.816
 2094WAT     H2 8385  10.777   4.424   6.957
 2095WAT      O 8386  10.449   4.143   6.212
 2095WAT     H1 8387  10.356   4.136   6.234
 2095WAT     H2 8388  10.464   4.237   6.200
 2096WAT      O 8389  10.447   3.770   5.911
 2096WAT     H1 8390  10.353   3.786   5.920
 2096WAT     H2 8391  10.479   3.842   5.857
 2097WAT      O 8392  10.852   4.299   6.262
 2097WAT     H1 8393  10.790   4.265   6.197
 2097WAT     H2 8394  10.850   4.235   6.333
 2098WAT      O 8395  10.796   3.917   7.004
 2098WAT     H1 8396  10.755   4.000   7.029
 2098WAT     H2 8397  10.723   3.858   6.984
 2099WAT      O 8398  10.009   4.196   6.490
 2099WAT     H1 8399   9.969   4.124   6.440
 2099WAT     H2 8400  10.018   4.161   6.579
 2100WAT      O 8401  10.056   4.564   6.706
 2100WAT     H1 8402  10.026   4.504   6.638
 2100WAT     H2 8403  10.151   4.568   6.695
 2101WAT      O 8404   9.881   3.873   6.868
 2101WAT     H1 8405   9.936   3.884   6.790
 2101WAT     H2 8406   9.932   3.910   6.939
 2102WAT      O 8407  10.865   4.922   7.072
 2102WAT     H1 8408  10.817   5.002   7.053
 2102WAT     H2 8409  10.797   4.856   7.088
 2103WAT      O 8410   9.965   4.538   7.371
 2103WAT     H1 8411   9.876   4.560   7.396
 2103WAT     H2 8412   9.968   4.550   7.276
 2104WAT      O 8413  10.669   4.223   5.963
 2104WAT     H1 8414  10.713   4.139   5.948
 2104WAT     H2 8415  10.741   4.286   5.971
 2105WAT      O 8416   9.848   4.225   7.229
 2105WAT     H1 8417   9.834   4.312   7.266
 2105WAT     H2 8418   9.760   4.191   7.214
 2106WAT      O 8419  10.480   4.717   6.359
 2106WAT     H1 8420  10.524   4.791   6.318
 2106WAT     H2 8421  10.474   4.741   6.452
 2107WAT      O 8422  10.028   4.819   7.450
 2107WAT     H1 8423  10.025   4.860   7.363
 2107WAT     H2 8424  10.011   4.727   7.433
 2108WAT      O 8425  11.028   3.348   5.794
 2108WAT     H1 8426  10.996   3.358   5.884
 2108WAT     H2 8427  11.104   3.406   5.789
 2109WAT      O 8428   9.679   4.085   6.240
 2109WAT     H1 8429   9.667   4.158   6.179
 2109WAT     H2 8430   9.648   4.008   6.192
 2110WAT      O 8431   9.443   4.402   6.820
 2110WAT     H1 8432   9.451   4.416   6.726
 2110WAT     H2 8433   9.505   4.331   6.840
 2111WAT      O 8434   9.568   4.572   6.462
 2111WAT     H1 8435   9.527   4.586   6.376
 2111WAT     H2 8436   9.657   4.544   6.441
 2112WAT      O 8437  10.549   4.987   7.152
 2112WAT     H1 8438  10.601   4.978   7.232
 2112WAT     H2 8439  10.465   5.022   7.181
 2113WAT      O 8440  10.747   5.016   6.095
 2113WAT     H1 8441  10.731   4.987   6.185
 2113WAT     H2 8442  10.730   4.938   6.041
 2114WAT      O 8443   9.995   4.994   6.273
 2114WAT     H1 8444   9.977   4.902   6.251
 2114WAT     H2 8445   9.909   5.029   6.297
 2115WAT      O 8446  10.717   4.767   5.951
 2115WAT     H1 8447  10.648   4.766   5.885
 2115WAT     H2 8448  10.791   4.724   5.908
 2116WAT      O 8449  10.674   4.929   6.358
 2116WAT     H1 8450  10.719   4.851   6.390
 2116WAT     H2 8451  10.708   5.000   6.413
 2117WAT      O 8452   9.449   4.506   7.074
 2117WAT     H1 8453   9.465   4.459   6.993
 2117WAT     H2 8454   9.495   4.456   7.141
 2118WAT      O 8455   9.926   3.419   6.578
 2118WAT     H1 8456   9.882   3.497   6.545
 2118WAT     H2 8457   9.982   3.452   6.649
 2119WAT      O 8458  10.355   3.706   7.138
 2119WAT     H1 8459  10.308   3.727   7.220
 2119WAT     H2 8460  10.314   3.625   7.108
 2120WAT      O 8461  10.855   3.828   7.251
 2120WAT     H1 8462  10.770   3.798   7.283
 2120WAT     H2 8463  10.839   3.853   7.160
 2121WAT      O 8464  10.564   3.978   7.461
 2121WAT     H1 8465  10.597   3.895   7.427
 2121WAT     H2 8466  10.643   4.030   7.476
 2122WAT      O 8467  10.238   3.381   6.066
 2122WAT     H1 8468  10.175   3.381   6.139
 2122WAT     H2 8469  10.229   3.295   6.026
 2123WAT      O 8470  10.130   3.474   6.764
 2123WAT     H1 8471  10.159   3.564   6.756
 2123WAT     H2 8472  10.185   3.425   6.702
 2124WAT      O 8473   9.905   3.932   6.351
 2124WAT     H1 8474   9.883   3.910   6.441
 2124WAT     H2 8475   9.827   3.975   6.316
 2125WAT      O 8476  10.628   3.932   6.211
 2125WAT     H1 8477  10.568   4.005   6.192
 2125WAT     H2 8478  10.683   3.926   6.132
 2126WAT      O 8479  10.149   4.022   7.417
 2126WAT     H1 8480  10.140   3.928   7.402
 2126WAT     H2 8481  10.233   4.044   7.378
 2127WAT      O 8482  10.489   3.796   6.414
 2127WAT     H1 8483  10.528   3.828   6.332
 2127WAT     H2 8484  10.525   3.708   6.425
 2128WAT      O 8485   9.662   3.663   7.233
 2128WAT     H1 8486   9.623   3.747   7.253
 2128WAT     H2 8487   9.593   3.599   7.252
 2129WAT      O 8488   9.392   3.455   6.636
 2129WAT     H1 8489   9.364   3.512   6.707
 2129WAT     H2 8490   9.467   3.407   6.672
 2130WAT      O 8491   9.411   3.849   5.757
 2130WAT     H1 8492   9.403   3.943   5.771
 2130WAT     H2 8493   9.376   3.835   5.669
 2131WAT      O 8494  10.547   4.055   6.823
 2131WAT     H1 8495  10.474   4.106   6.858
 2131WAT     H2 8496  10.508   3.973   6.793
 2132WAT      O 8497  10.191   3.723   6.664
 2132WAT     H1 8498  10.191   3.678   6.579
 2132WAT     H2 8499  10.281   3.755   6.675
 2133WAT      O 8500   9.776   3.711   6.560
 2133WAT     H1 8501   9.742   3.759   6.635
 2133WAT     H2 8502   9.700   3.665   6.524
 2134WAT      O 8503  10.197   3.823   5.963
 2134WAT     H1 8504  10.209   3.819   6.058
 2134WAT     H2 8505  10.159   3.909   5.947
 2135WAT      O 8506  10.594   3.600   6.764
 2135WAT     H1 8507  10.595   3.645   6.849
 2135WAT     H2 8508  10.569   3.510   6.786
 2136WAT      O 8509  10.098   4.054   5.903
 2136WAT     H1 8510  10.042   4.009   5.840
 2136WAT     H2 8511  10.169   4.090   5.849
 2137WAT      O 8512  10.936   3.342   7.348
 2137WAT     H1 8513  10.969   3.269   7.401
 2137WAT     H2 8514  10.940   3.310   7.258
 2138WAT      O 8515   9.606   4.444   7.290
 2138WAT     H1 8516   9.568   4.380   7.350
 2138WAT     H2 8517   9.637   4.514   7.347
 2139WAT      O 8518  10.221   4.129   6.838
 2139WAT     H1 8519  10.258   4.081   6.913
 2139WAT     H2 8520  10.202   4.216   6.873
 2140WAT      O 8521   9.508   3.603   6.451
 2140WAT     H1 8522   9.479   3.567   6.535
 2140WAT     H2 8523   9.501   3.530   6.390
 2141WAT      O 8524  10.000   4.033   7.070
 2141WAT     H1 8525   9.970   4.121   7.093
 2141WAT     H2 8526  10.096   4.039   7.074
 2142WAT      O 8527   9.853   4.453   6.130
 2142WAT     H1 8528   9.776   4.399   6.114
 2142WAT     H2 8529   9.926   4.401   6.096
 2143WAT      O 8530  10.929   4.353   6.709
 2143WAT     H1 8531  11.001   4.402   6.670
 2143WAT     H2 8532  10.909   4.285   6.645
 2144WAT      O 8533  10.475   3.492   6.124
 2144WAT     H1 8534  10.394   3.442   6.116
 2144WAT     H2 8535  10.456   3.576   6.082
 2145WAT      O 8536  10.467   4.360   7.298
 2145WAT     H1 8537  10.460   4.268   7.272
 2145WAT     H2 8538  10.404   4.370   7.369
 2146WAT      O 8539  10.746   3.930   5.953
 2146WAT     H1 8540  10.835   3.961   5.936
 2146WAT     H2 8541  10.743   3.842   5.914
 2147WAT      O 8542   9.857   4.420   6.494
 2147WAT     H1 8543   9.909   4.340   6.488
 2147WAT     H2 8544   9.812   4.414   6.578
 2148WAT      O 8545  10.346   4.547   6.021
 2148WAT     H1 8546  10.380   4.621   5.971
 2148WAT     H2 8547  10.263   4.578   6.057
 2149WAT      O 8548   9.606   4.117   7.185
 2149WAT     H1 8549   9.570   4.183   7.244
 2149WAT     H2 8550   9.576   4.034   7.222
 2150WAT      O 8551   9.926   4.163   7.473
 2150WAT     H1 8552   9.896   4.177   7.384
 2150WAT     H2 8553  10.003   4.107   7.464
 2151WAT      O 8554  10.460   4.642   7.273
 2151WAT     H1 8555  10.462   4.549   7.251
 2151WAT     H2 8556  10.389   4.651   7.337
 2152WAT      O 8557  10.974   4.061   5.900
 2152WAT     H1 8558  10.965   4.104   5.815
 2152WAT     H2 8559  11.045   4.107   5.943
 2153WAT      O 8560  11.076   4.746   6.173
 2153WAT     H1 8561  11.012   4.681   6.200
 2153WAT     H2 8562  11.038   4.787   6.095
 2154WAT      O 8563  10.634   4.479   6.557
 2154WAT     H1 8564  10.670   4.419   6.491
 2154WAT     H2 8565  10.546   4.446   6.575
 2155WAT      O 8566  10.243   4.555   6.298
 2155WAT     H1 8567  10.312   4.610   6.336
 2155WAT     H2 8568  10.164   4.609   6.302
 2156WAT      O 8569   9.457   4.117   5.847
 2156WAT     H1 8570   9.544   4.145   5.876
 2156WAT     H2 8571   9.408   4.198   5.836
 2157WAT      O 8572  10.173   4.255   6.259
 2157WAT     H1 8573  10.219   4.336   6.282
 2157WAT     H2 8574  10.138   4.224   6.343
 2158WAT      O 8575  10.404   4.806   6.982
 2158WAT     H1 8576  10.468   4.827   7.050
 2158WAT     H2 8577  10.440   4.730   6.937
 2159WAT      O 8578   9.763   3.290   6.307
 2159WAT     H1 8579   9.750   3.289   6.402
 2159WAT     H2 8580   9.681   3.324   6.272
 2160WAT      O 8581  10.531   4.607   6.854
 2160WAT     H1 8582  10.595   4.537   6.865
 2160WAT     H2 8583  10.583   4.685   6.836
 2161WAT      O 8584  10.915   4.635   5.827
 2161WAT     H1 8585  10.893   4.564   5.886
 2161WAT     H2 8586  10.876   4.610   5.743
 2162WAT      O 8587  10.708   4.687   7.174
 2162WAT     H1 8588  10.742   4.745   7.242
 2162WAT     H2 8589  10.616   4.674   7.197
 2163WAT      O 8590   9.494   5.038   5.904
 2163WAT     H1 8591   9.530   5.098   5.839
 2163WAT     H2 8592   9.479   5.092   5.981
 2164WAT      O 8593   9.463   3.466   7.253
 2164WAT     H1 8594   9.392   3.486   7.313
 2164WAT     H2 8595   9.505   3.388   7.290
 2165WAT      O 8596  10.874   4.427   5.993
 2165WAT     H1 8597  10.845   4.473   6.071
 2165WAT     H2 8598  10.953   4.381   6.019
 2166WAT      O 8599   9.492   4.864   7.351
 2166WAT     H1 8600   9.503   4.770   7.337
 2166WAT     H2 8601   9.427   4.891   7.287
 2167WAT      O 8602  10.095   4.776   5.986
 2167WAT     H1 8603  10.094   4.849   5.924
 2167WAT     H2 8604  10.003   4.752   5.995
 2168WAT      O 8605   9.655   4.298   6.060
 2168WAT     H1 8606   9.595   4.372   6.061
 2168WAT     H2 8607   9.703   4.307   5.978
 2169WAT      O 8608  10.613   3.715   7.028
 2169WAT     H1 8609  10.649   3.633   7.061
 2169WAT     H2 8610  10.527   3.721   7.069
 2170WAT      O 8611  10.949   3.610   6.109
 2170WAT     H1 8612  10.886   3.621   6.037
 2170WAT     H2 8613  10.900   3.632   6.188
 2171WAT      O 8614  10.394   4.782   5.852
 2171WAT     H1 8615  10.404   4.762   5.759
 2171WAT     H2 8616  10.304   4.757   5.872
 2172WAT      O 8617  10.146   3.838   6.250
 2172WAT     H1 8618  10.075   3.885   6.294
 2172WAT     H2 8619  10.175   3.773   6.314
 2173WAT      O 8620  10.309   3.980   7.050
 2173WAT     H1 8621  10.359   4.028   7.117
 2173WAT     H2 8622  10.323   3.888   7.071
 2174WAT      O 8623  10.549   3.511   6.394
 2174WAT     H1 8624  10.537   3.513   6.299
 2174WAT     H2 8625  10.644   3.516   6.406
 2175WAT      O 8626  10.258   5.034   6.321
 2175WAT     H1 8627  10.283   5.031   6.229
 2175WAT     H2 8628  10.163   5.022   6.321
 2176WAT      O 8629   9.966   3.669   5.988
 2176WAT     H1 8630  10.051   3.713   5.981
 2176WAT     H2 8631   9.930   3.700   6.070
 2177WAT      O 8632  11.029   3.602   7.134
 2177WAT     H1 8633  10.979   3.676   7.168
 2177WAT     H2 8634  11.111   3.641   7.103
 2178WAT      O 8635  10.859   4.126   6.479
 2178WAT     H1 8636  10.764   4.128   6.496
 2178WAT     H2 8637  10.890   4.048   6.524
 2179WAT      O 8638   9.856   4.294   5.835
 2179WAT     H1 8639   9.933   4.283   5.891
 2179WAT     H2 8640   9.864   4.225   5.770
 2180WAT      O 8641   9.726   4.038   5.903
 2180WAT     H1 8642   9.734   3.943   5.915
 2180WAT     H2 8643   9.815   4.071   5.914
 2181WAT      O 8644   9.806   5.053   6.614
 2181WAT     H1 8645   9.880   4.998   6.641
 2181WAT     H2 8646   9.844   5.139   6.600
 2182WAT      O 8647   9.494   4.659   6.201
 2182WAT     H1 8648   9.402   4.684   6.200
 2182WAT     H2 8649   9.541   4.742   6.189
 2183WAT      O 8650  10.117   4.970   5.796
 2183WAT     H1 8651  10.196   4.999   5.751
 2183WAT     H2 8652  10.065   4.927   5.728
 2184WAT      O 8653  10.733   4.955   7.388
 2184WAT     H1 8654  10.828   4.946   7.383
 2184WAT     H2 8655  10.718   5.021   7.456
 2185WAT      O 8656  11.022   4.893   5.938
 2185WAT     H1 8657  10.994   4.851   5.857
 2185WAT     H2 8658  11.003   4.986   5.926
 2186WAT      O 8659   9.479   4.220   7.427
 2186WAT     H1 8660   9.529   4.162   7.484
 2186WAT     H2 8661   9.405   4.248   7.481
 2187WAT      O 8662  10.169   4.492   5.782
 2187WAT     H1 8663  10.158   4.431   5.855
 2187WAT     H2 8664  10.152   4.440   5.704
 2188WAT      O 8665  10.184   4.361   7.380
 2188WAT     H1 8666  10.107   4.417   7.372
 2188WAT     H2 8667  10.202   4.331   7.291
 2189WAT      O 8668  10.493   4.398   5.843
 2189WAT     H1 8669  10.438   4.443   5.907
 2189WAT     H2 8670  10.555   4.348   5.895
 2190WAT      O 8671  10.898   4.534   7.436
 2190WAT     H1 8672  10.972   4.567   7.386
 2190WAT     H2 8673  10.822   4.551   7.381
 2191WAT      O 8674  10.060   4.294   6.032
 2191WAT     H1 8675  10.102   4.278   6.117
 2191WAT     H2 8676  10.072   4.213   5.983
 2192WAT      O 8677   9.876   3.892   7.313
 2192WAT     H1 8678   9.823   3.843   7.250
 2192WAT     H2 8679   9.943   3.935   7.260
 2193WAT      O 8680  10.311   4.196   5.757
 2193WAT     H1 8681  10.363   4.125   5.721
 2193WAT     H2 8682  10.376   4.260   5.787
 2194WAT      O 8683  10.766   4.339   7.290
 2194WAT     H1 8684  10.807   4.354   7.375
 2194WAT     H2 8685  10.672   4.351   7.306
 2195WAT      O 8686  10.813   4.073   7.490
 2195WAT     H1 8687  10.871   3.997   7.481
 2195WAT     H2 8688  10.830   4.126   7.412
 2196WAT      O 8689   9.925   3.589   7.321
 2196WAT     H1 8690   9.915   3.527   7.249
 2196WAT     H2 8691   9.867   3.661   7.298
 2197WAT      O 8692  10.201   3.444   7.024
 2197WAT     H1 8693  10.156   3.447   6.940
 2197WAT     H2 8694  10.138   3.405   7.084
 2198WAT      O 8695  10.242   4.334   7.087
 2198WAT     H1 8696  10.284   4.418   7.069
 2198WAT     H2 8697  10.150   4.348   7.064
 2199WAT      O 8698  10.475   4.107   7.225
 2199WAT     H1 8699  10.487   4.048   7.299
 2199WAT     H2 8700  10.561   4.111   7.183
 2200WAT      O 8701  10.709   4.163   7.083
 2200WAT     H1 8702  10.657   4.215   7.022
 2200WAT     H2 8703  10.744   4.226   7.146
 2201WAT      O 8704   9.949   3.901   5.727
 2201WAT     H1 8705   9.929   3.815   5.763
 2201WAT     H2 8706   9.932   3.893   5.633
 2202WAT      O 8707  10.027   4.965   7.198
 2202WAT     H1 8708   9.973   5.037   7.166
 2202WAT     H2 8709  10.052   4.917   7.119
 2203WAT      O 8710  10.152   3.761   7.351
 2203WAT     H1 8711  10.211   3.731   7.419
 2203WAT     H2 8712  10.070   3.714   7.366
 2204WAT      O 8713  10.634   3.723   7.374
 2204WAT     H1 8714  10.565   3.657   7.368
 2204WAT     H2 8715  10.706   3.678   7.419
 2205WAT      O 8716  10.697   3.383   5.980
 2205WAT     H1 8717  10.725   3.298   6.016
 2205WAT     H2 8718  10.620   3.406   6.031
 2206WAT      O 8719   9.829   3.611   5.726
 2206WAT     H1 8720   9.859   3.612   5.635
 2206WAT     H2 8721   9.903   3.576   5.776
 2207WAT      O 8722  10.312   5.088   7.224
 2207WAT     H1 8723  10.305   5.178   7.255
 2207WAT     H2 8724  10.222   5.056   7.221
 2208WAT      O 8725  10.151   3.506   5.824
 2208WAT     H1 8726  10.116   3.438   5.766
 2208WAT     H2 8727  10.171   3.460   5.906
 2209WAT      O 8728  10.367   5.005   5.986
 2209WAT     H1 8729  10.457   5.038   5.988
 2209WAT     H2 8730  10.370   4.932   5.924
 2210WAT      O 8731   9.731   4.542   5.809
 2210WAT     H1 8732   9.775   4.596   5.875
 2210WAT     H2 8733   9.780   4.459   5.810
 2211WAT      O 8734   9.453   4.821   6.554
 2211WAT     H1 8735   9.486   4.734   6.531
 2211WAT     H2 8736   9.496   4.841   6.637
 2212WAT      O 8737   9.912   4.654   6.320
 2212WAT     H1 8738   9.882   4.642   6.410
 2212WAT     H2 8739   9.902   4.568   6.280
 2213WAT      O 8740   9.502   4.907   6.828
 2213WAT     H1 8741   9.458   4.925   6.911
 2213WAT     H2 8742   9.558   4.983   6.814
 2214WAT      O 8743  11.065   4.858   7.257
 2214WAT     H1 8744  11.005   4.864   7.183
 2214WAT     H2 8745  11.078   4.764   7.270
 2215WAT      O 8746   9.485   4.159   6.464
 2215WAT     H1 8747   9.419   4.132   6.400
 2215WAT     H2 8748   9.569   4.148   6.419
 2216WAT      O 8749  10.934   4.530   7.067
 2216WAT     H1 8750  10.852   4.573   7.093
 2216WAT     H2 8751  10.975   4.591   7.005
 2217WAT      O 8752  10.780   3.638   5.886
 2217WAT     H1 8753  10.822   3.619   5.802
 2217WAT     H2 8754  10.749   3.553   5.917
 2218WAT      O 8755   9.589   4.197   6.918
 2218WAT     H1 8756   9.625   4.188   7.006
 2218WAT     H2 8757   9.532   4.121   6.908
 2219WAT      O 8758  11.069   4.044   7.219
 2219WAT     H1 8759  11.046   4.021   7.129
 2219WAT     H2 8760  11.095   4.136   7.215
 2220WAT      O 8761   9.544   3.888   7.309
 2220WAT     H1 8762   9.454   3.885   7.343
 2220WAT     H2 8763   9.598   3.908   7.385
 2221WAT      O 8764   9.406   3.880   6.058
 2221WAT     H1 8765   9.316   3.906   6.041
 2221WAT     H2 8766   9.455   3.907   5.980
 2222WAT      O 8767  11.057   3.952   6.586
 2222WAT     H1 8768  11.110   3.903   6.523
 2222WAT     H2 8769  11.116   3.965   6.661
 2223WAT      O 8770  11.075   3.960   6.938
 2223WAT     H1 8771  10.980   3.957   6.950
 2223WAT     H2 8772  11.093   4.051   6.915
 2224WAT      O 8773   9.661   3.785   5.849
 2224WAT     H1 8774   9.731   3.743   5.801
 2224WAT     H2 8775   9.589   3.792   5.786
 2225WAT      O 8776   9.625   3.391   5.753
 2225WAT     H1 8777   9.698   3.445   5.785
 2225WAT     H2 8778   9.653   3.363   5.666
 2226WAT      O 8779  11.006   3.878   6.180
 2226WAT     H1 8780  11.056   3.854   6.258
 2226WAT     H2 8781  10.986   3.794   6.138
 2227WAT      O 8782   9.594   3.316   6.743
 2227WAT     H1 8783   9.659   3.261   6.699
 2227WAT     H2 8784   9.636   3.341   6.826
 2228WAT      O 8785  10.984   3.335   7.079
 2228WAT     H1 8786  11.047   3.397   7.116
 2228WAT     H2 8787  10.998   3.339   6.985
 2229WAT      O 8788  10.940   5.005   6.419
 2229WAT     H1 8789  10.999   4.973   6.352
 2229WAT     H2 8790  10.965   4.958   6.499
 2230WAT      O 8791   9.570   3.331   7.018
 2230WAT     H1 8792   9.535   3.377   7.094
 2230WAT     H2 8793   9.536   3.242   7.026
 2231WAT      O 8794  10.100   4.804   6.994
 2231WAT     H1 8795  10.076   4.831   6.906
 2231WAT     H2 8796  10.194   4.821   7.000
 2232WAT      O 8797  10.321   3.450   7.370
 2232WAT     H1 8798  10.315   3.510   7.445
 2232WAT     H2 8799  10.415   3.440   7.355
 2233WAT      O 8800  10.585   3.416   7.334
 2233WAT     H1 8801  10.646   3.448   7.268
 2233WAT     H2 8802  10.639   3.368   7.396
 2234WAT      O 8803   9.637   3.284   7.345
 2234WAT     H1 8804   9.692   3.266   7.269
 2234WAT     H2 8805   9.643   3.205   7.399
 2235WAT      O 8806   9.714   4.943   7.146
 2235WAT     H1 8807   9.655   4.930   7.220
 2235WAT     H2 8808   9.713   4.860   7.100
 2236WAT      O 8809  10.659   3.272   6.967
 2236WAT     H1 8810  10.571   3.306   6.946
 2236WAT     H2 8811  10.648   3.225   7.049
 2237WAT      O 8812  10.749   3.493   7.105
 2237WAT     H1 8813  10.716   3.412   7.067
 2237WAT     H2 8814  10.844   3.489   7.093
 2238WAT      O 8815  10.995   5.070   6.802
 2238WAT     H1 8816  10.949   5.145   6.765
 2238WAT     H2 8817  10.932   4.998   6.796
 2239WAT      O 8818   9.677   4.680   7.041
 2239WAT     H1 8819   9.605   4.618   7.035
 2239WAT     H2 8820   9.683   4.719   6.954
 2240WAT      O 8821  10.038   4.901   6.720
 2240WAT     H1 8822  10.089   4.840   6.667
 2240WAT     H2 8823  10.103   4.951   6.769
 2241WAT      O 8824  10.312   4.990   6.803
 2241WAT     H1 8825  10.340   4.965   6.715
 2241WAT     H2 8826  10.363   4.935   6.862
 2242WAT      O 8827  10.433   3.364   6.860
 2242WAT     H1 8828  10.355   3.412   6.888
 2242WAT     H2 8829  10.404   3.274   6.850
 2243WAT      O 8830  10.889   3.434   6.665
 2243WAT     H1 8831  10.933   3.429   6.580
 2243WAT     H2 8832  10.862   3.526   6.672
 2244WAT      O 8833   9.505   5.011   6.362
 2244WAT     H1 8834   9.489   4.948   6.432
 2244WAT     H2 8835   9.419   5.032   6.327
 2245WAT      O 8836   9.568   3.395   6.113
 2245WAT     H1 8837   9.644   3.406   6.055
 2245WAT     H2 8838   9.522   3.478   6.108
 2246WAT      O 8839  10.222   3.606   6.412
 2246WAT     H1 8840  10.141   3.569   6.378
 2246WAT     H2 8841  10.272   3.530   6.442
 2247WAT      O 8842  10.672   3.272   6.535
 2247WAT     H1 8843  10.732   3.330   6.583
 2247WAT     H2 8844  10.598   3.329   6.513
 2248WAT      O 8845  10.986   3.313   6.063
 2248WAT     H1 8846  11.006   3.403   6.090
 2248WAT     H2 8847  10.908   3.290   6.112
 2249WAT      O 8848   9.666   4.881   6.107
 2249WAT     H1 8849   9.614   4.919   6.036
 2249WAT     H2 8850   9.659   4.943   6.179
 2250WAT      O 8851   9.805   3.447   5.967
 2250WAT     H1 8852   9.858   3.369   5.954
 2250WAT     H2 8853   9.868   3.515   5.990
 2251WAT      O 8854  10.024   3.421   6.272
 2251WAT     H1 8855   9.961   3.351   6.289
 2251WAT     H2 8856   9.970   3.497   6.250
 2252WAT      O 8857   9.926   5.076   5.994
 2252WAT     H1 8858   9.999   5.047   5.940
 2252WAT     H2 8859   9.952   5.052   6.083
 2253WAT      O 8860   9.842   4.687   5.995
 2253WAT     H1 8861   9.779   4.734   6.050
 2253WAT     H2 8862   9.854   4.603   6.038
 2254WAT      O 8863  10.588   4.092   4.610
 2254WAT     H1 8864  10.580   4.001   4.583
 2254WAT     H2 8865  10.546   4.142   4.539
 2255WAT      O 8866  10.401   4.270   4.798
 2255WAT     H1 8867  10.323   4.222   4.827
 2255WAT     H2 8868  10.466   4.202   4.780
 2256WAT      O 8869   9.803   4.301   4.886
 2256WAT     H1 8870   9.719   4.276   4.926
 2256WAT     H2 8871   9.863   4.308   4.959
 2257WAT      O 8872  10.803   4.711   4.676
 2257WAT     H1 8873  10.757   4.634   4.709
 2257WAT     H2 8874  10.884   4.713   4.726
 2258WAT      O 8875   9.801   4.705   4.905
 2258WAT     H1 8876   9.831   4.616   4.887
 2258WAT     H2 8877   9.875   4.760   4.882
 2259WAT      O 8878   9.643   3.797   4.264
 2259WAT     H1 8879   9.555   3.832   4.254
 2259WAT     H2 8880   9.672   3.777   4.175
 2260WAT      O 8881   9.440   4.057   4.852
 2260WAT     H1 8882   9.497   3.981   4.852
 2260WAT     H2 8883   9.440   4.087   4.762
 2261WAT      O 8884  10.426   4.939   4.638
 2261WAT     H1 8885  10.364   4.985   4.581
 2261WAT     H2 8886  10.511   4.955   4.598
 2262WAT      O 8887  10.345   4.538   4.799
 2262WAT     H1 8888  10.338   4.444   4.782
 2262WAT     H2 8889  10.421   4.547   4.856
 2263WAT      O 8890   9.564   3.598   5.031
 2263WAT     H1 8891   9.546   3.508   5.059
 2263WAT     H2 8892   9.524   3.653   5.099
 2264WAT      O 8893  10.448   3.818   4.821
 2264WAT     H1 8894  10.486   3.731   4.810
 2264WAT     H2 8895  10.438   3.852   4.732
 2265WAT      O 8896   9.861   3.656   4.367
 2265WAT     H1 8897   9.872   3.746   4.398
 2265WAT     H2 8898   9.770   3.651   4.338
 2266WAT      O 8899  10.826   3.568   4.515
 2266WAT     H1 8900  10.908   3.519   4.519
 2266WAT     H2 8901  10.830   3.627   4.590
 2267WAT      O 8902   9.626   3.848   4.892
 2267WAT     H1 8903   9.694   3.874   4.954
 2267WAT     H2 8904   9.594   3.764   4.925
 2268WAT      O 8905  10.045   3.953   4.801
 2268WAT     H1 8906  10.096   4.002   4.865
 2268WAT     H2 8907  10.098   3.875   4.783
 2269WAT      O 8908   9.873   3.417   5.227
 2269WAT     H1 8909   9.874   3.468   5.147
 2269WAT     H2 8910   9.791   3.369   5.225
 2270WAT      O 8911  10.512   4.428   4.377
 2270WAT     H1 8912  10.450   4.474   4.321
 2270WAT     H2 8913  10.563   4.497   4.419
 2271WAT      O 8914   9.999   4.380   5.045
 2271WAT     H1 8915   9.965   4.443   5.109
 2271WAT     H2 8916  10.016   4.433   4.967
 2272WAT      O 8917  10.850   3.762   4.792
 2272WAT     H1 8918  10.779   3.791   4.850
 2272WAT     H2 8919  10.886   3.843   4.756
 2273WAT      O 8920   9.842   3.588   5.028
 2273WAT     H1 8921   9.876   3.672   4.999
 2273WAT     H2 8922   9.748   3.602   5.040
 2274WAT      O 8923   9.920   4.577   5.227
 2274WAT     H1 8924   9.981   4.645   5.198
 2274WAT     H2 8925   9.834   4.618   5.217
 2275WAT      O 8926   9.449   4.496   4.115
 2275WAT     H1 8927   9.411   4.545   4.041
 2275WAT     H2 8928   9.475   4.564   4.178
 2276WAT      O 8929  11.011   4.724   5.018
 2276WAT     H1 8930  10.943   4.791   5.017
 2276WAT     H2 8931  11.065   4.743   4.942
 2277WAT      O 8932  10.210   3.336   4.660
 2277WAT     H1 8933  10.241   3.281   4.589
 2277WAT     H2 8934  10.117   3.350   4.642
 2278WAT      O 8935  10.765   4.908   4.890
 2278WAT     H1 8936  10.766   4.868   4.803
 2278WAT     H2 8937  10.710   4.986   4.879
 2279WAT      O 8938  10.895   4.580   4.398
 2279WAT     H1 8939  10.883   4.486   4.411
 2279WAT     H2 8940  10.894   4.616   4.487
 2280WAT      O 8941  10.705   4.398   5.022
 2280WAT     H1 8942  10.747   4.377   4.939
 2280WAT     H2 8943  10.777   4.424   5.079
 2281WAT      O 8944  10.449   4.143   4.334
 2281WAT     H1 8945  10.356   4.136   4.357
 2281WAT     H2 8946  10.464   4.237   4.323
 2282WAT      O 8947  10.447   3.770   4.034
 2282WAT     H1 8948  10.353   3.786   4.042
 2282WAT     H2 8949  10.479   3.842   3.979
 2283WAT      O 8950  10.852   4.299   4.384
 2283WAT     H1 8951  10.790   4.265   4.320
 2283WAT     H2 8952  10.850   4.235   4.455
 2284WAT      O 8953  10.796   3.917   5.126
 2284WAT     H1 8954  10.755   4.000   5.151
 2284WAT     H2 8955  10.723   3.858   5.107
 2285WAT      O 8956  10.009   4.196   4.612
 2285WAT     H1 8957   9.969   4.124   4.563
 2285WAT     H2 8958  10.018   4.161   4.701
 2286WAT      O 8959  10.056   4.564   4.829
 2286WAT     H1 8960  10.026   4.504   4.761
 2286WAT     H2 8961  10.151   4.568   4.818
 2287WAT      O 8962   9.881   3.873   4.990
 2287WAT     H1 8963   9.936   3.884   4.913
 2287WAT     H2 8964   9.932   3.910   5.062
 2288WAT      O 8965  10.865   4.922   5.195
 2288WAT     H1 8966  10.817   5.002   5.176
 2288WAT     H2 8967  10.797   4.856   5.210
 2289WAT      O 8968   9.965   4.538   5.494
 2289WAT     H1 8969   9.876   4.560   5.518
 2289WAT     H2 8970   9.968   4.550   5.399
 2290WAT      O 8971  10.669   4.223   4.085
 2290WAT     H1 8972  10.713   4.139   4.071
 2290WAT     H2 8973  10.741   4.286   4.094
 2291WAT      O 8974   9.848   4.225   5.351
 2291WAT     H1 8975   9.834   4.312   5.388
 2291WAT     H2 8976   9.760   4.191   5.337
 2292WAT      O 8977  10.480   4.717   4.482
 2292WAT     H1 8978  10.524   4.791   4.441
 2292WAT     H2 8979  10.474   4.741   4.574
 2293WAT      O 8980  10.028   4.819   5.572
 2293WAT     H1 8981  10.025   4.860   5.485
 2293WAT     H2 8982  10.011   4.727   5.556
 2294WAT      O 8983  11.028   3.348   3.917
 2294WAT     H1 8984  10.996   3.358   4.007
 2294WAT     H2 8985  11.104   3.406   3.912
 2295WAT      O 8986   9.679   4.085   4.362
 2295WAT     H1 8987   9.667   4.158   4.301
 2295WAT     H2 8988   9.648   4.008   4.315
 2296WAT      O 8989   9.443   4.402   4.943
 2296WAT     H1 8990   9.451   4.416   4.849
 2296WAT     H2 8991   9.505   4.331   4.962
 2297WAT      O 8992   9.568   4.572   4.584
 2297WAT     H1 8993   9.527   4.586   4.499
 2297WAT     H2 8994   9.657   4.544   4.564
 2298WAT      O 8995  10.549   4.987   5.275
 2298WAT     H1 8996  10.601   4.978   5.355
 2298WAT     H2 8997  10.465   5.022   5.304
 2299WAT      O 8998  10.747   5.016   4.218
 2299WAT     H1 8999  10.731   4.987   4.307
 2299WAT     H2 9000  10.730   4.938   4.164
 2300WAT      O 9001   9.995   4.994   4.395
 2300WAT     H1 9002   9.977   4.902   4.374
 2300WAT     H2 9003   9.909   5.029   4.419
 2301WAT      O 9004  10.717   4.767   4.074
 2301WAT     H1 9005  10.648   4.766   4.008
 2301WAT     H2 9006  10.791   4.724   4.031
 2302WAT      O 9007  10.674   4.929   4.481
 2302WAT     H1 9008  10.719   4.851   4.512
 2302WAT     H2 9009  10.708   5.000   4.535
 2303WAT      O 9010   9.449   4.506   5.197
 2303WAT     H1 9011   9.465   4.459   5.115
 2303WAT     H2 9012   9.495   4.456   5.263
 2304WAT      O 9013   9.926   3.419   4.701
 2304WAT     H1 9014   9.882   3.497   4.667
 2304WAT     H2 9015   9.982   3.452   4.771
 2305WAT      O 9016  10.355   3.706   5.261
 2305WAT     H1 9017  10.308   3.727   5.342
 2305WAT     H2 9018  10.314   3.625   5.231
 2306WAT      O 9019  10.855   3.828   5.374
 2306WAT     H1 9020  10.770   3.798   5.406
 2306WAT     H2 9021  10.839   3.853   5.283
 2307WAT      O 9022  10.564   3.978   5.584
 2307WAT     H1 9023  10.597   3.895   5.550
 2307WAT     H2 9024  10.643   4.030   5.599
 2308WAT      O 9025  10.238   3.381   4.189
 2308WAT     H1 9026  10.175   3.381   4.261
 2308WAT     H2 9027  10.229   3.295   4.149
 2309WAT      O 9028  10.130   3.474   4.886
 2309WAT     H1 9029  10.159   3.564   4.878
 2309WAT     H2 9030  10.185   3.425   4.825
 2310WAT      O 9031   9.905   3.932   4.473
 2310WAT     H1 9032   9.883   3.910   4.564
 2310WAT     H2 9033   9.827   3.975   4.439
 2311WAT      O 9034  10.628   3.932   4.333
 2311WAT     H1 9035  10.568   4.005   4.315
 2311WAT     H2 9036  10.683   3.926   4.255
 2312WAT      O 9037  10.149   4.022   5.540
 2312WAT     H1 9038  10.140   3.928   5.525
 2312WAT     H2 9039  10.233   4.044   5.500
 2313WAT      O 9040  10.489   3.796   4.536
 2313WAT     H1 9041  10.528   3.828   4.455
 2313WAT     H2 9042  10.525   3.708   4.548
 2314WAT      O 9043   9.662   3.663   5.355
 2314WAT     H1 9044   9.623   3.747   5.376
 2314WAT     H2 9045   9.593   3.599   5.374
 2315WAT      O 9046  10.320   3.671   5.662
 2315WAT     H1 9047  10.251   3.652   5.726
 2315WAT     H2 9048  10.394   3.699   5.716
 2316WAT      O 9049   9.392   3.455   4.759
 2316WAT     H1 9050   9.364   3.512   4.830
 2316WAT     H2 9051   9.467   3.407   4.795
 2317WAT      O 9052   9.411   3.849   3.880
 2317WAT     H1 9053   9.403   3.943   3.894
 2317WAT     H2 9054   9.376   3.835   3.792
 2318WAT      O 9055  10.547   4.055   4.946
 2318WAT     H1 9056  10.474   4.106   4.981
 2318WAT     H2 9057  10.508   3.973   4.916
 2319WAT      O 9058  10.191   3.723   4.786
 2319WAT     H1 9059  10.191   3.678   4.701
 2319WAT     H2 9060  10.281   3.755   4.797
 2320WAT      O 9061   9.776   3.711   4.682
 2320WAT     H1 9062   9.742   3.759   4.758
 2320WAT     H2 9063   9.700   3.665   4.646
 2321WAT      O 9064  10.197   3.823   4.085
 2321WAT     H1 9065  10.209   3.819   4.180
 2321WAT     H2 9066  10.159   3.909   4.070
 2322WAT      O 9067  10.594   3.600   4.887
 2322WAT     H1 9068  10.595   3.645   4.971
 2322WAT     H2 9069  10.569   3.510   4.908
 2323WAT      O 9070  10.098   4.054   4.025
 2323WAT     H1 9071  10.042   4.009   3.963
 2323WAT     H2 9072  10.169   4.090   3.972
 2324WAT      O 9073  10.936   3.342   5.471
 2324WAT     H1 9074  10.969   3.269   5.524
 2324WAT     H2 9075  10.940   3.310   5.381
 2325WAT      O 9076   9.606   4.444   5.413
 2325WAT     H1 9077   9.568   4.380   5.473
 2325WAT     H2 9078   9.637   4.514   5.470
 2326WAT      O 9079  10.221   4.129   4.961
 2326WAT     H1 9080  10.258   4.081   5.036
 2326WAT     H2 9081  10.202   4.216   4.995
 2327WAT      O 9082   9.508   3.603   4.574
 2327WAT     H1 9083   9.479   3.567   4.658
 2327WAT     H2 9084   9.501   3.530   4.513
 2328WAT      O 9085  10.000   4.033   5.193
 2328WAT     H1 9086   9.970   4.121   5.215
 2328WAT     H2 9087  10.096   4.039   5.196
 2329WAT      O 9088   9.853   4.453   4.253
 2329WAT     H1 9089   9.776   4.399   4.237
 2329WAT     H2 9090   9.926   4.401   4.219
 2330WAT      O 9091  10.929   4.353   4.832
 2330WAT     H1 9092  11.001   4.402   4.793
 2330WAT     H2 9093  10.909   4.285   4.767
 2331WAT      O 9094  10.475   3.492   4.246
 2331WAT     H1 9095  10.394   3.442   4.239
 2331WAT     H2 9096  10.456   3.576   4.204
 2332WAT      O 9097  10.467   4.360   5.420
 2332WAT     H1 9098  10.460   4.268   5.395
 2332WAT     H2 9099  10.404   4.370   5.492
 2333WAT      O 9100  10.746   3.930   4.076
 2333WAT     H1 9101  10.835   3.961   4.058
 2333WAT     H2 9102  10.743   3.842   4.037
 2334WAT      O 9103   9.857   4.420   4.616
 2334WAT     H1 9104   9.909   4.340   4.611
 2334WAT     H2 9105   9.812   4.414   4.700
 2335WAT      O 9106  10.346   4.547   4.144
 2335WAT     H1 9107  10.380   4.621   4.094
 2335WAT     H2 9108  10.263   4.578   4.180
 2336WAT      O 9109   9.606   4.117   5.308
 2336WAT     H1 9110   9.570   4.183   5.366
 2336WAT     H2 9111   9.576   4.034   5.345
 2337WAT      O 9112   9.926   4.163   5.596
 2337WAT     H1 9113   9.896   4.177   5.506
 2337WAT     H2 9114  10.003   4.107   5.587
 2338WAT      O 9115  10.460   4.642   5.396
 2338WAT     H1 9116  10.462   4.549   5.374
 2338WAT     H2 9117  10.389   4.651   5.459
 2339WAT      O 9118  10.974   4.061   4.022
 2339WAT     H1 9119  10.965   4.104   3.937
 2339WAT     H2 9120  11.045   4.107   4.066
 2340WAT      O 9121  11.076   4.746   4.295
 2340WAT     H1 9122  11.012   4.681   4.323
 2340WAT     H2 9123  11.038   4.787   4.218
 2341WAT      O 9124  10.634   4.479   4.680
 2341WAT     H1 9125  10.670   4.419   4.614
 2341WAT     H2 9126  10.546   4.446   4.697
 2342WAT      O 9127  10.243   4.555   4.421
 2342WAT     H1 9128  10.312   4.610   4.459
 2342WAT     H2 9129  10.164   4.609   4.424
 2343WAT      O 9130   9.457   4.117   3.970
 2343WAT     H1 9131   9.544   4.145   3.998
 2343WAT     H2 9132   9.408   4.198   3.958
 2344WAT      O 9133  10.173   4.255   4.382
 2344WAT     H1 9134  10.219   4.336   4.405
 2344WAT     H2 9135  10.138   4.224   4.465
 2345WAT      O 9136  10.404   4.806   5.105
 2345WAT     H1 9137  10.468   4.827   5.173
 2345WAT     H2 9138  10.440   4.730   5.060
 2346WAT      O 9139   9.763   3.290   4.429
 2346WAT     H1 9140   9.750   3.289   4.524
 2346WAT     H2 9141   9.681   3.324   4.394
 2347WAT      O 9142  10.531   4.607   4.977
 2347WAT     H1 9143  10.595   4.537   4.988
 2347WAT     H2 9144  10.583   4.685   4.959
 2348WAT      O 9145  10.915   4.635   3.949
 2348WAT     H1 9146  10.893   4.564   4.008
 2348WAT     H2 9147  10.876   4.610   3.865
 2349WAT      O 9148  10.708   4.687   5.297
 2349WAT     H1 9149  10.742   4.745   5.365
 2349WAT     H2 9150  10.616   4.674   5.320
 2350WAT      O 9151   9.494   5.038   4.027
 2350WAT     H1 9152   9.530   5.098   3.961
 2350WAT     H2 9153   9.479   5.092   4.104
 2351WAT      O 9154   9.463   3.466   5.375
 2351WAT     H1 9155   9.392   3.486   5.436
 2351WAT     H2 9156   9.505   3.388   5.412
 2352WAT      O 9157  10.874   4.427   4.115
 2352WAT     H1 9158  10.845   4.473   4.194
 2352WAT     H2 9159  10.953   4.381   4.142
 2353WAT      O 9160   9.492   4.864   5.474
 2353WAT     H1 9161   9.503   4.770   5.460
 2353WAT     H2 9162   9.427   4.891   5.409
 2354WAT      O 9163  10.291   4.692   5.614
 2354WAT     H1 9164  10.259   4.620   5.668
 2354WAT     H2 9165  10.224   4.759   5.621
 2355WAT      O 9166  10.095   4.776   4.108
 2355WAT     H1 9167  10.094   4.849   4.047
 2355WAT     H2 9168  10.003   4.752   4.118
 2356WAT      O 9169   9.655   4.298   4.183
 2356WAT     H1 9170   9.595   4.372   4.184
 2356WAT     H2 9171   9.703   4.307   4.100
 2357WAT      O 9172  10.613   3.715   5.150
 2357WAT     H1 9173  10.649   3.633   5.183
 2357WAT     H2 9174  10.527   3.721   5.192
 2358WAT      O 9175  10.949   3.610   4.231
 2358WAT     H1 9176  10.886   3.621   4.160
 2358WAT     H2 9177  10.900   3.632   4.310
 2359WAT      O 9178  10.394   4.782   3.975
 2359WAT     H1 9179  10.404   4.762   3.882
 2359WAT     H2 9180  10.304   4.757   3.995
 2360WAT      O 9181  10.146   3.838   4.373
 2360WAT     H1 9182  10.075   3.885   4.417
 2360WAT     H2 9183  10.175   3.773   4.436
 2361WAT      O 9184  10.309   3.980   5.173
 2361WAT     H1 9185  10.359   4.028   5.239
 2361WAT     H2 9186  10.323   3.888   5.193
 2362WAT      O 9187  10.549   3.511   4.517
 2362WAT     H1 9188  10.537   3.513   4.422
 2362WAT     H2 9189  10.644   3.516   4.529
 2363WAT      O 9190  10.258   5.034   4.444
 2363WAT     H1 9191  10.283   5.031   4.352
 2363WAT     H2 9192  10.163   5.022   4.443
 2364WAT      O 9193   9.966   3.669   4.110
 2364WAT     H1 9194  10.051   3.713   4.104
 2364WAT     H2 9195   9.930   3.700   4.193
 2365WAT      O 9196  11.029   3.602   5.257
 2365WAT     H1 9197  10.979   3.676   5.291
 2365WAT     H2 9198  11.111   3.641   5.225
 2366WAT      O 9199  10.859   4.126   4.602
 2366WAT     H1 9200  10.764   4.128   4.619
 2366WAT     H2 9201  10.890   4.048   4.646
 2367WAT      O 9202   9.856   4.294   3.958
 2367WAT     H1 9203   9.933   4.283   4.014
 2367WAT     H2 9204   9.864   4.225   3.892
 2368WAT      O 9205   9.726   4.038   4.026
 2368WAT     H1 9206   9.734   3.943   4.037
 2368WAT     H2 9207   9.815   4.071   4.037
 2369WAT      O 9208   9.806   5.053   4.736
 2369WAT     H1 9209   9.880   4.998   4.763
 2369WAT     H2 9210   9.844   5.139   4.722
 2370WAT      O 9211   9.494   4.659   4.324
 2370WAT     H1 9212   9.402   4.684   4.323
 2370WAT     H2 9213   9.541   4.742   4.312
 2371WAT      O 9214   9.707   4.971   5.655
 2371WAT     H1 9215   9.787   5.003   5.696
 2371WAT     H2 9216   9.655   4.935   5.727
 2372WAT      O 9217  10.117   4.970   3.919
 2372WAT     H1 9218  10.196   4.999   3.873
 2372WAT     H2 9219  10.065   4.927   3.851
 2373WAT      O 9220  10.590   4.582   5.650
 2373WAT     H1 9221  10.530   4.584   5.576
 2373WAT     H2 9222  10.560   4.509   5.704
 2374WAT      O 9223  10.733   4.955   5.511
 2374WAT     H1 9224  10.828   4.946   5.506
 2374WAT     H2 9225  10.718   5.021   5.578
 2375WAT      O 9226  11.022   4.893   4.061
 2375WAT     H1 9227  10.994   4.851   3.979
 2375WAT     H2 9228  11.003   4.986   4.049
 2376WAT      O 9229   9.479   4.220   5.550
 2376WAT     H1 9230   9.529   4.162   5.607
 2376WAT     H2 9231   9.405   4.248   5.603
 2377WAT      O 9232  10.169   4.492   3.905
 2377WAT     H1 9233  10.158   4.431   3.978
 2377WAT     H2 9234  10.152   4.440   3.827
 2378WAT      O 9235  10.184   4.361   5.503
 2378WAT     H1 9236  10.107   4.417   5.494
 2378WAT     H2 9237  10.202   4.331   5.414
 2379WAT      O 9238  10.493   4.398   3.965
 2379WAT     H1 9239  10.438   4.443   4.030
 2379WAT     H2 9240  10.555   4.348   4.018
 2380WAT      O 9241  10.898   4.534   5.559
 2380WAT     H1 9242  10.972   4.567   5.508
 2380WAT     H2 9243  10.822   4.551   5.503
 2381WAT      O 9244   9.682   4.034   5.639
 2381WAT     H1 9245   9.686   4.004   5.730
 2381WAT     H2 9246   9.767   4.074   5.623
 2382WAT      O 9247  10.060   4.294   4.155
 2382WAT     H1 9248  10.102   4.278   4.239
 2382WAT     H2 9249  10.072   4.213   4.106
 2383WAT      O 9250   9.876   3.892   5.436
 2383WAT     H1 9251   9.823   3.843   5.373
 2383WAT     H2 9252   9.943   3.935   5.382
 2384WAT      O 9253  10.311   4.196   3.880
 2384WAT     H1 9254  10.363   4.125   3.843
 2384WAT     H2 9255  10.376   4.260   3.910
 2385WAT      O 9256  10.766   4.339   5.412
 2385WAT     H1 9257  10.807   4.354   5.497
 2385WAT     H2 9258  10.672   4.351   5.428
 2386WAT      O 9259  10.813   4.073   5.613
 2386WAT     H1 9260  10.871   3.997   5.604
 2386WAT     H2 9261  10.830   4.126   5.535
 2387WAT      O 9262   9.925   3.589   5.444
 2387WAT     H1 9263   9.915   3.527   5.371
 2387WAT     H2 9264   9.867   3.661   5.421
 2388WAT      O 9265  10.201   3.444   5.147
 2388WAT     H1 9266  10.156   3.447   5.062
 2388WAT     H2 9267  10.138   3.405   5.207
 2389WAT      O 9268  10.242   4.334   5.209
 2389WAT     H1 9269  10.284   4.418   5.192
 2389WAT     H2 9270  10.150   4.348   5.186
 2390WAT      O 9271  10.475   4.107   5.348
 2390WAT     H1 9272  10.487   4.048   5.421
 2390WAT     H2 9273  10.561   4.111   5.306
 2391WAT      O 9274  10.709   4.163   5.205
 2391WAT     H1 9275  10.657   4.215   5.145
 2391WAT     H2 9276  10.744   4.226   5.268
 2392WAT      O 9277   9.949   3.901   3.850
 2392WAT     H1 9278   9.929   3.815   3.886
 2392WAT     H2 9279   9.932   3.893   3.756
 2393WAT      O 9280  10.027   4.965   5.321
 2393WAT     H1 9281   9.973   5.037   5.289
 2393WAT     H2 9282  10.052   4.917   5.242
 2394WAT      O 9283  10.152   3.761   5.473
 2394WAT     H1 9284  10.211   3.731   5.542
 2394WAT     H2 9285  10.070   3.714   5.489
 2395WAT      O 9286  10.634   3.723   5.497
 2395WAT     H1 9287  10.565   3.657   5.490
 2395WAT     H2 9288  10.706   3.678   5.541
 2396WAT      O 9289  10.697   3.383   4.102
 2396WAT     H1 9290  10.725   3.298   4.138
 2396WAT     H2 9291  10.620   3.406   4.154
 2397WAT      O 9292   9.829   3.611   3.848
 2397WAT     H1 9293   9.859   3.612   3.758
 2397WAT     H2 9294   9.903   3.576   3.898
 2398WAT      O 9295  10.312   5.088   5.347
 2398WAT     H1 9296  10.305   5.178   5.377
 2398WAT     H2 9297  10.222   5.056   5.344
 2399WAT      O 9298  10.151   3.506   3.947
 2399WAT     H1 9299  10.116   3.438   3.889
 2399WAT     H2 9300  10.171   3.460   4.028
 2400WAT      O 9301  10.367   5.005   4.109
 2400WAT     H1 9302  10.457   5.038   4.111
 2400WAT     H2 9303  10.370   4.932   4.046
 2401WAT      O 9304   9.731   4.542   3.932
 2401WAT     H1 9305   9.775   4.596   3.997
 2401WAT     H2 9306   9.780   4.459   3.933
 2402WAT      O 9307   9.453   4.821   4.677
 2402WAT     H1 9308   9.486   4.734   4.654
 2402WAT     H2 9309   9.496   4.841   4.760
 2403WAT      O 9310   9.912   4.654   4.443
 2403WAT     H1 9311   9.882   4.642   4.533
 2403WAT     H2 9312   9.902   4.568   4.402
 2404WAT      O 9313   9.502   4.907   4.951
 2404WAT     H1 9314   9.458   4.925   5.034
 2404WAT     H2 9315   9.558   4.983   4.937
 2405WAT      O 9316  11.065   4.858   5.379
 2405WAT     H1 9317  11.005   4.864   5.305
 2405WAT     H2 9318  11.078   4.764   5.392
 2406WAT      O 9319   9.485   4.159   4.587
 2406WAT     H1 9320   9.419   4.132   4.522
 2406WAT     H2 9321   9.569   4.148   4.542
 2407WAT      O 9322  10.934   4.530   5.189
 2407WAT     H1 9323  10.852   4.573   5.216
 2407WAT     H2 9324  10.975   4.591   5.128
 2408WAT      O 9325  10.780   3.638   4.009
 2408WAT     H1 9326  10.822   3.619   3.925
 2408WAT     H2 9327  10.749   3.553   4.040
 2409WAT      O 9328   9.589   4.197   5.041
 2409WAT     H1 9329   9.625   4.188   5.129
 2409WAT     H2 9330   9.532   4.121   5.031
 2410WAT      O 9331  11.069   4.044   5.342
 2410WAT     H1 9332  11.046   4.021   5.252
 2410WAT     H2 9333  11.095   4.136   5.337
 2411WAT      O 9334   9.544   3.888   5.431
 2411WAT     H1 9335   9.454   3.885   5.465
 2411WAT     H2 9336   9.598   3.908   5.508
 2412WAT      O 9337  10.913   3.567   5.620
 2412WAT     H1 9338  11.000   3.567   5.658
 2412WAT     H2 9339  10.914   3.493   5.559
 2413WAT      O 9340   9.406   3.880   4.181
 2413WAT     H1 9341   9.316   3.906   4.163
 2413WAT     H2 9342   9.455   3.907   4.103
 2414WAT      O 9343  11.057   3.952   4.709
 2414WAT     H1 9344  11.110   3.903   4.646
 2414WAT     H2 9345  11.116   3.965   4.783
 2415WAT      O 9346  11.075   3.960   5.061
 2415WAT     H1 9347  10.980   3.957   5.072
 2415WAT     H2 9348  11.093   4.051   5.037
 2416WAT      O 9349   9.661   3.785   3.972
 2416WAT     H1 9350   9.731   3.743   3.923
 2416WAT     H2 9351   9.589   3.792   3.909
 2417WAT      O 9352   9.625   3.391   3.876
 2417WAT     H1 9353   9.698   3.445   3.908
 2417WAT     H2 9354   9.653   3.363   3.788
 2418WAT      O 9355  11.006   3.878   4.303
 2418WAT     H1 9356  11.056   3.854   4.381
 2418WAT     H2 9357  10.986   3.794   4.261
 2419WAT      O 9358   9.594   3.316   4.866
 2419WAT     H1 9359   9.659   3.261   4.822
 2419WAT     H2 9360   9.636   3.341   4.948
 2420WAT      O 9361  10.984   3.335   5.202
 2420WAT     H1 9362  11.047   3.397   5.238
 2420WAT     H2 9363  10.998   3.339   5.107
 2421WAT      O 9364  10.940   5.005   4.542
 2421WAT     H1 9365  10.999   4.973   4.474
 2421WAT     H2 9366  10.965   4.958   4.621
 2422WAT      O 9367   9.570   3.331   5.140
 2422WAT     H1 9368   9.535   3.377   5.217
 2422WAT     H2 9369   9.536   3.242   5.149
 2423WAT      O 9370   9.730   4.649   5.557
 2423WAT     H1 9371   9.726   4.611   5.645
 2423WAT     H2 9372   9.743   4.742   5.571
 2424WAT      O 9373  10.100   4.804   5.117
 2424WAT     H1 9374  10.076   4.831   5.028
 2424WAT     H2 9375  10.194   4.821   5.122
 2425WAT      O 9376  10.321   3.450   5.493
 2425WAT     H1 9377  10.315   3.510   5.567
 2425WAT     H2 9378  10.415   3.440   5.478
 2426WAT      O 9379  10.585   3.416   5.456
 2426WAT     H1 9380  10.646   3.448   5.390
 2426WAT     H2 9381  10.639   3.368   5.518
 2427WAT      O 9382   9.637   3.284   5.468
 2427WAT     H1 9383   9.692   3.266   5.391
 2427WAT     H2 9384   9.643   3.205   5.521
 2428WAT      O 9385   9.714   4.943   5.269
 2428WAT     H1 9386   9.655   4.930   5.343
 2428WAT     H2 9387   9.713   4.860   5.222
 2429WAT      O 9388  10.659   3.272   5.089
 2429WAT     H1 9389  10.571   3.306   5.069
 2429WAT     H2 9390  10.648   3.225   5.172
 2430WAT      O 9391  10.749   3.493   5.228
 2430WAT     H1 9392  10.716   3.412   5.190
 2430WAT     H2 9393  10.844   3.489   5.215
 2431WAT      O 9394  10.995   5.070   4.925
 2431WAT     H1 9395  10.949   5.145   4.887
 2431WAT     H2 9396  10.932   4.998   4.919
 2432WAT      O 9397   9.677   4.680   5.164
 2432WAT     H1 9398   9.605   4.618   5.157
 2432WAT     H2 9399   9.683   4.719   5.077
 2433WAT      O 9400  10.038   4.901   4.842
 2433WAT     H1 9401  10.089   4.840   4.790
 2433WAT     H2 9402  10.103   4.951   4.892
 2434WAT      O 9403  10.312   4.990   4.925
 2434WAT     H1 9404  10.340   4.965   4.837
 2434WAT     H2 9405  10.363   4.935   4.984
 2435WAT      O 9406  10.433   3.364   4.983
 2435WAT     H1 9407  10.355   3.412   5.011
 2435WAT     H2 9408  10.404   3.274   4.972
 2436WAT      O 9409  10.889   3.434   4.788
 2436WAT     H1 9410  10.933   3.429   4.703
 2436WAT     H2 9411  10.862   3.526   4.795
 2437WAT      O 9412   9.505   5.011   4.485
 2437WAT     H1 9413   9.489   4.948   4.555
 2437WAT     H2 9414   9.419   5.032   4.450
 2438WAT      O 9415   9.568   3.395   4.235
 2438WAT     H1 9416   9.644   3.406   4.178
 2438WAT     H2 9417   9.522   3.478   4.231
 2439WAT      O 9418  10.222   3.606   4.534
 2439WAT     H1 9419  10.141   3.569   4.500
 2439WAT     H2 9420  10.272   3.530   4.564
 2440WAT      O 9421  10.672   3.272   4.658
 2440WAT     H1 9422  10.732   3.330   4.706
 2440WAT     H2 9423  10.598   3.329   4.636
 2441WAT      O 9424  10.986   3.313   4.185
 2441WAT     H1 9425  11.006   3.403   4.212
 2441WAT     H2 9426  10.908   3.290   4.235
 2442WAT      O 9427   9.666   4.881   4.229
 2442WAT     H1 9428   9.614   4.919   4.159
 2442WAT     H2 9429   9.659   4.943   4.301
 2443WAT      O 9430   9.805   3.447   4.089
 2443WAT     H1 9431   9.858   3.369   4.076
 2443WAT     H2 9432   9.868   3.515   4.113
 2444WAT      O 9433  10.024   3.421   4.395
 2444WAT     H1 9434   9.961   3.351   4.411
 2444WAT     H2 9435   9.970   3.497   4.373
 2445WAT      O 9436  10.318   5.082   5.662
 2445WAT     H1 9437  10.411   5.059   5.666
 2445WAT     H2 9438  10.317   5.165   5.614
 2446WAT      O 9439  10.037   3.349   5.638
 2446WAT     H1 9440  10.009   3.399   5.562
 2446WAT     H2 9441  10.075   3.269   5.602
 2447WAT      O 9442   9.926   5.076   4.117
 2447WAT     H1 9443   9.999   5.047   4.062
 2447WAT     H2 9444   9.952   5.052   4.206
 2448WAT      O 9445   9.842   4.687   4.117
 2448WAT     H1 9446   9.779   4.734   4.172
 2448WAT     H2 9447   9.854   4.603   4.161
 2449WAT      O 9448  10.697   3.290   5.696
 2449WAT     H1 9449  10.686   3.322   5.786
 2449WAT     H2 9450  10.779   3.331   5.666
 2450WAT      O 9451  10.975   5.005   5.644
 2450WAT     H1 9452  11.054   4.956   5.623
 2450WAT     H2 9453  11.004   5.073   5.705
 2451WAT      O 9454  10.588   4.092   2.732
 2451WAT     H1 9455  10.580   4.001   2.705
 2451WAT     H2 9456  10.546   4.142   2.662
 2452WAT      O 9457  10.401   4.270   2.920
 2452WAT     H1 9458  10.323   4.222   2.949
 2452WAT     H2 9459  10.466   4.202   2.903
 2453WAT      O 9460   9.803   4.301   3.008
 2453WAT     H1 9461   9.719   4.276   3.048
 2453WAT     H2 9462   9.863   4.308   3.082
 2454WAT      O 9463  10.803   4.711   2.798
 2454WAT     H1 9464  10.757   4.634   2.831
 2454WAT     H2 9465  10.884   4.713   2.849
 2455WAT      O 9466   9.801   4.705   3.028
 2455WAT     H1 9467   9.831   4.616   3.010
 2455WAT     H2 9468   9.875   4.760   3.005
 2456WAT      O 9469   9.440   4.057   2.975
 2456WAT     H1 9470   9.497   3.981   2.975
 2456WAT     H2 9471   9.440   4.087   2.884
 2457WAT      O 9472  10.426   4.939   2.760
 2457WAT     H1 9473  10.364   4.985   2.703
 2457WAT     H2 9474  10.511   4.955   2.720
 2458WAT      O 9475  10.345   4.538   2.921
 2458WAT     H1 9476  10.338   4.444   2.905
 2458WAT     H2 9477  10.421   4.547   2.978
 2459WAT      O 9478   9.564   3.598   3.154
 2459WAT     H1 9479   9.546   3.508   3.182
 2459WAT     H2 9480   9.524   3.653   3.221
 2460WAT      O 9481  10.448   3.818   2.944
 2460WAT     H1 9482  10.486   3.731   2.933
 2460WAT     H2 9483  10.438   3.852   2.855
 2461WAT      O 9484  10.826   3.568   2.637
 2461WAT     H1 9485  10.908   3.519   2.641
 2461WAT     H2 9486  10.830   3.627   2.712
 2462WAT      O 9487   9.626   3.848   3.015
 2462WAT     H1 9488   9.694   3.874   3.076
 2462WAT     H2 9489   9.594   3.764   3.048
 2463WAT      O 9490  10.045   3.953   2.923
 2463WAT     H1 9491  10.096   4.002   2.987
 2463WAT     H2 9492  10.098   3.875   2.906
 2464WAT      O 9493   9.873   3.417   3.350
 2464WAT     H1 9494   9.874   3.468   3.269
 2464WAT     H2 9495   9.791   3.369   3.348
 2465WAT      O 9496  10.512   4.428   2.500
 2465WAT     H1 9497  10.450   4.474   2.443
 2465WAT     H2 9498  10.563   4.497   2.541
 2466WAT      O 9499   9.999   4.380   3.168
 2466WAT     H1 9500   9.965   4.443   3.232
 2466WAT     H2 9501  10.016   4.433   3.090
 2467WAT      O 9502  10.850   3.762   2.914
 2467WAT     H1 9503  10.779   3.791   2.972
 2467WAT     H2 9504  10.886   3.843   2.878
 2468WAT      O 9505   9.842   3.588   3.151
 2468WAT     H1 9506   9.876   3.672   3.121
 2468WAT     H2 9507   9.748   3.602   3.162
 2469WAT      O 9508   9.920   4.577   3.349
 2469WAT     H1 9509   9.981   4.645   3.321
 2469WAT     H2 9510   9.834   4.618   3.340
 2470WAT      O 9511   9.449   4.496   2.237
 2470WAT     H1 9512   9.411   4.545   2.164
 2470WAT     H2 9513   9.475   4.564   2.300
 2471WAT      O 9514  11.011   4.724   3.141
 2471WAT     H1 9515  10.943   4.791   3.140
 2471WAT     H2 9516  11.065   4.743   3.064
 2472WAT      O 9517  10.210   3.336   2.783
 2472WAT     H1 9518  10.241   3.281   2.711
 2472WAT     H2 9519  10.117   3.350   2.765
 2473WAT      O 9520  10.765   4.908   3.012
 2473WAT     H1 9521  10.766   4.868   2.925
 2473WAT     H2 9522  10.710   4.986   3.002
 2474WAT      O 9523  10.895   4.580   2.521
 2474WAT     H1 9524  10.883   4.486   2.534
 2474WAT     H2 9525  10.894   4.616   2.610
 2475WAT      O 9526  10.705   4.398   3.145
 2475WAT     H1 9527  10.747   4.377   3.061
 2475WAT     H2 9528  10.777   4.424   3.202
 2476WAT      O 9529  10.449   4.143   2.457
 2476WAT     H1 9530  10.356   4.136   2.480
 2476WAT     H2 9531  10.464   4.237   2.445
 2477WAT      O 9532  10.447   3.770   2.156
 2477WAT     H1 9533  10.353   3.786   2.165
 2477WAT     H2 9534  10.479   3.842   2.102
 2478WAT      O 9535  10.852   4.299   2.507
 2478WAT     H1 9536  10.790   4.265   2.442
 2478WAT     H2 9537  10.850   4.235   2.578
 2479WAT      O 9538  10.796   3.917   3.249
 2479WAT     H1 9539  10.755   4.000   3.274
 2479WAT     H2 9540  10.723   3.858   3.229
 2480WAT      O 9541  10.009   4.196   2.735
 2480WAT     H1 9542   9.969   4.124   2.685
 2480WAT     H2 9543  10.018   4.161   2.824
 2481WAT      O 9544  10.056   4.564   2.951
 2481WAT     H1 9545  10.026   4.504   2.883
 2481WAT     H2 9546  10.151   4.568   2.940
 2482WAT      O 9547   9.881   3.873   3.113
 2482WAT     H1 9548   9.936   3.884   3.035
 2482WAT     H2 9549   9.932   3.910   3.184
 2483WAT      O 9550  10.865   4.922   3.317
 2483WAT     H1 9551  10.817   5.002   3.298
 2483WAT     H2 9552  10.797   4.856   3.333
 2484WAT      O 9553   9.965   4.538   3.616
 2484WAT     H1 9554   9.876   4.560   3.641
 2484WAT     H2 9555   9.968   4.550   3.521
 2485WAT      O 9556  10.669   4.223   2.208
 2485WAT     H1 9557  10.713   4.139   2.193
 2485WAT     H2 9558  10.741   4.286   2.216
 2486WAT      O 9559   9.848   4.225   3.474
 2486WAT     H1 9560   9.834   4.312   3.511
 2486WAT     H2 9561   9.760   4.191   3.459
 2487WAT      O 9562  10.480   4.717   2.605
 2487WAT     H1 9563  10.524   4.791   2.563
 2487WAT     H2 9564  10.474   4.741   2.697
 2488WAT      O 9565  10.028   4.819   3.695
 2488WAT     H1 9566  10.025   4.860   3.608
 2488WAT     H2 9567  10.011   4.727   3.678
 2489WAT      O 9568  11.028   3.348   2.039
 2489WAT     H1 9569  10.996   3.358   2.129
 2489WAT     H2 9570  11.104   3.406   2.034
 2490WAT      O 9571   9.443   4.402   3.066
 2490WAT     H1 9572   9.451   4.416   2.971
 2490WAT     H2 9573   9.505   4.331   3.085
 2491WAT      O 9574   9.568   4.572   2.707
 2491WAT     H1 9575   9.527   4.586   2.621
 2491WAT     H2 9576   9.657   4.544   2.686
 2492WAT      O 9577  10.549   4.987   3.397
 2492WAT     H1 9578  10.601   4.978   3.478
 2492WAT     H2 9579  10.465   5.022   3.427
 2493WAT      O 9580  10.747   5.016   2.340
 2493WAT     H1 9581  10.731   4.987   2.430
 2493WAT     H2 9582  10.730   4.938   2.287
 2494WAT      O 9583   9.995   4.994   2.518
 2494WAT     H1 9584   9.977   4.902   2.497
 2494WAT     H2 9585   9.909   5.029   2.542
 2495WAT      O 9586  10.717   4.767   2.196
 2495WAT     H1 9587  10.648   4.766   2.130
 2495WAT     H2 9588  10.791   4.724   2.153
 2496WAT      O 9589  10.674   4.929   2.604
 2496WAT     H1 9590  10.719   4.851   2.635
 2496WAT     H2 9591  10.708   5.000   2.658
 2497WAT      O 9592   9.449   4.506   3.320
 2497WAT     H1 9593   9.465   4.459   3.238
 2497WAT     H2 9594   9.495   4.456   3.386
 2498WAT      O 9595   9.926   3.419   2.823
 2498WAT     H1 9596   9.882   3.497   2.790
 2498WAT     H2 9597   9.982   3.452   2.894
 2499WAT      O 9598  10.355   3.706   3.383
 2499WAT     H1 9599  10.308   3.727   3.465
 2499WAT     H2 9600  10.314   3.625   3.353
 2500WAT      O 9601  10.855   3.828   3.496
 2500WAT     H1 9602  10.770   3.798   3.529
 2500WAT     H2 9603  10.839   3.853   3.405
 2501WAT      O 9604  10.564   3.978   3.706
 2501WAT     H1 9605  10.597   3.895   3.672
 2501WAT     H2 9606  10.643   4.030   3.721
 2502WAT      O 9607  10.238   3.381   2.311
 2502WAT     H1 9608  10.175   3.381   2.384
 2502WAT     H2 9609  10.229   3.295   2.272
 2503WAT      O 9610  10.130   3.474   3.009
 2503WAT     H1 9611  10.159   3.564   3.001
 2503WAT     H2 9612  10.185   3.425   2.948
 2504WAT      O 9613  10.628   3.932   2.456
 2504WAT     H1 9614  10.568   4.005   2.437
 2504WAT     H2 9615  10.683   3.926   2.378
 2505WAT      O 9616  10.149   4.022   3.663
 2505WAT     H1 9617  10.140   3.928   3.648
 2505WAT     H2 9618  10.233   4.044   3.623
 2506WAT      O 9619  10.489   3.796   2.659
 2506WAT     H1 9620  10.528   3.828   2.578
 2506WAT     H2 9621  10.525   3.708   2.670
 2507WAT      O 9622   9.662   3.663   3.478
 2507WAT     H1 9623   9.623   3.747   3.499
 2507WAT     H2 9624   9.593   3.599   3.497
 2508WAT      O 9625  10.320   3.671   3.785
 2508WAT     H1 9626  10.251   3.652   3.848
 2508WAT     H2 9627  10.394   3.699   3.838
 2509WAT      O 9628  10.547   4.055   3.068
 2509WAT     H1 9629  10.474   4.106   3.103
 2509WAT     H2 9630  10.508   3.973   3.038
 2510WAT      O 9631  10.191   3.723   2.909
 2510WAT     H1 9632  10.191   3.678   2.824
 2510WAT     H2 9633  10.281   3.755   2.920
 2511WAT      O 9634   9.776   3.711   2.805
 2511WAT     H1 9635   9.742   3.759   2.881
 2511WAT     H2 9636   9.700   3.665   2.769
 2512WAT      O 9637  10.197   3.823   2.208
 2512WAT     H1 9638  10.209   3.819   2.303
 2512WAT     H2 9639  10.159   3.909   2.192
 2513WAT      O 9640  10.594   3.600   3.010
 2513WAT     H1 9641  10.595   3.645   3.094
 2513WAT     H2 9642  10.569   3.510   3.031
 2514WAT      O 9643  10.098   4.054   2.148
 2514WAT     H1 9644  10.042   4.009   2.085
 2514WAT     H2 9645  10.169   4.090   2.094
 2515WAT      O 9646  10.936   3.342   3.593
 2515WAT     H1 9647  10.969   3.269   3.646
 2515WAT     H2 9648  10.940   3.310   3.503
 2516WAT      O 9649   9.606   4.444   3.535
 2516WAT     H1 9650   9.568   4.380   3.595
 2516WAT     H2 9651   9.637   4.514   3.592
 2517WAT      O 9652  10.221   4.129   3.084
 2517WAT     H1 9653  10.258   4.081   3.158
 2517WAT     H2 9654  10.202   4.216   3.118
 2518WAT      O 9655  10.000   4.033   3.315
 2518WAT     H1 9656   9.970   4.121   3.338
 2518WAT     H2 9657  10.096   4.039   3.319
 2519WAT      O 9658   9.853   4.453   2.375
 2519WAT     H1 9659   9.776   4.399   2.359
 2519WAT     H2 9660   9.926   4.401   2.341
 2520WAT      O 9661  10.929   4.353   2.954
 2520WAT     H1 9662  11.001   4.402   2.915
 2520WAT     H2 9663  10.909   4.285   2.890
 2521WAT      O 9664  10.475   3.492   2.369
 2521WAT     H1 9665  10.394   3.442   2.361
 2521WAT     H2 9666  10.456   3.576   2.327
 2522WAT      O 9667  10.467   4.360   3.543
 2522WAT     H1 9668  10.460   4.268   3.518
 2522WAT     H2 9669  10.404   4.370   3.614
 2523WAT      O 9670  10.746   3.930   2.198
 2523WAT     H1 9671  10.835   3.961   2.181
 2523WAT     H2 9672  10.743   3.842   2.159
 2524WAT      O 9673   9.857   4.420   2.739
 2524WAT     H1 9674   9.909   4.340   2.733
 2524WAT     H2 9675   9.812   4.414   2.823
 2525WAT      O 9676  10.346   4.547   2.266
 2525WAT     H1 9677  10.380   4.621   2.217
 2525WAT     H2 9678  10.263   4.578   2.302
 2526WAT      O 9679   9.606   4.117   3.430
 2526WAT     H1 9680   9.570   4.183   3.489
 2526WAT     H2 9681   9.576   4.034   3.467
 2527WAT      O 9682   9.926   4.163   3.719
 2527WAT     H1 9683   9.896   4.177   3.629
 2527WAT     H2 9684  10.003   4.107   3.709
 2528WAT      O 9685  10.460   4.642   3.518
 2528WAT     H1 9686  10.462   4.549   3.496
 2528WAT     H2 9687  10.389   4.651   3.582
 2529WAT      O 9688  10.974   4.061   2.145
 2529WAT     H1 9689  10.965   4.104   2.060
 2529WAT     H2 9690  11.045   4.107   2.188
 2530WAT      O 9691  11.076   4.746   2.418
 2530WAT     H1 9692  11.012   4.681   2.445
 2530WAT     H2 9693  11.038   4.787   2.340
 2531WAT      O 9694  10.634   4.479   2.803
 2531WAT     H1 9695  10.670   4.419   2.737
 2531WAT     H2 9696  10.546   4.446   2.820
 2532WAT      O 9697  10.243   4.555   2.543
 2532WAT     H1 9698  10.312   4.610   2.581
 2532WAT     H2 9699  10.164   4.609   2.547
 2533WAT      O 9700  10.173   4.255   2.505
 2533WAT     H1 9701  10.219   4.336   2.527
 2533WAT     H2 9702  10.138   4.224   2.588
 2534WAT      O 9703  10.404   4.806   3.227
 2534WAT     H1 9704  10.468   4.827   3.295
 2534WAT     H2 9705  10.440   4.730   3.182
 2535WAT      O 9706  10.531   4.607   3.099
 2535WAT     H1 9707  10.595   4.537   3.111
 2535WAT     H2 9708  10.583   4.685   3.081
 2536WAT      O 9709  10.915   4.635   2.072
 2536WAT     H1 9710  10.893   4.564   2.131
 2536WAT     H2 9711  10.876   4.610   1.988
 2537WAT      O 9712  10.708   4.687   3.420
 2537WAT     H1 9713  10.742   4.745   3.487
 2537WAT     H2 9714  10.616   4.674   3.443
 2538WAT      O 9715   9.494   5.038   2.149
 2538WAT     H1 9716   9.530   5.098   2.084
 2538WAT     H2 9717   9.479   5.092   2.226
 2539WAT      O 9718   9.463   3.466   3.498
 2539WAT     H1 9719   9.392   3.486   3.558
 2539WAT     H2 9720   9.505   3.388   3.535
 2540WAT      O 9721  10.874   4.427   2.238
 2540WAT     H1 9722  10.845   4.473   2.317
 2540WAT     H2 9723  10.953   4.381   2.265
 2541WAT      O 9724   9.492   4.864   3.597
 2541WAT     H1 9725   9.503   4.770   3.582
 2541WAT     H2 9726   9.427   4.891   3.532
 2542WAT      O 9727  10.291   4.692   3.736
 2542WAT     H1 9728  10.259   4.620   3.791
 2542WAT     H2 9729  10.224   4.759   3.744
 2543WAT      O 9730  10.095   4.776   2.231
 2543WAT     H1 9731  10.094   4.849   2.169
 2543WAT     H2 9732  10.003   4.752   2.240
 2544WAT      O 9733   9.655   4.298   2.305
 2544WAT     H1 9734   9.595   4.372   2.306
 2544WAT     H2 9735   9.703   4.307   2.223
 2545WAT      O 9736  10.613   3.715   3.273
 2545WAT     H1 9737  10.649   3.633   3.306
 2545WAT     H2 9738  10.527   3.721   3.314
 2546WAT      O 9739  10.949   3.610   2.354
 2546WAT     H1 9740  10.886   3.621   2.282
 2546WAT     H2 9741  10.900   3.632   2.433
 2547WAT      O 9742  10.394   4.782   2.097
 2547WAT     H1 9743  10.404   4.762   2.004
 2547WAT     H2 9744  10.304   4.757   2.118
 2548WAT      O 9745  10.146   3.838   2.495
 2548WAT     H1 9746  10.075   3.885   2.539
 2548WAT     H2 9747  10.175   3.773   2.559
 2549WAT      O 9748  10.309   3.980   3.295
 2549WAT     H1 9749  10.359   4.028   3.362
 2549WAT     H2 9750  10.323   3.888   3.316
 2550WAT      O 9751  10.549   3.511   2.639
 2550WAT     H1 9752  10.537   3.513   2.544
 2550WAT     H2 9753  10.644   3.516   2.651
 2551WAT      O 9754  10.258   5.034   2.567
 2551WAT     H1 9755  10.283   5.031   2.474
 2551WAT     H2 9756  10.163   5.022   2.566
 2552WAT      O 9757  11.029   3.602   3.380
 2552WAT     H1 9758  10.979   3.676   3.413
 2552WAT     H2 9759  11.111   3.641   3.348
 2553WAT      O 9760  10.859   4.126   2.724
 2553WAT     H1 9761  10.764   4.128   2.742
 2553WAT     H2 9762  10.890   4.048   2.769
 2554WAT      O 9763   9.856   4.294   2.080
 2554WAT     H1 9764   9.933   4.283   2.136
 2554WAT     H2 9765   9.864   4.225   2.015
 2555WAT      O 9766   9.806   5.053   2.859
 2555WAT     H1 9767   9.880   4.998   2.886
 2555WAT     H2 9768   9.844   5.139   2.845
 2556WAT      O 9769   9.494   4.659   2.446
 2556WAT     H1 9770   9.402   4.684   2.445
 2556WAT     H2 9771   9.541   4.742   2.434
 2557WAT      O 9772   9.707   4.971   3.778
 2557WAT     H1 9773   9.787   5.003   3.819
 2557WAT     H2 9774   9.655   4.935   3.850
 2558WAT      O 9775  10.117   4.970   2.041
 2558WAT     H1 9776  10.196   4.999   1.996
 2558WAT     H2 9777  10.065   4.927   1.973
 2559WAT      O 9778  10.590   4.582   3.772
 2559WAT     H1 9779  10.530   4.584   3.698
 2559WAT     H2 9780  10.560   4.509   3.826
 2560WAT      O 9781  10.733   4.955   3.634
 2560WAT     H1 9782  10.828   4.946   3.629
 2560WAT     H2 9783  10.718   5.021   3.701
 2561WAT      O 9784  11.022   4.893   2.183
 2561WAT     H1 9785  10.994   4.851   2.102
 2561WAT     H2 9786  11.003   4.986   2.171
 2562WAT      O 9787   9.479   4.220   3.672
 2562WAT     H1 9788   9.529   4.162   3.729
 2562WAT     H2 9789   9.405   4.248   3.726
 2563WAT      O 9790  10.169   4.492   2.028
 2563WAT     H1 9791  10.158   4.431   2.100
 2563WAT     H2 9792  10.152   4.440   1.949
 2564WAT      O 9793  10.184   4.361   3.625
 2564WAT     H1 9794  10.107   4.417   3.617
 2564WAT     H2 9795  10.202   4.331   3.536
 2565WAT      O 9796  10.493   4.398   2.088
 2565WAT     H1 9797  10.438   4.443   2.152
 2565WAT     H2 9798  10.555   4.348   2.140
 2566WAT      O 9799  10.898   4.534   3.681
 2566WAT     H1 9800  10.972   4.567   3.631
 2566WAT     H2 9801  10.822   4.551   3.626
 2567WAT      O 9802   9.682   4.034   3.762
 2567WAT     H1 9803   9.686   4.004   3.852
 2567WAT     H2 9804   9.767   4.074   3.746
 2568WAT      O 9805  10.060   4.294   2.278
 2568WAT     H1 9806  10.102   4.278   2.362
 2568WAT     H2 9807  10.072   4.213   2.228
 2569WAT      O 9808   9.876   3.892   3.558
 2569WAT     H1 9809   9.823   3.843   3.496
 2569WAT     H2 9810   9.943   3.935   3.505
 2570WAT      O 9811  10.311   4.196   2.002
 2570WAT     H1 9812  10.363   4.125   1.966
 2570WAT     H2 9813  10.376   4.260   2.032
 2571WAT      O 9814  10.766   4.339   3.535
 2571WAT     H1 9815  10.807   4.354   3.620
 2571WAT     H2 9816  10.672   4.351   3.551
 2572WAT      O 9817  10.813   4.073   3.735
 2572WAT     H1 9818  10.871   3.997   3.726
 2572WAT     H2 9819  10.830   4.126   3.657
 2573WAT      O 9820   9.925   3.589   3.566
 2573WAT     H1 9821   9.915   3.527   3.494
 2573WAT     H2 9822   9.867   3.661   3.544
 2574WAT      O 9823  10.201   3.444   3.270
 2574WAT     H1 9824  10.156   3.447   3.185
 2574WAT     H2 9825  10.138   3.405   3.329
 2575WAT      O 9826  10.242   4.334   3.332
 2575WAT     H1 9827  10.284   4.418   3.314
 2575WAT     H2 9828  10.150   4.348   3.309
 2576WAT      O 9829  10.475   4.107   3.470
 2576WAT     H1 9830  10.487   4.048   3.544
 2576WAT     H2 9831  10.561   4.111   3.428
 2577WAT      O 9832  10.709   4.163   3.328
 2577WAT     H1 9833  10.657   4.215   3.267
 2577WAT     H2 9834  10.744   4.226   3.391
 2578WAT      O 9835  10.027   4.965   3.443
 2578WAT     H1 9836   9.973   5.037   3.411
 2578WAT     H2 9837  10.052   4.917   3.364
 2579WAT      O 9838  10.152   3.761   3.596
 2579WAT     H1 9839  10.211   3.731   3.665
 2579WAT     H2 9840  10.070   3.714   3.611
 2580WAT      O 9841  10.634   3.723   3.619
 2580WAT     H1 9842  10.565   3.657   3.613
 2580WAT     H2 9843  10.706   3.678   3.664
 2581WAT      O 9844  10.697   3.383   2.225
 2581WAT     H1 9845  10.725   3.298   2.261
 2581WAT     H2 9846  10.620   3.406   2.276
 2582WAT      O 9847  10.312   5.088   3.469
 2582WAT     H1 9848  10.305   5.178   3.500
 2582WAT     H2 9849  10.222   5.056   3.466
 2583WAT      O 9850  10.151   3.506   2.070
 2583WAT     H1 9851  10.116   3.438   2.012
 2583WAT     H2 9852  10.171   3.460   2.151
 2584WAT      O 9853  10.367   5.005   2.231
 2584WAT     H1 9854  10.457   5.038   2.234
 2584WAT     H2 9855  10.370   4.932   2.169
 2585WAT      O 9856   9.731   4.542   2.054
 2585WAT     H1 9857   9.775   4.596   2.120
 2585WAT     H2 9858   9.780   4.459   2.055
 2586WAT      O 9859   9.453   4.821   2.799
 2586WAT     H1 9860   9.486   4.734   2.776
 2586WAT     H2 9861   9.496   4.841   2.883
 2587WAT      O 9862   9.912   4.654   2.565
 2587WAT     H1 9863   9.882   4.642   2.656
 2587WAT     H2 9864   9.902   4.568   2.525
 2588WAT      O 9865   9.502   4.907   3.073
 2588WAT     H1 9866   9.458   4.925   3.157
 2588WAT     H2 9867   9.558   4.983   3.059
 2589WAT      O 9868  11.065   4.858   3.502
 2589WAT     H1 9869  11.005   4.864   3.428
 2589WAT     H2 9870  11.078   4.764   3.515
 2590WAT      O 9871  10.934   4.530   3.312
 2590WAT     H1 9872  10.852   4.573   3.338
 2590WAT     H2 9873  10.975   4.591   3.251
 2591WAT      O 9874  10.780   3.638   2.131
 2591WAT     H1 9875  10.822   3.619   2.047
 2591WAT     H2 9876  10.749   3.553   2.162
 2592WAT      O 9877   9.589   4.197   3.163
 2592WAT     H1 9878   9.625   4.188   3.251
 2592WAT     H2 9879   9.532   4.121   3.153
 2593WAT      O 9880  11.069   4.044   3.465
 2593WAT     H1 9881  11.046   4.021   3.374
 2593WAT     H2 9882  11.095   4.136   3.460
 2594WAT      O 9883   9.544   3.888   3.554
 2594WAT     H1 9884   9.454   3.885   3.588
 2594WAT     H2 9885   9.598   3.908   3.630
 2595WAT      O 9886  10.913   3.567   3.742
 2595WAT     H1 9887  11.000   3.567   3.781
 2595WAT     H2 9888  10.914   3.493   3.681
 2596WAT      O 9889  11.057   3.952   2.831
 2596WAT     H1 9890  11.110   3.903   2.768
 2596WAT     H2 9891  11.116   3.965   2.906
 2597WAT      O 9892  11.075   3.960   3.183
 2597WAT     H1 9893  10.980   3.957   3.195
 2597WAT     H2 9894  11.093   4.051   3.160
 2598WAT      O 9895  11.006   3.878   2.425
 2598WAT     H1 9896  11.056   3.854   2.504
 2598WAT     H2 9897  10.986   3.794   2.383
 2599WAT      O 9898   9.594   3.316   2.989
 2599WAT     H1 9899   9.659   3.261   2.945
 2599WAT     H2 9900   9.636   3.341   3.071
 2600WAT      O 9901  10.984   3.335   3.324
 2600WAT     H1 9902  11.047   3.397   3.361
 2600WAT     H2 9903  10.998   3.339   3.230
 2601WAT      O 9904  10.940   5.005   2.665
 2601WAT     H1 9905  10.999   4.973   2.597
 2601WAT     H2 9906  10.965   4.958   2.744
 2602WAT      O 9907   9.570   3.331   3.263
 2602WAT     H1 9908   9.535   3.377   3.339
 2602WAT     H2 9909   9.536   3.242   3.271
 2603WAT      O 9910   9.730   4.649   3.679
 2603WAT     H1 9911   9.726   4.611   3.768
 2603WAT     H2 9912   9.743   4.742   3.693
 2604WAT      O 9913  10.100   4.804   3.240
 2604WAT     H1 9914  10.076   4.831   3.151
 2604WAT     H2 9915  10.194   4.821   3.245
 2605WAT      O 9916  10.321   3.450   3.615
 2605WAT     H1 9917  10.315   3.510   3.690
 2605WAT     H2 9918  10.415   3.440   3.601
 2606WAT      O 9919  10.585   3.416   3.579
 2606WAT     H1 9920  10.646   3.448   3.513
 2606WAT     H2 9921  10.639   3.368   3.641
 2607WAT      O 9922   9.637   3.284   3.590
 2607WAT     H1 9923   9.692   3.266   3.514
 2607WAT     H2 9924   9.643   3.205   3.644
 2608WAT      O 9925   9.714   4.943   3.391
 2608WAT     H1 9926   9.655   4.930   3.465
 2608WAT     H2 9927   9.713   4.860   3.345
 2609WAT      O 9928  10.659   3.272   3.212
 2609WAT     H1 9929  10.571   3.306   3.191
 2609WAT     H2 9930  10.648   3.225   3.294
 2610WAT      O 9931  10.749   3.493   3.350
 2610WAT     H1 9932  10.716   3.412   3.312
 2610WAT     H2 9933  10.844   3.489   3.338
 2611WAT      O 9934  10.995   5.070   3.047
 2611WAT     H1 9935  10.949   5.145   3.010
 2611WAT     H2 9936  10.932   4.998   3.042
 2612WAT      O 9937   9.677   4.680   3.286
 2612WAT     H1 9938   9.605   4.618   3.280
 2612WAT     H2 9939   9.683   4.719   3.199
 2613WAT      O 9940  10.038   4.901   2.965
 2613WAT     H1 9941  10.089   4.840   2.912
 2613WAT     H2 9942  10.103   4.951   3.014
 2614WAT      O 9943  10.312   4.990   3.048
 2614WAT     H1 9944  10.340   4.965   2.960
 2614WAT     H2 9945  10.363   4.935   3.107
 2615WAT      O 9946  10.433   3.364   3.106
 2615WAT     H1 9947  10.355   3.412   3.134
 2615WAT     H2 9948  10.404   3.274   3.095
 2616WAT      O 9949  10.889   3.434   2.910
 2616WAT     H1 9950  10.933   3.429   2.825
 2616WAT     H2 9951  10.862   3.526   2.917
 2617WAT      O 9952   9.505   5.011   2.607
 2617WAT     H1 9953   9.489   4.948   2.677
 2617WAT     H2 9954   9.419   5.032   2.572
 2618WAT      O 9955  10.222   3.606   2.657
 2618WAT     H1 9956  10.141   3.569   2.623
 2618WAT     H2 9957  10.272   3.530   2.687
 2619WAT      O 9958  10.672   3.272   2.781
 2619WAT     H1 9959  10.732   3.330   2.828
 2619WAT     H2 9960  10.598   3.329   2.758
 2620WAT      O 9961  10.986   3.313   2.308
 2620WAT     H1 9962  11.006   3.403   2.335
 2620WAT     H2 9963  10.908   3.290   2.357
 2621WAT      O 9964   9.666   4.881   2.352
 2621WAT     H1 9965   9.614   4.919   2.282
 2621WAT     H2 9966   9.659   4.943   2.424
 2622WAT      O 9967  10.024   3.421   2.517
 2622WAT     H1 9968   9.961   3.351   2.534
 2622WAT     H2 9969   9.970   3.497   2.496
 2623WAT      O 9970  10.318   5.082   3.784
 2623WAT     H1 9971  10.411   5.059   3.789
 2623WAT     H2 9972  10.317   5.165   3.736
 2624WAT      O 9973  10.037   3.349   3.761
 2624WAT     H1 9974  10.009   3.399   3.684
 2624WAT     H2 9975  10.075   3.269   3.724
 2625WAT      O 9976   9.926   5.076   2.239
 2625WAT     H1 9977   9.999   5.047   2.185
 2625WAT     H2 9978   9.952   5.052   2.328
 2626WAT      O 9979   9.842   4.687   2.240
 2626WAT     H1 9980   9.779   4.734   2.295
 2626WAT     H2 9981   9.854   4.603   2.283
 2627WAT      O 9982  10.697   3.290   3.819
 2627WAT     H1 9983  10.686   3.322   3.908
 2627WAT     H2 9984  10.779   3.331   3.789
 2628WAT      O 9985  10.975   5.005   3.767
 2628WAT     H1 9986  11.054   4.956   3.746
 2628WAT     H2 9987  11.004   5.073   3.827
 2629WAT      O 9988  10.588   4.092   0.855
 2629WAT     H1 9989  10.580   4.001   0.828
 2629WAT     H2 9990  10.546   4.142   0.784
 2630WAT      O 9991  10.401   4.270   1.043
 2630WAT     H1 9992  10.323   4.222   1.072
 2630WAT     H2 9993  10.466   4.202   1.026
 2631WAT      O 9994   9.803   4.301   1.131
 2631WAT     H1 9995   9.719   4.276   1.171
 2631WAT     H2 9996   9.863   4.308   1.204
 2632WAT      O 9997  10.803   4.711   0.921
 2632WAT     H1 9998  10.757   4.634   0.954
 2632WAT     H2 9999  10.884   4.713   0.972
 2633WAT      O10000   9.801   4.705   1.150
 2633WAT     H110001   9.831   4.616   1.132
 2633WAT     H210002   9.875   4.760   1.128
 2634WAT      O10003   9.643   3.797   0.509
 2634WAT     H110004   9.555   3.832   0.499
 2634WAT     H210005   9.672   3.777   0.420
 2635WAT      O10006   9.440   4.057   1.098
 2635WAT     H110007   9.497   3.981   1.098
 2635WAT     H210008   9.440   4.087   1.007
 2636WAT      O10009  10.426   4.939   0.883
 2636WAT     H110010  10.364   4.985   0.826
 2636WAT     H210011  10.511   4.955   0.843
 2637WAT      O10012  10.345   4.538   1.044
 2637WAT     H110013  10.338   4.444   1.028
 2637WAT     H210014  10.421   4.547   1.101
 2638WAT      O10015   9.564   3.598   1.276
 2638WAT     H110016   9.546   3.508   1.304
 2638WAT     H210017   9.524   3.653   1.344
 2639WAT      O10018  10.448   3.818   1.066
 2639WAT     H110019  10.486   3.731   1.055
 2639WAT     H210020  10.438   3.852   0.977
 2640WAT      O10021   9.861   3.656   0.613
 2640WAT     H110022   9.872   3.746   0.643
 2640WAT     H210023   9.770   3.651   0.584
 2641WAT      O10024  10.826   3.568   0.760
 2641WAT     H110025  10.908   3.519   0.764
 2641WAT     H210026  10.830   3.627   0.835
 2642WAT      O10027   9.626   3.848   1.137
 2642WAT     H110028   9.694   3.874   1.199
 2642WAT     H210029   9.594   3.764   1.170
 2643WAT      O10030  10.045   3.953   1.046
 2643WAT     H110031  10.096   4.002   1.110
 2643WAT     H210032  10.098   3.875   1.028
 2644WAT      O10033   9.873   3.417   1.472
 2644WAT     H110034   9.874   3.468   1.392
 2644WAT     H210035   9.791   3.369   1.470
 2645WAT      O10036  10.512   4.428   0.622
 2645WAT     H110037  10.450   4.474   0.566
 2645WAT     H210038  10.563   4.497   0.664
 2646WAT      O10039   9.999   4.380   1.290
 2646WAT     H110040   9.965   4.443   1.354
 2646WAT     H210041  10.016   4.433   1.212
 2647WAT      O10042  10.850   3.762   1.037
 2647WAT     H110043  10.779   3.791   1.095
 2647WAT     H210044  10.886   3.843   1.001
 2648WAT      O10045   9.842   3.588   1.273
 2648WAT     H110046   9.876   3.672   1.244
 2648WAT     H210047   9.748   3.602   1.285
 2649WAT      O10048   9.920   4.577   1.472
 2649WAT     H110049   9.981   4.645   1.444
 2649WAT     H210050   9.834   4.618   1.463
 2650WAT      O10051   9.449   4.496   0.360
 2650WAT     H110052   9.411   4.545   0.287
 2650WAT     H210053   9.475   4.564   0.423
 2651WAT      O10054  11.011   4.724   1.263
 2651WAT     H110055  10.943   4.791   1.262
 2651WAT     H210056  11.065   4.743   1.187
 2652WAT      O10057  10.210   3.336   0.906
 2652WAT     H110058  10.241   3.281   0.834
 2652WAT     H210059  10.117   3.350   0.887
 2653WAT      O10060  10.765   4.908   1.135
 2653WAT     H110061  10.766   4.868   1.048
 2653WAT     H210062  10.710   4.986   1.124
 2654WAT      O10063  10.895   4.580   0.644
 2654WAT     H110064  10.883   4.486   0.656
 2654WAT     H210065  10.894   4.616   0.732
 2655WAT      O10066  10.705   4.398   1.267
 2655WAT     H110067  10.747   4.377   1.184
 2655WAT     H210068  10.777   4.424   1.325
 2656WAT      O10069  10.449   4.143   0.579
 2656WAT     H110070  10.356   4.136   0.602
 2656WAT     H210071  10.464   4.237   0.568
 2657WAT      O10072  10.447   3.770   0.279
 2657WAT     H110073  10.353   3.786   0.287
 2657WAT     H210074  10.479   3.842   0.224
 2658WAT      O10075  10.852   4.299   0.630
 2658WAT     H110076  10.790   4.265   0.565
 2658WAT     H210077  10.850   4.235   0.700
 2659WAT      O10078  10.796   3.917   1.371
 2659WAT     H110079  10.755   4.000   1.397
 2659WAT     H210080  10.723   3.858   1.352
 2660WAT      O10081  10.009   4.196   0.857
 2660WAT     H110082   9.969   4.124   0.808
 2660WAT     H210083  10.018   4.161   0.946
 2661WAT      O10084  10.056   4.564   1.074
 2661WAT     H110085  10.026   4.504   1.006
 2661WAT     H210086  10.151   4.568   1.063
 2662WAT      O10087   9.881   3.873   1.235
 2662WAT     H110088   9.936   3.884   1.158
 2662WAT     H210089   9.932   3.910   1.307
 2663WAT      O10090  10.865   4.922   1.440
 2663WAT     H110091  10.817   5.002   1.421
 2663WAT     H210092  10.797   4.856   1.455
 2664WAT      O10093   9.965   4.538   1.739
 2664WAT     H110094   9.876   4.560   1.764
 2664WAT     H210095   9.968   4.550   1.644
 2665WAT      O10096  10.669   4.223   0.330
 2665WAT     H110097  10.713   4.139   0.316
 2665WAT     H210098  10.741   4.286   0.339
 2666WAT      O10099   9.848   4.225   1.596
 2666WAT     H110100   9.834   4.312   1.633
 2666WAT     H210101   9.760   4.191   1.582
 2667WAT      O10102  10.480   4.717   0.727
 2667WAT     H110103  10.524   4.791   0.686
 2667WAT     H210104  10.474   4.741   0.819
 2668WAT      O10105  10.028   4.819   1.817
 2668WAT     H110106  10.025   4.860   1.731
 2668WAT     H210107  10.011   4.727   1.801
 2669WAT      O10108   9.679   4.085   0.607
 2669WAT     H110109   9.667   4.158   0.546
 2669WAT     H210110   9.648   4.008   0.560
 2670WAT      O10111   9.443   4.402   1.188
 2670WAT     H110112   9.451   4.416   1.094
 2670WAT     H210113   9.505   4.331   1.207
 2671WAT      O10114   9.568   4.572   0.829
 2671WAT     H110115   9.527   4.586   0.744
 2671WAT     H210116   9.657   4.544   0.809
 2672WAT      O10117  10.549   4.987   1.520
 2672WAT     H110118  10.601   4.978   1.600
 2672WAT     H210119  10.465   5.022   1.549
 2673WAT      O10120  10.747   5.016   0.463
 2673WAT     H110121  10.731   4.987   0.553
 2673WAT     H210122  10.730   4.938   0.409
 2674WAT      O10123   9.995   4.994   0.640
 2674WAT     H110124   9.977   4.902   0.619
 2674WAT     H210125   9.909   5.029   0.664
 2675WAT      O10126  10.717   4.767   0.319
 2675WAT     H110127  10.648   4.766   0.253
 2675WAT     H210128  10.791   4.724   0.276
 2676WAT      O10129  10.674   4.929   0.726
 2676WAT     H110130  10.719   4.851   0.758
 2676WAT     H210131  10.708   5.000   0.781
 2677WAT      O10132   9.449   4.506   1.442
 2677WAT     H110133   9.465   4.459   1.360
 2677WAT     H210134   9.495   4.456   1.509
 2678WAT      O10135   9.926   3.419   0.946
 2678WAT     H110136   9.882   3.497   0.913
 2678WAT     H210137   9.982   3.452   1.016
 2679WAT      O10138  10.355   3.706   1.506
 2679WAT     H110139  10.308   3.727   1.587
 2679WAT     H210140  10.314   3.625   1.476
 2680WAT      O10141  10.855   3.828   1.619
 2680WAT     H110142  10.770   3.798   1.651
 2680WAT     H210143  10.839   3.853   1.528
 2681WAT      O10144  10.564   3.978   1.829
 2681WAT     H110145  10.597   3.895   1.795
 2681WAT     H210146  10.643   4.030   1.844
 2682WAT      O10147  10.238   3.381   0.434
 2682WAT     H110148  10.175   3.381   0.506
 2682WAT     H210149  10.229   3.295   0.394
 2683WAT      O10150  10.130   3.474   1.132
 2683WAT     H110151  10.159   3.564   1.124
 2683WAT     H210152  10.185   3.425   1.070
 2684WAT      O10153   9.905   3.932   0.719
 2684WAT     H110154   9.883   3.910   0.809
 2684WAT     H210155   9.827   3.975   0.684
 2685WAT      O10156  10.628   3.932   0.578
 2685WAT     H110157  10.568   4.005   0.560
 2685WAT     H210158  10.683   3.926   0.500
 2686WAT      O10159  10.149   4.022   1.785
 2686WAT     H110160  10.140   3.928   1.770
 2686WAT     H210161  10.233   4.044   1.746
 2687WAT      O10162  10.489   3.796   0.781
 2687WAT     H110163  10.528   3.828   0.700
 2687WAT     H210164  10.525   3.708   0.793
 2688WAT      O10165   9.662   3.663   1.600
 2688WAT     H110166   9.623   3.747   1.621
 2688WAT     H210167   9.593   3.599   1.620
 2689WAT      O10168  10.320   3.671   1.907
 2689WAT     H110169  10.251   3.652   1.971
 2689WAT     H210170  10.394   3.699   1.961
 2690WAT      O10171   9.392   3.455   1.004
 2690WAT     H110172   9.364   3.512   1.075
 2690WAT     H210173   9.467   3.407   1.040
 2691WAT      O10174  10.547   4.055   1.191
 2691WAT     H110175  10.474   4.106   1.226
 2691WAT     H210176  10.508   3.973   1.161
 2692WAT      O10177  10.191   3.723   1.031
 2692WAT     H110178  10.191   3.678   0.947
 2692WAT     H210179  10.281   3.755   1.042
 2693WAT      O10180   9.776   3.711   0.927
 2693WAT     H110181   9.742   3.759   1.003
 2693WAT     H210182   9.700   3.665   0.891
 2694WAT      O10183  10.197   3.823   0.331
 2694WAT     H110184  10.209   3.819   0.425
 2694WAT     H210185  10.159   3.909   0.315
 2695WAT      O10186  10.594   3.600   1.132
 2695WAT     H110187  10.595   3.645   1.217
 2695WAT     H210188  10.569   3.510   1.154
 2696WAT      O10189  10.098   4.054   0.270
 2696WAT     H110190  10.042   4.009   0.208
 2696WAT     H210191  10.169   4.090   0.217
 2697WAT      O10192  10.936   3.342   1.716
 2697WAT     H110193  10.969   3.269   1.769
 2697WAT     H210194  10.940   3.310   1.626
 2698WAT      O10195   9.606   4.444   1.658
 2698WAT     H110196   9.568   4.380   1.718
 2698WAT     H210197   9.637   4.514   1.715
 2699WAT      O10198  10.221   4.129   1.206
 2699WAT     H110199  10.258   4.081   1.281
 2699WAT     H210200  10.202   4.216   1.240
 2700WAT      O10201   9.508   3.603   0.819
 2700WAT     H110202   9.479   3.567   0.903
 2700WAT     H210203   9.501   3.530   0.758
 2701WAT      O10204  10.000   4.033   1.438
 2701WAT     H110205   9.970   4.121   1.460
 2701WAT     H210206  10.096   4.039   1.442
 2702WAT      O10207   9.853   4.453   0.498
 2702WAT     H110208   9.776   4.399   0.482
 2702WAT     H210209   9.926   4.401   0.464
 2703WAT      O10210  10.929   4.353   1.077
 2703WAT     H110211  11.001   4.402   1.038
 2703WAT     H210212  10.909   4.285   1.012
 2704WAT      O10213  10.475   3.492   0.491
 2704WAT     H110214  10.394   3.442   0.484
 2704WAT     H210215  10.456   3.576   0.450
 2705WAT      O10216  10.467   4.360   1.666
 2705WAT     H110217  10.460   4.268   1.640
 2705WAT     H210218  10.404   4.370   1.737
 2706WAT      O10219  10.746   3.930   0.321
 2706WAT     H110220  10.835   3.961   0.303
 2706WAT     H210221  10.743   3.842   0.282
 2707WAT      O10222   9.857   4.420   0.861
 2707WAT     H110223   9.909   4.340   0.856
 2707WAT     H210224   9.812   4.414   0.946
 2708WAT      O10225  10.346   4.547   0.389
 2708WAT     H110226  10.380   4.621   0.339
 2708WAT     H210227  10.263   4.578   0.425
 2709WAT      O10228   9.606   4.117   1.553
 2709WAT     H110229   9.570   4.183   1.611
 2709WAT     H210230   9.576   4.034   1.590
 2710WAT      O10231   9.926   4.163   1.841
 2710WAT     H110232   9.896   4.177   1.751
 2710WAT     H210233  10.003   4.107   1.832
 2711WAT      O10234  10.460   4.642   1.641
 2711WAT     H110235  10.462   4.549   1.619
 2711WAT     H210236  10.389   4.651   1.705
 2712WAT      O10237  10.974   4.061   0.268
 2712WAT     H110238  10.965   4.104   0.183
 2712WAT     H210239  11.045   4.107   0.311
 2713WAT      O10240  11.076   4.746   0.540
 2713WAT     H110241  11.012   4.681   0.568
 2713WAT     H210242  11.038   4.787   0.463
 2714WAT      O10243  10.634   4.479   0.925
 2714WAT     H110244  10.670   4.419   0.859
 2714WAT     H210245  10.546   4.446   0.942
 2715WAT      O10246  10.243   4.555   0.666
 2715WAT     H110247  10.312   4.610   0.704
 2715WAT     H210248  10.164   4.609   0.669
 2716WAT      O10249   9.457   4.117   0.215
 2716WAT     H110250   9.544   4.145   0.243
 2716WAT     H210251   9.408   4.198   0.204
 2717WAT      O10252  10.173   4.255   0.627
 2717WAT     H110253  10.219   4.336   0.650
 2717WAT     H210254  10.138   4.224   0.710
 2718WAT      O10255  10.404   4.806   1.350
 2718WAT     H110256  10.468   4.827   1.418
 2718WAT     H210257  10.440   4.730   1.305
 2719WAT      O10258   9.763   3.290   0.674
 2719WAT     H110259   9.750   3.289   0.769
 2719WAT     H210260   9.681   3.324   0.639
 2720WAT      O10261  10.531   4.607   1.222
 2720WAT     H110262  10.595   4.537   1.233
 2720WAT     H210263  10.583   4.685   1.204
 2721WAT      O10264  10.708   4.687   1.542
 2721WAT     H110265  10.742   4.745   1.610
 2721WAT     H210266  10.616   4.674   1.565
 2722WAT      O10267   9.494   5.038   0.272
 2722WAT     H110268   9.530   5.098   0.206
 2722WAT     H210269   9.479   5.092   0.349
 2723WAT      O10270   9.463   3.466   1.620
 2723WAT     H110271   9.392   3.486   1.681
 2723WAT     H210272   9.505   3.388   1.658
 2724WAT      O10273  10.874   4.427   0.360
 2724WAT     H110274  10.845   4.473   0.439
 2724WAT     H210275  10.953   4.381   0.387
 2725WAT      O10276   9.492   4.864   1.719
 2725WAT     H110277   9.503   4.770   1.705
 2725WAT     H210278   9.427   4.891   1.654
 2726WAT      O10279  10.291   4.692   1.859
 2726WAT     H110280  10.259   4.620   1.914
 2726WAT     H210281  10.224   4.759   1.866
 2727WAT      O10282  10.095   4.776   0.353
 2727WAT     H110283  10.094   4.849   0.292
 2727WAT     H210284  10.003   4.752   0.363
 2728WAT      O10285   9.655   4.298   0.428
 2728WAT     H110286   9.595   4.372   0.429
 2728WAT     H210287   9.703   4.307   0.345
 2729WAT      O10288  10.613   3.715   1.395
 2729WAT     H110289  10.649   3.633   1.428
 2729WAT     H210290  10.527   3.721   1.437
 2730WAT      O10291  10.949   3.610   0.476
 2730WAT     H110292  10.886   3.621   0.405
 2730WAT     H210293  10.900   3.632   0.555
 2731WAT      O10294  10.146   3.838   0.618
 2731WAT     H110295  10.075   3.885   0.662
 2731WAT     H210296  10.175   3.773   0.681
 2732WAT      O10297  10.309   3.980   1.418
 2732WAT     H110298  10.359   4.028   1.484
 2732WAT     H210299  10.323   3.888   1.439
 2733WAT      O10300  10.549   3.511   0.762
 2733WAT     H110301  10.537   3.513   0.667
 2733WAT     H210302  10.644   3.516   0.774
 2734WAT      O10303  10.258   5.034   0.689
 2734WAT     H110304  10.283   5.031   0.597
 2734WAT     H210305  10.163   5.022   0.688
 2735WAT      O10306   9.966   3.669   0.355
 2735WAT     H110307  10.051   3.713   0.349
 2735WAT     H210308   9.930   3.700   0.438
 2736WAT      O10309  11.029   3.602   1.502
 2736WAT     H110310  10.979   3.676   1.536
 2736WAT     H210311  11.111   3.641   1.470
 2737WAT      O10312  10.859   4.126   0.847
 2737WAT     H110313  10.764   4.128   0.864
 2737WAT     H210314  10.890   4.048   0.891
 2738WAT      O10315   9.726   4.038   0.271
 2738WAT     H110316   9.734   3.943   0.282
 2738WAT     H210317   9.815   4.071   0.282
 2739WAT      O10318   9.806   5.053   0.981
 2739WAT     H110319   9.880   4.998   1.009
 2739WAT     H210320   9.844   5.139   0.967
 2740WAT      O10321   9.494   4.659   0.569
 2740WAT     H110322   9.402   4.684   0.568
 2740WAT     H210323   9.541   4.742   0.557
 2741WAT      O10324   9.707   4.971   1.900
 2741WAT     H110325   9.787   5.003   1.942
 2741WAT     H210326   9.655   4.935   1.972
 2742WAT      O10327  10.590   4.582   1.895
 2742WAT     H110328  10.530   4.584   1.821
 2742WAT     H210329  10.560   4.509   1.949
 2743WAT      O10330  10.733   4.955   1.756
 2743WAT     H110331  10.828   4.946   1.751
 2743WAT     H210332  10.718   5.021   1.823
 2744WAT      O10333  11.022   4.893   0.306
 2744WAT     H110334  10.994   4.851   0.225
 2744WAT     H210335  11.003   4.986   0.294
 2745WAT      O10336   9.479   4.220   1.795
 2745WAT     H110337   9.529   4.162   1.852
 2745WAT     H210338   9.405   4.248   1.848
 2746WAT      O10339  10.184   4.361   1.748
 2746WAT     H110340  10.107   4.417   1.740
 2746WAT     H210341  10.202   4.331   1.659
 2747WAT      O10342  10.493   4.398   0.211
 2747WAT     H110343  10.438   4.443   0.275
 2747WAT     H210344  10.555   4.348   0.263
 2748WAT      O10345  10.898   4.534   1.804
 2748WAT     H110346  10.972   4.567   1.753
 2748WAT     H210347  10.822   4.551   1.748
 2749WAT      O10348  10.060   4.294   0.400
 2749WAT     H110349  10.102   4.278   0.484
 2749WAT     H210350  10.072   4.213   0.351
 2750WAT      O10351   9.876   3.892   1.681
 2750WAT     H110352   9.823   3.843   1.618
 2750WAT     H210353   9.943   3.935   1.627
 2751WAT      O10354  10.766   4.339   1.657
 2751WAT     H110355  10.807   4.354   1.742
 2751WAT     H210356  10.672   4.351   1.674
 2752WAT      O10357  10.813   4.073   1.858
 2752WAT     H110358  10.871   3.997   1.849
 2752WAT     H210359  10.830   4.126   1.780
 2753WAT      O10360   9.925   3.589   1.689
 2753WAT     H110361   9.915   3.527   1.616
 2753WAT     H210362   9.867   3.661   1.666
 2754WAT      O10363  10.201   3.444   1.392
 2754WAT     H110364  10.156   3.447   1.308
 2754WAT     H210365  10.138   3.405   1.452
 2755WAT      O10366  10.242   4.334   1.454
 2755WAT     H110367  10.284   4.418   1.437
 2755WAT     H210368  10.150   4.348   1.431
 2756WAT      O10369  10.475   4.107   1.593
 2756WAT     H110370  10.487   4.048   1.667
 2756WAT     H210371  10.561   4.111   1.551
 2757WAT      O10372  10.709   4.163   1.450
 2757WAT     H110373  10.657   4.215   1.390
 2757WAT     H210374  10.744   4.226   1.513
 2758WAT      O10375  10.027   4.965   1.566
 2758WAT     H110376   9.973   5.037   1.534
 2758WAT     H210377  10.052   4.917   1.487
 2759WAT      O10378  10.152   3.761   1.718
 2759WAT     H110379  10.211   3.731   1.787
 2759WAT     H210380  10.070   3.714   1.734
 2760WAT      O10381  10.634   3.723   1.742
 2760WAT     H110382  10.565   3.657   1.735
 2760WAT     H210383  10.706   3.678   1.786
 2761WAT      O10384  10.697   3.383   0.348
 2761WAT     H110385  10.725   3.298   0.383
 2761WAT     H210386  10.620   3.406   0.399
 2762WAT      O10387  10.312   5.088   1.592
 2762WAT     H110388  10.305   5.178   1.622
 2762WAT     H210389  10.222   5.056   1.589
 2763WAT      O10390  10.367   5.005   0.354
 2763WAT     H110391  10.457   5.038   0.356
 2763WAT     H210392  10.370   4.932   0.291
 2764WAT      O10393   9.731   4.542   0.177
 2764WAT     H110394   9.775   4.596   0.242
 2764WAT     H210395   9.780   4.459   0.178
 2765WAT      O10396   9.453   4.821   0.922
 2765WAT     H110397   9.486   4.734   0.899
 2765WAT     H210398   9.496   4.841   1.005
 2766WAT      O10399   9.912   4.654   0.688
 2766WAT     H110400   9.882   4.642   0.778
 2766WAT     H210401   9.902   4.568   0.647
 2767WAT      O10402   9.502   4.907   1.196
 2767WAT     H110403   9.458   4.925   1.279
 2767WAT     H210404   9.558   4.983   1.182
 2768WAT      O10405  11.065   4.858   1.625
 2768WAT     H110406  11.005   4.864   1.550
 2768WAT     H210407  11.078   4.764   1.638
 2769WAT      O10408   9.485   4.159   0.832
 2769WAT     H110409   9.419   4.132   0.767
 2769WAT     H210410   9.569   4.148   0.787
 2770WAT      O10411  10.934   4.530   1.434
 2770WAT     H110412  10.852   4.573   1.461
 2770WAT     H210413  10.975   4.591   1.373
 2771WAT      O10414  10.780   3.638   0.254
 2771WAT     H110415  10.822   3.619   0.170
 2771WAT     H210416  10.749   3.553   0.285
 2772WAT      O10417   9.589   4.197   1.286
 2772WAT     H110418   9.625   4.188   1.374
 2772WAT     H210419   9.532   4.121   1.276
 2773WAT      O10420  11.069   4.044   1.587
 2773WAT     H110421  11.046   4.021   1.497
 2773WAT     H210422  11.095   4.136   1.583
 2774WAT      O10423  10.913   3.567   1.865
 2774WAT     H110424  11.000   3.567   1.903
 2774WAT     H210425  10.914   3.493   1.804
 2775WAT      O10426   9.406   3.880   0.426
 2775WAT     H110427   9.316   3.906   0.409
 2775WAT     H210428   9.455   3.907   0.348
 2776WAT      O10429  11.057   3.952   0.954
 2776WAT     H110430  11.110   3.903   0.891
 2776WAT     H210431  11.116   3.965   1.028
 2777WAT      O10432  11.075   3.960   1.306
 2777WAT     H110433  10.980   3.957   1.317
 2777WAT     H210434  11.093   4.051   1.282
 2778WAT      O10435  11.006   3.878   0.548
 2778WAT     H110436  11.056   3.854   0.626
 2778WAT     H210437  10.986   3.794   0.506
 2779WAT      O10438   9.594   3.316   1.111
 2779WAT     H110439   9.659   3.261   1.067
 2779WAT     H210440   9.636   3.341   1.193
 2780WAT      O10441  10.984   3.335   1.447
 2780WAT     H110442  11.047   3.397   1.483
 2780WAT     H210443  10.998   3.339   1.352
 2781WAT      O10444  10.940   5.005   0.787
 2781WAT     H110445  10.999   4.973   0.719
 2781WAT     H210446  10.965   4.958   0.866
 2782WAT      O10447   9.570   3.331   1.385
 2782WAT     H110448   9.535   3.377   1.462
 2782WAT     H210449   9.536   3.242   1.394
 2783WAT      O10450   9.730   4.649   1.802
 2783WAT     H110451   9.726   4.611   1.890
 2783WAT     H210452   9.743   4.742   1.816
 2784WAT      O10453  10.100   4.804   1.362
 2784WAT     H110454  10.076   4.831   1.273
 2784WAT     H210455  10.194   4.821   1.368
 2785WAT      O10456  10.321   3.450   1.738
 2785WAT     H110457  10.315   3.510   1.813
 2785WAT     H210458  10.415   3.440   1.723
 2786WAT      O10459  10.585   3.416   1.702
 2786WAT     H110460  10.646   3.448   1.635
 2786WAT     H210461  10.639   3.368   1.764
 2787WAT      O10462   9.637   3.284   1.713
 2787WAT     H110463   9.692   3.266   1.637
 2787WAT     H210464   9.643   3.205   1.767
 2788WAT      O10465   9.714   4.943   1.514
 2788WAT     H110466   9.655   4.930   1.588
 2788WAT     H210467   9.713   4.860   1.467
 2789WAT      O10468  10.659   3.272   1.334
 2789WAT     H110469  10.571   3.306   1.314
 2789WAT     H210470  10.648   3.225   1.417
 2790WAT      O10471  10.749   3.493   1.473
 2790WAT     H110472  10.716   3.412   1.435
 2790WAT     H210473  10.844   3.489   1.460
 2791WAT      O10474  10.995   5.070   1.170
 2791WAT     H110475  10.949   5.145   1.133
 2791WAT     H210476  10.932   4.998   1.164
 2792WAT      O10477   9.677   4.680   1.409
 2792WAT     H110478   9.605   4.618   1.402
 2792WAT     H210479   9.683   4.719   1.322
 2793WAT      O10480  10.038   4.901   1.088
 2793WAT     H110481  10.089   4.840   1.035
 2793WAT     H210482  10.103   4.951   1.137
 2794WAT      O10483  10.312   4.990   1.170
 2794WAT     H110484  10.340   4.965   1.083
 2794WAT     H210485  10.363   4.935   1.229
 2795WAT      O10486  10.433   3.364   1.228
 2795WAT     H110487  10.355   3.412   1.256
 2795WAT     H210488  10.404   3.274   1.217
 2796WAT      O10489  10.889   3.434   1.033
 2796WAT     H110490  10.933   3.429   0.948
 2796WAT     H210491  10.862   3.526   1.040
 2797WAT      O10492   9.505   5.011   0.730
 2797WAT     H110493   9.489   4.948   0.800
 2797WAT     H210494   9.419   5.032   0.695
 2798WAT      O10495   9.568   3.395   0.480
 2798WAT     H110496   9.644   3.406   0.423
 2798WAT     H210497   9.522   3.478   0.476
 2799WAT      O10498  10.222   3.606   0.779
 2799WAT     H110499  10.141   3.569   0.745
 2799WAT     H210500  10.272   3.530   0.810
 2800WAT      O10501  10.672   3.272   0.903
 2800WAT     H110502  10.732   3.330   0.951
 2800WAT     H210503  10.598   3.329   0.881
 2801WAT      O10504  10.986   3.313   0.431
 2801WAT     H110505  11.006   3.403   0.457
 2801WAT     H210506  10.908   3.290   0.480
 2802WAT      O10507   9.666   4.881   0.474
 2802WAT     H110508   9.614   4.919   0.404
 2802WAT     H210509   9.659   4.943   0.547
 2803WAT      O10510   9.805   3.447   0.334
 2803WAT     H110511   9.858   3.369   0.321
 2803WAT     H210512   9.868   3.515   0.358
 2804WAT      O10513  10.024   3.421   0.640
 2804WAT     H110514   9.961   3.351   0.656
 2804WAT     H210515   9.970   3.497   0.618
 2805WAT      O10516  10.318   5.082   1.907
 2805WAT     H110517  10.411   5.059   1.911
 2805WAT     H210518  10.317   5.165   1.859
 2806WAT      O10519  10.037   3.349   1.883
 2806WAT     H110520  10.009   3.399   1.807
 2806WAT     H210521  10.075   3.269   1.847
 2807WAT      O10522   9.926   5.076   0.362
 2807WAT     H110523   9.999   5.047   0.307
 2807WAT     H210524   9.952   5.052   0.451
 2808WAT      O10525   9.842   4.687   0.362
 2808WAT     H110526   9.779   4.734   0.417
 2808WAT     H210527   9.854   4.603   0.406
 2809WAT      O10528  10.697   3.290   1.941
 2809WAT     H110529  10.686   3.322   2.031
 2809WAT     H210530  10.779   3.331   1.911
 2810WAT      O10531  10.975   5.005   1.889
 2810WAT     H110532  11.054   4.956   1.869
 2810WAT     H210533  11.004   5.073   1.950
 2811WAT      O10534  10.588   2.215   6.487
 2811WAT     H110535  10.580   2.123   6.460
 2811WAT     H210536  10.546   2.265   6.417
 2812WAT      O10537  10.401   2.393   6.675
 2812WAT     H110538  10.323   2.345   6.704
 2812WAT     H210539  10.466   2.325   6.658
 2813WAT      O10540   9.803   2.424   6.763
 2813WAT     H110541   9.719   2.398   6.803
 2813WAT     H210542   9.863   2.431   6.837
 2814WAT      O10543  10.803   2.833   6.553
 2814WAT     H110544  10.757   2.756   6.586
 2814WAT     H210545  10.884   2.836   6.604
 2815WAT      O10546   9.801   2.827   6.783
 2815WAT     H110547   9.831   2.738   6.765
 2815WAT     H210548   9.875   2.883   6.760
 2816WAT      O10549   9.643   1.920   6.141
 2816WAT     H110550   9.555   1.954   6.131
 2816WAT     H210551   9.672   1.900   6.052
 2817WAT      O10552   9.440   2.180   6.730
 2817WAT     H110553   9.497   2.103   6.730
 2817WAT     H210554   9.440   2.210   6.639
 2818WAT      O10555  10.426   3.062   6.515
 2818WAT     H110556  10.364   3.107   6.458
 2818WAT     H210557  10.511   3.077   6.475
 2819WAT      O10558  10.345   2.660   6.676
 2819WAT     H110559  10.338   2.566   6.660
 2819WAT     H210560  10.421   2.669   6.733
 2820WAT      O10561   9.564   1.721   6.909
 2820WAT     H110562   9.546   1.631   6.937
 2820WAT     H210563   9.524   1.776   6.976
 2821WAT      O10564  10.448   1.941   6.699
 2821WAT     H110565  10.486   1.854   6.687
 2821WAT     H210566  10.438   1.975   6.610
 2822WAT      O10567   9.861   1.778   6.245
 2822WAT     H110568   9.872   1.868   6.276
 2822WAT     H210569   9.770   1.773   6.216
 2823WAT      O10570  10.826   1.690   6.392
 2823WAT     H110571  10.908   1.641   6.396
 2823WAT     H210572  10.830   1.749   6.467
 2824WAT      O10573   9.626   1.970   6.769
 2824WAT     H110574   9.694   1.997   6.831
 2824WAT     H210575   9.594   1.886   6.803
 2825WAT      O10576  10.045   2.075   6.678
 2825WAT     H110577  10.096   2.125   6.742
 2825WAT     H210578  10.098   1.997   6.661
 2826WAT      O10579   9.873   1.539   7.105
 2826WAT     H110580   9.874   1.591   7.024
 2826WAT     H210581   9.791   1.491   7.102
 2827WAT      O10582  10.512   2.550   6.255
 2827WAT     H110583  10.450   2.597   6.198
 2827WAT     H210584  10.563   2.620   6.296
 2828WAT      O10585   9.999   2.503   6.922
 2828WAT     H110586   9.965   2.566   6.987
 2828WAT     H210587  10.016   2.556   6.845
 2829WAT      O10588  10.850   1.884   6.669
 2829WAT     H110589  10.779   1.913   6.727
 2829WAT     H210590  10.886   1.965   6.633
 2830WAT      O10591   9.842   1.710   6.905
 2830WAT     H110592   9.876   1.795   6.876
 2830WAT     H210593   9.748   1.725   6.917
 2831WAT      O10594   9.920   2.700   7.104
 2831WAT     H110595   9.981   2.767   7.076
 2831WAT     H210596   9.834   2.741   7.095
 2832WAT      O10597   9.449   2.619   5.992
 2832WAT     H110598   9.411   2.668   5.919
 2832WAT     H210599   9.475   2.686   6.055
 2833WAT      O10600  11.011   2.846   6.896
 2833WAT     H110601  10.943   2.913   6.895
 2833WAT     H210602  11.065   2.866   6.819
 2834WAT      O10603  10.210   1.459   6.538
 2834WAT     H110604  10.241   1.403   6.466
 2834WAT     H210605  10.117   1.472   6.520
 2835WAT      O10606  10.765   3.031   6.767
 2835WAT     H110607  10.766   2.990   6.680
 2835WAT     H210608  10.710   3.108   6.757
 2836WAT      O10609  10.895   2.703   6.276
 2836WAT     H110610  10.883   2.609   6.288
 2836WAT     H210611  10.894   2.739   6.365
 2837WAT      O10612  10.705   2.521   6.900
 2837WAT     H110613  10.747   2.500   6.816
 2837WAT     H210614  10.777   2.547   6.957
 2838WAT      O10615  10.449   2.265   6.212
 2838WAT     H110616  10.356   2.259   6.234
 2838WAT     H210617  10.464   2.359   6.200
 2839WAT      O10618  10.447   1.893   5.911
 2839WAT     H110619  10.353   1.909   5.920
 2839WAT     H210620  10.479   1.965   5.857
 2840WAT      O10621  10.852   2.422   6.262
 2840WAT     H110622  10.790   2.388   6.197
 2840WAT     H210623  10.850   2.357   6.333
 2841WAT      O10624  10.796   2.040   7.004
 2841WAT     H110625  10.755   2.122   7.029
 2841WAT     H210626  10.723   1.981   6.984
 2842WAT      O10627  10.009   2.318   6.490
 2842WAT     H110628   9.969   2.247   6.440
 2842WAT     H210629  10.018   2.284   6.579
 2843WAT      O10630  10.056   2.687   6.706
 2843WAT     H110631  10.026   2.626   6.638
 2843WAT     H210632  10.151   2.691   6.695
 2844WAT      O10633   9.881   1.996   6.868
 2844WAT     H110634   9.936   2.007   6.790
 2844WAT     H210635   9.932   2.033   6.939
 2845WAT      O10636  10.865   3.044   7.072
 2845WAT     H110637  10.817   3.125   7.053
 2845WAT     H210638  10.797   2.979   7.088
 2846WAT      O10639   9.965   2.661   7.371
 2846WAT     H110640   9.876   2.683   7.396
 2846WAT     H210641   9.968   2.673   7.276
 2847WAT      O10642  10.669   2.346   5.963
 2847WAT     H110643  10.713   2.262   5.948
 2847WAT     H210644  10.741   2.409   5.971
 2848WAT      O10645   9.848   2.348   7.229
 2848WAT     H110646   9.834   2.435   7.266
 2848WAT     H210647   9.760   2.313   7.214
 2849WAT      O10648  10.480   2.840   6.359
 2849WAT     H110649  10.524   2.914   6.318
 2849WAT     H210650  10.474   2.864   6.452
 2850WAT      O10651  10.028   2.942   7.450
 2850WAT     H110652  10.025   2.982   7.363
 2850WAT     H210653  10.011   2.849   7.433
 2851WAT      O10654  11.028   1.471   5.794
 2851WAT     H110655  10.996   1.480   5.884
 2851WAT     H210656  11.104   1.529   5.789
 2852WAT      O10657   9.679   2.208   6.240
 2852WAT     H110658   9.667   2.280   6.179
 2852WAT     H210659   9.648   2.131   6.192
 2853WAT      O10660   9.443   2.525   6.820
 2853WAT     H110661   9.451   2.538   6.726
 2853WAT     H210662   9.505   2.454   6.840
 2854WAT      O10663   9.568   2.695   6.462
 2854WAT     H110664   9.527   2.709   6.376
 2854WAT     H210665   9.657   2.666   6.441
 2855WAT      O10666  10.549   3.110   7.152
 2855WAT     H110667  10.601   3.101   7.232
 2855WAT     H210668  10.465   3.144   7.181
 2856WAT      O10669  10.747   3.138   6.095
 2856WAT     H110670  10.731   3.109   6.185
 2856WAT     H210671  10.730   3.061   6.041
 2857WAT      O10672   9.995   3.116   6.273
 2857WAT     H110673   9.977   3.025   6.251
 2857WAT     H210674   9.909   3.152   6.297
 2858WAT      O10675  10.717   2.889   5.951
 2858WAT     H110676  10.648   2.889   5.885
 2858WAT     H210677  10.791   2.847   5.908
 2859WAT      O10678  10.674   3.052   6.358
 2859WAT     H110679  10.719   2.974   6.390
 2859WAT     H210680  10.708   3.123   6.413
 2860WAT      O10681   9.449   2.629   7.074
 2860WAT     H110682   9.465   2.582   6.993
 2860WAT     H210683   9.495   2.578   7.141
 2861WAT      O10684   9.926   1.542   6.578
 2861WAT     H110685   9.882   1.620   6.545
 2861WAT     H210686   9.982   1.574   6.649
 2862WAT      O10687  10.355   1.829   7.138
 2862WAT     H110688  10.308   1.849   7.220
 2862WAT     H210689  10.314   1.747   7.108
 2863WAT      O10690  10.855   1.951   7.251
 2863WAT     H110691  10.770   1.921   7.283
 2863WAT     H210692  10.839   1.975   7.160
 2864WAT      O10693  10.564   2.101   7.461
 2864WAT     H110694  10.597   2.017   7.427
 2864WAT     H210695  10.643   2.153   7.476
 2865WAT      O10696  10.238   1.504   6.066
 2865WAT     H110697  10.175   1.504   6.139
 2865WAT     H210698  10.229   1.417   6.026
 2866WAT      O10699  10.130   1.596   6.764
 2866WAT     H110700  10.159   1.687   6.756
 2866WAT     H210701  10.185   1.548   6.702
 2867WAT      O10702   9.905   2.054   6.351
 2867WAT     H110703   9.883   2.033   6.441
 2867WAT     H210704   9.827   2.098   6.316
 2868WAT      O10705  10.628   2.055   6.211
 2868WAT     H110706  10.568   2.127   6.192
 2868WAT     H210707  10.683   2.049   6.132
 2869WAT      O10708  10.149   2.144   7.417
 2869WAT     H110709  10.140   2.050   7.402
 2869WAT     H210710  10.233   2.166   7.378
 2870WAT      O10711  10.489   1.919   6.414
 2870WAT     H110712  10.528   1.950   6.332
 2870WAT     H210713  10.525   1.831   6.425
 2871WAT      O10714   9.662   1.785   7.233
 2871WAT     H110715   9.623   1.870   7.253
 2871WAT     H210716   9.593   1.722   7.252
 2872WAT      O10717   9.392   1.578   6.636
 2872WAT     H110718   9.364   1.635   6.707
 2872WAT     H210719   9.467   1.530   6.672
 2873WAT      O10720   9.411   1.972   5.757
 2873WAT     H110721   9.403   2.066   5.771
 2873WAT     H210722   9.376   1.957   5.669
 2874WAT      O10723  10.547   2.178   6.823
 2874WAT     H110724  10.474   2.228   6.858
 2874WAT     H210725  10.508   2.096   6.793
 2875WAT      O10726  10.191   1.845   6.664
 2875WAT     H110727  10.191   1.801   6.579
 2875WAT     H210728  10.281   1.877   6.675
 2876WAT      O10729   9.776   1.833   6.560
 2876WAT     H110730   9.742   1.881   6.635
 2876WAT     H210731   9.700   1.788   6.524
 2877WAT      O10732  10.197   1.945   5.963
 2877WAT     H110733  10.209   1.941   6.058
 2877WAT     H210734  10.159   2.031   5.947
 2878WAT      O10735  10.594   1.723   6.764
 2878WAT     H110736  10.595   1.768   6.849
 2878WAT     H210737  10.569   1.633   6.786
 2879WAT      O10738  10.098   2.176   5.903
 2879WAT     H110739  10.042   2.131   5.840
 2879WAT     H210740  10.169   2.212   5.849
 2880WAT      O10741  10.936   1.464   7.348
 2880WAT     H110742  10.969   1.391   7.401
 2880WAT     H210743  10.940   1.432   7.258
 2881WAT      O10744   9.606   2.566   7.290
 2881WAT     H110745   9.568   2.502   7.350
 2881WAT     H210746   9.637   2.637   7.347
 2882WAT      O10747  10.221   2.251   6.838
 2882WAT     H110748  10.258   2.204   6.913
 2882WAT     H210749  10.202   2.339   6.873
 2883WAT      O10750   9.508   1.726   6.451
 2883WAT     H110751   9.479   1.689   6.535
 2883WAT     H210752   9.501   1.652   6.390
 2884WAT      O10753  10.000   2.155   7.070
 2884WAT     H110754   9.970   2.243   7.093
 2884WAT     H210755  10.096   2.161   7.074
 2885WAT      O10756   9.853   2.576   6.130
 2885WAT     H110757   9.776   2.522   6.114
 2885WAT     H210758   9.926   2.524   6.096
 2886WAT      O10759  10.929   2.476   6.709
 2886WAT     H110760  11.001   2.525   6.670
 2886WAT     H210761  10.909   2.408   6.645
 2887WAT      O10762  10.475   1.615   6.124
 2887WAT     H110763  10.394   1.565   6.116
 2887WAT     H210764  10.456   1.699   6.082
 2888WAT      O10765  10.467   2.483   7.298
 2888WAT     H110766  10.460   2.391   7.272
 2888WAT     H210767  10.404   2.492   7.369
 2889WAT      O10768  10.746   2.052   5.953
 2889WAT     H110769  10.835   2.083   5.936
 2889WAT     H210770  10.743   1.965   5.914
 2890WAT      O10771   9.857   2.543   6.494
 2890WAT     H110772   9.909   2.462   6.488
 2890WAT     H210773   9.812   2.536   6.578
 2891WAT      O10774  10.346   2.669   6.021
 2891WAT     H110775  10.380   2.744   5.971
 2891WAT     H210776  10.263   2.701   6.057
 2892WAT      O10777   9.606   2.239   7.185
 2892WAT     H110778   9.570   2.306   7.244
 2892WAT     H210779   9.576   2.156   7.222
 2893WAT      O10780   9.926   2.285   7.473
 2893WAT     H110781   9.896   2.300   7.384
 2893WAT     H210782  10.003   2.229   7.464
 2894WAT      O10783  10.460   2.765   7.273
 2894WAT     H110784  10.462   2.672   7.251
 2894WAT     H210785  10.389   2.773   7.337
 2895WAT      O10786  10.974   2.183   5.900
 2895WAT     H110787  10.965   2.226   5.815
 2895WAT     H210788  11.045   2.229   5.943
 2896WAT      O10789  11.076   2.869   6.173
 2896WAT     H110790  11.012   2.803   6.200
 2896WAT     H210791  11.038   2.909   6.095
 2897WAT      O10792  10.634   2.601   6.557
 2897WAT     H110793  10.670   2.542   6.491
 2897WAT     H210794  10.546   2.569   6.575
 2898WAT      O10795  10.243   2.677   6.298
 2898WAT     H110796  10.312   2.732   6.336
 2898WAT     H210797  10.164   2.732   6.302
 2899WAT      O10798   9.457   2.239   5.847
 2899WAT     H110799   9.544   2.267   5.876
 2899WAT     H210800   9.408   2.321   5.836
 2900WAT      O10801  10.173   2.378   6.259
 2900WAT     H110802  10.219   2.459   6.282
 2900WAT     H210803  10.138   2.346   6.343
 2901WAT      O10804  10.404   2.929   6.982
 2901WAT     H110805  10.468   2.950   7.050
 2901WAT     H210806  10.440   2.853   6.937
 2902WAT      O10807   9.763   1.412   6.307
 2902WAT     H110808   9.750   1.411   6.402
 2902WAT     H210809   9.681   1.446   6.272
 2903WAT      O10810  10.531   2.729   6.854
 2903WAT     H110811  10.595   2.659   6.865
 2903WAT     H210812  10.583   2.807   6.836
 2904WAT      O10813  10.915   2.758   5.827
 2904WAT     H110814  10.893   2.686   5.886
 2904WAT     H210815  10.876   2.733   5.743
 2905WAT      O10816  10.708   2.809   7.174
 2905WAT     H110817  10.742   2.868   7.242
 2905WAT     H210818  10.616   2.796   7.197
 2906WAT      O10819   9.494   3.160   5.904
 2906WAT     H110820   9.530   3.220   5.839
 2906WAT     H210821   9.479   3.215   5.981
 2907WAT      O10822   9.463   1.588   7.253
 2907WAT     H110823   9.392   1.608   7.313
 2907WAT     H210824   9.505   1.511   7.290
 2908WAT      O10825  10.874   2.550   5.993
 2908WAT     H110826  10.845   2.596   6.071
 2908WAT     H210827  10.953   2.503   6.019
 2909WAT      O10828   9.492   2.987   7.351
 2909WAT     H110829   9.503   2.893   7.337
 2909WAT     H210830   9.427   3.014   7.287
 2910WAT      O10831  10.095   2.899   5.986
 2910WAT     H110832  10.094   2.972   5.924
 2910WAT     H210833  10.003   2.874   5.995
 2911WAT      O10834   9.655   2.421   6.060
 2911WAT     H110835   9.595   2.495   6.061
 2911WAT     H210836   9.703   2.430   5.978
 2912WAT      O10837  10.613   1.837   7.028
 2912WAT     H110838  10.649   1.755   7.061
 2912WAT     H210839  10.527   1.843   7.069
 2913WAT      O10840  10.949   1.733   6.109
 2913WAT     H110841  10.886   1.743   6.037
 2913WAT     H210842  10.900   1.755   6.188
 2914WAT      O10843  10.394   2.905   5.852
 2914WAT     H110844  10.404   2.885   5.759
 2914WAT     H210845  10.304   2.880   5.872
 2915WAT      O10846  10.146   1.961   6.250
 2915WAT     H110847  10.075   2.008   6.294
 2915WAT     H210848  10.175   1.895   6.314
 2916WAT      O10849  10.309   2.103   7.050
 2916WAT     H110850  10.359   2.150   7.117
 2916WAT     H210851  10.323   2.010   7.071
 2917WAT      O10852  10.549   1.633   6.394
 2917WAT     H110853  10.537   1.635   6.299
 2917WAT     H210854  10.644   1.638   6.406
 2918WAT      O10855  10.258   3.157   6.321
 2918WAT     H110856  10.283   3.153   6.229
 2918WAT     H210857  10.163   3.144   6.321
 2919WAT      O10858   9.966   1.792   5.988
 2919WAT     H110859  10.051   1.835   5.981
 2919WAT     H210860   9.930   1.823   6.070
 2920WAT      O10861  11.029   1.724   7.134
 2920WAT     H110862  10.979   1.799   7.168
 2920WAT     H210863  11.111   1.763   7.103
 2921WAT      O10864  10.859   2.249   6.479
 2921WAT     H110865  10.764   2.250   6.496
 2921WAT     H210866  10.890   2.170   6.524
 2922WAT      O10867   9.856   2.417   5.835
 2922WAT     H110868   9.933   2.406   5.891
 2922WAT     H210869   9.864   2.347   5.770
 2923WAT      O10870   9.726   2.160   5.903
 2923WAT     H110871   9.734   2.066   5.915
 2923WAT     H210872   9.815   2.193   5.914
 2924WAT      O10873   9.806   3.175   6.614
 2924WAT     H110874   9.880   3.120   6.641
 2924WAT     H210875   9.844   3.262   6.600
 2925WAT      O10876   9.494   2.782   6.201
 2925WAT     H110877   9.402   2.806   6.200
 2925WAT     H210878   9.541   2.865   6.189
 2926WAT      O10879  10.117   3.093   5.796
 2926WAT     H110880  10.196   3.121   5.751
 2926WAT     H210881  10.065   3.049   5.728
 2927WAT      O10882  10.733   3.077   7.388
 2927WAT     H110883  10.828   3.069   7.383
 2927WAT     H210884  10.718   3.144   7.456
 2928WAT      O10885  11.022   3.015   5.938
 2928WAT     H110886  10.994   2.974   5.857
 2928WAT     H210887  11.003   3.108   5.926
 2929WAT      O10888   9.479   2.342   7.427
 2929WAT     H110889   9.529   2.284   7.484
 2929WAT     H210890   9.405   2.371   7.481
 2930WAT      O10891  10.169   2.615   5.782
 2930WAT     H110892  10.158   2.553   5.855
 2930WAT     H210893  10.152   2.562   5.704
 2931WAT      O10894  10.184   2.483   7.380
 2931WAT     H110895  10.107   2.540   7.372
 2931WAT     H210896  10.202   2.454   7.291
 2932WAT      O10897  10.493   2.521   5.843
 2932WAT     H110898  10.438   2.565   5.907
 2932WAT     H210899  10.555   2.470   5.895
 2933WAT      O10900  10.898   2.656   7.436
 2933WAT     H110901  10.972   2.690   7.386
 2933WAT     H210902  10.822   2.673   7.381
 2934WAT      O10903  10.060   2.417   6.032
 2934WAT     H110904  10.102   2.400   6.117
 2934WAT     H210905  10.072   2.336   5.983
 2935WAT      O10906   9.876   2.015   7.313
 2935WAT     H110907   9.823   1.966   7.250
 2935WAT     H210908   9.943   2.057   7.260
 2936WAT      O10909  10.311   2.319   5.757
 2936WAT     H110910  10.363   2.248   5.721
 2936WAT     H210911  10.376   2.383   5.787
 2937WAT      O10912  10.766   2.461   7.290
 2937WAT     H110913  10.807   2.477   7.375
 2937WAT     H210914  10.672   2.474   7.306
 2938WAT      O10915  10.813   2.195   7.490
 2938WAT     H110916  10.871   2.120   7.481
 2938WAT     H210917  10.830   2.248   7.412
 2939WAT      O10918   9.925   1.711   7.321
 2939WAT     H110919   9.915   1.649   7.249
 2939WAT     H210920   9.867   1.784   7.298
 2940WAT      O10921  10.201   1.567   7.024
 2940WAT     H110922  10.156   1.569   6.940
 2940WAT     H210923  10.138   1.527   7.084
 2941WAT      O10924  10.242   2.457   7.087
 2941WAT     H110925  10.284   2.541   7.069
 2941WAT     H210926  10.150   2.470   7.064
 2942WAT      O10927  10.475   2.230   7.225
 2942WAT     H110928  10.487   2.170   7.299
 2942WAT     H210929  10.561   2.233   7.183
 2943WAT      O10930  10.709   2.285   7.083
 2943WAT     H110931  10.657   2.337   7.022
 2943WAT     H210932  10.744   2.348   7.146
 2944WAT      O10933   9.949   2.024   5.727
 2944WAT     H110934   9.929   1.938   5.763
 2944WAT     H210935   9.932   2.015   5.633
 2945WAT      O10936  10.027   3.087   7.198
 2945WAT     H110937   9.973   3.160   7.166
 2945WAT     H210938  10.052   3.039   7.119
 2946WAT      O10939  10.152   1.884   7.351
 2946WAT     H110940  10.211   1.853   7.419
 2946WAT     H210941  10.070   1.837   7.366
 2947WAT      O10942  10.634   1.846   7.374
 2947WAT     H110943  10.565   1.779   7.368
 2947WAT     H210944  10.706   1.801   7.419
 2948WAT      O10945  10.697   1.505   5.980
 2948WAT     H110946  10.725   1.421   6.016
 2948WAT     H210947  10.620   1.528   6.031
 2949WAT      O10948   9.829   1.734   5.726
 2949WAT     H110949   9.859   1.735   5.635
 2949WAT     H210950   9.903   1.699   5.776
 2950WAT      O10951  10.312   3.211   7.224
 2950WAT     H110952  10.305   3.301   7.255
 2950WAT     H210953  10.222   3.179   7.221
 2951WAT      O10954  10.151   1.628   5.824
 2951WAT     H110955  10.116   1.561   5.766
 2951WAT     H210956  10.171   1.582   5.906
 2952WAT      O10957  10.367   3.127   5.986
 2952WAT     H110958  10.457   3.161   5.988
 2952WAT     H210959  10.370   3.055   5.924
 2953WAT      O10960   9.731   2.664   5.809
 2953WAT     H110961   9.775   2.719   5.875
 2953WAT     H210962   9.780   2.582   5.810
 2954WAT      O10963   9.453   2.943   6.554
 2954WAT     H110964   9.486   2.857   6.531
 2954WAT     H210965   9.496   2.964   6.637
 2955WAT      O10966   9.912   2.776   6.320
 2955WAT     H110967   9.882   2.764   6.410
 2955WAT     H210968   9.902   2.691   6.280
 2956WAT      O10969   9.502   3.030   6.828
 2956WAT     H110970   9.458   3.048   6.911
 2956WAT     H210971   9.558   3.106   6.814
 2957WAT      O10972  11.065   2.980   7.257
 2957WAT     H110973  11.005   2.986   7.183
 2957WAT     H210974  11.078   2.886   7.270
 2958WAT      O10975   9.485   2.281   6.464
 2958WAT     H110976   9.419   2.254   6.400
 2958WAT     H210977   9.569   2.270   6.419
 2959WAT      O10978  10.934   2.653   7.067
 2959WAT     H110979  10.852   2.696   7.093
 2959WAT     H210980  10.975   2.714   7.005
 2960WAT      O10981  10.780   1.761   5.886
 2960WAT     H110982  10.822   1.742   5.802
 2960WAT     H210983  10.749   1.675   5.917
 2961WAT      O10984   9.589   2.320   6.918
 2961WAT     H110985   9.625   2.311   7.006
 2961WAT     H210986   9.532   2.243   6.908
 2962WAT      O10987  11.069   2.167   7.219
 2962WAT     H110988  11.046   2.144   7.129
 2962WAT     H210989  11.095   2.259   7.215
 2963WAT      O10990   9.544   2.011   7.309
 2963WAT     H110991   9.454   2.008   7.343
 2963WAT     H210992   9.598   2.031   7.385
 2964WAT      O10993   9.406   2.002   6.058
 2964WAT     H110994   9.316   2.029   6.041
 2964WAT     H210995   9.455   2.029   5.980
 2965WAT      O10996  11.057   2.074   6.586
 2965WAT     H110997  11.110   2.025   6.523
 2965WAT     H210998  11.116   2.088   6.661
 2966WAT      O10999  11.075   2.083   6.938
 2966WAT     H111000  10.980   2.079   6.950
 2966WAT     H211001  11.093   2.174   6.915
 2967WAT      O11002   9.661   1.908   5.849
 2967WAT     H111003   9.731   1.866   5.801
 2967WAT     H211004   9.589   1.915   5.786
 2968WAT      O11005   9.625   1.513   5.753
 2968WAT     H111006   9.698   1.567   5.785
 2968WAT     H211007   9.653   1.486   5.666
 2969WAT      O11008  11.006   2.000   6.180
 2969WAT     H111009  11.056   1.977   6.258
 2969WAT     H211010  10.986   1.916   6.138
 2970WAT      O11011   9.594   1.438   6.743
 2970WAT     H111012   9.659   1.383   6.699
 2970WAT     H211013   9.636   1.464   6.826
 2971WAT      O11014  10.984   1.458   7.079
 2971WAT     H111015  11.047   1.519   7.116
 2971WAT     H211016  10.998   1.461   6.985
 2972WAT      O11017  10.940   3.128   6.419
 2972WAT     H111018  10.999   3.096   6.352
 2972WAT     H211019  10.965   3.081   6.499
 2973WAT      O11020   9.570   1.454   7.018
 2973WAT     H111021   9.535   1.500   7.094
 2973WAT     H211022   9.536   1.364   7.026
 2974WAT      O11023  10.100   2.927   6.994
 2974WAT     H111024  10.076   2.953   6.906
 2974WAT     H211025  10.194   2.944   7.000
 2975WAT      O11026  10.321   1.573   7.370
 2975WAT     H111027  10.315   1.632   7.445
 2975WAT     H211028  10.415   1.562   7.355
 2976WAT      O11029  10.585   1.539   7.334
 2976WAT     H111030  10.646   1.571   7.268
 2976WAT     H211031  10.639   1.490   7.396
 2977WAT      O11032   9.637   1.407   7.345
 2977WAT     H111033   9.692   1.389   7.269
 2977WAT     H211034   9.643   1.328   7.399
 2978WAT      O11035   9.714   3.066   7.146
 2978WAT     H111036   9.655   3.053   7.220
 2978WAT     H211037   9.713   2.982   7.100
 2979WAT      O11038  10.659   1.395   6.967
 2979WAT     H111039  10.571   1.428   6.946
 2979WAT     H211040  10.648   1.348   7.049
 2980WAT      O11041  10.749   1.616   7.105
 2980WAT     H111042  10.716   1.534   7.067
 2980WAT     H211043  10.844   1.611   7.093
 2981WAT      O11044  10.995   3.193   6.802
 2981WAT     H111045  10.949   3.268   6.765
 2981WAT     H211046  10.932   3.121   6.796
 2982WAT      O11047   9.677   2.802   7.041
 2982WAT     H111048   9.605   2.740   7.035
 2982WAT     H211049   9.683   2.842   6.954
 2983WAT      O11050  10.038   3.024   6.720
 2983WAT     H111051  10.089   2.963   6.667
 2983WAT     H211052  10.103   3.074   6.769
 2984WAT      O11053  10.312   3.113   6.803
 2984WAT     H111054  10.340   3.087   6.715
 2984WAT     H211055  10.363   3.058   6.862
 2985WAT      O11056  10.433   1.487   6.860
 2985WAT     H111057  10.355   1.534   6.888
 2985WAT     H211058  10.404   1.396   6.850
 2986WAT      O11059  10.889   1.557   6.665
 2986WAT     H111060  10.933   1.551   6.580
 2986WAT     H211061  10.862   1.649   6.672
 2987WAT      O11062   9.505   3.134   6.362
 2987WAT     H111063   9.489   3.071   6.432
 2987WAT     H211064   9.419   3.155   6.327
 2988WAT      O11065   9.568   1.517   6.113
 2988WAT     H111066   9.644   1.528   6.055
 2988WAT     H211067   9.522   1.601   6.108
 2989WAT      O11068  10.222   1.729   6.412
 2989WAT     H111069  10.141   1.691   6.378
 2989WAT     H211070  10.272   1.653   6.442
 2990WAT      O11071  10.672   1.395   6.535
 2990WAT     H111072  10.732   1.452   6.583
 2990WAT     H211073  10.598   1.451   6.513
 2991WAT      O11074  10.986   1.435   6.063
 2991WAT     H111075  11.006   1.525   6.090
 2991WAT     H211076  10.908   1.412   6.112
 2992WAT      O11077   9.666   3.003   6.107
 2992WAT     H111078   9.614   3.041   6.036
 2992WAT     H211079   9.659   3.066   6.179
 2993WAT      O11080   9.805   1.570   5.967
 2993WAT     H111081   9.858   1.491   5.954
 2993WAT     H211082   9.868   1.638   5.990
 2994WAT      O11083  10.024   1.544   6.272
 2994WAT     H111084   9.961   1.473   6.289
 2994WAT     H211085   9.970   1.620   6.250
 2995WAT      O11086   9.926   3.198   5.994
 2995WAT     H111087   9.999   3.170   5.940
 2995WAT     H211088   9.952   3.174   6.083
 2996WAT      O11089   9.842   2.810   5.995
 2996WAT     H111090   9.779   2.857   6.050
 2996WAT     H211091   9.854   2.725   6.038
 2997WAT      O11092  10.588   2.215   4.610
 2997WAT     H111093  10.580   2.123   4.583
 2997WAT     H211094  10.546   2.265   4.539
 2998WAT      O11095  10.401   2.393   4.798
 2998WAT     H111096  10.323   2.345   4.827
 2998WAT     H211097  10.466   2.325   4.780
 2999WAT      O11098   9.803   2.424   4.886
 2999WAT     H111099   9.719   2.398   4.926
 2999WAT     H211100   9.863   2.431   4.959
 3000WAT      O11101  10.803   2.833   4.676
 3000WAT     H111102  10.757   2.756   4.709
 3000WAT     H211103  10.884   2.836   4.726
 3001WAT      O11104   9.801   2.827   4.905
 3001WAT     H111105   9.831   2.738   4.887
 3001WAT     H211106   9.875   2.883   4.882
 3002WAT      O11107   9.643   1.920   4.264
 3002WAT     H111108   9.555   1.954   4.254
 3002WAT     H211109   9.672   1.900   4.175
 3003WAT      O11110   9.440   2.180   4.852
 3003WAT     H111111   9.497   2.103   4.852
 3003WAT     H211112   9.440   2.210   4.762
 3004WAT      O11113  10.426   3.062   4.638
 3004WAT     H111114  10.364   3.107   4.581
 3004WAT     H211115  10.511   3.077   4.598
 3005WAT      O11116  10.345   2.660   4.799
 3005WAT     H111117  10.338   2.566   4.782
 3005WAT     H211118  10.421   2.669   4.856
 3006WAT      O11119   9.564   1.721   5.031
 3006WAT     H111120   9.546   1.631   5.059
 3006WAT     H211121   9.524   1.776   5.099
 3007WAT      O11122  10.448   1.941   4.821
 3007WAT     H111123  10.486   1.854   4.810
 3007WAT     H211124  10.438   1.975   4.732
 3008WAT      O11125   9.861   1.778   4.367
 3008WAT     H111126   9.872   1.868   4.398
 3008WAT     H211127   9.770   1.773   4.338
 3009WAT      O11128  10.826   1.690   4.515
 3009WAT     H111129  10.908   1.641   4.519
 3009WAT     H211130  10.830   1.749   4.590
 3010WAT      O11131   9.626   1.970   4.892
 3010WAT     H111132   9.694   1.997   4.954
 3010WAT     H211133   9.594   1.886   4.925
 3011WAT      O11134  10.045   2.075   4.801
 3011WAT     H111135  10.096   2.125   4.865
 3011WAT     H211136  10.098   1.997   4.783
 3012WAT      O11137   9.873   1.539   5.227
 3012WAT     H111138   9.874   1.591   5.147
 3012WAT     H211139   9.791   1.491   5.225
 3013WAT      O11140  10.512   2.550   4.377
 3013WAT     H111141  10.450   2.597   4.321
 3013WAT     H211142  10.563   2.620   4.419
 3014WAT      O11143   9.999   2.503   5.045
 3014WAT     H111144   9.965   2.566   5.109
 3014WAT     H211145  10.016   2.556   4.967
 3015WAT      O11146  10.850   1.884   4.792
 3015WAT     H111147  10.779   1.913   4.850
 3015WAT     H211148  10.886   1.965   4.756
 3016WAT      O11149   9.842   1.710   5.028
 3016WAT     H111150   9.876   1.795   4.999
 3016WAT     H211151   9.748   1.725   5.040
 3017WAT      O11152   9.920   2.700   5.227
 3017WAT     H111153   9.981   2.767   5.198
 3017WAT     H211154   9.834   2.741   5.217
 3018WAT      O11155   9.449   2.619   4.115
 3018WAT     H111156   9.411   2.668   4.041
 3018WAT     H211157   9.475   2.686   4.178
 3019WAT      O11158  11.011   2.846   5.018
 3019WAT     H111159  10.943   2.913   5.017
 3019WAT     H211160  11.065   2.866   4.942
 3020WAT      O11161  10.210   1.459   4.660
 3020WAT     H111162  10.241   1.403   4.589
 3020WAT     H211163  10.117   1.472   4.642
 3021WAT      O11164  10.765   3.031   4.890
 3021WAT     H111165  10.766   2.990   4.803
 3021WAT     H211166  10.710   3.108   4.879
 3022WAT      O11167  10.895   2.703   4.398
 3022WAT     H111168  10.883   2.609   4.411
 3022WAT     H211169  10.894   2.739   4.487
 3023WAT      O11170  10.705   2.521   5.022
 3023WAT     H111171  10.747   2.500   4.939
 3023WAT     H211172  10.777   2.547   5.079
 3024WAT      O11173  10.449   2.265   4.334
 3024WAT     H111174  10.356   2.259   4.357
 3024WAT     H211175  10.464   2.359   4.323
 3025WAT      O11176  10.447   1.893   4.034
 3025WAT     H111177  10.353   1.909   4.042
 3025WAT     H211178  10.479   1.965   3.979
 3026WAT      O11179  10.852   2.422   4.384
 3026WAT     H111180  10.790   2.388   4.320
 3026WAT     H211181  10.850   2.357   4.455
 3027WAT      O11182  10.796   2.040   5.126
 3027WAT     H111183  10.755   2.122   5.151
 3027WAT     H211184  10.723   1.981   5.107
 3028WAT      O11185  10.009   2.318   4.612
 3028WAT     H111186   9.969   2.247   4.563
 3028WAT     H211187  10.018   2.284   4.701
 3029WAT      O11188  10.056   2.687   4.829
 3029WAT     H111189  10.026   2.626   4.761
 3029WAT     H211190  10.151   2.691   4.818
 3030WAT      O11191   9.881   1.996   4.990
 3030WAT     H111192   9.936   2.007   4.913
 3030WAT     H211193   9.932   2.033   5.062
 3031WAT      O11194  10.865   3.044   5.195
 3031WAT     H111195  10.817   3.125   5.176
 3031WAT     H211196  10.797   2.979   5.210
 3032WAT      O11197   9.965   2.661   5.494
 3032WAT     H111198   9.876   2.683   5.518
 3032WAT     H211199   9.968   2.673   5.399
 3033WAT      O11200  10.669   2.346   4.085
 3033WAT     H111201  10.713   2.262   4.071
 3033WAT     H211202  10.741   2.409   4.094
 3034WAT      O11203   9.848   2.348   5.351
 3034WAT     H111204   9.834   2.435   5.388
 3034WAT     H211205   9.760   2.313   5.337
 3035WAT      O11206  10.480   2.840   4.482
 3035WAT     H111207  10.524   2.914   4.441
 3035WAT     H211208  10.474   2.864   4.574
 3036WAT      O11209  10.028   2.942   5.572
 3036WAT     H111210  10.025   2.982   5.485
 3036WAT     H211211  10.011   2.849   5.556
 3037WAT      O11212  11.028   1.471   3.917
 3037WAT     H111213  10.996   1.480   4.007
 3037WAT     H211214  11.104   1.529   3.912
 3038WAT      O11215   9.679   2.208   4.362
 3038WAT     H111216   9.667   2.280   4.301
 3038WAT     H211217   9.648   2.131   4.315
 3039WAT      O11218   9.443   2.525   4.943
 3039WAT     H111219   9.451   2.538   4.849
 3039WAT     H211220   9.505   2.454   4.962
 3040WAT      O11221   9.568   2.695   4.584
 3040WAT     H111222   9.527   2.709   4.499
 3040WAT     H211223   9.657   2.666   4.564
 3041WAT      O11224  10.549   3.110   5.275
 3041WAT     H111225  10.601   3.101   5.355
 3041WAT     H211226  10.465   3.144   5.304
 3042WAT      O11227  10.747   3.138   4.218
 3042WAT     H111228  10.731   3.109   4.307
 3042WAT     H211229  10.730   3.061   4.164
 3043WAT      O11230   9.995   3.116   4.395
 3043WAT     H111231   9.977   3.025   4.374
 3043WAT     H211232   9.909   3.152   4.419
 3044WAT      O11233  10.717   2.889   4.074
 3044WAT     H111234  10.648   2.889   4.008
 3044WAT     H211235  10.791   2.847   4.031
 3045WAT      O11236  10.674   3.052   4.481
 3045WAT     H111237  10.719   2.974   4.512
 3045WAT     H211238  10.708   3.123   4.535
 3046WAT      O11239   9.449   2.629   5.197
 3046WAT     H111240   9.465   2.582   5.115
 3046WAT     H211241   9.495   2.578   5.263
 3047WAT      O11242   9.926   1.542   4.701
 3047WAT     H111243   9.882   1.620   4.667
 3047WAT     H211244   9.982   1.574   4.771
 3048WAT      O11245  10.355   1.829   5.261
 3048WAT     H111246  10.308   1.849   5.342
 3048WAT     H211247  10.314   1.747   5.231
 3049WAT      O11248  10.855   1.951   5.374
 3049WAT     H111249  10.770   1.921   5.406
 3049WAT     H211250  10.839   1.975   5.283
 3050WAT      O11251  10.564   2.101   5.584
 3050WAT     H111252  10.597   2.017   5.550
 3050WAT     H211253  10.643   2.153   5.599
 3051WAT      O11254  10.238   1.504   4.189
 3051WAT     H111255  10.175   1.504   4.261
 3051WAT     H211256  10.229   1.417   4.149
 3052WAT      O11257  10.130   1.596   4.886
 3052WAT     H111258  10.159   1.687   4.878
 3052WAT     H211259  10.185   1.548   4.825
 3053WAT      O11260   9.905   2.054   4.473
 3053WAT     H111261   9.883   2.033   4.564
 3053WAT     H211262   9.827   2.098   4.439
 3054WAT      O11263  10.628   2.055   4.333
 3054WAT     H111264  10.568   2.127   4.315
 3054WAT     H211265  10.683   2.049   4.255
 3055WAT      O11266  10.149   2.144   5.540
 3055WAT     H111267  10.140   2.050   5.525
 3055WAT     H211268  10.233   2.166   5.500
 3056WAT      O11269  10.489   1.919   4.536
 3056WAT     H111270  10.528   1.950   4.455
 3056WAT     H211271  10.525   1.831   4.548
 3057WAT      O11272   9.662   1.785   5.355
 3057WAT     H111273   9.623   1.870   5.376
 3057WAT     H211274   9.593   1.722   5.374
 3058WAT      O11275  10.320   1.794   5.662
 3058WAT     H111276  10.251   1.774   5.726
 3058WAT     H211277  10.394   1.822   5.716
 3059WAT      O11278   9.392   1.578   4.759
 3059WAT     H111279   9.364   1.635   4.830
 3059WAT     H211280   9.467   1.530   4.795
 3060WAT      O11281   9.411   1.972   3.880
 3060WAT     H111282   9.403   2.066   3.894
 3060WAT     H211283   9.376   1.957   3.792
 3061WAT      O11284  10.547   2.178   4.946
 3061WAT     H111285  10.474   2.228   4.981
 3061WAT     H211286  10.508   2.096   4.916
 3062WAT      O11287  10.191   1.845   4.786
 3062WAT     H111288  10.191   1.801   4.701
 3062WAT     H211289  10.281   1.877   4.797
 3063WAT      O11290   9.776   1.833   4.682
 3063WAT     H111291   9.742   1.881   4.758
 3063WAT     H211292   9.700   1.788   4.646
 3064WAT      O11293  10.197   1.945   4.085
 3064WAT     H111294  10.209   1.941   4.180
 3064WAT     H211295  10.159   2.031   4.070
 3065WAT      O11296  10.594   1.723   4.887
 3065WAT     H111297  10.595   1.768   4.971
 3065WAT     H211298  10.569   1.633   4.908
 3066WAT      O11299  10.098   2.176   4.025
 3066WAT     H111300  10.042   2.131   3.963
 3066WAT     H211301  10.169   2.212   3.972
 3067WAT      O11302  10.936   1.464   5.471
 3067WAT     H111303  10.969   1.391   5.524
 3067WAT     H211304  10.940   1.432   5.381
 3068WAT      O11305   9.606   2.566   5.413
 3068WAT     H111306   9.568   2.502   5.473
 3068WAT     H211307   9.637   2.637   5.470
 3069WAT      O11308  10.221   2.251   4.961
 3069WAT     H111309  10.258   2.204   5.036
 3069WAT     H211310  10.202   2.339   4.995
 3070WAT      O11311   9.508   1.726   4.574
 3070WAT     H111312   9.479   1.689   4.658
 3070WAT     H211313   9.501   1.652   4.513
 3071WAT      O11314  10.000   2.155   5.193
 3071WAT     H111315   9.970   2.243   5.215
 3071WAT     H211316  10.096   2.161   5.196
 3072WAT      O11317   9.853   2.576   4.253
 3072WAT     H111318   9.776   2.522   4.237
 3072WAT     H211319   9.926   2.524   4.219
 3073WAT      O11320  10.929   2.476   4.832
 3073WAT     H111321  11.001   2.525   4.793
 3073WAT     H211322  10.909   2.408   4.767
 3074WAT      O11323  10.475   1.615   4.246
 3074WAT     H111324  10.394   1.565   4.239
 3074WAT     H211325  10.456   1.699   4.204
 3075WAT      O11326  10.467   2.483   5.420
 3075WAT     H111327  10.460   2.391   5.395
 3075WAT     H211328  10.404   2.492   5.492
 3076WAT      O11329  10.746   2.052   4.076
 3076WAT     H111330  10.835   2.083   4.058
 3076WAT     H211331  10.743   1.965   4.037
 3077WAT      O11332   9.857   2.543   4.616
 3077WAT     H111333   9.909   2.462   4.611
 3077WAT     H211334   9.812   2.536   4.700
 3078WAT      O11335  10.346   2.669   4.144
 3078WAT     H111336  10.380   2.744   4.094
 3078WAT     H211337  10.263   2.701   4.180
 3079WAT      O11338   9.606   2.239   5.308
 3079WAT     H111339   9.570   2.306   5.366
 3079WAT     H211340   9.576   2.156   5.345
 3080WAT      O11341   9.926   2.285   5.596
 3080WAT     H111342   9.896   2.300   5.506
 3080WAT     H211343  10.003   2.229   5.587
 3081WAT      O11344  10.460   2.765   5.396
 3081WAT     H111345  10.462   2.672   5.374
 3081WAT     H211346  10.389   2.773   5.459
 3082WAT      O11347  10.974   2.183   4.022
 3082WAT     H111348  10.965   2.226   3.937
 3082WAT     H211349  11.045   2.229   4.066
 3083WAT      O11350  11.076   2.869   4.295
 3083WAT     H111351  11.012   2.803   4.323
 3083WAT     H211352  11.038   2.909   4.218
 3084WAT      O11353  10.634   2.601   4.680
 3084WAT     H111354  10.670   2.542   4.614
 3084WAT     H211355  10.546   2.569   4.697
 3085WAT      O11356  10.243   2.677   4.421
 3085WAT     H111357  10.312   2.732   4.459
 3085WAT     H211358  10.164   2.732   4.424
 3086WAT      O11359   9.457   2.239   3.970
 3086WAT     H111360   9.544   2.267   3.998
 3086WAT     H211361   9.408   2.321   3.958
 3087WAT      O11362  10.173   2.378   4.382
 3087WAT     H111363  10.219   2.459   4.405
 3087WAT     H211364  10.138   2.346   4.465
 3088WAT      O11365  10.404   2.929   5.105
 3088WAT     H111366  10.468   2.950   5.173
 3088WAT     H211367  10.440   2.853   5.060
 3089WAT      O11368   9.763   1.412   4.429
 3089WAT     H111369   9.750   1.411   4.524
 3089WAT     H211370   9.681   1.446   4.394
 3090WAT      O11371  10.531   2.729   4.977
 3090WAT     H111372  10.595   2.659   4.988
 3090WAT     H211373  10.583   2.807   4.959
 3091WAT      O11374  10.915   2.758   3.949
 3091WAT     H111375  10.893   2.686   4.008
 3091WAT     H211376  10.876   2.733   3.865
 3092WAT      O11377  10.708   2.809   5.297
 3092WAT     H111378  10.742   2.868   5.365
 3092WAT     H211379  10.616   2.796   5.320
 3093WAT      O11380   9.494   3.160   4.027
 3093WAT     H111381   9.530   3.220   3.961
 3093WAT     H211382   9.479   3.215   4.104
 3094WAT      O11383   9.463   1.588   5.375
 3094WAT     H111384   9.392   1.608   5.436
 3094WAT     H211385   9.505   1.511   5.412
 3095WAT      O11386  10.874   2.550   4.115
 3095WAT     H111387  10.845   2.596   4.194
 3095WAT     H211388  10.953   2.503   4.142
 3096WAT      O11389   9.492   2.987   5.474
 3096WAT     H111390   9.503   2.893   5.460
 3096WAT     H211391   9.427   3.014   5.409
 3097WAT      O11392  10.291   2.814   5.614
 3097WAT     H111393  10.259   2.742   5.668
 3097WAT     H211394  10.224   2.882   5.621
 3098WAT      O11395  10.095   2.899   4.108
 3098WAT     H111396  10.094   2.972   4.047
 3098WAT     H211397  10.003   2.874   4.118
 3099WAT      O11398   9.655   2.421   4.183
 3099WAT     H111399   9.595   2.495   4.184
 3099WAT     H211400   9.703   2.430   4.100
 3100WAT      O11401  10.613   1.837   5.150
 3100WAT     H111402  10.649   1.755   5.183
 3100WAT     H211403  10.527   1.843   5.192
 3101WAT      O11404  10.949   1.733   4.231
 3101WAT     H111405  10.886   1.743   4.160
 3101WAT     H211406  10.900   1.755   4.310
 3102WAT      O11407  10.394   2.905   3.975
 3102WAT     H111408  10.404   2.885   3.882
 3102WAT     H211409  10.304   2.880   3.995
 3103WAT      O11410  10.146   1.961   4.373
 3103WAT     H111411  10.075   2.008   4.417
 3103WAT     H211412  10.175   1.895   4.436
 3104WAT      O11413  10.309   2.103   5.173
 3104WAT     H111414  10.359   2.150   5.239
 3104WAT     H211415  10.323   2.010   5.193
 3105WAT      O11416  10.549   1.633   4.517
 3105WAT     H111417  10.537   1.635   4.422
 3105WAT     H211418  10.644   1.638   4.529
 3106WAT      O11419  10.258   3.157   4.444
 3106WAT     H111420  10.283   3.153   4.352
 3106WAT     H211421  10.163   3.144   4.443
 3107WAT      O11422   9.966   1.792   4.110
 3107WAT     H111423  10.051   1.835   4.104
 3107WAT     H211424   9.930   1.823   4.193
 3108WAT      O11425  11.029   1.724   5.257
 3108WAT     H111426  10.979   1.799   5.291
 3108WAT     H211427  11.111   1.763   5.225
 3109WAT      O11428  10.859   2.249   4.602
 3109WAT     H111429  10.764   2.250   4.619
 3109WAT     H211430  10.890   2.170   4.646
 3110WAT      O11431   9.856   2.417   3.958
 3110WAT     H111432   9.933   2.406   4.014
 3110WAT     H211433   9.864   2.347   3.892
 3111WAT      O11434   9.726   2.160   4.026
 3111WAT     H111435   9.734   2.066   4.037
 3111WAT     H211436   9.815   2.193   4.037
 3112WAT      O11437   9.806   3.175   4.736
 3112WAT     H111438   9.880   3.120   4.763
 3112WAT     H211439   9.844   3.262   4.722
 3113WAT      O11440   9.494   2.782   4.324
 3113WAT     H111441   9.402   2.806   4.323
 3113WAT     H211442   9.541   2.865   4.312
 3114WAT      O11443   9.707   3.094   5.655
 3114WAT     H111444   9.787   3.126   5.696
 3114WAT     H211445   9.655   3.058   5.727
 3115WAT      O11446  10.117   3.093   3.919
 3115WAT     H111447  10.196   3.121   3.873
 3115WAT     H211448  10.065   3.049   3.851
 3116WAT      O11449  10.590   2.704   5.650
 3116WAT     H111450  10.530   2.707   5.576
 3116WAT     H211451  10.560   2.631   5.704
 3117WAT      O11452  10.733   3.077   5.511
 3117WAT     H111453  10.828   3.069   5.506
 3117WAT     H211454  10.718   3.144   5.578
 3118WAT      O11455  11.022   3.015   4.061
 3118WAT     H111456  10.994   2.974   3.979
 3118WAT     H211457  11.003   3.108   4.049
 3119WAT      O11458   9.479   2.342   5.550
 3119WAT     H111459   9.529   2.284   5.607
 3119WAT     H211460   9.405   2.371   5.603
 3120WAT      O11461  10.169   2.615   3.905
 3120WAT     H111462  10.158   2.553   3.978
 3120WAT     H211463  10.152   2.562   3.827
 3121WAT      O11464  10.184   2.483   5.503
 3121WAT     H111465  10.107   2.540   5.494
 3121WAT     H211466  10.202   2.454   5.414
 3122WAT      O11467  10.493   2.521   3.965
 3122WAT     H111468  10.438   2.565   4.030
 3122WAT     H211469  10.555   2.470   4.018
 3123WAT      O11470  10.898   2.656   5.559
 3123WAT     H111471  10.972   2.690   5.508
 3123WAT     H211472  10.822   2.673   5.503
 3124WAT      O11473   9.682   2.157   5.639
 3124WAT     H111474   9.686   2.127   5.730
 3124WAT     H211475   9.767   2.197   5.623
 3125WAT      O11476  10.060   2.417   4.155
 3125WAT     H111477  10.102   2.400   4.239
 3125WAT     H211478  10.072   2.336   4.106
 3126WAT      O11479   9.876   2.015   5.436
 3126WAT     H111480   9.823   1.966   5.373
 3126WAT     H211481   9.943   2.057   5.382
 3127WAT      O11482  10.311   2.319   3.880
 3127WAT     H111483  10.363   2.248   3.843
 3127WAT     H211484  10.376   2.383   3.910
 3128WAT      O11485  10.766   2.461   5.412
 3128WAT     H111486  10.807   2.477   5.497
 3128WAT     H211487  10.672   2.474   5.428
 3129WAT      O11488  10.813   2.195   5.613
 3129WAT     H111489  10.871   2.120   5.604
 3129WAT     H211490  10.830   2.248   5.535
 3130WAT      O11491   9.925   1.711   5.444
 3130WAT     H111492   9.915   1.649   5.371
 3130WAT     H211493   9.867   1.784   5.421
 3131WAT      O11494  10.201   1.567   5.147
 3131WAT     H111495  10.156   1.569   5.062
 3131WAT     H211496  10.138   1.527   5.207
 3132WAT      O11497  10.242   2.457   5.209
 3132WAT     H111498  10.284   2.541   5.192
 3132WAT     H211499  10.150   2.470   5.186
 3133WAT      O11500  10.475   2.230   5.348
 3133WAT     H111501  10.487   2.170   5.421
 3133WAT     H211502  10.561   2.233   5.306
 3134WAT      O11503  10.709   2.285   5.205
 3134WAT     H111504  10.657   2.337   5.145
 3134WAT     H211505  10.744   2.348   5.268
 3135WAT      O11506   9.949   2.024   3.850
 3135WAT     H111507   9.929   1.938   3.886
 3135WAT     H211508   9.932   2.015   3.756
 3136WAT      O11509  10.027   3.087   5.321
 3136WAT     H111510   9.973   3.160   5.289
 3136WAT     H211511  10.052   3.039   5.242
 3137WAT      O11512  10.152   1.884   5.473
 3137WAT     H111513  10.211   1.853   5.542
 3137WAT     H211514  10.070   1.837   5.489
 3138WAT      O11515  10.634   1.846   5.497
 3138WAT     H111516  10.565   1.779   5.490
 3138WAT     H211517  10.706   1.801   5.541
 3139WAT      O11518  10.697   1.505   4.102
 3139WAT     H111519  10.725   1.421   4.138
 3139WAT     H211520  10.620   1.528   4.154
 3140WAT      O11521   9.829   1.734   3.848
 3140WAT     H111522   9.859   1.735   3.758
 3140WAT     H211523   9.903   1.699   3.898
 3141WAT      O11524  10.312   3.211   5.347
 3141WAT     H111525  10.305   3.301   5.377
 3141WAT     H211526  10.222   3.179   5.344
 3142WAT      O11527  10.151   1.628   3.947
 3142WAT     H111528  10.116   1.561   3.889
 3142WAT     H211529  10.171   1.582   4.028
 3143WAT      O11530  10.367   3.127   4.109
 3143WAT     H111531  10.457   3.161   4.111
 3143WAT     H211532  10.370   3.055   4.046
 3144WAT      O11533   9.731   2.664   3.932
 3144WAT     H111534   9.775   2.719   3.997
 3144WAT     H211535   9.780   2.582   3.933
 3145WAT      O11536   9.453   2.943   4.677
 3145WAT     H111537   9.486   2.857   4.654
 3145WAT     H211538   9.496   2.964   4.760
 3146WAT      O11539   9.912   2.776   4.443
 3146WAT     H111540   9.882   2.764   4.533
 3146WAT     H211541   9.902   2.691   4.402
 3147WAT      O11542   9.502   3.030   4.951
 3147WAT     H111543   9.458   3.048   5.034
 3147WAT     H211544   9.558   3.106   4.937
 3148WAT      O11545  11.065   2.980   5.379
 3148WAT     H111546  11.005   2.986   5.305
 3148WAT     H211547  11.078   2.886   5.392
 3149WAT      O11548   9.485   2.281   4.587
 3149WAT     H111549   9.419   2.254   4.522
 3149WAT     H211550   9.569   2.270   4.542
 3150WAT      O11551  10.934   2.653   5.189
 3150WAT     H111552  10.852   2.696   5.216
 3150WAT     H211553  10.975   2.714   5.128
 3151WAT      O11554  10.780   1.761   4.009
 3151WAT     H111555  10.822   1.742   3.925
 3151WAT     H211556  10.749   1.675   4.040
 3152WAT      O11557   9.589   2.320   5.041
 3152WAT     H111558   9.625   2.311   5.129
 3152WAT     H211559   9.532   2.243   5.031
 3153WAT      O11560  11.069   2.167   5.342
 3153WAT     H111561  11.046   2.144   5.252
 3153WAT     H211562  11.095   2.259   5.337
 3154WAT      O11563   9.544   2.011   5.431
 3154WAT     H111564   9.454   2.008   5.465
 3154WAT     H211565   9.598   2.031   5.508
 3155WAT      O11566  10.913   1.689   5.620
 3155WAT     H111567  11.000   1.690   5.658
 3155WAT     H211568  10.914   1.615   5.559
 3156WAT      O11569   9.406   2.002   4.181
 3156WAT     H111570   9.316   2.029   4.163
 3156WAT     H211571   9.455   2.029   4.103
 3157WAT      O11572  11.057   2.074   4.709
 3157WAT     H111573  11.110   2.025   4.646
 3157WAT     H211574  11.116   2.088   4.783
 3158WAT      O11575  11.075   2.083   5.061
 3158WAT     H111576  10.980   2.079   5.072
 3158WAT     H211577  11.093   2.174   5.037
 3159WAT      O11578   9.661   1.908   3.972
 3159WAT     H111579   9.731   1.866   3.923
 3159WAT     H211580   9.589   1.915   3.909
 3160WAT      O11581   9.625   1.513   3.876
 3160WAT     H111582   9.698   1.567   3.908
 3160WAT     H211583   9.653   1.486   3.788
 3161WAT      O11584  11.006   2.000   4.303
 3161WAT     H111585  11.056   1.977   4.381
 3161WAT     H211586  10.986   1.916   4.261
 3162WAT      O11587   9.594   1.438   4.866
 3162WAT     H111588   9.659   1.383   4.822
 3162WAT     H211589   9.636   1.464   4.948
 3163WAT      O11590  10.984   1.458   5.202
 3163WAT     H111591  11.047   1.519   5.238
 3163WAT     H211592  10.998   1.461   5.107
 3164WAT      O11593  10.940   3.128   4.542
 3164WAT     H111594  10.999   3.096   4.474
 3164WAT     H211595  10.965   3.081   4.621
 3165WAT      O11596   9.570   1.454   5.140
 3165WAT     H111597   9.535   1.500   5.217
 3165WAT     H211598   9.536   1.364   5.149
 3166WAT      O11599   9.730   2.771   5.557
 3166WAT     H111600   9.726   2.734   5.645
 3166WAT     H211601   9.743   2.865   5.571
 3167WAT      O11602  10.100   2.927   5.117
 3167WAT     H111603  10.076   2.953   5.028
 3167WAT     H211604  10.194   2.944   5.122
 3168WAT      O11605  10.321   1.573   5.493
 3168WAT     H111606  10.315   1.632   5.567
 3168WAT     H211607  10.415   1.562   5.478
 3169WAT      O11608  10.585   1.539   5.456
 3169WAT     H111609  10.646   1.571   5.390
 3169WAT     H211610  10.639   1.490   5.518
 3170WAT      O11611   9.637   1.407   5.468
 3170WAT     H111612   9.692   1.389   5.391
 3170WAT     H211613   9.643   1.328   5.521
 3171WAT      O11614   9.714   3.066   5.269
 3171WAT     H111615   9.655   3.053   5.343
 3171WAT     H211616   9.713   2.982   5.222
 3172WAT      O11617  10.659   1.395   5.089
 3172WAT     H111618  10.571   1.428   5.069
 3172WAT     H211619  10.648   1.348   5.172
 3173WAT      O11620  10.749   1.616   5.228
 3173WAT     H111621  10.716   1.534   5.190
 3173WAT     H211622  10.844   1.611   5.215
 3174WAT      O11623  10.995   3.193   4.925
 3174WAT     H111624  10.949   3.268   4.887
 3174WAT     H211625  10.932   3.121   4.919
 3175WAT      O11626   9.677   2.802   5.164
 3175WAT     H111627   9.605   2.740   5.157
 3175WAT     H211628   9.683   2.842   5.077
 3176WAT      O11629  10.038   3.024   4.842
 3176WAT     H111630  10.089   2.963   4.790
 3176WAT     H211631  10.103   3.074   4.892
 3177WAT      O11632  10.312   3.113   4.925
 3177WAT     H111633  10.340   3.087   4.837
 3177WAT     H211634  10.363   3.058   4.984
 3178WAT      O11635  10.433   1.487   4.983
 3178WAT     H111636  10.355   1.534   5.011
 3178WAT     H211637  10.404   1.396   4.972
 3179WAT      O11638  10.889   1.557   4.788
 3179WAT     H111639  10.933   1.551   4.703
 3179WAT     H211640  10.862   1.649   4.795
 3180WAT      O11641   9.505   3.134   4.485
 3180WAT     H111642   9.489   3.071   4.555
 3180WAT     H211643   9.419   3.155   4.450
 3181WAT      O11644   9.568   1.517   4.235
 3181WAT     H111645   9.644   1.528   4.178
 3181WAT     H211646   9.522   1.601   4.231
 3182WAT      O11647  10.222   1.729   4.534
 3182WAT     H111648  10.141   1.691   4.500
 3182WAT     H211649  10.272   1.653   4.564
 3183WAT      O11650  10.672   1.395   4.658
 3183WAT     H111651  10.732   1.452   4.706
 3183WAT     H211652  10.598   1.451   4.636
 3184WAT      O11653  10.986   1.435   4.185
 3184WAT     H111654  11.006   1.525   4.212
 3184WAT     H211655  10.908   1.412   4.235
 3185WAT      O11656   9.666   3.003   4.229
 3185WAT     H111657   9.614   3.041   4.159
 3185WAT     H211658   9.659   3.066   4.301
 3186WAT      O11659   9.805   1.570   4.089
 3186WAT     H111660   9.858   1.491   4.076
 3186WAT     H211661   9.868   1.638   4.113
 3187WAT      O11662  10.024   1.544   4.395
 3187WAT     H111663   9.961   1.473   4.411
 3187WAT     H211664   9.970   1.620   4.373
 3188WAT      O11665  10.318   3.205   5.662
 3188WAT     H111666  10.411   3.181   5.666
 3188WAT     H211667  10.317   3.288   5.614
 3189WAT      O11668  10.037   1.471   5.638
 3189WAT     H111669  10.009   1.522   5.562
 3189WAT     H211670  10.075   1.392   5.602
 3190WAT      O11671   9.926   3.198   4.117
 3190WAT     H111672   9.999   3.170   4.062
 3190WAT     H211673   9.952   3.174   4.206
 3191WAT      O11674   9.842   2.810   4.117
 3191WAT     H111675   9.779   2.857   4.172
 3191WAT     H211676   9.854   2.725   4.161
 3192WAT      O11677  10.697   1.413   5.696
 3192WAT     H111678  10.686   1.445   5.786
 3192WAT     H211679  10.779   1.453   5.666
 3193WAT      O11680  10.975   3.128   5.644
 3193WAT     H111681  11.054   3.078   5.623
 3193WAT     H211682  11.004   3.196   5.705
 3194WAT      O11683  10.588   2.215   2.732
 3194WAT     H111684  10.580   2.123   2.705
 3194WAT     H211685  10.546   2.265   2.662
 3195WAT      O11686  10.401   2.393   2.920
 3195WAT     H111687  10.323   2.345   2.949
 3195WAT     H211688  10.466   2.325   2.903
 3196WAT      O11689   9.803   2.424   3.008
 3196WAT     H111690   9.719   2.398   3.048
 3196WAT     H211691   9.863   2.431   3.082
 3197WAT      O11692  10.803   2.833   2.798
 3197WAT     H111693  10.757   2.756   2.831
 3197WAT     H211694  10.884   2.836   2.849
 3198WAT      O11695   9.801   2.827   3.028
 3198WAT     H111696   9.831   2.738   3.010
 3198WAT     H211697   9.875   2.883   3.005
 3199WAT      O11698   9.643   1.920   2.387
 3199WAT     H111699   9.555   1.954   2.376
 3199WAT     H211700   9.672   1.900   2.297
 3200WAT      O11701   9.440   2.180   2.975
 3200WAT     H111702   9.497   2.103   2.975
 3200WAT     H211703   9.440   2.210   2.884
 3201WAT      O11704  10.426   3.062   2.760
 3201WAT     H111705  10.364   3.107   2.703
 3201WAT     H211706  10.511   3.077   2.720
 3202WAT      O11707  10.345   2.660   2.921
 3202WAT     H111708  10.338   2.566   2.905
 3202WAT     H211709  10.421   2.669   2.978
 3203WAT      O11710   9.564   1.721   3.154
 3203WAT     H111711   9.546   1.631   3.182
 3203WAT     H211712   9.524   1.776   3.221
 3204WAT      O11713  10.448   1.941   2.944
 3204WAT     H111714  10.486   1.854   2.933
 3204WAT     H211715  10.438   1.975   2.855
 3205WAT      O11716   9.861   1.778   2.490
 3205WAT     H111717   9.872   1.868   2.521
 3205WAT     H211718   9.770   1.773   2.461
 3206WAT      O11719  10.826   1.690   2.637
 3206WAT     H111720  10.908   1.641   2.641
 3206WAT     H211721  10.830   1.749   2.712
 3207WAT      O11722   9.626   1.970   3.015
 3207WAT     H111723   9.694   1.997   3.076
 3207WAT     H211724   9.594   1.886   3.048
 3208WAT      O11725  10.045   2.075   2.923
 3208WAT     H111726  10.096   2.125   2.987
 3208WAT     H211727  10.098   1.997   2.906
 3209WAT      O11728   9.873   1.539   3.350
 3209WAT     H111729   9.874   1.591   3.269
 3209WAT     H211730   9.791   1.491   3.348
 3210WAT      O11731  10.512   2.550   2.500
 3210WAT     H111732  10.450   2.597   2.443
 3210WAT     H211733  10.563   2.620   2.541
 3211WAT      O11734   9.999   2.503   3.168
 3211WAT     H111735   9.965   2.566   3.232
 3211WAT     H211736  10.016   2.556   3.090
 3212WAT      O11737  10.850   1.884   2.914
 3212WAT     H111738  10.779   1.913   2.972
 3212WAT     H211739  10.886   1.965   2.878
 3213WAT      O11740   9.842   1.710   3.151
 3213WAT     H111741   9.876   1.795   3.121
 3213WAT     H211742   9.748   1.725   3.162
 3214WAT      O11743   9.920   2.700   3.349
 3214WAT     H111744   9.981   2.767   3.321
 3214WAT     H211745   9.834   2.741   3.340
 3215WAT      O11746  11.011   2.846   3.141
 3215WAT     H111747  10.943   2.913   3.140
 3215WAT     H211748  11.065   2.866   3.064
 3216WAT      O11749  10.210   1.459   2.783
 3216WAT     H111750  10.241   1.403   2.711
 3216WAT     H211751  10.117   1.472   2.765
 3217WAT      O11752  10.765   3.031   3.012
 3217WAT     H111753  10.766   2.990   2.925
 3217WAT     H211754  10.710   3.108   3.002
 3218WAT      O11755  10.895   2.703   2.521
 3218WAT     H111756  10.883   2.609   2.534
 3218WAT     H211757  10.894   2.739   2.610
 3219WAT      O11758  10.705   2.521   3.145
 3219WAT     H111759  10.747   2.500   3.061
 3219WAT     H211760  10.777   2.547   3.202
 3220WAT      O11761  10.449   2.265   2.457
 3220WAT     H111762  10.356   2.259   2.480
 3220WAT     H211763  10.464   2.359   2.445
 3221WAT      O11764  10.447   1.893   2.156
 3221WAT     H111765  10.353   1.909   2.165
 3221WAT     H211766  10.479   1.965   2.102
 3222WAT      O11767  10.852   2.422   2.507
 3222WAT     H111768  10.790   2.388   2.442
 3222WAT     H211769  10.850   2.357   2.578
 3223WAT      O11770  10.796   2.040   3.249
 3223WAT     H111771  10.755   2.122   3.274
 3223WAT     H211772  10.723   1.981   3.229
 3224WAT      O11773  10.009   2.318   2.735
 3224WAT     H111774   9.969   2.247   2.685
 3224WAT     H211775  10.018   2.284   2.824
 3225WAT      O11776  10.056   2.687   2.951
 3225WAT     H111777  10.026   2.626   2.883
 3225WAT     H211778  10.151   2.691   2.940
 3226WAT      O11779   9.881   1.996   3.113
 3226WAT     H111780   9.936   2.007   3.035
 3226WAT     H211781   9.932   2.033   3.184
 3227WAT      O11782  10.865   3.044   3.317
 3227WAT     H111783  10.817   3.125   3.298
 3227WAT     H211784  10.797   2.979   3.333
 3228WAT      O11785   9.965   2.661   3.616
 3228WAT     H111786   9.876   2.683   3.641
 3228WAT     H211787   9.968   2.673   3.521
 3229WAT      O11788  10.669   2.346   2.208
 3229WAT     H111789  10.713   2.262   2.193
 3229WAT     H211790  10.741   2.409   2.216
 3230WAT      O11791   9.848   2.348   3.474
 3230WAT     H111792   9.834   2.435   3.511
 3230WAT     H211793   9.760   2.313   3.459
 3231WAT      O11794  10.480   2.840   2.605
 3231WAT     H111795  10.524   2.914   2.563
 3231WAT     H211796  10.474   2.864   2.697
 3232WAT      O11797  10.028   2.942   3.695
 3232WAT     H111798  10.025   2.982   3.608
 3232WAT     H211799  10.011   2.849   3.678
 3233WAT      O11800  11.028   1.471   2.039
 3233WAT     H111801  10.996   1.480   2.129
 3233WAT     H211802  11.104   1.529   2.034
 3234WAT      O11803   9.679   2.208   2.485
 3234WAT     H111804   9.667   2.280   2.424
 3234WAT     H211805   9.648   2.131   2.437
 3235WAT      O11806   9.443   2.525   3.066
 3235WAT     H111807   9.451   2.538   2.971
 3235WAT     H211808   9.505   2.454   3.085
 3236WAT      O11809   9.568   2.695   2.707
 3236WAT     H111810   9.527   2.709   2.621
 3236WAT     H211811   9.657   2.666   2.686
 3237WAT      O11812  10.549   3.110   3.397
 3237WAT     H111813  10.601   3.101   3.478
 3237WAT     H211814  10.465   3.144   3.427
 3238WAT      O11815  10.747   3.138   2.340
 3238WAT     H111816  10.731   3.109   2.430
 3238WAT     H211817  10.730   3.061   2.287
 3239WAT      O11818   9.995   3.116   2.518
 3239WAT     H111819   9.977   3.025   2.497
 3239WAT     H211820   9.909   3.152   2.542
 3240WAT      O11821  10.717   2.889   2.196
 3240WAT     H111822  10.648   2.889   2.130
 3240WAT     H211823  10.791   2.847   2.153
 3241WAT      O11824  10.674   3.052   2.604
 3241WAT     H111825  10.719   2.974   2.635
 3241WAT     H211826  10.708   3.123   2.658
 3242WAT      O11827   9.449   2.629   3.320
 3242WAT     H111828   9.465   2.582   3.238
 3242WAT     H211829   9.495   2.578   3.386
 3243WAT      O11830   9.926   1.542   2.823
 3243WAT     H111831   9.882   1.620   2.790
 3243WAT     H211832   9.982   1.574   2.894
 3244WAT      O11833  10.355   1.829   3.383
 3244WAT     H111834  10.308   1.849   3.465
 3244WAT     H211835  10.314   1.747   3.353
 3245WAT      O11836  10.855   1.951   3.496
 3245WAT     H111837  10.770   1.921   3.529
 3245WAT     H211838  10.839   1.975   3.405
 3246WAT      O11839  10.564   2.101   3.706
 3246WAT     H111840  10.597   2.017   3.672
 3246WAT     H211841  10.643   2.153   3.721
 3247WAT      O11842  10.238   1.504   2.311
 3247WAT     H111843  10.175   1.504   2.384
 3247WAT     H211844  10.229   1.417   2.272
 3248WAT      O11845  10.130   1.596   3.009
 3248WAT     H111846  10.159   1.687   3.001
 3248WAT     H211847  10.185   1.548   2.948
 3249WAT      O11848   9.905   2.054   2.596
 3249WAT     H111849   9.883   2.033   2.686
 3249WAT     H211850   9.827   2.098   2.561
 3250WAT      O11851  10.628   2.055   2.456
 3250WAT     H111852  10.568   2.127   2.437
 3250WAT     H211853  10.683   2.049   2.378
 3251WAT      O11854  10.149   2.144   3.663
 3251WAT     H111855  10.140   2.050   3.648
 3251WAT     H211856  10.233   2.166   3.623
 3252WAT      O11857  10.489   1.919   2.659
 3252WAT     H111858  10.528   1.950   2.578
 3252WAT     H211859  10.525   1.831   2.670
 3253WAT      O11860   9.662   1.785   3.478
 3253WAT     H111861   9.623   1.870   3.499
 3253WAT     H211862   9.593   1.722   3.497
 3254WAT      O11863  10.320   1.794   3.785
 3254WAT     H111864  10.251   1.774   3.848
 3254WAT     H211865  10.394   1.822   3.838
 3255WAT      O11866   9.392   1.578   2.881
 3255WAT     H111867   9.364   1.635   2.952
 3255WAT     H211868   9.467   1.530   2.917
 3256WAT      O11869   9.411   1.972   2.002
 3256WAT     H111870   9.403   2.066   2.016
 3256WAT     H211871   9.376   1.957   1.914
 3257WAT      O11872  10.547   2.178   3.068
 3257WAT     H111873  10.474   2.228   3.103
 3257WAT     H211874  10.508   2.096   3.038
 3258WAT      O11875  10.191   1.845   2.909
 3258WAT     H111876  10.191   1.801   2.824
 3258WAT     H211877  10.281   1.877   2.920
 3259WAT      O11878   9.776   1.833   2.805
 3259WAT     H111879   9.742   1.881   2.881
 3259WAT     H211880   9.700   1.788   2.769
 3260WAT      O11881  10.197   1.945   2.208
 3260WAT     H111882  10.209   1.941   2.303
 3260WAT     H211883  10.159   2.031   2.192
 3261WAT      O11884  10.594   1.723   3.010
 3261WAT     H111885  10.595   1.768   3.094
 3261WAT     H211886  10.569   1.633   3.031
 3262WAT      O11887  10.098   2.176   2.148
 3262WAT     H111888  10.042   2.131   2.085
 3262WAT     H211889  10.169   2.212   2.094
 3263WAT      O11890  10.936   1.464   3.593
 3263WAT     H111891  10.969   1.391   3.646
 3263WAT     H211892  10.940   1.432   3.503
 3264WAT      O11893   9.606   2.566   3.535
 3264WAT     H111894   9.568   2.502   3.595
 3264WAT     H211895   9.637   2.637   3.592
 3265WAT      O11896  10.221   2.251   3.084
 3265WAT     H111897  10.258   2.204   3.158
 3265WAT     H211898  10.202   2.339   3.118
 3266WAT      O11899   9.508   1.726   2.697
 3266WAT     H111900   9.479   1.689   2.780
 3266WAT     H211901   9.501   1.652   2.635
 3267WAT      O11902  10.000   2.155   3.315
 3267WAT     H111903   9.970   2.243   3.338
 3267WAT     H211904  10.096   2.161   3.319
 3268WAT      O11905   9.853   2.576   2.375
 3268WAT     H111906   9.776   2.522   2.359
 3268WAT     H211907   9.926   2.524   2.341
 3269WAT      O11908  10.929   2.476   2.954
 3269WAT     H111909  11.001   2.525   2.915
 3269WAT     H211910  10.909   2.408   2.890
 3270WAT      O11911  10.475   1.615   2.369
 3270WAT     H111912  10.394   1.565   2.361
 3270WAT     H211913  10.456   1.699   2.327
 3271WAT      O11914  10.467   2.483   3.543
 3271WAT     H111915  10.460   2.391   3.518
 3271WAT     H211916  10.404   2.492   3.614
 3272WAT      O11917  10.746   2.052   2.198
 3272WAT     H111918  10.835   2.083   2.181
 3272WAT     H211919  10.743   1.965   2.159
 3273WAT      O11920   9.857   2.543   2.739
 3273WAT     H111921   9.909   2.462   2.733
 3273WAT     H211922   9.812   2.536   2.823
 3274WAT      O11923  10.346   2.669   2.266
 3274WAT     H111924  10.380   2.744   2.217
 3274WAT     H211925  10.263   2.701   2.302
 3275WAT      O11926   9.606   2.239   3.430
 3275WAT     H111927   9.570   2.306   3.489
 3275WAT     H211928   9.576   2.156   3.467
 3276WAT      O11929   9.926   2.285   3.719
 3276WAT     H111930   9.896   2.300   3.629
 3276WAT     H211931  10.003   2.229   3.709
 3277WAT      O11932  10.460   2.765   3.518
 3277WAT     H111933  10.462   2.672   3.496
 3277WAT     H211934  10.389   2.773   3.582
 3278WAT      O11935  10.974   2.183   2.145
 3278WAT     H111936  10.965   2.226   2.060
 3278WAT     H211937  11.045   2.229   2.188
 3279WAT      O11938  11.076   2.869   2.418
 3279WAT     H111939  11.012   2.803   2.445
 3279WAT     H211940  11.038   2.909   2.340
 3280WAT      O11941  10.634   2.601   2.803
 3280WAT     H111942  10.670   2.542   2.737
 3280WAT     H211943  10.546   2.569   2.820
 3281WAT      O11944  10.243   2.677   2.543
 3281WAT     H111945  10.312   2.732   2.581
 3281WAT     H211946  10.164   2.732   2.547
 3282WAT      O11947   9.457   2.239   2.092
 3282WAT     H111948   9.544   2.267   2.121
 3282WAT     H211949   9.408   2.321   2.081
 3283WAT      O11950  10.173   2.378   2.505
 3283WAT     H111951  10.219   2.459   2.527
 3283WAT     H211952  10.138   2.346   2.588
 3284WAT      O11953  10.404   2.929   3.227
 3284WAT     H111954  10.468   2.950   3.295
 3284WAT     H211955  10.440   2.853   3.182
 3285WAT      O11956   9.763   1.412   2.552
 3285WAT     H111957   9.750   1.411   2.647
 3285WAT     H211958   9.681   1.446   2.517
 3286WAT      O11959  10.531   2.729   3.099
 3286WAT     H111960  10.595   2.659   3.111
 3286WAT     H211961  10.583   2.807   3.081
 3287WAT      O11962  10.915   2.758   2.072
 3287WAT     H111963  10.893   2.686   2.131
 3287WAT     H211964  10.876   2.733   1.988
 3288WAT      O11965  10.708   2.809   3.420
 3288WAT     H111966  10.742   2.868   3.487
 3288WAT     H211967  10.616   2.796   3.443
 3289WAT      O11968   9.463   1.588   3.498
 3289WAT     H111969   9.392   1.608   3.558
 3289WAT     H211970   9.505   1.511   3.535
 3290WAT      O11971  10.874   2.550   2.238
 3290WAT     H111972  10.845   2.596   2.317
 3290WAT     H211973  10.953   2.503   2.265
 3291WAT      O11974   9.492   2.987   3.597
 3291WAT     H111975   9.503   2.893   3.582
 3291WAT     H211976   9.427   3.014   3.532
 3292WAT      O11977  10.291   2.814   3.736
 3292WAT     H111978  10.259   2.742   3.791
 3292WAT     H211979  10.224   2.882   3.744
 3293WAT      O11980  10.095   2.899   2.231
 3293WAT     H111981  10.094   2.972   2.169
 3293WAT     H211982  10.003   2.874   2.240
 3294WAT      O11983   9.655   2.421   2.305
 3294WAT     H111984   9.595   2.495   2.306
 3294WAT     H211985   9.703   2.430   2.223
 3295WAT      O11986  10.613   1.837   3.273
 3295WAT     H111987  10.649   1.755   3.306
 3295WAT     H211988  10.527   1.843   3.314
 3296WAT      O11989  10.949   1.733   2.354
 3296WAT     H111990  10.886   1.743   2.282
 3296WAT     H211991  10.900   1.755   2.433
 3297WAT      O11992  10.394   2.905   2.097
 3297WAT     H111993  10.404   2.885   2.004
 3297WAT     H211994  10.304   2.880   2.118
 3298WAT      O11995  10.146   1.961   2.495
 3298WAT     H111996  10.075   2.008   2.539
 3298WAT     H211997  10.175   1.895   2.559
 3299WAT      O11998  10.309   2.103   3.295
 3299WAT     H111999  10.359   2.150   3.362
 3299WAT     H212000  10.323   2.010   3.316
 3300WAT      O12001  10.549   1.633   2.639
 3300WAT     H112002  10.537   1.635   2.544
 3300WAT     H212003  10.644   1.638   2.651
 3301WAT      O12004  10.258   3.157   2.567
 3301WAT     H112005  10.283   3.153   2.474
 3301WAT     H212006  10.163   3.144   2.566
 3302WAT      O12007   9.966   1.792   2.233
 3302WAT     H112008  10.051   1.835   2.226
 3302WAT     H212009   9.930   1.823   2.316
 3303WAT      O12010  11.029   1.724   3.380
 3303WAT     H112011  10.979   1.799   3.413
 3303WAT     H212012  11.111   1.763   3.348
 3304WAT      O12013  10.859   2.249   2.724
 3304WAT     H112014  10.764   2.250   2.742
 3304WAT     H212015  10.890   2.170   2.769
 3305WAT      O12016   9.856   2.417   2.080
 3305WAT     H112017   9.933   2.406   2.136
 3305WAT     H212018   9.864   2.347   2.015
 3306WAT      O12019   9.726   2.160   2.149
 3306WAT     H112020   9.734   2.066   2.160
 3306WAT     H212021   9.815   2.193   2.159
 3307WAT      O12022   9.806   3.175   2.859
 3307WAT     H112023   9.880   3.120   2.886
 3307WAT     H212024   9.844   3.262   2.845
 3308WAT      O12025   9.494   2.782   2.446
 3308WAT     H112026   9.402   2.806   2.445
 3308WAT     H212027   9.541   2.865   2.434
 3309WAT      O12028   9.707   3.094   3.778
 3309WAT     H112029   9.787   3.126   3.819
 3309WAT     H212030   9.655   3.058   3.850
 3310WAT      O12031  10.117   3.093   2.041
 3310WAT     H112032  10.196   3.121   1.996
 3310WAT     H212033  10.065   3.049   1.973
 3311WAT      O12034  10.590   2.704   3.772
 3311WAT     H112035  10.530   2.707   3.698
 3311WAT     H212036  10.560   2.631   3.826
 3312WAT      O12037  10.733   3.077   3.634
 3312WAT     H112038  10.828   3.069   3.629
 3312WAT     H212039  10.718   3.144   3.701
 3313WAT      O12040  11.022   3.015   2.183
 3313WAT     H112041  10.994   2.974   2.102
 3313WAT     H212042  11.003   3.108   2.171
 3314WAT      O12043   9.479   2.342   3.672
 3314WAT     H112044   9.529   2.284   3.729
 3314WAT     H212045   9.405   2.371   3.726
 3315WAT      O12046  10.169   2.615   2.028
 3315WAT     H112047  10.158   2.553   2.100
 3315WAT     H212048  10.152   2.562   1.949
 3316WAT      O12049  10.184   2.483   3.625
 3316WAT     H112050  10.107   2.540   3.617
 3316WAT     H212051  10.202   2.454   3.536
 3317WAT      O12052  10.493   2.521   2.088
 3317WAT     H112053  10.438   2.565   2.152
 3317WAT     H212054  10.555   2.470   2.140
 3318WAT      O12055  10.898   2.656   3.681
 3318WAT     H112056  10.972   2.690   3.631
 3318WAT     H212057  10.822   2.673   3.626
 3319WAT      O12058   9.682   2.157   3.762
 3319WAT     H112059   9.686   2.127   3.852
 3319WAT     H212060   9.767   2.197   3.746
 3320WAT      O12061  10.060   2.417   2.278
 3320WAT     H112062  10.102   2.400   2.362
 3320WAT     H212063  10.072   2.336   2.228
 3321WAT      O12064   9.876   2.015   3.558
 3321WAT     H112065   9.823   1.966   3.496
 3321WAT     H212066   9.943   2.057   3.505
 3322WAT      O12067  10.311   2.319   2.002
 3322WAT     H112068  10.363   2.248   1.966
 3322WAT     H212069  10.376   2.383   2.032
 3323WAT      O12070  10.766   2.461   3.535
 3323WAT     H112071  10.807   2.477   3.620
 3323WAT     H212072  10.672   2.474   3.551
 3324WAT      O12073  10.813   2.195   3.735
 3324WAT     H112074  10.871   2.120   3.726
 3324WAT     H212075  10.830   2.248   3.657
 3325WAT      O12076   9.925   1.711   3.566
 3325WAT     H112077   9.915   1.649   3.494
 3325WAT     H212078   9.867   1.784   3.544
 3326WAT      O12079  10.201   1.567   3.270
 3326WAT     H112080  10.156   1.569   3.185
 3326WAT     H212081  10.138   1.527   3.329
 3327WAT      O12082  10.242   2.457   3.332
 3327WAT     H112083  10.284   2.541   3.314
 3327WAT     H212084  10.150   2.470   3.309
 3328WAT      O12085  10.475   2.230   3.470
 3328WAT     H112086  10.487   2.170   3.544
 3328WAT     H212087  10.561   2.233   3.428
 3329WAT      O12088  10.709   2.285   3.328
 3329WAT     H112089  10.657   2.337   3.267
 3329WAT     H212090  10.744   2.348   3.391
 3330WAT      O12091   9.949   2.024   1.972
 3330WAT     H112092   9.929   1.938   2.008
 3330WAT     H212093   9.932   2.015   1.878
 3331WAT      O12094  10.027   3.087   3.443
 3331WAT     H112095   9.973   3.160   3.411
 3331WAT     H212096  10.052   3.039   3.364
 3332WAT      O12097  10.152   1.884   3.596
 3332WAT     H112098  10.211   1.853   3.665
 3332WAT     H212099  10.070   1.837   3.611
 3333WAT      O12100  10.634   1.846   3.619
 3333WAT     H112101  10.565   1.779   3.613
 3333WAT     H212102  10.706   1.801   3.664
 3334WAT      O12103  10.697   1.505   2.225
 3334WAT     H112104  10.725   1.421   2.261
 3334WAT     H212105  10.620   1.528   2.276
 3335WAT      O12106   9.829   1.734   1.971
 3335WAT     H112107   9.859   1.735   1.880
 3335WAT     H212108   9.903   1.699   2.021
 3336WAT      O12109  10.312   3.211   3.469
 3336WAT     H112110  10.305   3.301   3.500
 3336WAT     H212111  10.222   3.179   3.466
 3337WAT      O12112  10.151   1.628   2.070
 3337WAT     H112113  10.116   1.561   2.012
 3337WAT     H212114  10.171   1.582   2.151
 3338WAT      O12115  10.367   3.127   2.231
 3338WAT     H112116  10.457   3.161   2.234
 3338WAT     H212117  10.370   3.055   2.169
 3339WAT      O12118   9.731   2.664   2.054
 3339WAT     H112119   9.775   2.719   2.120
 3339WAT     H212120   9.780   2.582   2.055
 3340WAT      O12121   9.453   2.943   2.799
 3340WAT     H112122   9.486   2.857   2.776
 3340WAT     H212123   9.496   2.964   2.883
 3341WAT      O12124   9.912   2.776   2.565
 3341WAT     H112125   9.882   2.764   2.656
 3341WAT     H212126   9.902   2.691   2.525
 3342WAT      O12127   9.502   3.030   3.073
 3342WAT     H112128   9.458   3.048   3.157
 3342WAT     H212129   9.558   3.106   3.059
 3343WAT      O12130  11.065   2.980   3.502
 3343WAT     H112131  11.005   2.986   3.428
 3343WAT     H212132  11.078   2.886   3.515
 3344WAT      O12133   9.485   2.281   2.709
 3344WAT     H112134   9.419   2.254   2.645
 3344WAT     H212135   9.569   2.270   2.664
 3345WAT      O12136  10.934   2.653   3.312
 3345WAT     H112137  10.852   2.696   3.338
 3345WAT     H212138  10.975   2.714   3.251
 3346WAT      O12139  10.780   1.761   2.131
 3346WAT     H112140  10.822   1.742   2.047
 3346WAT     H212141  10.749   1.675   2.162
 3347WAT      O12142   9.589   2.320   3.163
 3347WAT     H112143   9.625   2.311   3.251
 3347WAT     H212144   9.532   2.243   3.153
 3348WAT      O12145  11.069   2.167   3.465
 3348WAT     H112146  11.046   2.144   3.374
 3348WAT     H212147  11.095   2.259   3.460
 3349WAT      O12148   9.544   2.011   3.554
 3349WAT     H112149   9.454   2.008   3.588
 3349WAT     H212150   9.598   2.031   3.630
 3350WAT      O12151  10.913   1.689   3.742
 3350WAT     H112152  11.000   1.690   3.781
 3350WAT     H212153  10.914   1.615   3.681
 3351WAT      O12154   9.406   2.002   2.303
 3351WAT     H112155   9.316   2.029   2.286
 3351WAT     H212156   9.455   2.029   2.225
 3352WAT      O12157  11.057   2.074   2.831
 3352WAT     H112158  11.110   2.025   2.768
 3352WAT     H212159  11.116   2.088   2.906
 3353WAT      O12160  11.075   2.083   3.183
 3353WAT     H112161  10.980   2.079   3.195
 3353WAT     H212162  11.093   2.174   3.160
 3354WAT      O12163   9.661   1.908   2.094
 3354WAT     H112164   9.731   1.866   2.046
 3354WAT     H212165   9.589   1.915   2.031
 3355WAT      O12166   9.625   1.513   1.998
 3355WAT     H112167   9.698   1.567   2.030
 3355WAT     H212168   9.653   1.486   1.911
 3356WAT      O12169  11.006   2.000   2.425
 3356WAT     H112170  11.056   1.977   2.504
 3356WAT     H212171  10.986   1.916   2.383
 3357WAT      O12172   9.594   1.438   2.989
 3357WAT     H112173   9.659   1.383   2.945
 3357WAT     H212174   9.636   1.464   3.071
 3358WAT      O12175  10.984   1.458   3.324
 3358WAT     H112176  11.047   1.519   3.361
 3358WAT     H212177  10.998   1.461   3.230
 3359WAT      O12178  10.940   3.128   2.665
 3359WAT     H112179  10.999   3.096   2.597
 3359WAT     H212180  10.965   3.081   2.744
 3360WAT      O12181   9.570   1.454   3.263
 3360WAT     H112182   9.535   1.500   3.339
 3360WAT     H212183   9.536   1.364   3.271
 3361WAT      O12184   9.730   2.771   3.679
 3361WAT     H112185   9.726   2.734   3.768
 3361WAT     H212186   9.743   2.865   3.693
 3362WAT      O12187  10.100   2.927   3.240
 3362WAT     H112188  10.076   2.953   3.151
 3362WAT     H212189  10.194   2.944   3.245
 3363WAT      O12190  10.321   1.573   3.615
 3363WAT     H112191  10.315   1.632   3.690
 3363WAT     H212192  10.415   1.562   3.601
 3364WAT      O12193  10.585   1.539   3.579
 3364WAT     H112194  10.646   1.571   3.513
 3364WAT     H212195  10.639   1.490   3.641
 3365WAT      O12196   9.637   1.407   3.590
 3365WAT     H112197   9.692   1.389   3.514
 3365WAT     H212198   9.643   1.328   3.644
 3366WAT      O12199   9.714   3.066   3.391
 3366WAT     H112200   9.655   3.053   3.465
 3366WAT     H212201   9.713   2.982   3.345
 3367WAT      O12202  10.659   1.395   3.212
 3367WAT     H112203  10.571   1.428   3.191
 3367WAT     H212204  10.648   1.348   3.294
 3368WAT      O12205  10.749   1.616   3.350
 3368WAT     H112206  10.716   1.534   3.312
 3368WAT     H212207  10.844   1.611   3.338
 3369WAT      O12208  10.995   3.193   3.047
 3369WAT     H112209  10.949   3.268   3.010
 3369WAT     H212210  10.932   3.121   3.042
 3370WAT      O12211   9.677   2.802   3.286
 3370WAT     H112212   9.605   2.740   3.280
 3370WAT     H212213   9.683   2.842   3.199
 3371WAT      O12214  10.038   3.024   2.965
 3371WAT     H112215  10.089   2.963   2.912
 3371WAT     H212216  10.103   3.074   3.014
 3372WAT      O12217  10.312   3.113   3.048
 3372WAT     H112218  10.340   3.087   2.960
 3372WAT     H212219  10.363   3.058   3.107
 3373WAT      O12220  10.433   1.487   3.106
 3373WAT     H112221  10.355   1.534   3.134
 3373WAT     H212222  10.404   1.396   3.095
 3374WAT      O12223  10.889   1.557   2.910
 3374WAT     H112224  10.933   1.551   2.825
 3374WAT     H212225  10.862   1.649   2.917
 3375WAT      O12226   9.568   1.517   2.358
 3375WAT     H112227   9.644   1.528   2.300
 3375WAT     H212228   9.522   1.601   2.353
 3376WAT      O12229  10.222   1.729   2.657
 3376WAT     H112230  10.141   1.691   2.623
 3376WAT     H212231  10.272   1.653   2.687
 3377WAT      O12232  10.672   1.395   2.781
 3377WAT     H112233  10.732   1.452   2.828
 3377WAT     H212234  10.598   1.451   2.758
 3378WAT      O12235  10.986   1.435   2.308
 3378WAT     H112236  11.006   1.525   2.335
 3378WAT     H212237  10.908   1.412   2.357
 3379WAT      O12238   9.805   1.570   2.212
 3379WAT     H112239   9.858   1.491   2.199
 3379WAT     H212240   9.868   1.638   2.235
 3380WAT      O12241  10.024   1.544   2.517
 3380WAT     H112242   9.961   1.473   2.534
 3380WAT     H212243   9.970   1.620   2.496
 3381WAT      O12244  10.318   3.205   3.784
 3381WAT     H112245  10.411   3.181   3.789
 3381WAT     H212246  10.317   3.288   3.736
 3382WAT      O12247  10.037   1.471   3.761
 3382WAT     H112248  10.009   1.522   3.684
 3382WAT     H212249  10.075   1.392   3.724
 3383WAT      O12250   9.926   3.198   2.239
 3383WAT     H112251   9.999   3.170   2.185
 3383WAT     H212252   9.952   3.174   2.328
 3384WAT      O12253   9.842   2.810   2.240
 3384WAT     H112254   9.779   2.857   2.295
 3384WAT     H212255   9.854   2.725   2.283
 3385WAT      O12256  10.697   1.413   3.819
 3385WAT     H112257  10.686   1.445   3.908
 3385WAT     H212258  10.779   1.453   3.789
 3386WAT      O12259  10.975   3.128   3.767
 3386WAT     H112260  11.054   3.078   3.746
 3386WAT     H212261  11.004   3.196   3.827
 3387WAT      O12262  10.588   2.215   0.855
 3387WAT     H112263  10.580   2.123   0.828
 3387WAT     H212264  10.546   2.265   0.784
 3388WAT      O12265  10.401   2.393   1.043
 3388WAT     H112266  10.323   2.345   1.072
 3388WAT     H212267  10.466   2.325   1.026
 3389WAT      O12268   9.803   2.424   1.131
 3389WAT     H112269   9.719   2.398   1.171
 3389WAT     H212270   9.863   2.431   1.204
 3390WAT      O12271  10.803   2.833   0.921
 3390WAT     H112272  10.757   2.756   0.954
 3390WAT     H212273  10.884   2.836   0.972
 3391WAT      O12274   9.801   2.827   1.150
 3391WAT     H112275   9.831   2.738   1.132
 3391WAT     H212276   9.875   2.883   1.128
 3392WAT      O12277   9.643   1.920   0.509
 3392WAT     H112278   9.555   1.954   0.499
 3392WAT     H212279   9.672   1.900   0.420
 3393WAT      O12280   9.440   2.180   1.098
 3393WAT     H112281   9.497   2.103   1.098
 3393WAT     H212282   9.440   2.210   1.007
 3394WAT      O12283  10.426   3.062   0.883
 3394WAT     H112284  10.364   3.107   0.826
 3394WAT     H212285  10.511   3.077   0.843
 3395WAT      O12286  10.345   2.660   1.044
 3395WAT     H112287  10.338   2.566   1.028
 3395WAT     H212288  10.421   2.669   1.101
 3396WAT      O12289   9.564   1.721   1.276
 3396WAT     H112290   9.546   1.631   1.304
 3396WAT     H212291   9.524   1.776   1.344
 3397WAT      O12292  10.448   1.941   1.066
 3397WAT     H112293  10.486   1.854   1.055
 3397WAT     H212294  10.438   1.975   0.977
 3398WAT      O12295   9.861   1.778   0.613
 3398WAT     H112296   9.872   1.868   0.643
 3398WAT     H212297   9.770   1.773   0.584
 3399WAT      O12298  10.826   1.690   0.760
 3399WAT     H112299  10.908   1.641   0.764
 3399WAT     H212300  10.830   1.749   0.835
 3400WAT      O12301   9.626   1.970   1.137
 3400WAT     H112302   9.694   1.997   1.199
 3400WAT     H212303   9.594   1.886   1.170
 3401WAT      O12304  10.045   2.075   1.046
 3401WAT     H112305  10.096   2.125   1.110
 3401WAT     H212306  10.098   1.997   1.028
 3402WAT      O12307   9.873   1.539   1.472
 3402WAT     H112308   9.874   1.591   1.392
 3402WAT     H212309   9.791   1.491   1.470
 3403WAT      O12310  10.512   2.550   0.622
 3403WAT     H112311  10.450   2.597   0.566
 3403WAT     H212312  10.563   2.620   0.664
 3404WAT      O12313   9.999   2.503   1.290
 3404WAT     H112314   9.965   2.566   1.354
 3404WAT     H212315  10.016   2.556   1.212
 3405WAT      O12316  10.850   1.884   1.037
 3405WAT     H112317  10.779   1.913   1.095
 3405WAT     H212318  10.886   1.965   1.001
 3406WAT      O12319   9.842   1.710   1.273
 3406WAT     H112320   9.876   1.795   1.244
 3406WAT     H212321   9.748   1.725   1.285
 3407WAT      O12322   9.920   2.700   1.472
 3407WAT     H112323   9.981   2.767   1.444
 3407WAT     H212324   9.834   2.741   1.463
 3408WAT      O12325   9.449   2.619   0.360
 3408WAT     H112326   9.411   2.668   0.287
 3408WAT     H212327   9.475   2.686   0.423
 3409WAT      O12328  11.011   2.846   1.263
 3409WAT     H112329  10.943   2.913   1.262
 3409WAT     H212330  11.065   2.866   1.187
 3410WAT      O12331  10.210   1.459   0.906
 3410WAT     H112332  10.241   1.403   0.834
 3410WAT     H212333  10.117   1.472   0.887
 3411WAT      O12334  10.765   3.031   1.135
 3411WAT     H112335  10.766   2.990   1.048
 3411WAT     H212336  10.710   3.108   1.124
 3412WAT      O12337  10.895   2.703   0.644
 3412WAT     H112338  10.883   2.609   0.656
 3412WAT     H212339  10.894   2.739   0.732
 3413WAT      O12340  10.705   2.521   1.267
 3413WAT     H112341  10.747   2.500   1.184
 3413WAT     H212342  10.777   2.547   1.325
 3414WAT      O12343  10.449   2.265   0.579
 3414WAT     H112344  10.356   2.259   0.602
 3414WAT     H212345  10.464   2.359   0.568
 3415WAT      O12346  10.447   1.893   0.279
 3415WAT     H112347  10.353   1.909   0.287
 3415WAT     H212348  10.479   1.965   0.224
 3416WAT      O12349  10.852   2.422   0.630
 3416WAT     H112350  10.790   2.388   0.565
 3416WAT     H212351  10.850   2.357   0.700
 3417WAT      O12352  10.796   2.040   1.371
 3417WAT     H112353  10.755   2.122   1.397
 3417WAT     H212354  10.723   1.981   1.352
 3418WAT      O12355  10.009   2.318   0.857
 3418WAT     H112356   9.969   2.247   0.808
 3418WAT     H212357  10.018   2.284   0.946
 3419WAT      O12358  10.056   2.687   1.074
 3419WAT     H112359  10.026   2.626   1.006
 3419WAT     H212360  10.151   2.691   1.063
 3420WAT      O12361   9.881   1.996   1.235
 3420WAT     H112362   9.936   2.007   1.158
 3420WAT     H212363   9.932   2.033   1.307
 3421WAT      O12364  10.865   3.044   1.440
 3421WAT     H112365  10.817   3.125   1.421
 3421WAT     H212366  10.797   2.979   1.455
 3422WAT      O12367   9.965   2.661   1.739
 3422WAT     H112368   9.876   2.683   1.764
 3422WAT     H212369   9.968   2.673   1.644
 3423WAT      O12370  10.669   2.346   0.330
 3423WAT     H112371  10.713   2.262   0.316
 3423WAT     H212372  10.741   2.409   0.339
 3424WAT      O12373   9.848   2.348   1.596
 3424WAT     H112374   9.834   2.435   1.633
 3424WAT     H212375   9.760   2.313   1.582
 3425WAT      O12376  10.480   2.840   0.727
 3425WAT     H112377  10.524   2.914   0.686
 3425WAT     H212378  10.474   2.864   0.819
 3426WAT      O12379  10.028   2.942   1.817
 3426WAT     H112380  10.025   2.982   1.731
 3426WAT     H212381  10.011   2.849   1.801
 3427WAT      O12382   9.679   2.208   0.607
 3427WAT     H112383   9.667   2.280   0.546
 3427WAT     H212384   9.648   2.131   0.560
 3428WAT      O12385   9.443   2.525   1.188
 3428WAT     H112386   9.451   2.538   1.094
 3428WAT     H212387   9.505   2.454   1.207
 3429WAT      O12388   9.568   2.695   0.829
 3429WAT     H112389   9.527   2.709   0.744
 3429WAT     H212390   9.657   2.666   0.809
 3430WAT      O12391  10.549   3.110   1.520
 3430WAT     H112392  10.601   3.101   1.600
 3430WAT     H212393  10.465   3.144   1.549
 3431WAT      O12394  10.747   3.138   0.463
 3431WAT     H112395  10.731   3.109   0.553
 3431WAT     H212396  10.730   3.061   0.409
 3432WAT      O12397   9.995   3.116   0.640
 3432WAT     H112398   9.977   3.025   0.619
 3432WAT     H212399   9.909   3.152   0.664
 3433WAT      O12400  10.717   2.889   0.319
 3433WAT     H112401  10.648   2.889   0.253
 3433WAT     H212402  10.791   2.847   0.276
 3434WAT      O12403  10.674   3.052   0.726
 3434WAT     H112404  10.719   2.974   0.758
 3434WAT     H212405  10.708   3.123   0.781
 3435WAT      O12406   9.926   1.542   0.946
 3435WAT     H112407   9.882   1.620   0.913
 3435WAT     H212408   9.982   1.574   1.016
 3436WAT      O12409  10.355   1.829   1.506
 3436WAT     H112410  10.308   1.849   1.587
 3436WAT     H212411  10.314   1.747   1.476
 3437WAT      O12412  10.855   1.951   1.619
 3437WAT     H112413  10.770   1.921   1.651
 3437WAT     H212414  10.839   1.975   1.528
 3438WAT      O12415  10.564   2.101   1.829
 3438WAT     H112416  10.597   2.017   1.795
 3438WAT     H212417  10.643   2.153   1.844
 3439WAT      O12418  10.238   1.504   0.434
 3439WAT     H112419  10.175   1.504   0.506
 3439WAT     H212420  10.229   1.417   0.394
 3440WAT      O12421  10.130   1.596   1.132
 3440WAT     H112422  10.159   1.687   1.124
 3440WAT     H212423  10.185   1.548   1.070
 3441WAT      O12424   9.905   2.054   0.719
 3441WAT     H112425   9.883   2.033   0.809
 3441WAT     H212426   9.827   2.098   0.684
 3442WAT      O12427  10.628   2.055   0.578
 3442WAT     H112428  10.568   2.127   0.560
 3442WAT     H212429  10.683   2.049   0.500
 3443WAT      O12430  10.149   2.144   1.785
 3443WAT     H112431  10.140   2.050   1.770
 3443WAT     H212432  10.233   2.166   1.746
 3444WAT      O12433  10.489   1.919   0.781
 3444WAT     H112434  10.528   1.950   0.700
 3444WAT     H212435  10.525   1.831   0.793
 3445WAT      O12436   9.662   1.785   1.600
 3445WAT     H112437   9.623   1.870   1.621
 3445WAT     H212438   9.593   1.722   1.620
 3446WAT      O12439  10.320   1.794   1.907
 3446WAT     H112440  10.251   1.774   1.971
 3446WAT     H212441  10.394   1.822   1.961
 3447WAT      O12442   9.392   1.578   1.004
 3447WAT     H112443   9.364   1.635   1.075
 3447WAT     H212444   9.467   1.530   1.040
 3448WAT      O12445  10.547   2.178   1.191
 3448WAT     H112446  10.474   2.228   1.226
 3448WAT     H212447  10.508   2.096   1.161
 3449WAT      O12448  10.191   1.845   1.031
 3449WAT     H112449  10.191   1.801   0.947
 3449WAT     H212450  10.281   1.877   1.042
 3450WAT      O12451   9.776   1.833   0.927
 3450WAT     H112452   9.742   1.881   1.003
 3450WAT     H212453   9.700   1.788   0.891
 3451WAT      O12454  10.197   1.945   0.331
 3451WAT     H112455  10.209   1.941   0.425
 3451WAT     H212456  10.159   2.031   0.315
 3452WAT      O12457  10.594   1.723   1.132
 3452WAT     H112458  10.595   1.768   1.217
 3452WAT     H212459  10.569   1.633   1.154
 3453WAT      O12460  10.098   2.176   0.270
 3453WAT     H112461  10.042   2.131   0.208
 3453WAT     H212462  10.169   2.212   0.217
 3454WAT      O12463  10.936   1.464   1.716
 3454WAT     H112464  10.969   1.391   1.769
 3454WAT     H212465  10.940   1.432   1.626
 3455WAT      O12466  10.221   2.251   1.206
 3455WAT     H112467  10.258   2.204   1.281
 3455WAT     H212468  10.202   2.339   1.240
 3456WAT      O12469   9.508   1.726   0.819
 3456WAT     H112470   9.479   1.689   0.903
 3456WAT     H212471   9.501   1.652   0.758
 3457WAT      O12472  10.000   2.155   1.438
 3457WAT     H112473   9.970   2.243   1.460
 3457WAT     H212474  10.096   2.161   1.442
 3458WAT      O12475   9.853   2.576   0.498
 3458WAT     H112476   9.776   2.522   0.482
 3458WAT     H212477   9.926   2.524   0.464
 3459WAT      O12478  10.929   2.476   1.077
 3459WAT     H112479  11.001   2.525   1.038
 3459WAT     H212480  10.909   2.408   1.012
 3460WAT      O12481  10.475   1.615   0.491
 3460WAT     H112482  10.394   1.565   0.484
 3460WAT     H212483  10.456   1.699   0.450
 3461WAT      O12484  10.467   2.483   1.666
 3461WAT     H112485  10.460   2.391   1.640
 3461WAT     H212486  10.404   2.492   1.737
 3462WAT      O12487  10.746   2.052   0.321
 3462WAT     H112488  10.835   2.083   0.303
 3462WAT     H212489  10.743   1.965   0.282
 3463WAT      O12490   9.857   2.543   0.861
 3463WAT     H112491   9.909   2.462   0.856
 3463WAT     H212492   9.812   2.536   0.946
 3464WAT      O12493  10.346   2.669   0.389
 3464WAT     H112494  10.380   2.744   0.339
 3464WAT     H212495  10.263   2.701   0.425
 3465WAT      O12496   9.606   2.239   1.553
 3465WAT     H112497   9.570   2.306   1.611
 3465WAT     H212498   9.576   2.156   1.590
 3466WAT      O12499   9.926   2.285   1.841
 3466WAT     H112500   9.896   2.300   1.751
 3466WAT     H212501  10.003   2.229   1.832
 3467WAT      O12502  10.460   2.765   1.641
 3467WAT     H112503  10.462   2.672   1.619
 3467WAT     H212504  10.389   2.773   1.705
 3468WAT      O12505  10.974   2.183   0.268
 3468WAT     H112506  10.965   2.226   0.183
 3468WAT     H212507  11.045   2.229   0.311
 3469WAT      O12508  11.076   2.869   0.540
 3469WAT     H112509  11.012   2.803   0.568
 3469WAT     H212510  11.038   2.909   0.463
 3470WAT      O12511  10.634   2.601   0.925
 3470WAT     H112512  10.670   2.542   0.859
 3470WAT     H212513  10.546   2.569   0.942
 3471WAT      O12514  10.243   2.677   0.666
 3471WAT     H112515  10.312   2.732   0.704
 3471WAT     H212516  10.164   2.732   0.669
 3472WAT      O12517   9.457   2.239   0.215
 3472WAT     H112518   9.544   2.267   0.243
 3472WAT     H212519   9.408   2.321   0.204
 3473WAT      O12520  10.173   2.378   0.627
 3473WAT     H112521  10.219   2.459   0.650
 3473WAT     H212522  10.138   2.346   0.710
 3474WAT      O12523  10.404   2.929   1.350
 3474WAT     H112524  10.468   2.950   1.418
 3474WAT     H212525  10.440   2.853   1.305
 3475WAT      O12526   9.763   1.412   0.674
 3475WAT     H112527   9.750   1.411   0.769
 3475WAT     H212528   9.681   1.446   0.639
 3476WAT      O12529  10.531   2.729   1.222
 3476WAT     H112530  10.595   2.659   1.233
 3476WAT     H212531  10.583   2.807   1.204
 3477WAT      O12532  10.708   2.809   1.542
 3477WAT     H112533  10.742   2.868   1.610
 3477WAT     H212534  10.616   2.796   1.565
 3478WAT      O12535   9.494   3.160   0.272
 3478WAT     H112536   9.530   3.220   0.206
 3478WAT     H212537   9.479   3.215   0.349
 3479WAT      O12538   9.463   1.588   1.620
 3479WAT     H112539   9.392   1.608   1.681
 3479WAT     H212540   9.505   1.511   1.658
 3480WAT      O12541  10.874   2.550   0.360
 3480WAT     H112542  10.845   2.596   0.439
 3480WAT     H212543  10.953   2.503   0.387
 3481WAT      O12544  10.291   2.814   1.859
 3481WAT     H112545  10.259   2.742   1.914
 3481WAT     H212546  10.224   2.882   1.866
 3482WAT      O12547  10.095   2.899   0.353
 3482WAT     H112548  10.094   2.972   0.292
 3482WAT     H212549  10.003   2.874   0.363
 3483WAT      O12550   9.655   2.421   0.428
 3483WAT     H112551   9.595   2.495   0.429
 3483WAT     H212552   9.703   2.430   0.345
 3484WAT      O12553  10.613   1.837   1.395
 3484WAT     H112554  10.649   1.755   1.428
 3484WAT     H212555  10.527   1.843   1.437
 3485WAT      O12556  10.949   1.733   0.476
 3485WAT     H112557  10.886   1.743   0.405
 3485WAT     H212558  10.900   1.755   0.555
 3486WAT      O12559  10.146   1.961   0.618
 3486WAT     H112560  10.075   2.008   0.662
 3486WAT     H212561  10.175   1.895   0.681
 3487WAT      O12562  10.309   2.103   1.418
 3487WAT     H112563  10.359   2.150   1.484
 3487WAT     H212564  10.323   2.010   1.439
 3488WAT      O12565  10.549   1.633   0.762
 3488WAT     H112566  10.537   1.635   0.667
 3488WAT     H212567  10.644   1.638   0.774
 3489WAT      O12568  10.258   3.157   0.689
 3489WAT     H112569  10.283   3.153   0.597
 3489WAT     H212570  10.163   3.144   0.688
 3490WAT      O12571   9.966   1.792   0.355
 3490WAT     H112572  10.051   1.835   0.349
 3490WAT     H212573   9.930   1.823   0.438
 3491WAT      O12574  11.029   1.724   1.502
 3491WAT     H112575  10.979   1.799   1.536
 3491WAT     H212576  11.111   1.763   1.470
 3492WAT      O12577  10.859   2.249   0.847
 3492WAT     H112578  10.764   2.250   0.864
 3492WAT     H212579  10.890   2.170   0.891
 3493WAT      O12580   9.726   2.160   0.271
 3493WAT     H112581   9.734   2.066   0.282
 3493WAT     H212582   9.815   2.193   0.282
 3494WAT      O12583   9.806   3.175   0.981
 3494WAT     H112584   9.880   3.120   1.009
 3494WAT     H212585   9.844   3.262   0.967
 3495WAT      O12586   9.494   2.782   0.569
 3495WAT     H112587   9.402   2.806   0.568
 3495WAT     H212588   9.541   2.865   0.557
 3496WAT      O12589   9.707   3.094   1.900
 3496WAT     H112590   9.787   3.126   1.942
 3496WAT     H212591   9.655   3.058   1.972
 3497WAT      O12592  10.590   2.704   1.895
 3497WAT     H112593  10.530   2.707   1.821
 3497WAT     H212594  10.560   2.631   1.949
 3498WAT      O12595  10.733   3.077   1.756
 3498WAT     H112596  10.828   3.069   1.751
 3498WAT     H212597  10.718   3.144   1.823
 3499WAT      O12598  11.022   3.015   0.306
 3499WAT     H112599  10.994   2.974   0.225
 3499WAT     H212600  11.003   3.108   0.294
 3500WAT      O12601   9.479   2.342   1.795
 3500WAT     H112602   9.529   2.284   1.852
 3500WAT     H212603   9.405   2.371   1.848
 3501WAT      O12604  10.184   2.483   1.748
 3501WAT     H112605  10.107   2.540   1.740
 3501WAT     H212606  10.202   2.454   1.659
 3502WAT      O12607  10.493   2.521   0.211
 3502WAT     H112608  10.438   2.565   0.275
 3502WAT     H212609  10.555   2.470   0.263
 3503WAT      O12610  10.898   2.656   1.804
 3503WAT     H112611  10.972   2.690   1.753
 3503WAT     H212612  10.822   2.673   1.748
 3504WAT      O12613   9.682   2.157   1.884
 3504WAT     H112614   9.686   2.127   1.975
 3504WAT     H212615   9.767   2.197   1.868
 3505WAT      O12616  10.060   2.417   0.400
 3505WAT     H112617  10.102   2.400   0.484
 3505WAT     H212618  10.072   2.336   0.351
 3506WAT      O12619   9.876   2.015   1.681
 3506WAT     H112620   9.823   1.966   1.618
 3506WAT     H212621   9.943   2.057   1.627
 3507WAT      O12622  10.766   2.461   1.657
 3507WAT     H112623  10.807   2.477   1.742
 3507WAT     H212624  10.672   2.474   1.674
 3508WAT      O12625  10.813   2.195   1.858
 3508WAT     H112626  10.871   2.120   1.849
 3508WAT     H212627  10.830   2.248   1.780
 3509WAT      O12628   9.925   1.711   1.689
 3509WAT     H112629   9.915   1.649   1.616
 3509WAT     H212630   9.867   1.784   1.666
 3510WAT      O12631  10.201   1.567   1.392
 3510WAT     H112632  10.156   1.569   1.308
 3510WAT     H212633  10.138   1.527   1.452
 3511WAT      O12634  10.242   2.457   1.454
 3511WAT     H112635  10.284   2.541   1.437
 3511WAT     H212636  10.150   2.470   1.431
 3512WAT      O12637  10.475   2.230   1.593
 3512WAT     H112638  10.487   2.170   1.667
 3512WAT     H212639  10.561   2.233   1.551
 3513WAT      O12640  10.709   2.285   1.450
 3513WAT     H112641  10.657   2.337   1.390
 3513WAT     H212642  10.744   2.348   1.513
 3514WAT      O12643  10.027   3.087   1.566
 3514WAT     H112644   9.973   3.160   1.534
 3514WAT     H212645  10.052   3.039   1.487
 3515WAT      O12646  10.152   1.884   1.718
 3515WAT     H112647  10.211   1.853   1.787
 3515WAT     H212648  10.070   1.837   1.734
 3516WAT      O12649  10.634   1.846   1.742
 3516WAT     H112650  10.565   1.779   1.735
 3516WAT     H212651  10.706   1.801   1.786
 3517WAT      O12652  10.697   1.505   0.348
 3517WAT     H112653  10.725   1.421   0.383
 3517WAT     H212654  10.620   1.528   0.399
 3518WAT      O12655  10.312   3.211   1.592
 3518WAT     H112656  10.305   3.301   1.622
 3518WAT     H212657  10.222   3.179   1.589
 3519WAT      O12658  10.367   3.127   0.354
 3519WAT     H112659  10.457   3.161   0.356
 3519WAT     H212660  10.370   3.055   0.291
 3520WAT      O12661   9.731   2.664   0.177
 3520WAT     H112662   9.775   2.719   0.242
 3520WAT     H212663   9.780   2.582   0.178
 3521WAT      O12664   9.453   2.943   0.922
 3521WAT     H112665   9.486   2.857   0.899
 3521WAT     H212666   9.496   2.964   1.005
 3522WAT      O12667   9.912   2.776   0.688
 3522WAT     H112668   9.882   2.764   0.778
 3522WAT     H212669   9.902   2.691   0.647
 3523WAT      O12670   9.502   3.030   1.196
 3523WAT     H112671   9.458   3.048   1.279
 3523WAT     H212672   9.558   3.106   1.182
 3524WAT      O12673  11.065   2.980   1.625
 3524WAT     H112674  11.005   2.986   1.550
 3524WAT     H212675  11.078   2.886   1.638
 3525WAT      O12676   9.485   2.281   0.832
 3525WAT     H112677   9.419   2.254   0.767
 3525WAT     H212678   9.569   2.270   0.787
 3526WAT      O12679  10.934   2.653   1.434
 3526WAT     H112680  10.852   2.696   1.461
 3526WAT     H212681  10.975   2.714   1.373
 3527WAT      O12682  10.780   1.761   0.254
 3527WAT     H112683  10.822   1.742   0.170
 3527WAT     H212684  10.749   1.675   0.285
 3528WAT      O12685   9.589   2.320   1.286
 3528WAT     H112686   9.625   2.311   1.374
 3528WAT     H212687   9.532   2.243   1.276
 3529WAT      O12688  11.069   2.167   1.587
 3529WAT     H112689  11.046   2.144   1.497
 3529WAT     H212690  11.095   2.259   1.583
 3530WAT      O12691   9.544   2.011   1.676
 3530WAT     H112692   9.454   2.008   1.710
 3530WAT     H212693   9.598   2.031   1.753
 3531WAT      O12694  10.913   1.689   1.865
 3531WAT     H112695  11.000   1.690   1.903
 3531WAT     H212696  10.914   1.615   1.804
 3532WAT      O12697   9.406   2.002   0.426
 3532WAT     H112698   9.316   2.029   0.409
 3532WAT     H212699   9.455   2.029   0.348
 3533WAT      O12700  11.057   2.074   0.954
 3533WAT     H112701  11.110   2.025   0.891
 3533WAT     H212702  11.116   2.088   1.028
 3534WAT      O12703  11.075   2.083   1.306
 3534WAT     H112704  10.980   2.079   1.317
 3534WAT     H212705  11.093   2.174   1.282
 3535WAT      O12706  11.006   2.000   0.548
 3535WAT     H112707  11.056   1.977   0.626
 3535WAT     H212708  10.986   1.916   0.506
 3536WAT      O12709   9.594   1.438   1.111
 3536WAT     H112710   9.659   1.383   1.067
 3536WAT     H212711   9.636   1.464   1.193
 3537WAT      O12712  10.984   1.458   1.447
 3537WAT     H112713  11.047   1.519   1.483
 3537WAT     H212714  10.998   1.461   1.352
 3538WAT      O12715  10.940   3.128   0.787
 3538WAT     H112716  10.999   3.096   0.719
 3538WAT     H212717  10.965   3.081   0.866
 3539WAT      O12718   9.570   1.454   1.385
 3539WAT     H112719   9.535   1.500   1.462
 3539WAT     H212720   9.536   1.364   1.394
 3540WAT      O12721  10.100   2.927   1.362
 3540WAT     H112722  10.076   2.953   1.273
 3540WAT     H212723  10.194   2.944   1.368
 3541WAT      O12724  10.321   1.573   1.738
 3541WAT     H112725  10.315   1.632   1.813
 3541WAT     H212726  10.415   1.562   1.723
 3542WAT      O12727  10.585   1.539   1.702
 3542WAT     H112728  10.646   1.571   1.635
 3542WAT     H212729  10.639   1.490   1.764
 3543WAT      O12730   9.637   1.407   1.713
 3543WAT     H112731   9.692   1.389   1.637
 3543WAT     H212732   9.643   1.328   1.767
 3544WAT      O12733   9.714   3.066   1.514
 3544WAT     H112734   9.655   3.053   1.588
 3544WAT     H212735   9.713   2.982   1.467
 3545WAT      O12736  10.659   1.395   1.334
 3545WAT     H112737  10.571   1.428   1.314
 3545WAT     H212738  10.648   1.348   1.417
 3546WAT      O12739  10.749   1.616   1.473
 3546WAT     H112740  10.716   1.534   1.435
 3546WAT     H212741  10.844   1.611   1.460
 3547WAT      O12742  10.995   3.193   1.170
 3547WAT     H112743  10.949   3.268   1.133
 3547WAT     H212744  10.932   3.121   1.164
 3548WAT      O12745   9.677   2.802   1.409
 3548WAT     H112746   9.605   2.740   1.402
 3548WAT     H212747   9.683   2.842   1.322
 3549WAT      O12748  10.038   3.024   1.088
 3549WAT     H112749  10.089   2.963   1.035
 3549WAT     H212750  10.103   3.074   1.137
 3550WAT      O12751  10.312   3.113   1.170
 3550WAT     H112752  10.340   3.087   1.083
 3550WAT     H212753  10.363   3.058   1.229
 3551WAT      O12754  10.433   1.487   1.228
 3551WAT     H112755  10.355   1.534   1.256
 3551WAT     H212756  10.404   1.396   1.217
 3552WAT      O12757  10.889   1.557   1.033
 3552WAT     H112758  10.933   1.551   0.948
 3552WAT     H212759  10.862   1.649   1.040
 3553WAT      O12760   9.505   3.134   0.730
 3553WAT     H112761   9.489   3.071   0.800
 3553WAT     H212762   9.419   3.155   0.695
 3554WAT      O12763   9.568   1.517   0.480
 3554WAT     H112764   9.644   1.528   0.423
 3554WAT     H212765   9.522   1.601   0.476
 3555WAT      O12766  10.222   1.729   0.779
 3555WAT     H112767  10.141   1.691   0.745
 3555WAT     H212768  10.272   1.653   0.810
 3556WAT      O12769  10.672   1.395   0.903
 3556WAT     H112770  10.732   1.452   0.951
 3556WAT     H212771  10.598   1.451   0.881
 3557WAT      O12772  10.986   1.435   0.431
 3557WAT     H112773  11.006   1.525   0.457
 3557WAT     H212774  10.908   1.412   0.480
 3558WAT      O12775   9.666   3.003   0.474
 3558WAT     H112776   9.614   3.041   0.404
 3558WAT     H212777   9.659   3.066   0.547
 3559WAT      O12778   9.805   1.570   0.334
 3559WAT     H112779   9.858   1.491   0.321
 3559WAT     H212780   9.868   1.638   0.358
 3560WAT      O12781  10.024   1.544   0.640
 3560WAT     H112782   9.961   1.473   0.656
 3560WAT     H212783   9.970   1.620   0.618
 3561WAT      O12784  10.318   3.205   1.907
 3561WAT     H112785  10.411   3.181   1.911
 3561WAT     H212786  10.317   3.288   1.859
 3562WAT      O12787  10.037   1.471   1.883
 3562WAT     H112788  10.009   1.522   1.807
 3562WAT     H212789  10.075   1.392   1.847
 3563WAT      O12790   9.926   3.198   0.362
 3563WAT     H112791   9.999   3.170   0.307
 3563WAT     H212792   9.952   3.174   0.451
 3564WAT      O12793   9.842   2.810   0.362
 3564WAT     H112794   9.779   2.857   0.417
 3564WAT     H212795   9.854   2.725   0.406
 3565WAT      O12796  10.697   1.413   1.941
 3565WAT     H112797  10.686   1.445   2.031
 3565WAT     H212798  10.779   1.453   1.911
 3566WAT      O12799  10.975   3.128   1.889
 3566WAT     H112800  11.054   3.078   1.869
 3566WAT     H212801  11.004   3.196   1.950
 3567WAT      O12802  10.588   0.337   6.487
 3567WAT     H112803  10.580   0.246   6.460
 3567WAT     H212804  10.546   0.387   6.417
 3568WAT      O12805  10.401   0.515   6.675
 3568WAT     H112806  10.323   0.467   6.704
 3568WAT     H212807  10.466   0.447   6.658
 3569WAT      O12808   9.803   0.546   6.763
 3569WAT     H112809   9.719   0.521   6.803
 3569WAT     H212810   9.863   0.554   6.837
 3570WAT      O12811  10.803   0.956   6.553
 3570WAT     H112812  10.757   0.879   6.586
 3570WAT     H212813  10.884   0.959   6.604
 3571WAT      O12814   9.801   0.950   6.783
 3571WAT     H112815   9.831   0.861   6.765
 3571WAT     H212816   9.875   1.006   6.760
 3572WAT      O12817   9.440   0.303   6.730
 3572WAT     H112818   9.497   0.226   6.730
 3572WAT     H212819   9.440   0.332   6.639
 3573WAT      O12820  10.426   1.184   6.515
 3573WAT     H112821  10.364   1.230   6.458
 3573WAT     H212822  10.511   1.200   6.475
 3574WAT      O12823  10.345   0.783   6.676
 3574WAT     H112824  10.338   0.689   6.660
 3574WAT     H212825  10.421   0.792   6.733
 3575WAT      O12826  10.512   0.673   6.255
 3575WAT     H112827  10.450   0.719   6.198
 3575WAT     H212828  10.563   0.742   6.296
 3576WAT      O12829   9.999   0.626   6.922
 3576WAT     H112830   9.965   0.688   6.987
 3576WAT     H212831  10.016   0.678   6.845
 3577WAT      O12832   9.920   0.822   7.104
 3577WAT     H112833   9.981   0.890   7.076
 3577WAT     H212834   9.834   0.863   7.095
 3578WAT      O12835   9.449   0.741   5.992
 3578WAT     H112836   9.411   0.790   5.919
 3578WAT     H212837   9.475   0.809   6.055
 3579WAT      O12838  11.011   0.969   6.896
 3579WAT     H112839  10.943   1.036   6.895
 3579WAT     H212840  11.065   0.989   6.819
 3580WAT      O12841  10.765   1.153   6.767
 3580WAT     H112842  10.766   1.113   6.680
 3580WAT     H212843  10.710   1.231   6.757
 3581WAT      O12844  10.895   0.825   6.276
 3581WAT     H112845  10.883   0.731   6.288
 3581WAT     H212846  10.894   0.862   6.365
 3582WAT      O12847  10.705   0.644   6.900
 3582WAT     H112848  10.747   0.622   6.816
 3582WAT     H212849  10.777   0.669   6.957
 3583WAT      O12850  10.449   0.388   6.212
 3583WAT     H112851  10.356   0.381   6.234
 3583WAT     H212852  10.464   0.482   6.200
 3584WAT      O12853  10.852   0.544   6.262
 3584WAT     H112854  10.790   0.510   6.197
 3584WAT     H212855  10.850   0.480   6.333
 3585WAT      O12856  10.009   0.441   6.490
 3585WAT     H112857   9.969   0.369   6.440
 3585WAT     H212858  10.018   0.406   6.579
 3586WAT      O12859  10.056   0.809   6.706
 3586WAT     H112860  10.026   0.749   6.638
 3586WAT     H212861  10.151   0.813   6.695
 3587WAT      O12862  10.865   1.167   7.072
 3587WAT     H112863  10.817   1.247   7.053
 3587WAT     H212864  10.797   1.101   7.088
 3588WAT      O12865   9.965   0.783   7.371
 3588WAT     H112866   9.876   0.806   7.396
 3588WAT     H212867   9.968   0.796   7.276
 3589WAT      O12868  10.669   0.468   5.963
 3589WAT     H112869  10.713   0.384   5.948
 3589WAT     H212870  10.741   0.531   5.971
 3590WAT      O12871   9.848   0.470   7.229
 3590WAT     H112872   9.834   0.558   7.266
 3590WAT     H212873   9.760   0.436   7.214
 3591WAT      O12874  10.480   0.962   6.359
 3591WAT     H112875  10.524   1.036   6.318
 3591WAT     H212876  10.474   0.986   6.452
 3592WAT      O12877  10.028   1.065   7.450
 3592WAT     H112878  10.025   1.105   7.363
 3592WAT     H212879  10.011   0.972   7.433
 3593WAT      O12880   9.679   0.330   6.240
 3593WAT     H112881   9.667   0.403   6.179
 3593WAT     H212882   9.648   0.253   6.192
 3594WAT      O12883   9.443   0.647   6.820
 3594WAT     H112884   9.451   0.661   6.726
 3594WAT     H212885   9.505   0.576   6.840
 3595WAT      O12886   9.568   0.817   6.462
 3595WAT     H112887   9.527   0.831   6.376
 3595WAT     H212888   9.657   0.789   6.441
 3596WAT      O12889  10.549   1.232   7.152
 3596WAT     H112890  10.601   1.223   7.232
 3596WAT     H212891  10.465   1.267   7.181
 3597WAT      O12892  10.747   1.261   6.095
 3597WAT     H112893  10.731   1.232   6.185
 3597WAT     H212894  10.730   1.183   6.041
 3598WAT      O12895   9.995   1.239   6.273
 3598WAT     H112896   9.977   1.147   6.251
 3598WAT     H212897   9.909   1.275   6.297
 3599WAT      O12898  10.717   1.012   5.951
 3599WAT     H112899  10.648   1.011   5.885
 3599WAT     H212900  10.791   0.969   5.908
 3600WAT      O12901  10.674   1.174   6.358
 3600WAT     H112902  10.719   1.096   6.390
 3600WAT     H212903  10.708   1.245   6.413
 3601WAT      O12904   9.449   0.751   7.074
 3601WAT     H112905   9.465   0.704   6.993
 3601WAT     H212906   9.495   0.701   7.141
 3602WAT      O12907  10.564   0.223   7.461
 3602WAT     H112908  10.597   0.140   7.427
 3602WAT     H212909  10.643   0.276   7.476
 3603WAT      O12910   9.905   0.177   6.351
 3603WAT     H112911   9.883   0.155   6.441
 3603WAT     H212912   9.827   0.220   6.316
 3604WAT      O12913  10.628   0.177   6.211
 3604WAT     H112914  10.568   0.250   6.192
 3604WAT     H212915  10.683   0.171   6.132
 3605WAT      O12916  10.149   0.267   7.417
 3605WAT     H112917  10.140   0.173   7.402
 3605WAT     H212918  10.233   0.289   7.378
 3606WAT      O12919  10.547   0.300   6.823
 3606WAT     H112920  10.474   0.351   6.858
 3606WAT     H212921  10.508   0.218   6.793
 3607WAT      O12922  10.098   0.299   5.903
 3607WAT     H112923  10.042   0.254   5.840
 3607WAT     H212924  10.169   0.335   5.849
 3608WAT      O12925   9.606   0.689   7.290
 3608WAT     H112926   9.568   0.625   7.350
 3608WAT     H212927   9.637   0.759   7.347
 3609WAT      O12928  10.221   0.374   6.838
 3609WAT     H112929  10.258   0.326   6.913
 3609WAT     H212930  10.202   0.461   6.873
 3610WAT      O12931  10.000   0.278   7.070
 3610WAT     H112932   9.970   0.366   7.093
 3610WAT     H212933  10.096   0.284   7.074
 3611WAT      O12934   9.853   0.698   6.130
 3611WAT     H112935   9.776   0.644   6.114
 3611WAT     H212936   9.926   0.646   6.096
 3612WAT      O12937  10.929   0.598   6.709
 3612WAT     H112938  11.001   0.648   6.670
 3612WAT     H212939  10.909   0.530   6.645
 3613WAT      O12940  10.467   0.605   7.298
 3613WAT     H112941  10.460   0.513   7.272
 3613WAT     H212942  10.404   0.615   7.369
 3614WAT      O12943   9.857   0.665   6.494
 3614WAT     H112944   9.909   0.585   6.488
 3614WAT     H212945   9.812   0.659   6.578
 3615WAT      O12946  10.346   0.792   6.021
 3615WAT     H112947  10.380   0.866   5.971
 3615WAT     H212948  10.263   0.823   6.057
 3616WAT      O12949   9.606   0.362   7.185
 3616WAT     H112950   9.570   0.428   7.244
 3616WAT     H212951   9.576   0.279   7.222
 3617WAT      O12952   9.926   0.408   7.473
 3617WAT     H112953   9.896   0.422   7.384
 3617WAT     H212954  10.003   0.352   7.464
 3618WAT      O12955  10.460   0.887   7.273
 3618WAT     H112956  10.462   0.794   7.251
 3618WAT     H212957  10.389   0.896   7.337
 3619WAT      O12958  10.974   0.306   5.900
 3619WAT     H112959  10.965   0.349   5.815
 3619WAT     H212960  11.045   0.352   5.943
 3620WAT      O12961  11.076   0.991   6.173
 3620WAT     H112962  11.012   0.926   6.200
 3620WAT     H212963  11.038   1.032   6.095
 3621WAT      O12964  10.634   0.724   6.557
 3621WAT     H112965  10.670   0.664   6.491
 3621WAT     H212966  10.546   0.691   6.575
 3622WAT      O12967  10.243   0.800   6.298
 3622WAT     H112968  10.312   0.855   6.336
 3622WAT     H212969  10.164   0.854   6.302
 3623WAT      O12970   9.457   0.362   5.847
 3623WAT     H112971   9.544   0.390   5.876
 3623WAT     H212972   9.408   0.443   5.836
 3624WAT      O12973  10.173   0.500   6.259
 3624WAT     H112974  10.219   0.582   6.282
 3624WAT     H212975  10.138   0.469   6.343
 3625WAT      O12976  10.404   1.052   6.982
 3625WAT     H112977  10.468   1.072   7.050
 3625WAT     H212978  10.440   0.975   6.937
 3626WAT      O12979  10.531   0.852   6.854
 3626WAT     H112980  10.595   0.782   6.865
 3626WAT     H212981  10.583   0.930   6.836
 3627WAT      O12982  10.915   0.880   5.827
 3627WAT     H112983  10.893   0.809   5.886
 3627WAT     H212984  10.876   0.855   5.743
 3628WAT      O12985  10.708   0.932   7.174
 3628WAT     H112986  10.742   0.990   7.242
 3628WAT     H212987  10.616   0.919   7.197
 3629WAT      O12988   9.494   1.283   5.904
 3629WAT     H112989   9.530   1.343   5.839
 3629WAT     H212990   9.479   1.338   5.981
 3630WAT      O12991  10.874   0.672   5.993
 3630WAT     H112992  10.845   0.718   6.071
 3630WAT     H212993  10.953   0.626   6.019
 3631WAT      O12994   9.492   1.110   7.351
 3631WAT     H112995   9.503   1.016   7.337
 3631WAT     H212996   9.427   1.136   7.287
 3632WAT      O12997  10.095   1.021   5.986
 3632WAT     H112998  10.094   1.095   5.924
 3632WAT     H212999  10.003   0.997   5.995
 3633WAT      O13000   9.655   0.543   6.060
 3633WAT     H113001   9.595   0.617   6.061
 3633WAT     H213002   9.703   0.552   5.978
 3634WAT      O13003  10.394   1.028   5.852
 3634WAT     H113004  10.404   1.007   5.759
 3634WAT     H213005  10.304   1.002   5.872
 3635WAT      O13006  10.309   0.225   7.050
 3635WAT     H113007  10.359   0.273   7.117
 3635WAT     H213008  10.323   0.133   7.071
 3636WAT      O13009  10.258   1.279   6.321
 3636WAT     H113010  10.283   1.276   6.229
 3636WAT     H213011  10.163   1.267   6.321
 3637WAT      O13012  10.859   0.371   6.479
 3637WAT     H113013  10.764   0.373   6.496
 3637WAT     H213014  10.890   0.293   6.524
 3638WAT      O13015   9.856   0.540   5.835
 3638WAT     H113016   9.933   0.528   5.891
 3638WAT     H213017   9.864   0.470   5.770
 3639WAT      O13018   9.726   0.283   5.903
 3639WAT     H113019   9.734   0.188   5.915
 3639WAT     H213020   9.815   0.316   5.914
 3640WAT      O13021   9.806   1.298   6.614
 3640WAT     H113022   9.880   1.243   6.641
 3640WAT     H213023   9.844   1.384   6.600
 3641WAT      O13024   9.494   0.905   6.201
 3641WAT     H113025   9.402   0.929   6.200
 3641WAT     H213026   9.541   0.987   6.189
 3642WAT      O13027  10.117   1.215   5.796
 3642WAT     H113028  10.196   1.244   5.751
 3642WAT     H213029  10.065   1.172   5.728
 3643WAT      O13030  10.733   1.200   7.388
 3643WAT     H113031  10.828   1.191   7.383
 3643WAT     H213032  10.718   1.266   7.456
 3644WAT      O13033  11.022   1.138   5.938
 3644WAT     H113034  10.994   1.096   5.857
 3644WAT     H213035  11.003   1.231   5.926
 3645WAT      O13036   9.479   0.465   7.427
 3645WAT     H113037   9.529   0.407   7.484
 3645WAT     H213038   9.405   0.493   7.481
 3646WAT      O13039  10.169   0.737   5.782
 3646WAT     H113040  10.158   0.676   5.855
 3646WAT     H213041  10.152   0.685   5.704
 3647WAT      O13042  10.184   0.606   7.380
 3647WAT     H113043  10.107   0.663   7.372
 3647WAT     H213044  10.202   0.576   7.291
 3648WAT      O13045  10.493   0.643   5.843
 3648WAT     H113046  10.438   0.688   5.907
 3648WAT     H213047  10.555   0.593   5.895
 3649WAT      O13048  10.898   0.779   7.436
 3649WAT     H113049  10.972   0.813   7.386
 3649WAT     H213050  10.822   0.796   7.381
 3650WAT      O13051  10.060   0.539   6.032
 3650WAT     H113052  10.102   0.523   6.117
 3650WAT     H213053  10.072   0.458   5.983
 3651WAT      O13054  10.311   0.442   5.757
 3651WAT     H113055  10.363   0.370   5.721
 3651WAT     H213056  10.376   0.505   5.787
 3652WAT      O13057  10.766   0.584   7.290
 3652WAT     H113058  10.807   0.599   7.375
 3652WAT     H213059  10.672   0.596   7.306
 3653WAT      O13060  10.813   0.318   7.490
 3653WAT     H113061  10.871   0.242   7.481
 3653WAT     H213062  10.830   0.371   7.412
 3654WAT      O13063  10.242   0.579   7.087
 3654WAT     H113064  10.284   0.663   7.069
 3654WAT     H213065  10.150   0.593   7.064
 3655WAT      O13066  10.475   0.352   7.225
 3655WAT     H113067  10.487   0.293   7.299
 3655WAT     H213068  10.561   0.356   7.183
 3656WAT      O13069  10.709   0.408   7.083
 3656WAT     H113070  10.657   0.460   7.022
 3656WAT     H213071  10.744   0.471   7.146
 3657WAT      O13072  10.027   1.210   7.198
 3657WAT     H113073   9.973   1.282   7.166
 3657WAT     H213074  10.052   1.162   7.119
 3658WAT      O13075  10.312   1.333   7.224
 3658WAT     H113076  10.305   1.423   7.255
 3658WAT     H213077  10.222   1.301   7.221
 3659WAT      O13078  10.367   1.250   5.986
 3659WAT     H113079  10.457   1.284   5.988
 3659WAT     H213080  10.370   1.178   5.924
 3660WAT      O13081   9.731   0.787   5.809
 3660WAT     H113082   9.775   0.841   5.875
 3660WAT     H213083   9.780   0.704   5.810
 3661WAT      O13084   9.453   1.066   6.554
 3661WAT     H113085   9.486   0.979   6.531
 3661WAT     H213086   9.496   1.086   6.637
 3662WAT      O13087   9.912   0.899   6.320
 3662WAT     H113088   9.882   0.887   6.410
 3662WAT     H213089   9.902   0.813   6.280
 3663WAT      O13090   9.502   1.153   6.828
 3663WAT     H113091   9.458   1.171   6.911
 3663WAT     H213092   9.558   1.228   6.814
 3664WAT      O13093  11.065   1.103   7.257
 3664WAT     H113094  11.005   1.109   7.183
 3664WAT     H213095  11.078   1.009   7.270
 3665WAT      O13096   9.485   0.404   6.464
 3665WAT     H113097   9.419   0.377   6.400
 3665WAT     H213098   9.569   0.393   6.419
 3666WAT      O13099  10.934   0.775   7.067
 3666WAT     H113100  10.852   0.818   7.093
 3666WAT     H213101  10.975   0.836   7.005
 3667WAT      O13102   9.589   0.442   6.918
 3667WAT     H113103   9.625   0.434   7.006
 3667WAT     H213104   9.532   0.366   6.908
 3668WAT      O13105  11.069   0.289   7.219
 3668WAT     H113106  11.046   0.266   7.129
 3668WAT     H213107  11.095   0.381   7.215
 3669WAT      O13108  11.057   0.197   6.586
 3669WAT     H113109  11.110   0.148   6.523
 3669WAT     H213110  11.116   0.211   6.661
 3670WAT      O13111  11.075   0.205   6.938
 3670WAT     H113112  10.980   0.202   6.950
 3670WAT     H213113  11.093   0.296   6.915
 3671WAT      O13114  10.940   1.250   6.419
 3671WAT     H113115  10.999   1.218   6.352
 3671WAT     H213116  10.965   1.203   6.499
 3672WAT      O13117  10.100   1.049   6.994
 3672WAT     H113118  10.076   1.076   6.906
 3672WAT     H213119  10.194   1.066   7.000
 3673WAT      O13120   9.714   1.188   7.146
 3673WAT     H113121   9.655   1.175   7.220
 3673WAT     H213122   9.713   1.105   7.100
 3674WAT      O13123  10.995   1.315   6.802
 3674WAT     H113124  10.949   1.391   6.765
 3674WAT     H213125  10.932   1.243   6.796
 3675WAT      O13126   9.677   0.925   7.041
 3675WAT     H113127   9.605   0.863   7.035
 3675WAT     H213128   9.683   0.964   6.954
 3676WAT      O13129  10.038   1.146   6.720
 3676WAT     H113130  10.089   1.085   6.667
 3676WAT     H213131  10.103   1.197   6.769
 3677WAT      O13132  10.312   1.235   6.803
 3677WAT     H113133  10.340   1.210   6.715
 3677WAT     H213134  10.363   1.180   6.862
 3678WAT      O13135   9.505   1.257   6.362
 3678WAT     H113136   9.489   1.193   6.432
 3678WAT     H213137   9.419   1.277   6.327
 3679WAT      O13138   9.666   1.126   6.107
 3679WAT     H113139   9.614   1.164   6.036
 3679WAT     H213140   9.659   1.188   6.179
 3680WAT      O13141   9.926   1.321   5.994
 3680WAT     H113142   9.999   1.292   5.940
 3680WAT     H213143   9.952   1.297   6.083
 3681WAT      O13144   9.842   0.932   5.995
 3681WAT     H113145   9.779   0.979   6.050
 3681WAT     H213146   9.854   0.848   6.038
 3682WAT      O13147  10.588   0.337   4.610
 3682WAT     H113148  10.580   0.246   4.583
 3682WAT     H213149  10.546   0.387   4.539
 3683WAT      O13150  10.401   0.515   4.798
 3683WAT     H113151  10.323   0.467   4.827
 3683WAT     H213152  10.466   0.447   4.780
 3684WAT      O13153   9.803   0.546   4.886
 3684WAT     H113154   9.719   0.521   4.926
 3684WAT     H213155   9.863   0.554   4.959
 3685WAT      O13156  10.803   0.956   4.676
 3685WAT     H113157  10.757   0.879   4.709
 3685WAT     H213158  10.884   0.959   4.726
 3686WAT      O13159   9.801   0.950   4.905
 3686WAT     H113160   9.831   0.861   4.887
 3686WAT     H213161   9.875   1.006   4.882
 3687WAT      O13162   9.440   0.303   4.852
 3687WAT     H113163   9.497   0.226   4.852
 3687WAT     H213164   9.440   0.332   4.762
 3688WAT      O13165  10.426   1.184   4.638
 3688WAT     H113166  10.364   1.230   4.581
 3688WAT     H213167  10.511   1.200   4.598
 3689WAT      O13168  10.345   0.783   4.799
 3689WAT     H113169  10.338   0.689   4.782
 3689WAT     H213170  10.421   0.792   4.856
 3690WAT      O13171  10.512   0.673   4.377
 3690WAT     H113172  10.450   0.719   4.321
 3690WAT     H213173  10.563   0.742   4.419
 3691WAT      O13174   9.999   0.626   5.045
 3691WAT     H113175   9.965   0.688   5.109
 3691WAT     H213176  10.016   0.678   4.967
 3692WAT      O13177   9.920   0.822   5.227
 3692WAT     H113178   9.981   0.890   5.198
 3692WAT     H213179   9.834   0.863   5.217
 3693WAT      O13180   9.449   0.741   4.115
 3693WAT     H113181   9.411   0.790   4.041
 3693WAT     H213182   9.475   0.809   4.178
 3694WAT      O13183  11.011   0.969   5.018
 3694WAT     H113184  10.943   1.036   5.017
 3694WAT     H213185  11.065   0.989   4.942
 3695WAT      O13186  10.765   1.153   4.890
 3695WAT     H113187  10.766   1.113   4.803
 3695WAT     H213188  10.710   1.231   4.879
 3696WAT      O13189  10.895   0.825   4.398
 3696WAT     H113190  10.883   0.731   4.411
 3696WAT     H213191  10.894   0.862   4.487
 3697WAT      O13192  10.705   0.644   5.022
 3697WAT     H113193  10.747   0.622   4.939
 3697WAT     H213194  10.777   0.669   5.079
 3698WAT      O13195  10.449   0.388   4.334
 3698WAT     H113196  10.356   0.381   4.357
 3698WAT     H213197  10.464   0.482   4.323
 3699WAT      O13198  10.852   0.544   4.384
 3699WAT     H113199  10.790   0.510   4.320
 3699WAT     H213200  10.850   0.480   4.455
 3700WAT      O13201  10.009   0.441   4.612
 3700WAT     H113202   9.969   0.369   4.563
 3700WAT     H213203  10.018   0.406   4.701
 3701WAT      O13204  10.056   0.809   4.829
 3701WAT     H113205  10.026   0.749   4.761
 3701WAT     H213206  10.151   0.813   4.818
 3702WAT      O13207  10.865   1.167   5.195
 3702WAT     H113208  10.817   1.247   5.176
 3702WAT     H213209  10.797   1.101   5.210
 3703WAT      O13210   9.965   0.783   5.494
 3703WAT     H113211   9.876   0.806   5.518
 3703WAT     H213212   9.968   0.796   5.399
 3704WAT      O13213  10.669   0.468   4.085
 3704WAT     H113214  10.713   0.384   4.071
 3704WAT     H213215  10.741   0.531   4.094
 3705WAT      O13216   9.848   0.470   5.351
 3705WAT     H113217   9.834   0.558   5.388
 3705WAT     H213218   9.760   0.436   5.337
 3706WAT      O13219  10.480   0.962   4.482
 3706WAT     H113220  10.524   1.036   4.441
 3706WAT     H213221  10.474   0.986   4.574
 3707WAT      O13222  10.028   1.065   5.572
 3707WAT     H113223  10.025   1.105   5.485
 3707WAT     H213224  10.011   0.972   5.556
 3708WAT      O13225   9.679   0.330   4.362
 3708WAT     H113226   9.667   0.403   4.301
 3708WAT     H213227   9.648   0.253   4.315
 3709WAT      O13228   9.443   0.647   4.943
 3709WAT     H113229   9.451   0.661   4.849
 3709WAT     H213230   9.505   0.576   4.962
 3710WAT      O13231   9.568   0.817   4.584
 3710WAT     H113232   9.527   0.831   4.499
 3710WAT     H213233   9.657   0.789   4.564
 3711WAT      O13234  10.549   1.232   5.275
 3711WAT     H113235  10.601   1.223   5.355
 3711WAT     H213236  10.465   1.267   5.304
 3712WAT      O13237  10.747   1.261   4.218
 3712WAT     H113238  10.731   1.232   4.307
 3712WAT     H213239  10.730   1.183   4.164
 3713WAT      O13240   9.995   1.239   4.395
 3713WAT     H113241   9.977   1.147   4.374
 3713WAT     H213242   9.909   1.275   4.419
 3714WAT      O13243  10.717   1.012   4.074
 3714WAT     H113244  10.648   1.011   4.008
 3714WAT     H213245  10.791   0.969   4.031
 3715WAT      O13246  10.674   1.174   4.481
 3715WAT     H113247  10.719   1.096   4.512
 3715WAT     H213248  10.708   1.245   4.535
 3716WAT      O13249   9.449   0.751   5.197
 3716WAT     H113250   9.465   0.704   5.115
 3716WAT     H213251   9.495   0.701   5.263
 3717WAT      O13252  10.564   0.223   5.584
 3717WAT     H113253  10.597   0.140   5.550
 3717WAT     H213254  10.643   0.276   5.599
 3718WAT      O13255   9.905   0.177   4.473
 3718WAT     H113256   9.883   0.155   4.564
 3718WAT     H213257   9.827   0.220   4.439
 3719WAT      O13258  10.628   0.177   4.333
 3719WAT     H113259  10.568   0.250   4.315
 3719WAT     H213260  10.683   0.171   4.255
 3720WAT      O13261  10.149   0.267   5.540
 3720WAT     H113262  10.140   0.173   5.525
 3720WAT     H213263  10.233   0.289   5.500
 3721WAT      O13264  10.547   0.300   4.946
 3721WAT     H113265  10.474   0.351   4.981
 3721WAT     H213266  10.508   0.218   4.916
 3722WAT      O13267  10.098   0.299   4.025
 3722WAT     H113268  10.042   0.254   3.963
 3722WAT     H213269  10.169   0.335   3.972
 3723WAT      O13270   9.606   0.689   5.413
 3723WAT     H113271   9.568   0.625   5.473
 3723WAT     H213272   9.637   0.759   5.470
 3724WAT      O13273  10.221   0.374   4.961
 3724WAT     H113274  10.258   0.326   5.036
 3724WAT     H213275  10.202   0.461   4.995
 3725WAT      O13276  10.000   0.278   5.193
 3725WAT     H113277   9.970   0.366   5.215
 3725WAT     H213278  10.096   0.284   5.196
 3726WAT      O13279   9.853   0.698   4.253
 3726WAT     H113280   9.776   0.644   4.237
 3726WAT     H213281   9.926   0.646   4.219
 3727WAT      O13282  10.929   0.598   4.832
 3727WAT     H113283  11.001   0.648   4.793
 3727WAT     H213284  10.909   0.530   4.767
 3728WAT      O13285  10.467   0.605   5.420
 3728WAT     H113286  10.460   0.513   5.395
 3728WAT     H213287  10.404   0.615   5.492
 3729WAT      O13288   9.857   0.665   4.616
 3729WAT     H113289   9.909   0.585   4.611
 3729WAT     H213290   9.812   0.659   4.700
 3730WAT      O13291  10.346   0.792   4.144
 3730WAT     H113292  10.380   0.866   4.094
 3730WAT     H213293  10.263   0.823   4.180
 3731WAT      O13294   9.606   0.362   5.308
 3731WAT     H113295   9.570   0.428   5.366
 3731WAT     H213296   9.576   0.279   5.345
 3732WAT      O13297   9.926   0.408   5.596
 3732WAT     H113298   9.896   0.422   5.506
 3732WAT     H213299  10.003   0.352   5.587
 3733WAT      O13300  10.460   0.887   5.396
 3733WAT     H113301  10.462   0.794   5.374
 3733WAT     H213302  10.389   0.896   5.459
 3734WAT      O13303  10.974   0.306   4.022
 3734WAT     H113304  10.965   0.349   3.937
 3734WAT     H213305  11.045   0.352   4.066
 3735WAT      O13306  11.076   0.991   4.295
 3735WAT     H113307  11.012   0.926   4.323
 3735WAT     H213308  11.038   1.032   4.218
 3736WAT      O13309  10.634   0.724   4.680
 3736WAT     H113310  10.670   0.664   4.614
 3736WAT     H213311  10.546   0.691   4.697
 3737WAT      O13312  10.243   0.800   4.421
 3737WAT     H113313  10.312   0.855   4.459
 3737WAT     H213314  10.164   0.854   4.424
 3738WAT      O13315   9.457   0.362   3.970
 3738WAT     H113316   9.544   0.390   3.998
 3738WAT     H213317   9.408   0.443   3.958
 3739WAT      O13318  10.173   0.500   4.382
 3739WAT     H113319  10.219   0.582   4.405
 3739WAT     H213320  10.138   0.469   4.465
 3740WAT      O13321  10.404   1.052   5.105
 3740WAT     H113322  10.468   1.072   5.173
 3740WAT     H213323  10.440   0.975   5.060
 3741WAT      O13324  10.531   0.852   4.977
 3741WAT     H113325  10.595   0.782   4.988
 3741WAT     H213326  10.583   0.930   4.959
 3742WAT      O13327  10.915   0.880   3.949
 3742WAT     H113328  10.893   0.809   4.008
 3742WAT     H213329  10.876   0.855   3.865
 3743WAT      O13330  10.708   0.932   5.297
 3743WAT     H113331  10.742   0.990   5.365
 3743WAT     H213332  10.616   0.919   5.320
 3744WAT      O13333   9.494   1.283   4.027
 3744WAT     H113334   9.530   1.343   3.961
 3744WAT     H213335   9.479   1.338   4.104
 3745WAT      O13336  10.874   0.672   4.115
 3745WAT     H113337  10.845   0.718   4.194
 3745WAT     H213338  10.953   0.626   4.142
 3746WAT      O13339   9.492   1.110   5.474
 3746WAT     H113340   9.503   1.016   5.460
 3746WAT     H213341   9.427   1.136   5.409
 3747WAT      O13342  10.291   0.937   5.614
 3747WAT     H113343  10.259   0.865   5.668
 3747WAT     H213344  10.224   1.004   5.621
 3748WAT      O13345  10.095   1.021   4.108
 3748WAT     H113346  10.094   1.095   4.047
 3748WAT     H213347  10.003   0.997   4.118
 3749WAT      O13348   9.655   0.543   4.183
 3749WAT     H113349   9.595   0.617   4.184
 3749WAT     H213350   9.703   0.552   4.100
 3750WAT      O13351  10.394   1.028   3.975
 3750WAT     H113352  10.404   1.007   3.882
 3750WAT     H213353  10.304   1.002   3.995
 3751WAT      O13354  10.309   0.225   5.173
 3751WAT     H113355  10.359   0.273   5.239
 3751WAT     H213356  10.323   0.133   5.193
 3752WAT      O13357  10.258   1.279   4.444
 3752WAT     H113358  10.283   1.276   4.352
 3752WAT     H213359  10.163   1.267   4.443
 3753WAT      O13360  10.859   0.371   4.602
 3753WAT     H113361  10.764   0.373   4.619
 3753WAT     H213362  10.890   0.293   4.646
 3754WAT      O13363   9.856   0.540   3.958
 3754WAT     H113364   9.933   0.528   4.014
 3754WAT     H213365   9.864   0.470   3.892
 3755WAT      O13366   9.726   0.283   4.026
 3755WAT     H113367   9.734   0.188   4.037
 3755WAT     H213368   9.815   0.316   4.037
 3756WAT      O13369   9.806   1.298   4.736
 3756WAT     H113370   9.880   1.243   4.763
 3756WAT     H213371   9.844   1.384   4.722
 3757WAT      O13372   9.494   0.905   4.324
 3757WAT     H113373   9.402   0.929   4.323
 3757WAT     H213374   9.541   0.987   4.312
 3758WAT      O13375   9.707   1.216   5.655
 3758WAT     H113376   9.787   1.248   5.696
 3758WAT     H213377   9.655   1.180   5.727
 3759WAT      O13378  10.117   1.215   3.919
 3759WAT     H113379  10.196   1.244   3.873
 3759WAT     H213380  10.065   1.172   3.851
 3760WAT      O13381  10.590   0.827   5.650
 3760WAT     H113382  10.530   0.829   5.576
 3760WAT     H213383  10.560   0.754   5.704
 3761WAT      O13384  10.733   1.200   5.511
 3761WAT     H113385  10.828   1.191   5.506
 3761WAT     H213386  10.718   1.266   5.578
 3762WAT      O13387  11.022   1.138   4.061
 3762WAT     H113388  10.994   1.096   3.979
 3762WAT     H213389  11.003   1.231   4.049
 3763WAT      O13390   9.479   0.465   5.550
 3763WAT     H113391   9.529   0.407   5.607
 3763WAT     H213392   9.405   0.493   5.603
 3764WAT      O13393  10.169   0.737   3.905
 3764WAT     H113394  10.158   0.676   3.978
 3764WAT     H213395  10.152   0.685   3.827
 3765WAT      O13396  10.184   0.606   5.503
 3765WAT     H113397  10.107   0.663   5.494
 3765WAT     H213398  10.202   0.576   5.414
 3766WAT      O13399  10.493   0.643   3.965
 3766WAT     H113400  10.438   0.688   4.030
 3766WAT     H213401  10.555   0.593   4.018
 3767WAT      O13402  10.898   0.779   5.559
 3767WAT     H113403  10.972   0.813   5.508
 3767WAT     H213404  10.822   0.796   5.503
 3768WAT      O13405   9.682   0.279   5.639
 3768WAT     H113406   9.686   0.249   5.730
 3768WAT     H213407   9.767   0.319   5.623
 3769WAT      O13408  10.060   0.539   4.155
 3769WAT     H113409  10.102   0.523   4.239
 3769WAT     H213410  10.072   0.458   4.106
 3770WAT      O13411  10.311   0.442   3.880
 3770WAT     H113412  10.363   0.370   3.843
 3770WAT     H213413  10.376   0.505   3.910
 3771WAT      O13414  10.766   0.584   5.412
 3771WAT     H113415  10.807   0.599   5.497
 3771WAT     H213416  10.672   0.596   5.428
 3772WAT      O13417  10.813   0.318   5.613
 3772WAT     H113418  10.871   0.242   5.604
 3772WAT     H213419  10.830   0.371   5.535
 3773WAT      O13420  10.242   0.579   5.209
 3773WAT     H113421  10.284   0.663   5.192
 3773WAT     H213422  10.150   0.593   5.186
 3774WAT      O13423  10.475   0.352   5.348
 3774WAT     H113424  10.487   0.293   5.421
 3774WAT     H213425  10.561   0.356   5.306
 3775WAT      O13426  10.709   0.408   5.205
 3775WAT     H113427  10.657   0.460   5.145
 3775WAT     H213428  10.744   0.471   5.268
 3776WAT      O13429  10.027   1.210   5.321
 3776WAT     H113430   9.973   1.282   5.289
 3776WAT     H213431  10.052   1.162   5.242
 3777WAT      O13432  10.312   1.333   5.347
 3777WAT     H113433  10.305   1.423   5.377
 3777WAT     H213434  10.222   1.301   5.344
 3778WAT      O13435  10.367   1.250   4.109
 3778WAT     H113436  10.457   1.284   4.111
 3778WAT     H213437  10.370   1.178   4.046
 3779WAT      O13438   9.731   0.787   3.932
 3779WAT     H113439   9.775   0.841   3.997
 3779WAT     H213440   9.780   0.704   3.933
 3780WAT      O13441   9.453   1.066   4.677
 3780WAT     H113442   9.486   0.979   4.654
 3780WAT     H213443   9.496   1.086   4.760
 3781WAT      O13444   9.912   0.899   4.443
 3781WAT     H113445   9.882   0.887   4.533
 3781WAT     H213446   9.902   0.813   4.402
 3782WAT      O13447   9.502   1.153   4.951
 3782WAT     H113448   9.458   1.171   5.034
 3782WAT     H213449   9.558   1.228   4.937
 3783WAT      O13450  11.065   1.103   5.379
 3783WAT     H113451  11.005   1.109   5.305
 3783WAT     H213452  11.078   1.009   5.392
 3784WAT      O13453   9.485   0.404   4.587
 3784WAT     H113454   9.419   0.377   4.522
 3784WAT     H213455   9.569   0.393   4.542
 3785WAT      O13456  10.934   0.775   5.189
 3785WAT     H113457  10.852   0.818   5.216
 3785WAT     H213458  10.975   0.836   5.128
 3786WAT      O13459   9.589   0.442   5.041
 3786WAT     H113460   9.625   0.434   5.129
 3786WAT     H213461   9.532   0.366   5.031
 3787WAT      O13462  11.069   0.289   5.342
 3787WAT     H113463  11.046   0.266   5.252
 3787WAT     H213464  11.095   0.381   5.337
 3788WAT      O13465  11.057   0.197   4.709
 3788WAT     H113466  11.110   0.148   4.646
 3788WAT     H213467  11.116   0.211   4.783
 3789WAT      O13468  11.075   0.205   5.061
 3789WAT     H113469  10.980   0.202   5.072
 3789WAT     H213470  11.093   0.296   5.037
 3790WAT      O13471  10.940   1.250   4.542
 3790WAT     H113472  10.999   1.218   4.474
 3790WAT     H213473  10.965   1.203   4.621
 3791WAT      O13474   9.730   0.894   5.557
 3791WAT     H113475   9.726   0.857   5.645
 3791WAT     H213476   9.743   0.987   5.571
 3792WAT      O13477  10.100   1.049   5.117
 3792WAT     H113478  10.076   1.076   5.028
 3792WAT     H213479  10.194   1.066   5.122
 3793WAT      O13480   9.714   1.188   5.269
 3793WAT     H113481   9.655   1.175   5.343
 3793WAT     H213482   9.713   1.105   5.222
 3794WAT      O13483  10.995   1.315   4.925
 3794WAT     H113484  10.949   1.391   4.887
 3794WAT     H213485  10.932   1.243   4.919
 3795WAT      O13486   9.677   0.925   5.164
 3795WAT     H113487   9.605   0.863   5.157
 3795WAT     H213488   9.683   0.964   5.077
 3796WAT      O13489  10.038   1.146   4.842
 3796WAT     H113490  10.089   1.085   4.790
 3796WAT     H213491  10.103   1.197   4.892
 3797WAT      O13492  10.312   1.235   4.925
 3797WAT     H113493  10.340   1.210   4.837
 3797WAT     H213494  10.363   1.180   4.984
 3798WAT      O13495   9.505   1.257   4.485
 3798WAT     H113496   9.489   1.193   4.555
 3798WAT     H213497   9.419   1.277   4.450
 3799WAT      O13498   9.666   1.126   4.229
 3799WAT     H113499   9.614   1.164   4.159
 3799WAT     H213500   9.659   1.188   4.301
 3800WAT      O13501  10.318   1.328   5.662
 3800WAT     H113502  10.411   1.304   5.666
 3800WAT     H213503  10.317   1.410   5.614
 3801WAT      O13504   9.926   1.321   4.117
 3801WAT     H113505   9.999   1.292   4.062
 3801WAT     H213506   9.952   1.297   4.206
 3802WAT      O13507   9.842   0.932   4.117
 3802WAT     H113508   9.779   0.979   4.172
 3802WAT     H213509   9.854   0.848   4.161
 3803WAT      O13510  10.975   1.250   5.644
 3803WAT     H113511  11.054   1.201   5.623
 3803WAT     H213512  11.004   1.318   5.705
 3804WAT      O13513  10.588   0.337   2.732
 3804WAT     H113514  10.580   0.246   2.705
 3804WAT     H213515  10.546   0.387   2.662
 3805WAT      O13516  10.401   0.515   2.920
 3805WAT     H113517  10.323   0.467   2.949
 3805WAT     H213518  10.466   0.447   2.903
 3806WAT      O13519   9.803   0.546   3.008
 3806WAT     H113520   9.719   0.521   3.048
 3806WAT     H213521   9.863   0.554   3.082
 3807WAT      O13522  10.803   0.956   2.798
 3807WAT     H113523  10.757   0.879   2.831
 3807WAT     H213524  10.884   0.959   2.849
 3808WAT      O13525   9.801   0.950   3.028
 3808WAT     H113526   9.831   0.861   3.010
 3808WAT     H213527   9.875   1.006   3.005
 3809WAT      O13528   9.440   0.303   2.975
 3809WAT     H113529   9.497   0.226   2.975
 3809WAT     H213530   9.440   0.332   2.884
 3810WAT      O13531  10.426   1.184   2.760
 3810WAT     H113532  10.364   1.230   2.703
 3810WAT     H213533  10.511   1.200   2.720
 3811WAT      O13534  10.345   0.783   2.921
 3811WAT     H113535  10.338   0.689   2.905
 3811WAT     H213536  10.421   0.792   2.978
 3812WAT      O13537  10.512   0.673   2.500
 3812WAT     H113538  10.450   0.719   2.443
 3812WAT     H213539  10.563   0.742   2.541
 3813WAT      O13540   9.999   0.626   3.168
 3813WAT     H113541   9.965   0.688   3.232
 3813WAT     H213542  10.016   0.678   3.090
 3814WAT      O13543   9.920   0.822   3.349
 3814WAT     H113544   9.981   0.890   3.321
 3814WAT     H213545   9.834   0.863   3.340
 3815WAT      O13546   9.449   0.741   2.237
 3815WAT     H113547   9.411   0.790   2.164
 3815WAT     H213548   9.475   0.809   2.300
 3816WAT      O13549  11.011   0.969   3.141
 3816WAT     H113550  10.943   1.036   3.140
 3816WAT     H213551  11.065   0.989   3.064
 3817WAT      O13552  10.765   1.153   3.012
 3817WAT     H113553  10.766   1.113   2.925
 3817WAT     H213554  10.710   1.231   3.002
 3818WAT      O13555  10.895   0.825   2.521
 3818WAT     H113556  10.883   0.731   2.534
 3818WAT     H213557  10.894   0.862   2.610
 3819WAT      O13558  10.705   0.644   3.145
 3819WAT     H113559  10.747   0.622   3.061
 3819WAT     H213560  10.777   0.669   3.202
 3820WAT      O13561  10.449   0.388   2.457
 3820WAT     H113562  10.356   0.381   2.480
 3820WAT     H213563  10.464   0.482   2.445
 3821WAT      O13564  10.852   0.544   2.507
 3821WAT     H113565  10.790   0.510   2.442
 3821WAT     H213566  10.850   0.480   2.578
 3822WAT      O13567  10.009   0.441   2.735
 3822WAT     H113568   9.969   0.369   2.685
 3822WAT     H213569  10.018   0.406   2.824
 3823WAT      O13570  10.056   0.809   2.951
 3823WAT     H113571  10.026   0.749   2.883
 3823WAT     H213572  10.151   0.813   2.940
 3824WAT      O13573  10.865   1.167   3.317
 3824WAT     H113574  10.817   1.247   3.298
 3824WAT     H213575  10.797   1.101   3.333
 3825WAT      O13576   9.965   0.783   3.616
 3825WAT     H113577   9.876   0.806   3.641
 3825WAT     H213578   9.968   0.796   3.521
 3826WAT      O13579  10.669   0.468   2.208
 3826WAT     H113580  10.713   0.384   2.193
 3826WAT     H213581  10.741   0.531   2.216
 3827WAT      O13582   9.848   0.470   3.474
 3827WAT     H113583   9.834   0.558   3.511
 3827WAT     H213584   9.760   0.436   3.459
 3828WAT      O13585  10.480   0.962   2.605
 3828WAT     H113586  10.524   1.036   2.563
 3828WAT     H213587  10.474   0.986   2.697
 3829WAT      O13588  10.028   1.065   3.695
 3829WAT     H113589  10.025   1.105   3.608
 3829WAT     H213590  10.011   0.972   3.678
 3830WAT      O13591   9.679   0.330   2.485
 3830WAT     H113592   9.667   0.403   2.424
 3830WAT     H213593   9.648   0.253   2.437
 3831WAT      O13594   9.443   0.647   3.066
 3831WAT     H113595   9.451   0.661   2.971
 3831WAT     H213596   9.505   0.576   3.085
 3832WAT      O13597   9.568   0.817   2.707
 3832WAT     H113598   9.527   0.831   2.621
 3832WAT     H213599   9.657   0.789   2.686
 3833WAT      O13600  10.549   1.232   3.397
 3833WAT     H113601  10.601   1.223   3.478
 3833WAT     H213602  10.465   1.267   3.427
 3834WAT      O13603  10.747   1.261   2.340
 3834WAT     H113604  10.731   1.232   2.430
 3834WAT     H213605  10.730   1.183   2.287
 3835WAT      O13606   9.995   1.239   2.518
 3835WAT     H113607   9.977   1.147   2.497
 3835WAT     H213608   9.909   1.275   2.542
 3836WAT      O13609  10.717   1.012   2.196
 3836WAT     H113610  10.648   1.011   2.130
 3836WAT     H213611  10.791   0.969   2.153
 3837WAT      O13612  10.674   1.174   2.604
 3837WAT     H113613  10.719   1.096   2.635
 3837WAT     H213614  10.708   1.245   2.658
 3838WAT      O13615   9.449   0.751   3.320
 3838WAT     H113616   9.465   0.704   3.238
 3838WAT     H213617   9.495   0.701   3.386
 3839WAT      O13618  10.564   0.223   3.706
 3839WAT     H113619  10.597   0.140   3.672
 3839WAT     H213620  10.643   0.276   3.721
 3840WAT      O13621   9.905   0.177   2.596
 3840WAT     H113622   9.883   0.155   2.686
 3840WAT     H213623   9.827   0.220   2.561
 3841WAT      O13624  10.628   0.177   2.456
 3841WAT     H113625  10.568   0.250   2.437
 3841WAT     H213626  10.683   0.171   2.378
 3842WAT      O13627  10.149   0.267   3.663
 3842WAT     H113628  10.140   0.173   3.648
 3842WAT     H213629  10.233   0.289   3.623
 3843WAT      O13630  10.547   0.300   3.068
 3843WAT     H113631  10.474   0.351   3.103
 3843WAT     H213632  10.508   0.218   3.038
 3844WAT      O13633  10.098   0.299   2.148
 3844WAT     H113634  10.042   0.254   2.085
 3844WAT     H213635  10.169   0.335   2.094
 3845WAT      O13636   9.606   0.689   3.535
 3845WAT     H113637   9.568   0.625   3.595
 3845WAT     H213638   9.637   0.759   3.592
 3846WAT      O13639  10.221   0.374   3.084
 3846WAT     H113640  10.258   0.326   3.158
 3846WAT     H213641  10.202   0.461   3.118
 3847WAT      O13642  10.000   0.278   3.315
 3847WAT     H113643   9.970   0.366   3.338
 3847WAT     H213644  10.096   0.284   3.319
 3848WAT      O13645   9.853   0.698   2.375
 3848WAT     H113646   9.776   0.644   2.359
 3848WAT     H213647   9.926   0.646   2.341
 3849WAT      O13648  10.929   0.598   2.954
 3849WAT     H113649  11.001   0.648   2.915
 3849WAT     H213650  10.909   0.530   2.890
 3850WAT      O13651  10.467   0.605   3.543
 3850WAT     H113652  10.460   0.513   3.518
 3850WAT     H213653  10.404   0.615   3.614
 3851WAT      O13654   9.857   0.665   2.739
 3851WAT     H113655   9.909   0.585   2.733
 3851WAT     H213656   9.812   0.659   2.823
 3852WAT      O13657  10.346   0.792   2.266
 3852WAT     H113658  10.380   0.866   2.217
 3852WAT     H213659  10.263   0.823   2.302
 3853WAT      O13660   9.606   0.362   3.430
 3853WAT     H113661   9.570   0.428   3.489
 3853WAT     H213662   9.576   0.279   3.467
 3854WAT      O13663   9.926   0.408   3.719
 3854WAT     H113664   9.896   0.422   3.629
 3854WAT     H213665  10.003   0.352   3.709
 3855WAT      O13666  10.460   0.887   3.518
 3855WAT     H113667  10.462   0.794   3.496
 3855WAT     H213668  10.389   0.896   3.582
 3856WAT      O13669  10.974   0.306   2.145
 3856WAT     H113670  10.965   0.349   2.060
 3856WAT     H213671  11.045   0.352   2.188
 3857WAT      O13672  11.076   0.991   2.418
 3857WAT     H113673  11.012   0.926   2.445
 3857WAT     H213674  11.038   1.032   2.340
 3858WAT      O13675  10.634   0.724   2.803
 3858WAT     H113676  10.670   0.664   2.737
 3858WAT     H213677  10.546   0.691   2.820
 3859WAT      O13678  10.243   0.800   2.543
 3859WAT     H113679  10.312   0.855   2.581
 3859WAT     H213680  10.164   0.854   2.547
 3860WAT      O13681   9.457   0.362   2.092
 3860WAT     H113682   9.544   0.390   2.121
 3860WAT     H213683   9.408   0.443   2.081
 3861WAT      O13684  10.173   0.500   2.505
 3861WAT     H113685  10.219   0.582   2.527
 3861WAT     H213686  10.138   0.469   2.588
 3862WAT      O13687  10.404   1.052   3.227
 3862WAT     H113688  10.468   1.072   3.295
 3862WAT     H213689  10.440   0.975   3.182
 3863WAT      O13690  10.531   0.852   3.099
 3863WAT     H113691  10.595   0.782   3.111
 3863WAT     H213692  10.583   0.930   3.081
 3864WAT      O13693  10.915   0.880   2.072
 3864WAT     H113694  10.893   0.809   2.131
 3864WAT     H213695  10.876   0.855   1.988
 3865WAT      O13696  10.708   0.932   3.420
 3865WAT     H113697  10.742   0.990   3.487
 3865WAT     H213698  10.616   0.919   3.443
 3866WAT      O13699   9.494   1.283   2.149
 3866WAT     H113700   9.530   1.343   2.084
 3866WAT     H213701   9.479   1.338   2.226
 3867WAT      O13702  10.874   0.672   2.238
 3867WAT     H113703  10.845   0.718   2.317
 3867WAT     H213704  10.953   0.626   2.265
 3868WAT      O13705   9.492   1.110   3.597
 3868WAT     H113706   9.503   1.016   3.582
 3868WAT     H213707   9.427   1.136   3.532
 3869WAT      O13708  10.291   0.937   3.736
 3869WAT     H113709  10.259   0.865   3.791
 3869WAT     H213710  10.224   1.004   3.744
 3870WAT      O13711  10.095   1.021   2.231
 3870WAT     H113712  10.094   1.095   2.169
 3870WAT     H213713  10.003   0.997   2.240
 3871WAT      O13714   9.655   0.543   2.305
 3871WAT     H113715   9.595   0.617   2.306
 3871WAT     H213716   9.703   0.552   2.223
 3872WAT      O13717  10.394   1.028   2.097
 3872WAT     H113718  10.404   1.007   2.004
 3872WAT     H213719  10.304   1.002   2.118
 3873WAT      O13720  10.309   0.225   3.295
 3873WAT     H113721  10.359   0.273   3.362
 3873WAT     H213722  10.323   0.133   3.316
 3874WAT      O13723  10.258   1.279   2.567
 3874WAT     H113724  10.283   1.276   2.474
 3874WAT     H213725  10.163   1.267   2.566
 3875WAT      O13726  10.859   0.371   2.724
 3875WAT     H113727  10.764   0.373   2.742
 3875WAT     H213728  10.890   0.293   2.769
 3876WAT      O13729   9.856   0.540   2.080
 3876WAT     H113730   9.933   0.528   2.136
 3876WAT     H213731   9.864   0.470   2.015
 3877WAT      O13732   9.726   0.283   2.149
 3877WAT     H113733   9.734   0.188   2.160
 3877WAT     H213734   9.815   0.316   2.159
 3878WAT      O13735   9.806   1.298   2.859
 3878WAT     H113736   9.880   1.243   2.886
 3878WAT     H213737   9.844   1.384   2.845
 3879WAT      O13738   9.494   0.905   2.446
 3879WAT     H113739   9.402   0.929   2.445
 3879WAT     H213740   9.541   0.987   2.434
 3880WAT      O13741   9.707   1.216   3.778
 3880WAT     H113742   9.787   1.248   3.819
 3880WAT     H213743   9.655   1.180   3.850
 3881WAT      O13744  10.117   1.215   2.041
 3881WAT     H113745  10.196   1.244   1.996
 3881WAT     H213746  10.065   1.172   1.973
 3882WAT      O13747  10.590   0.827   3.772
 3882WAT     H113748  10.530   0.829   3.698
 3882WAT     H213749  10.560   0.754   3.826
 3883WAT      O13750  10.733   1.200   3.634
 3883WAT     H113751  10.828   1.191   3.629
 3883WAT     H213752  10.718   1.266   3.701
 3884WAT      O13753  11.022   1.138   2.183
 3884WAT     H113754  10.994   1.096   2.102
 3884WAT     H213755  11.003   1.231   2.171
 3885WAT      O13756   9.479   0.465   3.672
 3885WAT     H113757   9.529   0.407   3.729
 3885WAT     H213758   9.405   0.493   3.726
 3886WAT      O13759  10.169   0.737   2.028
 3886WAT     H113760  10.158   0.676   2.100
 3886WAT     H213761  10.152   0.685   1.949
 3887WAT      O13762  10.184   0.606   3.625
 3887WAT     H113763  10.107   0.663   3.617
 3887WAT     H213764  10.202   0.576   3.536
 3888WAT      O13765  10.493   0.643   2.088
 3888WAT     H113766  10.438   0.688   2.152
 3888WAT     H213767  10.555   0.593   2.140
 3889WAT      O13768  10.898   0.779   3.681
 3889WAT     H113769  10.972   0.813   3.631
 3889WAT     H213770  10.822   0.796   3.626
 3890WAT      O13771   9.682   0.279   3.762
 3890WAT     H113772   9.686   0.249   3.852
 3890WAT     H213773   9.767   0.319   3.746
 3891WAT      O13774  10.060   0.539   2.278
 3891WAT     H113775  10.102   0.523   2.362
 3891WAT     H213776  10.072   0.458   2.228
 3892WAT      O13777  10.311   0.442   2.002
 3892WAT     H113778  10.363   0.370   1.966
 3892WAT     H213779  10.376   0.505   2.032
 3893WAT      O13780  10.766   0.584   3.535
 3893WAT     H113781  10.807   0.599   3.620
 3893WAT     H213782  10.672   0.596   3.551
 3894WAT      O13783  10.813   0.318   3.735
 3894WAT     H113784  10.871   0.242   3.726
 3894WAT     H213785  10.830   0.371   3.657
 3895WAT      O13786  10.242   0.579   3.332
 3895WAT     H113787  10.284   0.663   3.314
 3895WAT     H213788  10.150   0.593   3.309
 3896WAT      O13789  10.475   0.352   3.470
 3896WAT     H113790  10.487   0.293   3.544
 3896WAT     H213791  10.561   0.356   3.428
 3897WAT      O13792  10.709   0.408   3.328
 3897WAT     H113793  10.657   0.460   3.267
 3897WAT     H213794  10.744   0.471   3.391
 3898WAT      O13795  10.027   1.210   3.443
 3898WAT     H113796   9.973   1.282   3.411
 3898WAT     H213797  10.052   1.162   3.364
 3899WAT      O13798  10.312   1.333   3.469
 3899WAT     H113799  10.305   1.423   3.500
 3899WAT     H213800  10.222   1.301   3.466
 3900WAT      O13801  10.367   1.250   2.231
 3900WAT     H113802  10.457   1.284   2.234
 3900WAT     H213803  10.370   1.178   2.169
 3901WAT      O13804   9.731   0.787   2.054
 3901WAT     H113805   9.775   0.841   2.120
 3901WAT     H213806   9.780   0.704   2.055
 3902WAT      O13807   9.453   1.066   2.799
 3902WAT     H113808   9.486   0.979   2.776
 3902WAT     H213809   9.496   1.086   2.883
 3903WAT      O13810   9.912   0.899   2.565
 3903WAT     H113811   9.882   0.887   2.656
 3903WAT     H213812   9.902   0.813   2.525
 3904WAT      O13813   9.502   1.153   3.073
 3904WAT     H113814   9.458   1.171   3.157
 3904WAT     H213815   9.558   1.228   3.059
 3905WAT      O13816  11.065   1.103   3.502
 3905WAT     H113817  11.005   1.109   3.428
 3905WAT     H213818  11.078   1.009   3.515
 3906WAT      O13819   9.485   0.404   2.709
 3906WAT     H113820   9.419   0.377   2.645
 3906WAT     H213821   9.569   0.393   2.664
 3907WAT      O13822  10.934   0.775   3.312
 3907WAT     H113823  10.852   0.818   3.338
 3907WAT     H213824  10.975   0.836   3.251
 3908WAT      O13825   9.589   0.442   3.163
 3908WAT     H113826   9.625   0.434   3.251
 3908WAT     H213827   9.532   0.366   3.153
 3909WAT      O13828  11.069   0.289   3.465
 3909WAT     H113829  11.046   0.266   3.374
 3909WAT     H213830  11.095   0.381   3.460
 3910WAT      O13831  11.057   0.197   2.831
 3910WAT     H113832  11.110   0.148   2.768
 3910WAT     H213833  11.116   0.211   2.906
 3911WAT      O13834  11.075   0.205   3.183
 3911WAT     H113835  10.980   0.202   3.195
 3911WAT     H213836  11.093   0.296   3.160
 3912WAT      O13837  10.940   1.250   2.665
 3912WAT     H113838  10.999   1.218   2.597
 3912WAT     H213839  10.965   1.203   2.744
 3913WAT      O13840   9.730   0.894   3.679
 3913WAT     H113841   9.726   0.857   3.768
 3913WAT     H213842   9.743   0.987   3.693
 3914WAT      O13843  10.100   1.049   3.240
 3914WAT     H113844  10.076   1.076   3.151
 3914WAT     H213845  10.194   1.066   3.245
 3915WAT      O13846   9.714   1.188   3.391
 3915WAT     H113847   9.655   1.175   3.465
 3915WAT     H213848   9.713   1.105   3.345
 3916WAT      O13849  10.995   1.315   3.047
 3916WAT     H113850  10.949   1.391   3.010
 3916WAT     H213851  10.932   1.243   3.042
 3917WAT      O13852   9.677   0.925   3.286
 3917WAT     H113853   9.605   0.863   3.280
 3917WAT     H213854   9.683   0.964   3.199
 3918WAT      O13855  10.038   1.146   2.965
 3918WAT     H113856  10.089   1.085   2.912
 3918WAT     H213857  10.103   1.197   3.014
 3919WAT      O13858  10.312   1.235   3.048
 3919WAT     H113859  10.340   1.210   2.960
 3919WAT     H213860  10.363   1.180   3.107
 3920WAT      O13861   9.505   1.257   2.607
 3920WAT     H113862   9.489   1.193   2.677
 3920WAT     H213863   9.419   1.277   2.572
 3921WAT      O13864   9.666   1.126   2.352
 3921WAT     H113865   9.614   1.164   2.282
 3921WAT     H213866   9.659   1.188   2.424
 3922WAT      O13867  10.318   1.328   3.784
 3922WAT     H113868  10.411   1.304   3.789
 3922WAT     H213869  10.317   1.410   3.736
 3923WAT      O13870   9.926   1.321   2.239
 3923WAT     H113871   9.999   1.292   2.185
 3923WAT     H213872   9.952   1.297   2.328
 3924WAT      O13873   9.842   0.932   2.240
 3924WAT     H113874   9.779   0.979   2.295
 3924WAT     H213875   9.854   0.848   2.283
 3925WAT      O13876  10.975   1.250   3.767
 3925WAT     H113877  11.054   1.201   3.746
 3925WAT     H213878  11.004   1.318   3.827
 3926WAT      O13879  10.588   0.337   0.855
 3926WAT     H113880  10.580   0.246   0.828
 3926WAT     H213881  10.546   0.387   0.784
 3927WAT      O13882  10.401   0.515   1.043
 3927WAT     H113883  10.323   0.467   1.072
 3927WAT     H213884  10.466   0.447   1.026
 3928WAT      O13885   9.803   0.546   1.131
 3928WAT     H113886   9.719   0.521   1.171
 3928WAT     H213887   9.863   0.554   1.204
 3929WAT      O13888  10.803   0.956   0.921
 3929WAT     H113889  10.757   0.879   0.954
 3929WAT     H213890  10.884   0.959   0.972
 3930WAT      O13891   9.801   0.950   1.150
 3930WAT     H113892   9.831   0.861   1.132
 3930WAT     H213893   9.875   1.006   1.128
 3931WAT      O13894   9.440   0.303   1.098
 3931WAT     H113895   9.497   0.226   1.098
 3931WAT     H213896   9.440   0.332   1.007
 3932WAT      O13897  10.426   1.184   0.883
 3932WAT     H113898  10.364   1.230   0.826
 3932WAT     H213899  10.511   1.200   0.843
 3933WAT      O13900  10.345   0.783   1.044
 3933WAT     H113901  10.338   0.689   1.028
 3933WAT     H213902  10.421   0.792   1.101
 3934WAT      O13903  10.512   0.673   0.622
 3934WAT     H113904  10.450   0.719   0.566
 3934WAT     H213905  10.563   0.742   0.664
 3935WAT      O13906   9.999   0.626   1.290
 3935WAT     H113907   9.965   0.688   1.354
 3935WAT     H213908  10.016   0.678   1.212
 3936WAT      O13909   9.920   0.822   1.472
 3936WAT     H113910   9.981   0.890   1.444
 3936WAT     H213911   9.834   0.863   1.463
 3937WAT      O13912   9.449   0.741   0.360
 3937WAT     H113913   9.411   0.790   0.287
 3937WAT     H213914   9.475   0.809   0.423
 3938WAT      O13915  11.011   0.969   1.263
 3938WAT     H113916  10.943   1.036   1.262
 3938WAT     H213917  11.065   0.989   1.187
 3939WAT      O13918  10.765   1.153   1.135
 3939WAT     H113919  10.766   1.113   1.048
 3939WAT     H213920  10.710   1.231   1.124
 3940WAT      O13921  10.895   0.825   0.644
 3940WAT     H113922  10.883   0.731   0.656
 3940WAT     H213923  10.894   0.862   0.732
 3941WAT      O13924  10.705   0.644   1.267
 3941WAT     H113925  10.747   0.622   1.184
 3941WAT     H213926  10.777   0.669   1.325
 3942WAT      O13927  10.449   0.388   0.579
 3942WAT     H113928  10.356   0.381   0.602
 3942WAT     H213929  10.464   0.482   0.568
 3943WAT      O13930  10.852   0.544   0.630
 3943WAT     H113931  10.790   0.510   0.565
 3943WAT     H213932  10.850   0.480   0.700
 3944WAT      O13933  10.009   0.441   0.857
 3944WAT     H113934   9.969   0.369   0.808
 3944WAT     H213935  10.018   0.406   0.946
 3945WAT      O13936  10.056   0.809   1.074
 3945WAT     H113937  10.026   0.749   1.006
 3945WAT     H213938  10.151   0.813   1.063
 3946WAT      O13939  10.865   1.167   1.440
 3946WAT     H113940  10.817   1.247   1.421
 3946WAT     H213941  10.797   1.101   1.455
 3947WAT      O13942   9.965   0.783   1.739
 3947WAT     H113943   9.876   0.806   1.764
 3947WAT     H213944   9.968   0.796   1.644
 3948WAT      O13945  10.669   0.468   0.330
 3948WAT     H113946  10.713   0.384   0.316
 3948WAT     H213947  10.741   0.531   0.339
 3949WAT      O13948   9.848   0.470   1.596
 3949WAT     H113949   9.834   0.558   1.633
 3949WAT     H213950   9.760   0.436   1.582
 3950WAT      O13951  10.480   0.962   0.727
 3950WAT     H113952  10.524   1.036   0.686
 3950WAT     H213953  10.474   0.986   0.819
 3951WAT      O13954  10.028   1.065   1.817
 3951WAT     H113955  10.025   1.105   1.731
 3951WAT     H213956  10.011   0.972   1.801
 3952WAT      O13957   9.679   0.330   0.607
 3952WAT     H113958   9.667   0.403   0.546
 3952WAT     H213959   9.648   0.253   0.560
 3953WAT      O13960   9.443   0.647   1.188
 3953WAT     H113961   9.451   0.661   1.094
 3953WAT     H213962   9.505   0.576   1.207
 3954WAT      O13963   9.568   0.817   0.829
 3954WAT     H113964   9.527   0.831   0.744
 3954WAT     H213965   9.657   0.789   0.809
 3955WAT      O13966  10.549   1.232   1.520
 3955WAT     H113967  10.601   1.223   1.600
 3955WAT     H213968  10.465   1.267   1.549
 3956WAT      O13969  10.747   1.261   0.463
 3956WAT     H113970  10.731   1.232   0.553
 3956WAT     H213971  10.730   1.183   0.409
 3957WAT      O13972   9.995   1.239   0.640
 3957WAT     H113973   9.977   1.147   0.619
 3957WAT     H213974   9.909   1.275   0.664
 3958WAT      O13975  10.717   1.012   0.319
 3958WAT     H113976  10.648   1.011   0.253
 3958WAT     H213977  10.791   0.969   0.276
 3959WAT      O13978  10.674   1.174   0.726
 3959WAT     H113979  10.719   1.096   0.758
 3959WAT     H213980  10.708   1.245   0.781
 3960WAT      O13981   9.449   0.751   1.442
 3960WAT     H113982   9.465   0.704   1.360
 3960WAT     H213983   9.495   0.701   1.509
 3961WAT      O13984  10.564   0.223   1.829
 3961WAT     H113985  10.597   0.140   1.795
 3961WAT     H213986  10.643   0.276   1.844
 3962WAT      O13987   9.905   0.177   0.719
 3962WAT     H113988   9.883   0.155   0.809
 3962WAT     H213989   9.827   0.220   0.684
 3963WAT      O13990  10.628   0.177   0.578
 3963WAT     H113991  10.568   0.250   0.560
 3963WAT     H213992  10.683   0.171   0.500
 3964WAT      O13993  10.149   0.267   1.785
 3964WAT     H113994  10.140   0.173   1.770
 3964WAT     H213995  10.233   0.289   1.746
 3965WAT      O13996  10.547   0.300   1.191
 3965WAT     H113997  10.474   0.351   1.226
 3965WAT     H213998  10.508   0.218   1.161
 3966WAT      O13999  10.098   0.299   0.270
 3966WAT     H114000  10.042   0.254   0.208
 3966WAT     H214001  10.169   0.335   0.217
 3967WAT      O14002   9.606   0.689   1.658
 3967WAT     H114003   9.568   0.625   1.718
 3967WAT     H214004   9.637   0.759   1.715
 3968WAT      O14005  10.221   0.374   1.206
 3968WAT     H114006  10.258   0.326   1.281
 3968WAT     H214007  10.202   0.461   1.240
 3969WAT      O14008  10.000   0.278   1.438
 3969WAT     H114009   9.970   0.366   1.460
 3969WAT     H214010  10.096   0.284   1.442
 3970WAT      O14011   9.853   0.698   0.498
 3970WAT     H114012   9.776   0.644   0.482
 3970WAT     H214013   9.926   0.646   0.464
 3971WAT      O14014  10.929   0.598   1.077
 3971WAT     H114015  11.001   0.648   1.038
 3971WAT     H214016  10.909   0.530   1.012
 3972WAT      O14017  10.467   0.605   1.666
 3972WAT     H114018  10.460   0.513   1.640
 3972WAT     H214019  10.404   0.615   1.737
 3973WAT      O14020   9.857   0.665   0.861
 3973WAT     H114021   9.909   0.585   0.856
 3973WAT     H214022   9.812   0.659   0.946
 3974WAT      O14023  10.346   0.792   0.389
 3974WAT     H114024  10.380   0.866   0.339
 3974WAT     H214025  10.263   0.823   0.425
 3975WAT      O14026   9.606   0.362   1.553
 3975WAT     H114027   9.570   0.428   1.611
 3975WAT     H214028   9.576   0.279   1.590
 3976WAT      O14029   9.926   0.408   1.841
 3976WAT     H114030   9.896   0.422   1.751
 3976WAT     H214031  10.003   0.352   1.832
 3977WAT      O14032  10.460   0.887   1.641
 3977WAT     H114033  10.462   0.794   1.619
 3977WAT     H214034  10.389   0.896   1.705
 3978WAT      O14035  10.974   0.306   0.268
 3978WAT     H114036  10.965   0.349   0.183
 3978WAT     H214037  11.045   0.352   0.311
 3979WAT      O14038  11.076   0.991   0.540
 3979WAT     H114039  11.012   0.926   0.568
 3979WAT     H214040  11.038   1.032   0.463
 3980WAT      O14041  10.634   0.724   0.925
 3980WAT     H114042  10.670   0.664   0.859
 3980WAT     H214043  10.546   0.691   0.942
 3981WAT      O14044  10.243   0.800   0.666
 3981WAT     H114045  10.312   0.855   0.704
 3981WAT     H214046  10.164   0.854   0.669
 3982WAT      O14047   9.457   0.362   0.215
 3982WAT     H114048   9.544   0.390   0.243
 3982WAT     H214049   9.408   0.443   0.204
 3983WAT      O14050  10.173   0.500   0.627
 3983WAT     H114051  10.219   0.582   0.650
 3983WAT     H214052  10.138   0.469   0.710
 3984WAT      O14053  10.404   1.052   1.350
 3984WAT     H114054  10.468   1.072   1.418
 3984WAT     H214055  10.440   0.975   1.305
 3985WAT      O14056  10.531   0.852   1.222
 3985WAT     H114057  10.595   0.782   1.233
 3985WAT     H214058  10.583   0.930   1.204
 3986WAT      O14059  10.708   0.932   1.542
 3986WAT     H114060  10.742   0.990   1.610
 3986WAT     H214061  10.616   0.919   1.565
 3987WAT      O14062   9.494   1.283   0.272
 3987WAT     H114063   9.530   1.343   0.206
 3987WAT     H214064   9.479   1.338   0.349
 3988WAT      O14065  10.874   0.672   0.360
 3988WAT     H114066  10.845   0.718   0.439
 3988WAT     H214067  10.953   0.626   0.387
 3989WAT      O14068   9.492   1.110   1.719
 3989WAT     H114069   9.503   1.016   1.705
 3989WAT     H214070   9.427   1.136   1.654
 3990WAT      O14071  10.291   0.937   1.859
 3990WAT     H114072  10.259   0.865   1.914
 3990WAT     H214073  10.224   1.004   1.866
 3991WAT      O14074  10.095   1.021   0.353
 3991WAT     H114075  10.094   1.095   0.292
 3991WAT     H214076  10.003   0.997   0.363
 3992WAT      O14077   9.655   0.543   0.428
 3992WAT     H114078   9.595   0.617   0.429
 3992WAT     H214079   9.703   0.552   0.345
 3993WAT      O14080  10.309   0.225   1.418
 3993WAT     H114081  10.359   0.273   1.484
 3993WAT     H214082  10.323   0.133   1.439
 3994WAT      O14083  10.258   1.279   0.689
 3994WAT     H114084  10.283   1.276   0.597
 3994WAT     H214085  10.163   1.267   0.688
 3995WAT      O14086  10.859   0.371   0.847
 3995WAT     H114087  10.764   0.373   0.864
 3995WAT     H214088  10.890   0.293   0.891
 3996WAT      O14089   9.726   0.283   0.271
 3996WAT     H114090   9.734   0.188   0.282
 3996WAT     H214091   9.815   0.316   0.282
 3997WAT      O14092   9.806   1.298   0.981
 3997WAT     H114093   9.880   1.243   1.009
 3997WAT     H214094   9.844   1.384   0.967
 3998WAT      O14095   9.494   0.905   0.569
 3998WAT     H114096   9.402   0.929   0.568
 3998WAT     H214097   9.541   0.987   0.557
 3999WAT      O14098   9.707   1.216   1.900
 3999WAT     H114099   9.787   1.248   1.942
 3999WAT     H214100   9.655   1.180   1.972
 4000WAT      O14101  10.590   0.827   1.895
 4000WAT     H114102  10.530   0.829   1.821
 4000WAT     H214103  10.560   0.754   1.949
 4001WAT      O14104  10.733   1.200   1.756
 4001WAT     H114105  10.828   1.191   1.751
 4001WAT     H214106  10.718   1.266   1.823
 4002WAT      O14107  11.022   1.138   0.306
 4002WAT     H114108  10.994   1.096   0.225
 4002WAT     H214109  11.003   1.231   0.294
 4003WAT      O14110   9.479   0.465   1.795
 4003WAT     H114111   9.529   0.407   1.852
 4003WAT     H214112   9.405   0.493   1.848
 4004WAT      O14113  10.184   0.606   1.748
 4004WAT     H114114  10.107   0.663   1.740
 4004WAT     H214115  10.202   0.576   1.659
 4005WAT      O14116  10.493   0.643   0.211
 4005WAT     H114117  10.438   0.688   0.275
 4005WAT     H214118  10.555   0.593   0.263
 4006WAT      O14119  10.898   0.779   1.804
 4006WAT     H114120  10.972   0.813   1.753
 4006WAT     H214121  10.822   0.796   1.748
 4007WAT      O14122   9.682   0.279   1.884
 4007WAT     H114123   9.686   0.249   1.975
 4007WAT     H214124   9.767   0.319   1.868
 4008WAT      O14125  10.060   0.539   0.400
 4008WAT     H114126  10.102   0.523   0.484
 4008WAT     H214127  10.072   0.458   0.351
 4009WAT      O14128  10.766   0.584   1.657
 4009WAT     H114129  10.807   0.599   1.742
 4009WAT     H214130  10.672   0.596   1.674
 4010WAT      O14131  10.813   0.318   1.858
 4010WAT     H114132  10.871   0.242   1.849
 4010WAT     H214133  10.830   0.371   1.780
 4011WAT      O14134  10.242   0.579   1.454
 4011WAT     H114135  10.284   0.663   1.437
 4011WAT     H214136  10.150   0.593   1.431
 4012WAT      O14137  10.475   0.352   1.593
 4012WAT     H114138  10.487   0.293   1.667
 4012WAT     H214139  10.561   0.356   1.551
 4013WAT      O14140  10.709   0.408   1.450
 4013WAT     H114141  10.657   0.460   1.390
 4013WAT     H214142  10.744   0.471   1.513
 4014WAT      O14143  10.027   1.210   1.566
 4014WAT     H114144   9.973   1.282   1.534
 4014WAT     H214145  10.052   1.162   1.487
 4015WAT      O14146  10.312   1.333   1.592
 4015WAT     H114147  10.305   1.423   1.622
 4015WAT     H214148  10.222   1.301   1.589
 4016WAT      O14149  10.367   1.250   0.354
 4016WAT     H114150  10.457   1.284   0.356
 4016WAT     H214151  10.370   1.178   0.291
 4017WAT      O14152   9.731   0.787   0.177
 4017WAT     H114153   9.775   0.841   0.242
 4017WAT     H214154   9.780   0.704   0.178
 4018WAT      O14155   9.453   1.066   0.922
 4018WAT     H114156   9.486   0.979   0.899
 4018WAT     H214157   9.496   1.086   1.005
 4019WAT      O14158   9.912   0.899   0.688
 4019WAT     H114159   9.882   0.887   0.778
 4019WAT     H214160   9.902   0.813   0.647
 4020WAT      O14161   9.502   1.153   1.196
 4020WAT     H114162   9.458   1.171   1.279
 4020WAT     H214163   9.558   1.228   1.182
 4021WAT      O14164  11.065   1.103   1.625
 4021WAT     H114165  11.005   1.109   1.550
 4021WAT     H214166  11.078   1.009   1.638
 4022WAT      O14167   9.485   0.404   0.832
 4022WAT     H114168   9.419   0.377   0.767
 4022WAT     H214169   9.569   0.393   0.787
 4023WAT      O14170  10.934   0.775   1.434
 4023WAT     H114171  10.852   0.818   1.461
 4023WAT     H214172  10.975   0.836   1.373
 4024WAT      O14173   9.589   0.442   1.286
 4024WAT     H114174   9.625   0.434   1.374
 4024WAT     H214175   9.532   0.366   1.276
 4025WAT      O14176  11.069   0.289   1.587
 4025WAT     H114177  11.046   0.266   1.497
 4025WAT     H214178  11.095   0.381   1.583
 4026WAT      O14179  11.057   0.197   0.954
 4026WAT     H114180  11.110   0.148   0.891
 4026WAT     H214181  11.116   0.211   1.028
 4027WAT      O14182  11.075   0.205   1.306
 4027WAT     H114183  10.980   0.202   1.317
 4027WAT     H214184  11.093   0.296   1.282
 4028WAT      O14185  10.940   1.250   0.787
 4028WAT     H114186  10.999   1.218   0.719
 4028WAT     H214187  10.965   1.203   0.866
 4029WAT      O14188   9.730   0.894   1.802
 4029WAT     H114189   9.726   0.857   1.890
 4029WAT     H214190   9.743   0.987   1.816
 4030WAT      O14191  10.100   1.049   1.362
 4030WAT     H114192  10.076   1.076   1.273
 4030WAT     H214193  10.194   1.066   1.368
 4031WAT      O14194   9.714   1.188   1.514
 4031WAT     H114195   9.655   1.175   1.588
 4031WAT     H214196   9.713   1.105   1.467
 4032WAT      O14197  10.995   1.315   1.170
 4032WAT     H114198  10.949   1.391   1.133
 4032WAT     H214199  10.932   1.243   1.164
 4033WAT      O14200   9.677   0.925   1.409
 4033WAT     H114201   9.605   0.863   1.402
 4033WAT     H214202   9.683   0.964   1.322
 4034WAT      O14203  10.038   1.146   1.088
 4034WAT     H114204  10.089   1.085   1.035
 4034WAT     H214205  10.103   1.197   1.137
 4035WAT      O14206  10.312   1.235   1.170
 4035WAT     H114207  10.340   1.210   1.083
 4035WAT     H214208  10.363   1.180   1.229
 4036WAT      O14209   9.505   1.257   0.730
 4036WAT     H114210   9.489   1.193   0.800
 4036WAT     H214211   9.419   1.277   0.695
 4037WAT      O14212   9.666   1.126   0.474
 4037WAT     H114213   9.614   1.164   0.404
 4037WAT     H214214   9.659   1.188   0.547
 4038WAT      O14215  10.318   1.328   1.907
 4038WAT     H114216  10.411   1.304   1.911
 4038WAT     H214217  10.317   1.410   1.859
 4039WAT      O14218   9.926   1.321   0.362
 4039WAT     H114219   9.999   1.292   0.307
 4039WAT     H214220   9.952   1.297   0.451
 4040WAT      O14221   9.842   0.932   0.362
 4040WAT     H114222   9.779   0.979   0.417
 4040WAT     H214223   9.854   0.848   0.406
 4041WAT      O14224  10.975   1.250   1.889
 4041WAT     H114225  11.054   1.201   1.869
 4041WAT     H214226  11.004   1.318   1.950
 4042WAT      O14227   8.710   9.725   6.487
 4042WAT     H114228   8.702   9.633   6.460
 4042WAT     H214229   8.669   9.774   6.417
 4043WAT      O14230   8.523   9.902   6.675
 4043WAT     H114231   8.446   9.854   6.704
 4043WAT     H214232   8.589   9.834   6.658
 4044WAT      O14233   7.925   9.934   6.763
 4044WAT     H114234   7.842   9.908   6.803
 4044WAT     H214235   7.986   9.941   6.837
 4045WAT      O14236   7.766   9.430   6.141
 4045WAT     H114237   7.677   9.464   6.131
 4045WAT     H214238   7.794   9.410   6.052
 4046WAT      O14239   7.562   9.690   6.730
 4046WAT     H114240   7.619   9.613   6.730
 4046WAT     H214241   7.562   9.720   6.639
 4047WAT      O14242   7.687   9.231   6.909
 4047WAT     H114243   7.669   9.141   6.937
 4047WAT     H214244   7.646   9.285   6.976
 4048WAT      O14245   8.571   9.451   6.699
 4048WAT     H114246   8.608   9.363   6.687
 4048WAT     H214247   8.561   9.484   6.610
 4049WAT      O14248   7.984   9.288   6.245
 4049WAT     H114249   7.994   9.378   6.276
 4049WAT     H214250   7.893   9.283   6.216
 4050WAT      O14251   8.949   9.200   6.392
 4050WAT     H114252   9.031   9.151   6.396
 4050WAT     H214253   8.952   9.259   6.467
 4051WAT      O14254   7.748   9.480   6.769
 4051WAT     H114255   7.817   9.507   6.831
 4051WAT     H214256   7.717   9.396   6.803
 4052WAT      O14257   8.168   9.585   6.678
 4052WAT     H114258   8.218   9.635   6.742
 4052WAT     H214259   8.221   9.507   6.661
 4053WAT      O14260   9.378   9.402   7.048
 4053WAT     H114261   9.307   9.441   6.997
 4053WAT     H214262   9.404   9.471   7.109
 4054WAT      O14263   7.996   9.049   7.105
 4054WAT     H114264   7.996   9.101   7.024
 4054WAT     H214265   7.913   9.001   7.102
 4055WAT      O14266   8.121  10.013   6.922
 4055WAT     H114267   8.088  10.075   6.987
 4055WAT     H214268   8.139  10.065   6.845
 4056WAT      O14269   8.972   9.394   6.669
 4056WAT     H114270   8.902   9.423   6.727
 4056WAT     H214271   9.009   9.475   6.633
 4057WAT      O14272   7.964   9.220   6.905
 4057WAT     H114273   7.998   9.304   6.876
 4057WAT     H214274   7.870   9.235   6.917
 4058WAT      O14275   9.279   9.339   6.708
 4058WAT     H114276   9.185   9.342   6.721
 4058WAT     H214277   9.312   9.420   6.747
 4059WAT      O14278   8.332   8.969   6.538
 4059WAT     H114279   8.363   8.913   6.466
 4059WAT     H214280   8.239   8.982   6.520
 4060WAT      O14281   8.827  10.031   6.900
 4060WAT     H114282   8.869  10.009   6.816
 4060WAT     H214283   8.900  10.056   6.957
 4061WAT      O14284   8.571   9.775   6.212
 4061WAT     H114285   8.479   9.769   6.234
 4061WAT     H214286   8.587   9.869   6.200
 4062WAT      O14287   8.570   9.402   5.911
 4062WAT     H114288   8.476   9.419   5.920
 4062WAT     H214289   8.602   9.474   5.857
 4063WAT      O14290   9.222   9.871   6.909
 4063WAT     H114291   9.139   9.878   6.861
 4063WAT     H214292   9.282   9.929   6.862
 4064WAT      O14293   8.974   9.931   6.262
 4064WAT     H114294   8.912   9.898   6.197
 4064WAT     H214295   8.973   9.867   6.333
 4065WAT      O14296   8.919   9.549   7.004
 4065WAT     H114297   8.877   9.632   7.029
 4065WAT     H214298   8.845   9.491   6.984
 4066WAT      O14299   8.132   9.828   6.490
 4066WAT     H114300   8.091   9.757   6.440
 4066WAT     H214301   8.140   9.793   6.579
 4067WAT      O14302   8.003   9.505   6.868
 4067WAT     H114303   8.058   9.516   6.790
 4067WAT     H214304   8.055   9.543   6.939
 4068WAT      O14305   8.792   9.855   5.963
 4068WAT     H114306   8.836   9.772   5.948
 4068WAT     H214307   8.863   9.919   5.971
 4069WAT      O14308   7.971   9.857   7.229
 4069WAT     H114309   7.957   9.945   7.266
 4069WAT     H214310   7.882   9.823   7.214
 4070WAT      O14311   9.150   8.981   5.794
 4070WAT     H114312   9.119   8.990   5.884
 4070WAT     H214313   9.226   9.039   5.789
 4071WAT      O14314   7.802   9.717   6.240
 4071WAT     H114315   7.790   9.790   6.179
 4071WAT     H214316   7.771   9.640   6.192
 4072WAT      O14317   7.566  10.034   6.820
 4072WAT     H114318   7.574  10.048   6.726
 4072WAT     H214319   7.627   9.964   6.840
 4073WAT      O14320   9.271   9.454   7.392
 4073WAT     H114321   9.210   9.505   7.339
 4073WAT     H214322   9.239   9.364   7.386
 4074WAT      O14323   8.049   9.052   6.578
 4074WAT     H114324   8.004   9.130   6.545
 4074WAT     H214325   8.104   9.084   6.649
 4075WAT      O14326   8.477   9.338   7.138
 4075WAT     H114327   8.431   9.359   7.220
 4075WAT     H214328   8.437   9.257   7.108
 4076WAT      O14329   8.977   9.460   7.251
 4076WAT     H114330   8.892   9.431   7.283
 4076WAT     H214331   8.961   9.485   7.160
 4077WAT      O14332   8.687   9.610   7.461
 4077WAT     H114333   8.719   9.527   7.427
 4077WAT     H214334   8.766   9.663   7.476
 4078WAT      O14335   8.360   9.014   6.066
 4078WAT     H114336   8.298   9.013   6.139
 4078WAT     H214337   8.351   8.927   6.026
 4079WAT      O14338   8.252   9.106   6.764
 4079WAT     H114339   8.282   9.197   6.756
 4079WAT     H214340   8.307   9.057   6.702
 4080WAT      O14341   8.028   9.564   6.351
 4080WAT     H114342   8.005   9.542   6.441
 4080WAT     H214343   7.950   9.607   6.316
 4081WAT      O14344   8.751   9.565   6.211
 4081WAT     H114345   8.691   9.637   6.192
 4081WAT     H214346   8.805   9.558   6.132
 4082WAT      O14347   8.272   9.654   7.417
 4082WAT     H114348   8.262   9.560   7.402
 4082WAT     H214349   8.356   9.676   7.378
 4083WAT      O14350   8.611   9.428   6.414
 4083WAT     H114351   8.651   9.460   6.332
 4083WAT     H214352   8.647   9.340   6.425
 4084WAT      O14353   7.785   9.295   7.233
 4084WAT     H114354   7.745   9.380   7.253
 4084WAT     H214355   7.716   9.231   7.252
 4085WAT      O14356   7.515   9.087   6.636
 4085WAT     H114357   7.486   9.144   6.707
 4085WAT     H214358   7.589   9.039   6.672
 4086WAT      O14359   7.534   9.481   5.757
 4086WAT     H114360   7.525   9.576   5.771
 4086WAT     H214361   7.498   9.467   5.669
 4087WAT      O14362   8.670   9.687   6.823
 4087WAT     H114363   8.597   9.738   6.858
 4087WAT     H214364   8.630   9.606   6.793
 4088WAT      O14365   8.314   9.355   6.664
 4088WAT     H114366   8.314   9.311   6.579
 4088WAT     H214367   8.403   9.387   6.675
 4089WAT      O14368   7.899   9.343   6.560
 4089WAT     H114369   7.865   9.391   6.635
 4089WAT     H214370   7.822   9.298   6.524
 4090WAT      O14371   8.320   9.455   5.963
 4090WAT     H114372   8.332   9.451   6.058
 4090WAT     H214373   8.281   9.541   5.947
 4091WAT      O14374   8.716   9.233   6.764
 4091WAT     H114375   8.718   9.278   6.849
 4091WAT     H214376   8.691   9.143   6.786
 4092WAT      O14377   8.221   9.686   5.903
 4092WAT     H114378   8.164   9.641   5.840
 4092WAT     H214379   8.292   9.722   5.849
 4093WAT      O14380   9.059   8.974   7.348
 4093WAT     H114381   9.091   8.901   7.401
 4093WAT     H214382   9.062   8.942   7.258
 4094WAT      O14383   8.344   9.761   6.838
 4094WAT     H114384   8.380   9.713   6.913
 4094WAT     H214385   8.325   9.848   6.873
 4095WAT      O14386   7.630   9.235   6.451
 4095WAT     H114387   7.602   9.199   6.535
 4095WAT     H214388   7.624   9.162   6.390
 4096WAT      O14389   8.123   9.665   7.070
 4096WAT     H114390   8.092   9.753   7.093
 4096WAT     H214391   8.218   9.671   7.074
 4097WAT      O14392   7.976  10.086   6.130
 4097WAT     H114393   7.898  10.032   6.114
 4097WAT     H214394   8.048  10.034   6.096
 4098WAT      O14395   9.051   9.985   6.709
 4098WAT     H114396   9.123  10.035   6.670
 4098WAT     H214397   9.031   9.917   6.645
 4099WAT      O14398   8.597   9.125   6.124
 4099WAT     H114399   8.516   9.075   6.116
 4099WAT     H214400   8.578   9.209   6.082
 4100WAT      O14401   8.590   9.992   7.298
 4100WAT     H114402   8.583   9.900   7.272
 4100WAT     H214403   8.527  10.002   7.369
 4101WAT      O14404   8.869   9.562   5.953
 4101WAT     H114405   8.958   9.593   5.936
 4101WAT     H214406   8.866   9.475   5.914
 4102WAT      O14407   7.980  10.052   6.494
 4102WAT     H114408   8.032   9.972   6.488
 4102WAT     H214409   7.935  10.046   6.578
 4103WAT      O14410   7.728   9.749   7.185
 4103WAT     H114411   7.692   9.816   7.244
 4103WAT     H214412   7.699   9.666   7.222
 4104WAT      O14413   8.048   9.795   7.473
 4104WAT     H114414   8.018   9.809   7.384
 4104WAT     H214415   8.126   9.739   7.464
 4105WAT      O14416   9.096   9.693   5.900
 4105WAT     H114417   9.088   9.736   5.815
 4105WAT     H214418   9.168   9.739   5.943
 4106WAT      O14419   9.204   9.939   7.208
 4106WAT     H114420   9.131   9.998   7.188
 4106WAT     H214421   9.257   9.938   7.128
 4107WAT      O14422   7.579   9.749   5.847
 4107WAT     H114423   7.666   9.777   5.876
 4107WAT     H214424   7.530   9.830   5.836
 4108WAT      O14425   8.296   9.888   6.259
 4108WAT     H114426   8.341   9.969   6.282
 4108WAT     H214427   8.261   9.856   6.343
 4109WAT      O14428   7.886   8.922   6.307
 4109WAT     H114429   7.873   8.921   6.402
 4109WAT     H214430   7.804   8.956   6.272
 4110WAT      O14431   7.586   9.098   7.253
 4110WAT     H114432   7.514   9.118   7.313
 4110WAT     H214433   7.628   9.020   7.290
 4111WAT      O14434   7.778   9.931   6.060
 4111WAT     H114435   7.717  10.005   6.061
 4111WAT     H214436   7.825   9.940   5.978
 4112WAT      O14437   8.735   9.347   7.028
 4112WAT     H114438   8.772   9.265   7.061
 4112WAT     H214439   8.649   9.353   7.069
 4113WAT      O14440   9.072   9.243   6.109
 4113WAT     H114441   9.009   9.253   6.037
 4113WAT     H214442   9.022   9.265   6.188
 4114WAT      O14443   8.269   9.471   6.250
 4114WAT     H114444   8.198   9.517   6.294
 4114WAT     H214445   8.297   9.405   6.314
 4115WAT      O14446   8.431   9.613   7.050
 4115WAT     H114447   8.481   9.660   7.117
 4115WAT     H214448   8.445   9.520   7.071
 4116WAT      O14449   8.672   9.143   6.394
 4116WAT     H114450   8.660   9.145   6.299
 4116WAT     H214451   8.767   9.148   6.406
 4117WAT      O14452   8.089   9.301   5.988
 4117WAT     H114453   8.174   9.345   5.981
 4117WAT     H214454   8.052   9.333   6.070
 4118WAT      O14455   9.152   9.234   7.134
 4118WAT     H114456   9.102   9.308   7.168
 4118WAT     H214457   9.233   9.273   7.103
 4119WAT      O14458   8.981   9.759   6.479
 4119WAT     H114459   8.887   9.760   6.496
 4119WAT     H214460   9.013   9.680   6.524
 4120WAT      O14461   7.979   9.927   5.835
 4120WAT     H114462   8.056   9.916   5.891
 4120WAT     H214463   7.987   9.857   5.770
 4121WAT      O14464   7.848   9.670   5.903
 4121WAT     H114465   7.856   9.575   5.915
 4121WAT     H214466   7.938   9.703   5.914
 4122WAT      O14467   7.601   9.852   7.427
 4122WAT     H114468   7.652   9.794   7.484
 4122WAT     H214469   7.527   9.881   7.481
 4123WAT      O14470   8.306   9.993   7.380
 4123WAT     H114471   8.230  10.050   7.372
 4123WAT     H214472   8.325   9.964   7.291
 4124WAT      O14473   8.615  10.031   5.843
 4124WAT     H114474   8.560  10.075   5.907
 4124WAT     H214475   8.678   9.980   5.895
 4125WAT      O14476   8.182   9.926   6.032
 4125WAT     H114477   8.224   9.910   6.117
 4125WAT     H214478   8.195   9.845   5.983
 4126WAT      O14479   7.998   9.524   7.313
 4126WAT     H114480   7.945   9.475   7.250
 4126WAT     H214481   8.065   9.567   7.260
 4127WAT      O14482   8.433   9.829   5.757
 4127WAT     H114483   8.485   9.757   5.721
 4127WAT     H214484   8.498   9.893   5.787
 4128WAT      O14485   8.888   9.971   7.290
 4128WAT     H114486   8.930   9.987   7.375
 4128WAT     H214487   8.795   9.984   7.306
 4129WAT      O14488   8.935   9.705   7.490
 4129WAT     H114489   8.994   9.630   7.481
 4129WAT     H214490   8.953   9.758   7.412
 4130WAT      O14491   8.047   9.221   7.321
 4130WAT     H114492   8.038   9.159   7.249
 4130WAT     H214493   7.989   9.294   7.298
 4131WAT      O14494   8.324   9.077   7.024
 4131WAT     H114495   8.279   9.079   6.940
 4131WAT     H214496   8.260   9.037   7.084
 4132WAT      O14497   8.364   9.966   7.087
 4132WAT     H114498   8.406  10.051   7.069
 4132WAT     H214499   8.272   9.980   7.064
 4133WAT      O14500   8.598   9.739   7.225
 4133WAT     H114501   8.610   9.680   7.299
 4133WAT     H214502   8.684   9.743   7.183
 4134WAT      O14503   8.832   9.795   7.083
 4134WAT     H114504   8.779   9.847   7.022
 4134WAT     H214505   8.866   9.858   7.146
 4135WAT      O14506   8.072   9.534   5.727
 4135WAT     H114507   8.052   9.447   5.763
 4135WAT     H214508   8.055   9.525   5.633
 4136WAT      O14509   8.275   9.394   7.351
 4136WAT     H114510   8.334   9.363   7.419
 4136WAT     H214511   8.193   9.346   7.366
 4137WAT      O14512   8.757   9.355   7.374
 4137WAT     H114513   8.688   9.289   7.368
 4137WAT     H214514   8.829   9.311   7.419
 4138WAT      O14515   8.820   9.015   5.980
 4138WAT     H114516   8.848   8.931   6.016
 4138WAT     H214517   8.742   9.038   6.031
 4139WAT      O14518   7.952   9.244   5.726
 4139WAT     H114519   7.982   9.244   5.635
 4139WAT     H214520   8.025   9.209   5.776
 4140WAT      O14521   8.273   9.138   5.824
 4140WAT     H114522   8.239   9.070   5.766
 4140WAT     H214523   8.294   9.092   5.906
 4141WAT      O14524   9.257   9.939   6.041
 4141WAT     H114525   9.334   9.996   6.052
 4141WAT     H214526   9.259   9.882   6.118
 4142WAT      O14527   7.607   9.791   6.464
 4142WAT     H114528   7.542   9.764   6.400
 4142WAT     H214529   7.691   9.780   6.419
 4143WAT      O14530   9.263   9.968   5.757
 4143WAT     H114531   9.290  10.059   5.744
 4143WAT     H214532   9.244   9.962   5.850
 4144WAT      O14533   8.902   9.270   5.886
 4144WAT     H114534   8.944   9.252   5.802
 4144WAT     H214535   8.872   9.185   5.917
 4145WAT      O14536   9.252   9.762   6.256
 4145WAT     H114537   9.215   9.685   6.213
 4145WAT     H214538   9.179   9.800   6.305
 4146WAT      O14539   7.711   9.830   6.918
 4146WAT     H114540   7.748   9.821   7.006
 4146WAT     H214541   7.654   9.753   6.908
 4147WAT      O14542   9.191   9.676   7.219
 4147WAT     H114543   9.168   9.653   7.129
 4147WAT     H214544   9.217   9.768   7.215
 4148WAT      O14545   7.666   9.521   7.309
 4148WAT     H114546   7.577   9.517   7.343
 4148WAT     H214547   7.720   9.540   7.385
 4149WAT      O14548   7.529   9.512   6.058
 4149WAT     H114549   7.438   9.538   6.041
 4149WAT     H214550   7.577   9.539   5.980
 4150WAT      O14551   9.180   9.584   6.586
 4150WAT     H114552   9.232   9.535   6.523
 4150WAT     H214553   9.238   9.598   6.661
 4151WAT      O14554   9.198   9.593   6.938
 4151WAT     H114555   9.103   9.589   6.950
 4151WAT     H214556   9.216   9.684   6.915
 4152WAT      O14557   7.783   9.418   5.849
 4152WAT     H114558   7.854   9.375   5.801
 4152WAT     H214559   7.712   9.424   5.786
 4153WAT      O14560   7.748   9.023   5.753
 4153WAT     H114561   7.820   9.077   5.785
 4153WAT     H214562   7.775   8.996   5.666
 4154WAT      O14563   9.129   9.510   6.180
 4154WAT     H114564   9.178   9.487   6.258
 4154WAT     H214565   9.109   9.426   6.138
 4155WAT      O14566   7.717   8.948   6.743
 4155WAT     H114567   7.782   8.893   6.699
 4155WAT     H214568   7.759   8.974   6.826
 4156WAT      O14569   9.272   9.374   6.433
 4156WAT     H114570   9.261   9.358   6.527
 4156WAT     H214571   9.348   9.321   6.409
 4157WAT      O14572   9.106   8.967   7.079
 4157WAT     H114573   9.170   9.029   7.116
 4157WAT     H214574   9.121   8.971   6.985
 4158WAT      O14575   9.361   9.157   5.757
 4158WAT     H114576   9.453   9.143   5.737
 4158WAT     H214577   9.358   9.165   5.853
 4159WAT      O14578   9.368   9.234   6.020
 4159WAT     H114579   9.288   9.227   6.073
 4159WAT     H214580   9.388   9.327   6.019
 4160WAT      O14581   7.692   8.964   7.018
 4160WAT     H114582   7.657   9.009   7.094
 4160WAT     H214583   7.659   8.874   7.026
 4161WAT      O14584   8.443   9.083   7.370
 4161WAT     H114585   8.437   9.142   7.445
 4161WAT     H214586   8.537   9.072   7.355
 4162WAT      O14587   8.707   9.048   7.334
 4162WAT     H114588   8.768   9.080   7.268
 4162WAT     H214589   8.762   9.000   7.396
 4163WAT      O14590   7.759   8.916   7.345
 4163WAT     H114591   7.814   8.898   7.269
 4163WAT     H214592   7.766   8.837   7.399
 4164WAT      O14593   8.781   8.905   6.967
 4164WAT     H114594   8.694   8.938   6.946
 4164WAT     H214595   8.770   8.858   7.049
 4165WAT      O14596   8.872   9.125   7.105
 4165WAT     H114597   8.839   9.044   7.067
 4165WAT     H214598   8.967   9.121   7.093
 4166WAT      O14599   8.556   8.996   6.860
 4166WAT     H114600   8.478   9.044   6.888
 4166WAT     H214601   8.527   8.906   6.850
 4167WAT      O14602   9.011   9.067   6.665
 4167WAT     H114603   9.055   9.061   6.580
 4167WAT     H214604   8.984   9.158   6.672
 4168WAT      O14605   9.198   9.030   6.466
 4168WAT     H114606   9.191   8.935   6.451
 4168WAT     H214607   9.275   9.041   6.521
 4169WAT      O14608   7.690   9.027   6.113
 4169WAT     H114609   7.766   9.038   6.055
 4169WAT     H214610   7.644   9.111   6.108
 4170WAT      O14611   8.344   9.238   6.412
 4170WAT     H114612   8.263   9.201   6.378
 4170WAT     H214613   8.395   9.163   6.442
 4171WAT      O14614   8.795   8.905   6.535
 4171WAT     H114615   8.855   8.962   6.583
 4171WAT     H214616   8.721   8.961   6.513
 4172WAT      O14617   9.109   8.945   6.063
 4172WAT     H114618   9.129   9.035   6.090
 4172WAT     H214619   9.030   8.922   6.112
 4173WAT      O14620   7.928   9.080   5.967
 4173WAT     H114621   7.980   9.001   5.954
 4173WAT     H214622   7.991   9.147   5.990
 4174WAT      O14623   8.147   9.053   6.272
 4174WAT     H114624   8.084   8.983   6.289
 4174WAT     H214625   8.093   9.129   6.250
 4175WAT      O14626   8.710   9.725   4.610
 4175WAT     H114627   8.702   9.633   4.583
 4175WAT     H214628   8.669   9.774   4.539
 4176WAT      O14629   8.523   9.902   4.798
 4176WAT     H114630   8.446   9.854   4.827
 4176WAT     H214631   8.589   9.834   4.780
 4177WAT      O14632   7.925   9.934   4.886
 4177WAT     H114633   7.842   9.908   4.926
 4177WAT     H214634   7.986   9.941   4.959
 4178WAT      O14635   7.766   9.430   4.264
 4178WAT     H114636   7.677   9.464   4.254
 4178WAT     H214637   7.794   9.410   4.175
 4179WAT      O14638   7.562   9.690   4.852
 4179WAT     H114639   7.619   9.613   4.852
 4179WAT     H214640   7.562   9.720   4.762
 4180WAT      O14641   7.687   9.231   5.031
 4180WAT     H114642   7.669   9.141   5.059
 4180WAT     H214643   7.646   9.285   5.099
 4181WAT      O14644   8.571   9.451   4.821
 4181WAT     H114645   8.608   9.363   4.810
 4181WAT     H214646   8.561   9.484   4.732
 4182WAT      O14647   7.984   9.288   4.367
 4182WAT     H114648   7.994   9.378   4.398
 4182WAT     H214649   7.893   9.283   4.338
 4183WAT      O14650   8.949   9.200   4.515
 4183WAT     H114651   9.031   9.151   4.519
 4183WAT     H214652   8.952   9.259   4.590
 4184WAT      O14653   7.748   9.480   4.892
 4184WAT     H114654   7.817   9.507   4.954
 4184WAT     H214655   7.717   9.396   4.925
 4185WAT      O14656   8.168   9.585   4.801
 4185WAT     H114657   8.218   9.635   4.865
 4185WAT     H214658   8.221   9.507   4.783
 4186WAT      O14659   9.378   9.402   5.171
 4186WAT     H114660   9.307   9.441   5.119
 4186WAT     H214661   9.404   9.471   5.231
 4187WAT      O14662   7.996   9.049   5.227
 4187WAT     H114663   7.996   9.101   5.147
 4187WAT     H214664   7.913   9.001   5.225
 4188WAT      O14665   8.121  10.013   5.045
 4188WAT     H114666   8.088  10.075   5.109
 4188WAT     H214667   8.139  10.065   4.967
 4189WAT      O14668   8.972   9.394   4.792
 4189WAT     H114669   8.902   9.423   4.850
 4189WAT     H214670   9.009   9.475   4.756
 4190WAT      O14671   7.964   9.220   5.028
 4190WAT     H114672   7.998   9.304   4.999
 4190WAT     H214673   7.870   9.235   5.040
 4191WAT      O14674   9.279   9.339   4.831
 4191WAT     H114675   9.185   9.342   4.844
 4191WAT     H214676   9.312   9.420   4.869
 4192WAT      O14677   8.332   8.969   4.660
 4192WAT     H114678   8.363   8.913   4.589
 4192WAT     H214679   8.239   8.982   4.642
 4193WAT      O14680   8.827  10.031   5.022
 4193WAT     H114681   8.869  10.009   4.939
 4193WAT     H214682   8.900  10.056   5.079
 4194WAT      O14683   8.571   9.775   4.334
 4194WAT     H114684   8.479   9.769   4.357
 4194WAT     H214685   8.587   9.869   4.323
 4195WAT      O14686   8.570   9.402   4.034
 4195WAT     H114687   8.476   9.419   4.042
 4195WAT     H214688   8.602   9.474   3.979
 4196WAT      O14689   9.222   9.871   5.032
 4196WAT     H114690   9.139   9.878   4.984
 4196WAT     H214691   9.282   9.929   4.985
 4197WAT      O14692   8.974   9.931   4.384
 4197WAT     H114693   8.912   9.898   4.320
 4197WAT     H214694   8.973   9.867   4.455
 4198WAT      O14695   8.919   9.549   5.126
 4198WAT     H114696   8.877   9.632   5.151
 4198WAT     H214697   8.845   9.491   5.107
 4199WAT      O14698   8.132   9.828   4.612
 4199WAT     H114699   8.091   9.757   4.563
 4199WAT     H214700   8.140   9.793   4.701
 4200WAT      O14701   8.003   9.505   4.990
 4200WAT     H114702   8.058   9.516   4.913
 4200WAT     H214703   8.055   9.543   5.062
 4201WAT      O14704   8.792   9.855   4.085
 4201WAT     H114705   8.836   9.772   4.071
 4201WAT     H214706   8.863   9.919   4.094
 4202WAT      O14707   7.971   9.857   5.351
 4202WAT     H114708   7.957   9.945   5.388
 4202WAT     H214709   7.882   9.823   5.337
 4203WAT      O14710   9.150   8.981   3.917
 4203WAT     H114711   9.119   8.990   4.007
 4203WAT     H214712   9.226   9.039   3.912
 4204WAT      O14713   7.802   9.717   4.362
 4204WAT     H114714   7.790   9.790   4.301
 4204WAT     H214715   7.771   9.640   4.315
 4205WAT      O14716   7.566  10.034   4.943
 4205WAT     H114717   7.574  10.048   4.849
 4205WAT     H214718   7.627   9.964   4.962
 4206WAT      O14719   9.271   9.454   5.514
 4206WAT     H114720   9.210   9.505   5.461
 4206WAT     H214721   9.239   9.364   5.509
 4207WAT      O14722   8.049   9.052   4.701
 4207WAT     H114723   8.004   9.130   4.667
 4207WAT     H214724   8.104   9.084   4.771
 4208WAT      O14725   8.477   9.338   5.261
 4208WAT     H114726   8.431   9.359   5.342
 4208WAT     H214727   8.437   9.257   5.231
 4209WAT      O14728   8.977   9.460   5.374
 4209WAT     H114729   8.892   9.431   5.406
 4209WAT     H214730   8.961   9.485   5.283
 4210WAT      O14731   8.687   9.610   5.584
 4210WAT     H114732   8.719   9.527   5.550
 4210WAT     H214733   8.766   9.663   5.599
 4211WAT      O14734   8.360   9.014   4.189
 4211WAT     H114735   8.298   9.013   4.261
 4211WAT     H214736   8.351   8.927   4.149
 4212WAT      O14737   8.252   9.106   4.886
 4212WAT     H114738   8.282   9.197   4.878
 4212WAT     H214739   8.307   9.057   4.825
 4213WAT      O14740   8.028   9.564   4.473
 4213WAT     H114741   8.005   9.542   4.564
 4213WAT     H214742   7.950   9.607   4.439
 4214WAT      O14743   8.751   9.565   4.333
 4214WAT     H114744   8.691   9.637   4.315
 4214WAT     H214745   8.805   9.558   4.255
 4215WAT      O14746   8.272   9.654   5.540
 4215WAT     H114747   8.262   9.560   5.525
 4215WAT     H214748   8.356   9.676   5.500
 4216WAT      O14749   8.611   9.428   4.536
 4216WAT     H114750   8.651   9.460   4.455
 4216WAT     H214751   8.647   9.340   4.548
 4217WAT      O14752   7.785   9.295   5.355
 4217WAT     H114753   7.745   9.380   5.376
 4217WAT     H214754   7.716   9.231   5.374
 4218WAT      O14755   8.442   9.303   5.662
 4218WAT     H114756   8.373   9.284   5.726
 4218WAT     H214757   8.517   9.332   5.716
 4219WAT      O14758   7.515   9.087   4.759
 4219WAT     H114759   7.486   9.144   4.830
 4219WAT     H214760   7.589   9.039   4.795
 4220WAT      O14761   7.534   9.481   3.880
 4220WAT     H114762   7.525   9.576   3.894
 4220WAT     H214763   7.498   9.467   3.792
 4221WAT      O14764   8.670   9.687   4.946
 4221WAT     H114765   8.597   9.738   4.981
 4221WAT     H214766   8.630   9.606   4.916
 4222WAT      O14767   8.314   9.355   4.786
 4222WAT     H114768   8.314   9.311   4.701
 4222WAT     H214769   8.403   9.387   4.797
 4223WAT      O14770   7.899   9.343   4.682
 4223WAT     H114771   7.865   9.391   4.758
 4223WAT     H214772   7.822   9.298   4.646
 4224WAT      O14773   8.320   9.455   4.085
 4224WAT     H114774   8.332   9.451   4.180
 4224WAT     H214775   8.281   9.541   4.070
 4225WAT      O14776   8.716   9.233   4.887
 4225WAT     H114777   8.718   9.278   4.971
 4225WAT     H214778   8.691   9.143   4.908
 4226WAT      O14779   8.221   9.686   4.025
 4226WAT     H114780   8.164   9.641   3.963
 4226WAT     H214781   8.292   9.722   3.972
 4227WAT      O14782   9.059   8.974   5.471
 4227WAT     H114783   9.091   8.901   5.524
 4227WAT     H214784   9.062   8.942   5.381
 4228WAT      O14785   8.344   9.761   4.961
 4228WAT     H114786   8.380   9.713   5.036
 4228WAT     H214787   8.325   9.848   4.995
 4229WAT      O14788   7.630   9.235   4.574
 4229WAT     H114789   7.602   9.199   4.658
 4229WAT     H214790   7.624   9.162   4.513
 4230WAT      O14791   8.123   9.665   5.193
 4230WAT     H114792   8.092   9.753   5.215
 4230WAT     H214793   8.218   9.671   5.196
 4231WAT      O14794   7.976  10.086   4.253
 4231WAT     H114795   7.898  10.032   4.237
 4231WAT     H214796   8.048  10.034   4.219
 4232WAT      O14797   9.051   9.985   4.832
 4232WAT     H114798   9.123  10.035   4.793
 4232WAT     H214799   9.031   9.917   4.767
 4233WAT      O14800   8.597   9.125   4.246
 4233WAT     H114801   8.516   9.075   4.239
 4233WAT     H214802   8.578   9.209   4.204
 4234WAT      O14803   8.590   9.992   5.420
 4234WAT     H114804   8.583   9.900   5.395
 4234WAT     H214805   8.527  10.002   5.492
 4235WAT      O14806   8.869   9.562   4.076
 4235WAT     H114807   8.958   9.593   4.058
 4235WAT     H214808   8.866   9.475   4.037
 4236WAT      O14809   7.980  10.052   4.616
 4236WAT     H114810   8.032   9.972   4.611
 4236WAT     H214811   7.935  10.046   4.700
 4237WAT      O14812   7.728   9.749   5.308
 4237WAT     H114813   7.692   9.816   5.366
 4237WAT     H214814   7.699   9.666   5.345
 4238WAT      O14815   8.048   9.795   5.596
 4238WAT     H114816   8.018   9.809   5.506
 4238WAT     H214817   8.126   9.739   5.587
 4239WAT      O14818   9.096   9.693   4.022
 4239WAT     H114819   9.088   9.736   3.937
 4239WAT     H214820   9.168   9.739   4.066
 4240WAT      O14821   9.204   9.939   5.330
 4240WAT     H114822   9.131   9.998   5.310
 4240WAT     H214823   9.257   9.938   5.250
 4241WAT      O14824   7.579   9.749   3.970
 4241WAT     H114825   7.666   9.777   3.998
 4241WAT     H214826   7.530   9.830   3.958
 4242WAT      O14827   8.296   9.888   4.382
 4242WAT     H114828   8.341   9.969   4.405
 4242WAT     H214829   8.261   9.856   4.465
 4243WAT      O14830   7.886   8.922   4.429
 4243WAT     H114831   7.873   8.921   4.524
 4243WAT     H214832   7.804   8.956   4.394
 4244WAT      O14833   7.586   9.098   5.375
 4244WAT     H114834   7.514   9.118   5.436
 4244WAT     H214835   7.628   9.020   5.412
 4245WAT      O14836   7.778   9.931   4.183
 4245WAT     H114837   7.717  10.005   4.184
 4245WAT     H214838   7.825   9.940   4.100
 4246WAT      O14839   8.735   9.347   5.150
 4246WAT     H114840   8.772   9.265   5.183
 4246WAT     H214841   8.649   9.353   5.192
 4247WAT      O14842   9.072   9.243   4.231
 4247WAT     H114843   9.009   9.253   4.160
 4247WAT     H214844   9.022   9.265   4.310
 4248WAT      O14845   8.269   9.471   4.373
 4248WAT     H114846   8.198   9.517   4.417
 4248WAT     H214847   8.297   9.405   4.436
 4249WAT      O14848   8.431   9.613   5.173
 4249WAT     H114849   8.481   9.660   5.239
 4249WAT     H214850   8.445   9.520   5.193
 4250WAT      O14851   8.672   9.143   4.517
 4250WAT     H114852   8.660   9.145   4.422
 4250WAT     H214853   8.767   9.148   4.529
 4251WAT      O14854   8.089   9.301   4.110
 4251WAT     H114855   8.174   9.345   4.104
 4251WAT     H214856   8.052   9.333   4.193
 4252WAT      O14857   9.152   9.234   5.257
 4252WAT     H114858   9.102   9.308   5.291
 4252WAT     H214859   9.233   9.273   5.225
 4253WAT      O14860   8.981   9.759   4.602
 4253WAT     H114861   8.887   9.760   4.619
 4253WAT     H214862   9.013   9.680   4.646
 4254WAT      O14863   7.979   9.927   3.958
 4254WAT     H114864   8.056   9.916   4.014
 4254WAT     H214865   7.987   9.857   3.892
 4255WAT      O14866   7.848   9.670   4.026
 4255WAT     H114867   7.856   9.575   4.037
 4255WAT     H214868   7.938   9.703   4.037
 4256WAT      O14869   7.601   9.852   5.550
 4256WAT     H114870   7.652   9.794   5.607
 4256WAT     H214871   7.527   9.881   5.603
 4257WAT      O14872   8.306   9.993   5.503
 4257WAT     H114873   8.230  10.050   5.494
 4257WAT     H214874   8.325   9.964   5.414
 4258WAT      O14875   8.615  10.031   3.965
 4258WAT     H114876   8.560  10.075   4.030
 4258WAT     H214877   8.678   9.980   4.018
 4259WAT      O14878   7.804   9.666   5.639
 4259WAT     H114879   7.808   9.637   5.730
 4259WAT     H214880   7.890   9.707   5.623
 4260WAT      O14881   8.182   9.926   4.155
 4260WAT     H114882   8.224   9.910   4.239
 4260WAT     H214883   8.195   9.845   4.106
 4261WAT      O14884   7.998   9.524   5.436
 4261WAT     H114885   7.945   9.475   5.373
 4261WAT     H214886   8.065   9.567   5.382
 4262WAT      O14887   8.433   9.829   3.880
 4262WAT     H114888   8.485   9.757   3.843
 4262WAT     H214889   8.498   9.893   3.910
 4263WAT      O14890   8.888   9.971   5.412
 4263WAT     H114891   8.930   9.987   5.497
 4263WAT     H214892   8.795   9.984   5.428
 4264WAT      O14893   8.935   9.705   5.613
 4264WAT     H114894   8.994   9.630   5.604
 4264WAT     H214895   8.953   9.758   5.535
 4265WAT      O14896   8.047   9.221   5.444
 4265WAT     H114897   8.038   9.159   5.371
 4265WAT     H214898   7.989   9.294   5.421
 4266WAT      O14899   8.324   9.077   5.147
 4266WAT     H114900   8.279   9.079   5.062
 4266WAT     H214901   8.260   9.037   5.207
 4267WAT      O14902   8.364   9.966   5.209
 4267WAT     H114903   8.406  10.051   5.192
 4267WAT     H214904   8.272   9.980   5.186
 4268WAT      O14905   8.598   9.739   5.348
 4268WAT     H114906   8.610   9.680   5.421
 4268WAT     H214907   8.684   9.743   5.306
 4269WAT      O14908   8.832   9.795   5.205
 4269WAT     H114909   8.779   9.847   5.145
 4269WAT     H214910   8.866   9.858   5.268
 4270WAT      O14911   8.072   9.534   3.850
 4270WAT     H114912   8.052   9.447   3.886
 4270WAT     H214913   8.055   9.525   3.756
 4271WAT      O14914   8.275   9.394   5.473
 4271WAT     H114915   8.334   9.363   5.542
 4271WAT     H214916   8.193   9.346   5.489
 4272WAT      O14917   8.757   9.355   5.497
 4272WAT     H114918   8.688   9.289   5.490
 4272WAT     H214919   8.829   9.311   5.541
 4273WAT      O14920   8.820   9.015   4.102
 4273WAT     H114921   8.848   8.931   4.138
 4273WAT     H214922   8.742   9.038   4.154
 4274WAT      O14923   7.952   9.244   3.848
 4274WAT     H114924   7.982   9.244   3.758
 4274WAT     H214925   8.025   9.209   3.898
 4275WAT      O14926   8.273   9.138   3.947
 4275WAT     H114927   8.239   9.070   3.889
 4275WAT     H214928   8.294   9.092   4.028
 4276WAT      O14929   9.257   9.939   4.164
 4276WAT     H114930   9.334   9.996   4.174
 4276WAT     H214931   9.259   9.882   4.241
 4277WAT      O14932   7.607   9.791   4.587
 4277WAT     H114933   7.542   9.764   4.522
 4277WAT     H214934   7.691   9.780   4.542
 4278WAT      O14935   9.263   9.968   3.879
 4278WAT     H114936   9.290  10.059   3.866
 4278WAT     H214937   9.244   9.962   3.973
 4279WAT      O14938   8.902   9.270   4.009
 4279WAT     H114939   8.944   9.252   3.925
 4279WAT     H214940   8.872   9.185   4.040
 4280WAT      O14941   9.252   9.762   4.379
 4280WAT     H114942   9.215   9.685   4.335
 4280WAT     H214943   9.179   9.800   4.427
 4281WAT      O14944   7.711   9.830   5.041
 4281WAT     H114945   7.748   9.821   5.129
 4281WAT     H214946   7.654   9.753   5.031
 4282WAT      O14947   9.191   9.676   5.342
 4282WAT     H114948   9.168   9.653   5.252
 4282WAT     H214949   9.217   9.768   5.337
 4283WAT      O14950   7.666   9.521   5.431
 4283WAT     H114951   7.577   9.517   5.465
 4283WAT     H214952   7.720   9.540   5.508
 4284WAT      O14953   9.035   9.199   5.620
 4284WAT     H114954   9.123   9.200   5.658
 4284WAT     H214955   9.036   9.125   5.559
 4285WAT      O14956   7.529   9.512   4.181
 4285WAT     H114957   7.438   9.538   4.163
 4285WAT     H214958   7.577   9.539   4.103
 4286WAT      O14959   9.180   9.584   4.709
 4286WAT     H114960   9.232   9.535   4.646
 4286WAT     H214961   9.238   9.598   4.783
 4287WAT      O14962   9.198   9.593   5.061
 4287WAT     H114963   9.103   9.589   5.072
 4287WAT     H214964   9.216   9.684   5.037
 4288WAT      O14965   7.783   9.418   3.972
 4288WAT     H114966   7.854   9.375   3.923
 4288WAT     H214967   7.712   9.424   3.909
 4289WAT      O14968   7.748   9.023   3.876
 4289WAT     H114969   7.820   9.077   3.908
 4289WAT     H214970   7.775   8.996   3.788
 4290WAT      O14971   9.129   9.510   4.303
 4290WAT     H114972   9.178   9.487   4.381
 4290WAT     H214973   9.109   9.426   4.261
 4291WAT      O14974   7.717   8.948   4.866
 4291WAT     H114975   7.782   8.893   4.822
 4291WAT     H214976   7.759   8.974   4.948
 4292WAT      O14977   9.272   9.374   4.556
 4292WAT     H114978   9.261   9.358   4.650
 4292WAT     H214979   9.348   9.321   4.532
 4293WAT      O14980   9.106   8.967   5.202
 4293WAT     H114981   9.170   9.029   5.238
 4293WAT     H214982   9.121   8.971   5.107
 4294WAT      O14983   9.361   9.157   3.880
 4294WAT     H114984   9.453   9.143   3.859
 4294WAT     H214985   9.358   9.165   3.975
 4295WAT      O14986   9.368   9.234   4.143
 4295WAT     H114987   9.288   9.227   4.195
 4295WAT     H214988   9.388   9.327   4.141
 4296WAT      O14989   7.692   8.964   5.140
 4296WAT     H114990   7.657   9.009   5.217
 4296WAT     H214991   7.659   8.874   5.149
 4297WAT      O14992   8.443   9.083   5.493
 4297WAT     H114993   8.437   9.142   5.567
 4297WAT     H214994   8.537   9.072   5.478
 4298WAT      O14995   8.707   9.048   5.456
 4298WAT     H114996   8.768   9.080   5.390
 4298WAT     H214997   8.762   9.000   5.518
 4299WAT      O14998   7.759   8.916   5.468
 4299WAT     H114999   7.814   8.898   5.391
 4299WAT     H215000   7.766   8.837   5.521
 4300WAT      O15001   8.781   8.905   5.089
 4300WAT     H115002   8.694   8.938   5.069
 4300WAT     H215003   8.770   8.858   5.172
 4301WAT      O15004   8.872   9.125   5.228
 4301WAT     H115005   8.839   9.044   5.190
 4301WAT     H215006   8.967   9.121   5.215
 4302WAT      O15007   8.556   8.996   4.983
 4302WAT     H115008   8.478   9.044   5.011
 4302WAT     H215009   8.527   8.906   4.972
 4303WAT      O15010   9.011   9.067   4.788
 4303WAT     H115011   9.055   9.061   4.703
 4303WAT     H215012   8.984   9.158   4.795
 4304WAT      O15013   9.198   9.030   4.589
 4304WAT     H115014   9.191   8.935   4.574
 4304WAT     H215015   9.275   9.041   4.643
 4305WAT      O15016   7.690   9.027   4.235
 4305WAT     H115017   7.766   9.038   4.178
 4305WAT     H215018   7.644   9.111   4.231
 4306WAT      O15019   8.344   9.238   4.534
 4306WAT     H115020   8.263   9.201   4.500
 4306WAT     H215021   8.395   9.163   4.564
 4307WAT      O15022   8.795   8.905   4.658
 4307WAT     H115023   8.855   8.962   4.706
 4307WAT     H215024   8.721   8.961   4.636
 4308WAT      O15025   9.109   8.945   4.185
 4308WAT     H115026   9.129   9.035   4.212
 4308WAT     H215027   9.030   8.922   4.235
 4309WAT      O15028   7.928   9.080   4.089
 4309WAT     H115029   7.980   9.001   4.076
 4309WAT     H215030   7.991   9.147   4.113
 4310WAT      O15031   8.147   9.053   4.395
 4310WAT     H115032   8.084   8.983   4.411
 4310WAT     H215033   8.093   9.129   4.373
 4311WAT      O15034   8.159   8.981   5.638
 4311WAT     H115035   8.131   9.032   5.562
 4311WAT     H215036   8.198   8.901   5.602
 4312WAT      O15037   8.820   8.923   5.696
 4312WAT     H115038   8.808   8.955   5.786
 4312WAT     H215039   8.901   8.963   5.666
 4313WAT      O15040   8.710   9.725   2.732
 4313WAT     H115041   8.702   9.633   2.705
 4313WAT     H215042   8.669   9.774   2.662
 4314WAT      O15043   8.523   9.902   2.920
 4314WAT     H115044   8.446   9.854   2.949
 4314WAT     H215045   8.589   9.834   2.903
 4315WAT      O15046   7.925   9.934   3.008
 4315WAT     H115047   7.842   9.908   3.048
 4315WAT     H215048   7.986   9.941   3.082
 4316WAT      O15049   7.766   9.430   2.387
 4316WAT     H115050   7.677   9.464   2.376
 4316WAT     H215051   7.794   9.410   2.297
 4317WAT      O15052   7.562   9.690   2.975
 4317WAT     H115053   7.619   9.613   2.975
 4317WAT     H215054   7.562   9.720   2.884
 4318WAT      O15055   7.687   9.231   3.154
 4318WAT     H115056   7.669   9.141   3.182
 4318WAT     H215057   7.646   9.285   3.221
 4319WAT      O15058   8.571   9.451   2.944
 4319WAT     H115059   8.608   9.363   2.933
 4319WAT     H215060   8.561   9.484   2.855
 4320WAT      O15061   7.984   9.288   2.490
 4320WAT     H115062   7.994   9.378   2.521
 4320WAT     H215063   7.893   9.283   2.461
 4321WAT      O15064   8.949   9.200   2.637
 4321WAT     H115065   9.031   9.151   2.641
 4321WAT     H215066   8.952   9.259   2.712
 4322WAT      O15067   7.748   9.480   3.015
 4322WAT     H115068   7.817   9.507   3.076
 4322WAT     H215069   7.717   9.396   3.048
 4323WAT      O15070   8.168   9.585   2.923
 4323WAT     H115071   8.218   9.635   2.987
 4323WAT     H215072   8.221   9.507   2.906
 4324WAT      O15073   9.378   9.402   3.294
 4324WAT     H115074   9.307   9.441   3.242
 4324WAT     H215075   9.404   9.471   3.354
 4325WAT      O15076   7.996   9.049   3.350
 4325WAT     H115077   7.996   9.101   3.269
 4325WAT     H215078   7.913   9.001   3.348
 4326WAT      O15079   8.121  10.013   3.168
 4326WAT     H115080   8.088  10.075   3.232
 4326WAT     H215081   8.139  10.065   3.090
 4327WAT      O15082   8.972   9.394   2.914
 4327WAT     H115083   8.902   9.423   2.972
 4327WAT     H215084   9.009   9.475   2.878
 4328WAT      O15085   7.964   9.220   3.151
 4328WAT     H115086   7.998   9.304   3.121
 4328WAT     H215087   7.870   9.235   3.162
 4329WAT      O15088   9.279   9.339   2.953
 4329WAT     H115089   9.185   9.342   2.967
 4329WAT     H215090   9.312   9.420   2.992
 4330WAT      O15091   8.332   8.969   2.783
 4330WAT     H115092   8.363   8.913   2.711
 4330WAT     H215093   8.239   8.982   2.765
 4331WAT      O15094   8.827  10.031   3.145
 4331WAT     H115095   8.869  10.009   3.061
 4331WAT     H215096   8.900  10.056   3.202
 4332WAT      O15097   8.571   9.775   2.457
 4332WAT     H115098   8.479   9.769   2.480
 4332WAT     H215099   8.587   9.869   2.445
 4333WAT      O15100   8.570   9.402   2.156
 4333WAT     H115101   8.476   9.419   2.165
 4333WAT     H215102   8.602   9.474   2.102
 4334WAT      O15103   9.222   9.871   3.154
 4334WAT     H115104   9.139   9.878   3.107
 4334WAT     H215105   9.282   9.929   3.107
 4335WAT      O15106   8.974   9.931   2.507
 4335WAT     H115107   8.912   9.898   2.442
 4335WAT     H215108   8.973   9.867   2.578
 4336WAT      O15109   8.919   9.549   3.249
 4336WAT     H115110   8.877   9.632   3.274
 4336WAT     H215111   8.845   9.491   3.229
 4337WAT      O15112   8.132   9.828   2.735
 4337WAT     H115113   8.091   9.757   2.685
 4337WAT     H215114   8.140   9.793   2.824
 4338WAT      O15115   8.003   9.505   3.113
 4338WAT     H115116   8.058   9.516   3.035
 4338WAT     H215117   8.055   9.543   3.184
 4339WAT      O15118   8.792   9.855   2.208
 4339WAT     H115119   8.836   9.772   2.193
 4339WAT     H215120   8.863   9.919   2.216
 4340WAT      O15121   7.971   9.857   3.474
 4340WAT     H115122   7.957   9.945   3.511
 4340WAT     H215123   7.882   9.823   3.459
 4341WAT      O15124   9.150   8.981   2.039
 4341WAT     H115125   9.119   8.990   2.129
 4341WAT     H215126   9.226   9.039   2.034
 4342WAT      O15127   7.802   9.717   2.485
 4342WAT     H115128   7.790   9.790   2.424
 4342WAT     H215129   7.771   9.640   2.437
 4343WAT      O15130   7.566  10.034   3.066
 4343WAT     H115131   7.574  10.048   2.971
 4343WAT     H215132   7.627   9.964   3.085
 4344WAT      O15133   9.271   9.454   3.637
 4344WAT     H115134   9.210   9.505   3.584
 4344WAT     H215135   9.239   9.364   3.631
 4345WAT      O15136   8.049   9.052   2.823
 4345WAT     H115137   8.004   9.130   2.790
 4345WAT     H215138   8.104   9.084   2.894
 4346WAT      O15139   8.477   9.338   3.383
 4346WAT     H115140   8.431   9.359   3.465
 4346WAT     H215141   8.437   9.257   3.353
 4347WAT      O15142   8.977   9.460   3.496
 4347WAT     H115143   8.892   9.431   3.529
 4347WAT     H215144   8.961   9.485   3.405
 4348WAT      O15145   8.687   9.610   3.706
 4348WAT     H115146   8.719   9.527   3.672
 4348WAT     H215147   8.766   9.663   3.721
 4349WAT      O15148   8.360   9.014   2.311
 4349WAT     H115149   8.298   9.013   2.384
 4349WAT     H215150   8.351   8.927   2.272
 4350WAT      O15151   8.252   9.106   3.009
 4350WAT     H115152   8.282   9.197   3.001
 4350WAT     H215153   8.307   9.057   2.948
 4351WAT      O15154   8.028   9.564   2.596
 4351WAT     H115155   8.005   9.542   2.686
 4351WAT     H215156   7.950   9.607   2.561
 4352WAT      O15157   8.751   9.565   2.456
 4352WAT     H115158   8.691   9.637   2.437
 4352WAT     H215159   8.805   9.558   2.378
 4353WAT      O15160   8.272   9.654   3.663
 4353WAT     H115161   8.262   9.560   3.648
 4353WAT     H215162   8.356   9.676   3.623
 4354WAT      O15163   8.611   9.428   2.659
 4354WAT     H115164   8.651   9.460   2.578
 4354WAT     H215165   8.647   9.340   2.670
 4355WAT      O15166   7.785   9.295   3.478
 4355WAT     H115167   7.745   9.380   3.499
 4355WAT     H215168   7.716   9.231   3.497
 4356WAT      O15169   8.442   9.303   3.785
 4356WAT     H115170   8.373   9.284   3.848
 4356WAT     H215171   8.517   9.332   3.838
 4357WAT      O15172   7.515   9.087   2.881
 4357WAT     H115173   7.486   9.144   2.952
 4357WAT     H215174   7.589   9.039   2.917
 4358WAT      O15175   7.534   9.481   2.002
 4358WAT     H115176   7.525   9.576   2.016
 4358WAT     H215177   7.498   9.467   1.914
 4359WAT      O15178   8.670   9.687   3.068
 4359WAT     H115179   8.597   9.738   3.103
 4359WAT     H215180   8.630   9.606   3.038
 4360WAT      O15181   8.314   9.355   2.909
 4360WAT     H115182   8.314   9.311   2.824
 4360WAT     H215183   8.403   9.387   2.920
 4361WAT      O15184   7.899   9.343   2.805
 4361WAT     H115185   7.865   9.391   2.881
 4361WAT     H215186   7.822   9.298   2.769
 4362WAT      O15187   8.320   9.455   2.208
 4362WAT     H115188   8.332   9.451   2.303
 4362WAT     H215189   8.281   9.541   2.192
 4363WAT      O15190   8.716   9.233   3.010
 4363WAT     H115191   8.718   9.278   3.094
 4363WAT     H215192   8.691   9.143   3.031
 4364WAT      O15193   8.221   9.686   2.148
 4364WAT     H115194   8.164   9.641   2.085
 4364WAT     H215195   8.292   9.722   2.094
 4365WAT      O15196   9.059   8.974   3.593
 4365WAT     H115197   9.091   8.901   3.646
 4365WAT     H215198   9.062   8.942   3.503
 4366WAT      O15199   8.344   9.761   3.084
 4366WAT     H115200   8.380   9.713   3.158
 4366WAT     H215201   8.325   9.848   3.118
 4367WAT      O15202   7.630   9.235   2.697
 4367WAT     H115203   7.602   9.199   2.780
 4367WAT     H215204   7.624   9.162   2.635
 4368WAT      O15205   8.123   9.665   3.315
 4368WAT     H115206   8.092   9.753   3.338
 4368WAT     H215207   8.218   9.671   3.319
 4369WAT      O15208   7.976  10.086   2.375
 4369WAT     H115209   7.898  10.032   2.359
 4369WAT     H215210   8.048  10.034   2.341
 4370WAT      O15211   9.051   9.985   2.954
 4370WAT     H115212   9.123  10.035   2.915
 4370WAT     H215213   9.031   9.917   2.890
 4371WAT      O15214   8.597   9.125   2.369
 4371WAT     H115215   8.516   9.075   2.361
 4371WAT     H215216   8.578   9.209   2.327
 4372WAT      O15217   8.590   9.992   3.543
 4372WAT     H115218   8.583   9.900   3.518
 4372WAT     H215219   8.527  10.002   3.614
 4373WAT      O15220   8.869   9.562   2.198
 4373WAT     H115221   8.958   9.593   2.181
 4373WAT     H215222   8.866   9.475   2.159
 4374WAT      O15223   7.980  10.052   2.739
 4374WAT     H115224   8.032   9.972   2.733
 4374WAT     H215225   7.935  10.046   2.823
 4375WAT      O15226   7.728   9.749   3.430
 4375WAT     H115227   7.692   9.816   3.489
 4375WAT     H215228   7.699   9.666   3.467
 4376WAT      O15229   8.048   9.795   3.719
 4376WAT     H115230   8.018   9.809   3.629
 4376WAT     H215231   8.126   9.739   3.709
 4377WAT      O15232   9.096   9.693   2.145
 4377WAT     H115233   9.088   9.736   2.060
 4377WAT     H215234   9.168   9.739   2.188
 4378WAT      O15235   9.204   9.939   3.453
 4378WAT     H115236   9.131   9.998   3.433
 4378WAT     H215237   9.257   9.938   3.373
 4379WAT      O15238   7.579   9.749   2.092
 4379WAT     H115239   7.666   9.777   2.121
 4379WAT     H215240   7.530   9.830   2.081
 4380WAT      O15241   8.296   9.888   2.505
 4380WAT     H115242   8.341   9.969   2.527
 4380WAT     H215243   8.261   9.856   2.588
 4381WAT      O15244   7.886   8.922   2.552
 4381WAT     H115245   7.873   8.921   2.647
 4381WAT     H215246   7.804   8.956   2.517
 4382WAT      O15247   7.586   9.098   3.498
 4382WAT     H115248   7.514   9.118   3.558
 4382WAT     H215249   7.628   9.020   3.535
 4383WAT      O15250   7.778   9.931   2.305
 4383WAT     H115251   7.717  10.005   2.306
 4383WAT     H215252   7.825   9.940   2.223
 4384WAT      O15253   8.735   9.347   3.273
 4384WAT     H115254   8.772   9.265   3.306
 4384WAT     H215255   8.649   9.353   3.314
 4385WAT      O15256   9.072   9.243   2.354
 4385WAT     H115257   9.009   9.253   2.282
 4385WAT     H215258   9.022   9.265   2.433
 4386WAT      O15259   8.269   9.471   2.495
 4386WAT     H115260   8.198   9.517   2.539
 4386WAT     H215261   8.297   9.405   2.559
 4387WAT      O15262   8.431   9.613   3.295
 4387WAT     H115263   8.481   9.660   3.362
 4387WAT     H215264   8.445   9.520   3.316
 4388WAT      O15265   8.672   9.143   2.639
 4388WAT     H115266   8.660   9.145   2.544
 4388WAT     H215267   8.767   9.148   2.651
 4389WAT      O15268   8.089   9.301   2.233
 4389WAT     H115269   8.174   9.345   2.226
 4389WAT     H215270   8.052   9.333   2.316
 4390WAT      O15271   9.152   9.234   3.380
 4390WAT     H115272   9.102   9.308   3.413
 4390WAT     H215273   9.233   9.273   3.348
 4391WAT      O15274   8.981   9.759   2.724
 4391WAT     H115275   8.887   9.760   2.742
 4391WAT     H215276   9.013   9.680   2.769
 4392WAT      O15277   7.979   9.927   2.080
 4392WAT     H115278   8.056   9.916   2.136
 4392WAT     H215279   7.987   9.857   2.015
 4393WAT      O15280   7.848   9.670   2.149
 4393WAT     H115281   7.856   9.575   2.160
 4393WAT     H215282   7.938   9.703   2.159
 4394WAT      O15283   7.601   9.852   3.672
 4394WAT     H115284   7.652   9.794   3.729
 4394WAT     H215285   7.527   9.881   3.726
 4395WAT      O15286   8.306   9.993   3.625
 4395WAT     H115287   8.230  10.050   3.617
 4395WAT     H215288   8.325   9.964   3.536
 4396WAT      O15289   8.615  10.031   2.088
 4396WAT     H115290   8.560  10.075   2.152
 4396WAT     H215291   8.678   9.980   2.140
 4397WAT      O15292   7.804   9.666   3.762
 4397WAT     H115293   7.808   9.637   3.852
 4397WAT     H215294   7.890   9.707   3.746
 4398WAT      O15295   8.182   9.926   2.278
 4398WAT     H115296   8.224   9.910   2.362
 4398WAT     H215297   8.195   9.845   2.228
 4399WAT      O15298   7.998   9.524   3.558
 4399WAT     H115299   7.945   9.475   3.496
 4399WAT     H215300   8.065   9.567   3.505
 4400WAT      O15301   8.433   9.829   2.002
 4400WAT     H115302   8.485   9.757   1.966
 4400WAT     H215303   8.498   9.893   2.032
 4401WAT      O15304   8.888   9.971   3.535
 4401WAT     H115305   8.930   9.987   3.620
 4401WAT     H215306   8.795   9.984   3.551
 4402WAT      O15307   8.935   9.705   3.735
 4402WAT     H115308   8.994   9.630   3.726
 4402WAT     H215309   8.953   9.758   3.657
 4403WAT      O15310   8.047   9.221   3.566
 4403WAT     H115311   8.038   9.159   3.494
 4403WAT     H215312   7.989   9.294   3.544
 4404WAT      O15313   8.324   9.077   3.270
 4404WAT     H115314   8.279   9.079   3.185
 4404WAT     H215315   8.260   9.037   3.329
 4405WAT      O15316   8.364   9.966   3.332
 4405WAT     H115317   8.406  10.051   3.314
 4405WAT     H215318   8.272   9.980   3.309
 4406WAT      O15319   8.598   9.739   3.470
 4406WAT     H115320   8.610   9.680   3.544
 4406WAT     H215321   8.684   9.743   3.428
 4407WAT      O15322   8.832   9.795   3.328
 4407WAT     H115323   8.779   9.847   3.267
 4407WAT     H215324   8.866   9.858   3.391
 4408WAT      O15325   8.072   9.534   1.972
 4408WAT     H115326   8.052   9.447   2.008
 4408WAT     H215327   8.055   9.525   1.878
 4409WAT      O15328   8.275   9.394   3.596
 4409WAT     H115329   8.334   9.363   3.665
 4409WAT     H215330   8.193   9.346   3.611
 4410WAT      O15331   8.757   9.355   3.619
 4410WAT     H115332   8.688   9.289   3.613
 4410WAT     H215333   8.829   9.311   3.664
 4411WAT      O15334   8.820   9.015   2.225
 4411WAT     H115335   8.848   8.931   2.261
 4411WAT     H215336   8.742   9.038   2.276
 4412WAT      O15337   7.952   9.244   1.971
 4412WAT     H115338   7.982   9.244   1.880
 4412WAT     H215339   8.025   9.209   2.021
 4413WAT      O15340   8.273   9.138   2.070
 4413WAT     H115341   8.239   9.070   2.012
 4413WAT     H215342   8.294   9.092   2.151
 4414WAT      O15343   9.257   9.939   2.286
 4414WAT     H115344   9.334   9.996   2.297
 4414WAT     H215345   9.259   9.882   2.363
 4415WAT      O15346   7.607   9.791   2.709
 4415WAT     H115347   7.542   9.764   2.645
 4415WAT     H215348   7.691   9.780   2.664
 4416WAT      O15349   9.263   9.968   2.002
 4416WAT     H115350   9.290  10.059   1.989
 4416WAT     H215351   9.244   9.962   2.095
 4417WAT      O15352   8.902   9.270   2.131
 4417WAT     H115353   8.944   9.252   2.047
 4417WAT     H215354   8.872   9.185   2.162
 4418WAT      O15355   9.252   9.762   2.501
 4418WAT     H115356   9.215   9.685   2.458
 4418WAT     H215357   9.179   9.800   2.550
 4419WAT      O15358   7.711   9.830   3.163
 4419WAT     H115359   7.748   9.821   3.251
 4419WAT     H215360   7.654   9.753   3.153
 4420WAT      O15361   9.191   9.676   3.465
 4420WAT     H115362   9.168   9.653   3.374
 4420WAT     H215363   9.217   9.768   3.460
 4421WAT      O15364   7.666   9.521   3.554
 4421WAT     H115365   7.577   9.517   3.588
 4421WAT     H215366   7.720   9.540   3.630
 4422WAT      O15367   9.035   9.199   3.742
 4422WAT     H115368   9.123   9.200   3.781
 4422WAT     H215369   9.036   9.125   3.681
 4423WAT      O15370   7.529   9.512   2.303
 4423WAT     H115371   7.438   9.538   2.286
 4423WAT     H215372   7.577   9.539   2.225
 4424WAT      O15373   9.180   9.584   2.831
 4424WAT     H115374   9.232   9.535   2.768
 4424WAT     H215375   9.238   9.598   2.906
 4425WAT      O15376   9.198   9.593   3.183
 4425WAT     H115377   9.103   9.589   3.195
 4425WAT     H215378   9.216   9.684   3.160
 4426WAT      O15379   7.783   9.418   2.094
 4426WAT     H115380   7.854   9.375   2.046
 4426WAT     H215381   7.712   9.424   2.031
 4427WAT      O15382   7.748   9.023   1.998
 4427WAT     H115383   7.820   9.077   2.030
 4427WAT     H215384   7.775   8.996   1.911
 4428WAT      O15385   9.129   9.510   2.425
 4428WAT     H115386   9.178   9.487   2.504
 4428WAT     H215387   9.109   9.426   2.383
 4429WAT      O15388   7.717   8.948   2.989
 4429WAT     H115389   7.782   8.893   2.945
 4429WAT     H215390   7.759   8.974   3.071
 4430WAT      O15391   9.272   9.374   2.678
 4430WAT     H115392   9.261   9.358   2.772
 4430WAT     H215393   9.348   9.321   2.654
 4431WAT      O15394   9.106   8.967   3.324
 4431WAT     H115395   9.170   9.029   3.361
 4431WAT     H215396   9.121   8.971   3.230
 4432WAT      O15397   9.361   9.157   2.003
 4432WAT     H115398   9.453   9.143   1.982
 4432WAT     H215399   9.358   9.165   2.098
 4433WAT      O15400   9.368   9.234   2.265
 4433WAT     H115401   9.288   9.227   2.318
 4433WAT     H215402   9.388   9.327   2.264
 4434WAT      O15403   7.692   8.964   3.263
 4434WAT     H115404   7.657   9.009   3.339
 4434WAT     H215405   7.659   8.874   3.271
 4435WAT      O15406   8.443   9.083   3.615
 4435WAT     H115407   8.437   9.142   3.690
 4435WAT     H215408   8.537   9.072   3.601
 4436WAT      O15409   8.707   9.048   3.579
 4436WAT     H115410   8.768   9.080   3.513
 4436WAT     H215411   8.762   9.000   3.641
 4437WAT      O15412   7.759   8.916   3.590
 4437WAT     H115413   7.814   8.898   3.514
 4437WAT     H215414   7.766   8.837   3.644
 4438WAT      O15415   8.781   8.905   3.212
 4438WAT     H115416   8.694   8.938   3.191
 4438WAT     H215417   8.770   8.858   3.294
 4439WAT      O15418   8.872   9.125   3.350
 4439WAT     H115419   8.839   9.044   3.312
 4439WAT     H215420   8.967   9.121   3.338
 4440WAT      O15421   8.556   8.996   3.106
 4440WAT     H115422   8.478   9.044   3.134
 4440WAT     H215423   8.527   8.906   3.095
 4441WAT      O15424   9.011   9.067   2.910
 4441WAT     H115425   9.055   9.061   2.825
 4441WAT     H215426   8.984   9.158   2.917
 4442WAT      O15427   9.198   9.030   2.711
 4442WAT     H115428   9.191   8.935   2.697
 4442WAT     H215429   9.275   9.041   2.766
 4443WAT      O15430   7.690   9.027   2.358
 4443WAT     H115431   7.766   9.038   2.300
 4443WAT     H215432   7.644   9.111   2.353
 4444WAT      O15433   8.344   9.238   2.657
 4444WAT     H115434   8.263   9.201   2.623
 4444WAT     H215435   8.395   9.163   2.687
 4445WAT      O15436   8.795   8.905   2.781
 4445WAT     H115437   8.855   8.962   2.828
 4445WAT     H215438   8.721   8.961   2.758
 4446WAT      O15439   9.109   8.945   2.308
 4446WAT     H115440   9.129   9.035   2.335
 4446WAT     H215441   9.030   8.922   2.357
 4447WAT      O15442   7.928   9.080   2.212
 4447WAT     H115443   7.980   9.001   2.199
 4447WAT     H215444   7.991   9.147   2.235
 4448WAT      O15445   8.147   9.053   2.517
 4448WAT     H115446   8.084   8.983   2.534
 4448WAT     H215447   8.093   9.129   2.496
 4449WAT      O15448   8.159   8.981   3.761
 4449WAT     H115449   8.131   9.032   3.684
 4449WAT     H215450   8.198   8.901   3.724
 4450WAT      O15451   8.820   8.923   3.819
 4450WAT     H115452   8.808   8.955   3.908
 4450WAT     H215453   8.901   8.963   3.789
 4451WAT      O15454   8.710   9.725   0.855
 4451WAT     H115455   8.702   9.633   0.828
 4451WAT     H215456   8.669   9.774   0.784
 4452WAT      O15457   8.523   9.902   1.043
 4452WAT     H115458   8.446   9.854   1.072
 4452WAT     H215459   8.589   9.834   1.026
 4453WAT      O15460   7.925   9.934   1.131
 4453WAT     H115461   7.842   9.908   1.171
 4453WAT     H215462   7.986   9.941   1.204
 4454WAT      O15463   7.766   9.430   0.509
 4454WAT     H115464   7.677   9.464   0.499
 4454WAT     H215465   7.794   9.410   0.420
 4455WAT      O15466   7.562   9.690   1.098
 4455WAT     H115467   7.619   9.613   1.098
 4455WAT     H215468   7.562   9.720   1.007
 4456WAT      O15469   7.687   9.231   1.276
 4456WAT     H115470   7.669   9.141   1.304
 4456WAT     H215471   7.646   9.285   1.344
 4457WAT      O15472   8.571   9.451   1.066
 4457WAT     H115473   8.608   9.363   1.055
 4457WAT     H215474   8.561   9.484   0.977
 4458WAT      O15475   7.984   9.288   0.613
 4458WAT     H115476   7.994   9.378   0.643
 4458WAT     H215477   7.893   9.283   0.584
 4459WAT      O15478   8.949   9.200   0.760
 4459WAT     H115479   9.031   9.151   0.764
 4459WAT     H215480   8.952   9.259   0.835
 4460WAT      O15481   7.748   9.480   1.137
 4460WAT     H115482   7.817   9.507   1.199
 4460WAT     H215483   7.717   9.396   1.170
 4461WAT      O15484   8.168   9.585   1.046
 4461WAT     H115485   8.218   9.635   1.110
 4461WAT     H215486   8.221   9.507   1.028
 4462WAT      O15487   9.378   9.402   1.416
 4462WAT     H115488   9.307   9.441   1.364
 4462WAT     H215489   9.404   9.471   1.476
 4463WAT      O15490   7.996   9.049   1.472
 4463WAT     H115491   7.996   9.101   1.392
 4463WAT     H215492   7.913   9.001   1.470
 4464WAT      O15493   8.121  10.013   1.290
 4464WAT     H115494   8.088  10.075   1.354
 4464WAT     H215495   8.139  10.065   1.212
 4465WAT      O15496   8.972   9.394   1.037
 4465WAT     H115497   8.902   9.423   1.095
 4465WAT     H215498   9.009   9.475   1.001
 4466WAT      O15499   7.964   9.220   1.273
 4466WAT     H115500   7.998   9.304   1.244
 4466WAT     H215501   7.870   9.235   1.285
 4467WAT      O15502   9.279   9.339   1.076
 4467WAT     H115503   9.185   9.342   1.089
 4467WAT     H215504   9.312   9.420   1.115
 4468WAT      O15505   8.332   8.969   0.906
 4468WAT     H115506   8.363   8.913   0.834
 4468WAT     H215507   8.239   8.982   0.887
 4469WAT      O15508   8.827  10.031   1.267
 4469WAT     H115509   8.869  10.009   1.184
 4469WAT     H215510   8.900  10.056   1.325
 4470WAT      O15511   8.571   9.775   0.579
 4470WAT     H115512   8.479   9.769   0.602
 4470WAT     H215513   8.587   9.869   0.568
 4471WAT      O15514   8.570   9.402   0.279
 4471WAT     H115515   8.476   9.419   0.287
 4471WAT     H215516   8.602   9.474   0.224
 4472WAT      O15517   9.222   9.871   1.277
 4472WAT     H115518   9.139   9.878   1.229
 4472WAT     H215519   9.282   9.929   1.230
 4473WAT      O15520   8.974   9.931   0.630
 4473WAT     H115521   8.912   9.898   0.565
 4473WAT     H215522   8.973   9.867   0.700
 4474WAT      O15523   8.919   9.549   1.371
 4474WAT     H115524   8.877   9.632   1.397
 4474WAT     H215525   8.845   9.491   1.352
 4475WAT      O15526   8.132   9.828   0.857
 4475WAT     H115527   8.091   9.757   0.808
 4475WAT     H215528   8.140   9.793   0.946
 4476WAT      O15529   8.003   9.505   1.235
 4476WAT     H115530   8.058   9.516   1.158
 4476WAT     H215531   8.055   9.543   1.307
 4477WAT      O15532   8.792   9.855   0.330
 4477WAT     H115533   8.836   9.772   0.316
 4477WAT     H215534   8.863   9.919   0.339
 4478WAT      O15535   7.971   9.857   1.596
 4478WAT     H115536   7.957   9.945   1.633
 4478WAT     H215537   7.882   9.823   1.582
 4479WAT      O15538   7.802   9.717   0.607
 4479WAT     H115539   7.790   9.790   0.546
 4479WAT     H215540   7.771   9.640   0.560
 4480WAT      O15541   7.566  10.034   1.188
 4480WAT     H115542   7.574  10.048   1.094
 4480WAT     H215543   7.627   9.964   1.207
 4481WAT      O15544   9.271   9.454   1.759
 4481WAT     H115545   9.210   9.505   1.707
 4481WAT     H215546   9.239   9.364   1.754
 4482WAT      O15547   8.049   9.052   0.946
 4482WAT     H115548   8.004   9.130   0.913
 4482WAT     H215549   8.104   9.084   1.016
 4483WAT      O15550   8.477   9.338   1.506
 4483WAT     H115551   8.431   9.359   1.587
 4483WAT     H215552   8.437   9.257   1.476
 4484WAT      O15553   8.977   9.460   1.619
 4484WAT     H115554   8.892   9.431   1.651
 4484WAT     H215555   8.961   9.485   1.528
 4485WAT      O15556   8.687   9.610   1.829
 4485WAT     H115557   8.719   9.527   1.795
 4485WAT     H215558   8.766   9.663   1.844
 4486WAT      O15559   8.360   9.014   0.434
 4486WAT     H115560   8.298   9.013   0.506
 4486WAT     H215561   8.351   8.927   0.394
 4487WAT      O15562   8.252   9.106   1.132
 4487WAT     H115563   8.282   9.197   1.124
 4487WAT     H215564   8.307   9.057   1.070
 4488WAT      O15565   8.028   9.564   0.719
 4488WAT     H115566   8.005   9.542   0.809
 4488WAT     H215567   7.950   9.607   0.684
 4489WAT      O15568   8.751   9.565   0.578
 4489WAT     H115569   8.691   9.637   0.560
 4489WAT     H215570   8.805   9.558   0.500
 4490WAT      O15571   8.272   9.654   1.785
 4490WAT     H115572   8.262   9.560   1.770
 4490WAT     H215573   8.356   9.676   1.746
 4491WAT      O15574   8.611   9.428   0.781
 4491WAT     H115575   8.651   9.460   0.700
 4491WAT     H215576   8.647   9.340   0.793
 4492WAT      O15577   7.785   9.295   1.600
 4492WAT     H115578   7.745   9.380   1.621
 4492WAT     H215579   7.716   9.231   1.620
 4493WAT      O15580   8.442   9.303   1.907
 4493WAT     H115581   8.373   9.284   1.971
 4493WAT     H215582   8.517   9.332   1.961
 4494WAT      O15583   7.515   9.087   1.004
 4494WAT     H115584   7.486   9.144   1.075
 4494WAT     H215585   7.589   9.039   1.040
 4495WAT      O15586   8.670   9.687   1.191
 4495WAT     H115587   8.597   9.738   1.226
 4495WAT     H215588   8.630   9.606   1.161
 4496WAT      O15589   8.314   9.355   1.031
 4496WAT     H115590   8.314   9.311   0.947
 4496WAT     H215591   8.403   9.387   1.042
 4497WAT      O15592   7.899   9.343   0.927
 4497WAT     H115593   7.865   9.391   1.003
 4497WAT     H215594   7.822   9.298   0.891
 4498WAT      O15595   8.320   9.455   0.331
 4498WAT     H115596   8.332   9.451   0.425
 4498WAT     H215597   8.281   9.541   0.315
 4499WAT      O15598   8.716   9.233   1.132
 4499WAT     H115599   8.718   9.278   1.217
 4499WAT     H215600   8.691   9.143   1.154
 4500WAT      O15601   8.221   9.686   0.270
 4500WAT     H115602   8.164   9.641   0.208
 4500WAT     H215603   8.292   9.722   0.217
 4501WAT      O15604   9.059   8.974   1.716
 4501WAT     H115605   9.091   8.901   1.769
 4501WAT     H215606   9.062   8.942   1.626
 4502WAT      O15607   8.344   9.761   1.206
 4502WAT     H115608   8.380   9.713   1.281
 4502WAT     H215609   8.325   9.848   1.240
 4503WAT      O15610   7.630   9.235   0.819
 4503WAT     H115611   7.602   9.199   0.903
 4503WAT     H215612   7.624   9.162   0.758
 4504WAT      O15613   8.123   9.665   1.438
 4504WAT     H115614   8.092   9.753   1.460
 4504WAT     H215615   8.218   9.671   1.442
 4505WAT      O15616   7.976  10.086   0.498
 4505WAT     H115617   7.898  10.032   0.482
 4505WAT     H215618   8.048  10.034   0.464
 4506WAT      O15619   9.051   9.985   1.077
 4506WAT     H115620   9.123  10.035   1.038
 4506WAT     H215621   9.031   9.917   1.012
 4507WAT      O15622   8.597   9.125   0.491
 4507WAT     H115623   8.516   9.075   0.484
 4507WAT     H215624   8.578   9.209   0.450
 4508WAT      O15625   8.590   9.992   1.666
 4508WAT     H115626   8.583   9.900   1.640
 4508WAT     H215627   8.527  10.002   1.737
 4509WAT      O15628   8.869   9.562   0.321
 4509WAT     H115629   8.958   9.593   0.303
 4509WAT     H215630   8.866   9.475   0.282
 4510WAT      O15631   7.980  10.052   0.861
 4510WAT     H115632   8.032   9.972   0.856
 4510WAT     H215633   7.935  10.046   0.946
 4511WAT      O15634   7.728   9.749   1.553
 4511WAT     H115635   7.692   9.816   1.611
 4511WAT     H215636   7.699   9.666   1.590
 4512WAT      O15637   8.048   9.795   1.841
 4512WAT     H115638   8.018   9.809   1.751
 4512WAT     H215639   8.126   9.739   1.832
 4513WAT      O15640   9.096   9.693   0.268
 4513WAT     H115641   9.088   9.736   0.183
 4513WAT     H215642   9.168   9.739   0.311
 4514WAT      O15643   9.204   9.939   1.575
 4514WAT     H115644   9.131   9.998   1.556
 4514WAT     H215645   9.257   9.938   1.495
 4515WAT      O15646   7.579   9.749   0.215
 4515WAT     H115647   7.666   9.777   0.243
 4515WAT     H215648   7.530   9.830   0.204
 4516WAT      O15649   8.296   9.888   0.627
 4516WAT     H115650   8.341   9.969   0.650
 4516WAT     H215651   8.261   9.856   0.710
 4517WAT      O15652   7.886   8.922   0.674
 4517WAT     H115653   7.873   8.921   0.769
 4517WAT     H215654   7.804   8.956   0.639
 4518WAT      O15655   7.586   9.098   1.620
 4518WAT     H115656   7.514   9.118   1.681
 4518WAT     H215657   7.628   9.020   1.658
 4519WAT      O15658   7.778   9.931   0.428
 4519WAT     H115659   7.717  10.005   0.429
 4519WAT     H215660   7.825   9.940   0.345
 4520WAT      O15661   8.735   9.347   1.395
 4520WAT     H115662   8.772   9.265   1.428
 4520WAT     H215663   8.649   9.353   1.437
 4521WAT      O15664   9.072   9.243   0.476
 4521WAT     H115665   9.009   9.253   0.405
 4521WAT     H215666   9.022   9.265   0.555
 4522WAT      O15667   8.269   9.471   0.618
 4522WAT     H115668   8.198   9.517   0.662
 4522WAT     H215669   8.297   9.405   0.681
 4523WAT      O15670   8.431   9.613   1.418
 4523WAT     H115671   8.481   9.660   1.484
 4523WAT     H215672   8.445   9.520   1.439
 4524WAT      O15673   8.672   9.143   0.762
 4524WAT     H115674   8.660   9.145   0.667
 4524WAT     H215675   8.767   9.148   0.774
 4525WAT      O15676   8.089   9.301   0.355
 4525WAT     H115677   8.174   9.345   0.349
 4525WAT     H215678   8.052   9.333   0.438
 4526WAT      O15679   9.152   9.234   1.502
 4526WAT     H115680   9.102   9.308   1.536
 4526WAT     H215681   9.233   9.273   1.470
 4527WAT      O15682   8.981   9.759   0.847
 4527WAT     H115683   8.887   9.760   0.864
 4527WAT     H215684   9.013   9.680   0.891
 4528WAT      O15685   7.848   9.670   0.271
 4528WAT     H115686   7.856   9.575   0.282
 4528WAT     H215687   7.938   9.703   0.282
 4529WAT      O15688   7.601   9.852   1.795
 4529WAT     H115689   7.652   9.794   1.852
 4529WAT     H215690   7.527   9.881   1.848
 4530WAT      O15691   8.306   9.993   1.748
 4530WAT     H115692   8.230  10.050   1.740
 4530WAT     H215693   8.325   9.964   1.659
 4531WAT      O15694   8.615  10.031   0.211
 4531WAT     H115695   8.560  10.075   0.275
 4531WAT     H215696   8.678   9.980   0.263
 4532WAT      O15697   7.804   9.666   1.884
 4532WAT     H115698   7.808   9.637   1.975
 4532WAT     H215699   7.890   9.707   1.868
 4533WAT      O15700   8.182   9.926   0.400
 4533WAT     H115701   8.224   9.910   0.484
 4533WAT     H215702   8.195   9.845   0.351
 4534WAT      O15703   7.998   9.524   1.681
 4534WAT     H115704   7.945   9.475   1.618
 4534WAT     H215705   8.065   9.567   1.627
 4535WAT      O15706   8.888   9.971   1.657
 4535WAT     H115707   8.930   9.987   1.742
 4535WAT     H215708   8.795   9.984   1.674
 4536WAT      O15709   8.935   9.705   1.858
 4536WAT     H115710   8.994   9.630   1.849
 4536WAT     H215711   8.953   9.758   1.780
 4537WAT      O15712   8.047   9.221   1.689
 4537WAT     H115713   8.038   9.159   1.616
 4537WAT     H215714   7.989   9.294   1.666
 4538WAT      O15715   8.324   9.077   1.392
 4538WAT     H115716   8.279   9.079   1.308
 4538WAT     H215717   8.260   9.037   1.452
 4539WAT      O15718   8.364   9.966   1.454
 4539WAT     H115719   8.406  10.051   1.437
 4539WAT     H215720   8.272   9.980   1.431
 4540WAT      O15721   8.598   9.739   1.593
 4540WAT     H115722   8.610   9.680   1.667
 4540WAT     H215723   8.684   9.743   1.551
 4541WAT      O15724   8.832   9.795   1.450
 4541WAT     H115725   8.779   9.847   1.390
 4541WAT     H215726   8.866   9.858   1.513
 4542WAT      O15727   8.275   9.394   1.718
 4542WAT     H115728   8.334   9.363   1.787
 4542WAT     H215729   8.193   9.346   1.734
 4543WAT      O15730   8.757   9.355   1.742
 4543WAT     H115731   8.688   9.289   1.735
 4543WAT     H215732   8.829   9.311   1.786
 4544WAT      O15733   8.820   9.015   0.348
 4544WAT     H115734   8.848   8.931   0.383
 4544WAT     H215735   8.742   9.038   0.399
 4545WAT      O15736   9.257   9.939   0.409
 4545WAT     H115737   9.334   9.996   0.419
 4545WAT     H215738   9.259   9.882   0.486
 4546WAT      O15739   7.607   9.791   0.832
 4546WAT     H115740   7.542   9.764   0.767
 4546WAT     H215741   7.691   9.780   0.787
 4547WAT      O15742   8.902   9.270   0.254
 4547WAT     H115743   8.944   9.252   0.170
 4547WAT     H215744   8.872   9.185   0.285
 4548WAT      O15745   9.252   9.762   0.624
 4548WAT     H115746   9.215   9.685   0.580
 4548WAT     H215747   9.179   9.800   0.672
 4549WAT      O15748   7.711   9.830   1.286
 4549WAT     H115749   7.748   9.821   1.374
 4549WAT     H215750   7.654   9.753   1.276
 4550WAT      O15751   9.191   9.676   1.587
 4550WAT     H115752   9.168   9.653   1.497
 4550WAT     H215753   9.217   9.768   1.583
 4551WAT      O15754   7.666   9.521   1.676
 4551WAT     H115755   7.577   9.517   1.710
 4551WAT     H215756   7.720   9.540   1.753
 4552WAT      O15757   9.035   9.199   1.865
 4552WAT     H115758   9.123   9.200   1.903
 4552WAT     H215759   9.036   9.125   1.804
 4553WAT      O15760   7.529   9.512   0.426
 4553WAT     H115761   7.438   9.538   0.409
 4553WAT     H215762   7.577   9.539   0.348
 4554WAT      O15763   9.180   9.584   0.954
 4554WAT     H115764   9.232   9.535   0.891
 4554WAT     H215765   9.238   9.598   1.028
 4555WAT      O15766   9.198   9.593   1.306
 4555WAT     H115767   9.103   9.589   1.317
 4555WAT     H215768   9.216   9.684   1.282
 4556WAT      O15769   9.129   9.510   0.548
 4556WAT     H115770   9.178   9.487   0.626
 4556WAT     H215771   9.109   9.426   0.506
 4557WAT      O15772   7.717   8.948   1.111
 4557WAT     H115773   7.782   8.893   1.067
 4557WAT     H215774   7.759   8.974   1.193
 4558WAT      O15775   9.272   9.374   0.801
 4558WAT     H115776   9.261   9.358   0.895
 4558WAT     H215777   9.348   9.321   0.777
 4559WAT      O15778   9.106   8.967   1.447
 4559WAT     H115779   9.170   9.029   1.483
 4559WAT     H215780   9.121   8.971   1.352
 4560WAT      O15781   9.368   9.234   0.388
 4560WAT     H115782   9.288   9.227   0.441
 4560WAT     H215783   9.388   9.327   0.387
 4561WAT      O15784   7.692   8.964   1.385
 4561WAT     H115785   7.657   9.009   1.462
 4561WAT     H215786   7.659   8.874   1.394
 4562WAT      O15787   8.443   9.083   1.738
 4562WAT     H115788   8.437   9.142   1.813
 4562WAT     H215789   8.537   9.072   1.723
 4563WAT      O15790   8.707   9.048   1.702
 4563WAT     H115791   8.768   9.080   1.635
 4563WAT     H215792   8.762   9.000   1.764
 4564WAT      O15793   7.759   8.916   1.713
 4564WAT     H115794   7.814   8.898   1.637
 4564WAT     H215795   7.766   8.837   1.767
 4565WAT      O15796   8.781   8.905   1.334
 4565WAT     H115797   8.694   8.938   1.314
 4565WAT     H215798   8.770   8.858   1.417
 4566WAT      O15799   8.872   9.125   1.473
 4566WAT     H115800   8.839   9.044   1.435
 4566WAT     H215801   8.967   9.121   1.460
 4567WAT      O15802   8.556   8.996   1.228
 4567WAT     H115803   8.478   9.044   1.256
 4567WAT     H215804   8.527   8.906   1.217
 4568WAT      O15805   9.011   9.067   1.033
 4568WAT     H115806   9.055   9.061   0.948
 4568WAT     H215807   8.984   9.158   1.040
 4569WAT      O15808   9.198   9.030   0.834
 4569WAT     H115809   9.191   8.935   0.819
 4569WAT     H215810   9.275   9.041   0.888
 4570WAT      O15811   7.690   9.027   0.480
 4570WAT     H115812   7.766   9.038   0.423
 4570WAT     H215813   7.644   9.111   0.476
 4571WAT      O15814   8.344   9.238   0.779
 4571WAT     H115815   8.263   9.201   0.745
 4571WAT     H215816   8.395   9.163   0.810
 4572WAT      O15817   8.795   8.905   0.903
 4572WAT     H115818   8.855   8.962   0.951
 4572WAT     H215819   8.721   8.961   0.881
 4573WAT      O15820   9.109   8.945   0.431
 4573WAT     H115821   9.129   9.035   0.457
 4573WAT     H215822   9.030   8.922   0.480
 4574WAT      O15823   7.928   9.080   0.334
 4574WAT     H115824   7.980   9.001   0.321
 4574WAT     H215825   7.991   9.147   0.358
 4575WAT      O15826   8.147   9.053   0.640
 4575WAT     H115827   8.084   8.983   0.656
 4575WAT     H215828   8.093   9.129   0.618
 4576WAT      O15829   8.159   8.981   1.883
 4576WAT     H115830   8.131   9.032   1.807
 4576WAT     H215831   8.198   8.901   1.847
 4577WAT      O15832   8.820   8.923   1.941
 4577WAT     H115833   8.808   8.955   2.031
 4577WAT     H215834   8.901   8.963   1.911
 4578WAT      O15835   8.710   7.847   6.487
 4578WAT     H115836   8.702   7.756   6.460
 4578WAT     H215837   8.669   7.897   6.417
 4579WAT      O15838   8.523   8.025   6.675
 4579WAT     H115839   8.446   7.977   6.704
 4579WAT     H215840   8.589   7.957   6.658
 4580WAT      O15841   7.925   8.056   6.763
 4580WAT     H115842   7.842   8.031   6.803
 4580WAT     H215843   7.986   8.063   6.837
 4581WAT      O15844   8.925   8.466   6.553
 4581WAT     H115845   8.879   8.388   6.586
 4581WAT     H215846   9.007   8.468   6.604
 4582WAT      O15847   7.923   8.460   6.783
 4582WAT     H115848   7.953   8.371   6.765
 4582WAT     H215849   7.998   8.515   6.760
 4583WAT      O15850   7.766   7.552   6.141
 4583WAT     H115851   7.677   7.586   6.131
 4583WAT     H215852   7.794   7.532   6.052
 4584WAT      O15853   7.562   7.812   6.730
 4584WAT     H115854   7.619   7.735   6.730
 4584WAT     H215855   7.562   7.842   6.639
 4585WAT      O15856   8.548   8.694   6.515
 4585WAT     H115857   8.486   8.740   6.458
 4585WAT     H215858   8.634   8.710   6.475
 4586WAT      O15859   8.468   8.293   6.676
 4586WAT     H115860   8.461   8.198   6.660
 4586WAT     H215861   8.544   8.302   6.733
 4587WAT      O15862   7.687   7.353   6.909
 4587WAT     H115863   7.669   7.263   6.937
 4587WAT     H215864   7.646   7.408   6.976
 4588WAT      O15865   8.571   7.573   6.699
 4588WAT     H115866   8.608   7.486   6.687
 4588WAT     H215867   8.561   7.607   6.610
 4589WAT      O15868   7.984   7.411   6.245
 4589WAT     H115869   7.994   7.501   6.276
 4589WAT     H215870   7.893   7.406   6.216
 4590WAT      O15871   8.949   7.323   6.392
 4590WAT     H115872   9.031   7.274   6.396
 4590WAT     H215873   8.952   7.382   6.467
 4591WAT      O15874   7.748   7.603   6.769
 4591WAT     H115875   7.817   7.629   6.831
 4591WAT     H215876   7.717   7.519   6.803
 4592WAT      O15877   8.168   7.707   6.678
 4592WAT     H115878   8.218   7.757   6.742
 4592WAT     H215879   8.221   7.630   6.661
 4593WAT      O15880   9.378   7.524   7.048
 4593WAT     H115881   9.307   7.563   6.997
 4593WAT     H215882   9.404   7.594   7.109
 4594WAT      O15883   7.996   7.171   7.105
 4594WAT     H115884   7.996   7.223   7.024
 4594WAT     H215885   7.913   7.124   7.102
 4595WAT      O15886   8.635   8.183   6.255
 4595WAT     H115887   8.573   8.229   6.198
 4595WAT     H215888   8.686   8.252   6.296
 4596WAT      O15889   8.121   8.135   6.922
 4596WAT     H115890   8.088   8.198   6.987
 4596WAT     H215891   8.139   8.188   6.845
 4597WAT      O15892   8.972   7.517   6.669
 4597WAT     H115893   8.902   7.546   6.727
 4597WAT     H215894   9.009   7.598   6.633
 4598WAT      O15895   7.964   7.342   6.905
 4598WAT     H115896   7.998   7.427   6.876
 4598WAT     H215897   7.870   7.357   6.917
 4599WAT      O15898   8.042   8.332   7.104
 4599WAT     H115899   8.104   8.400   7.076
 4599WAT     H215900   7.956   8.373   7.095
 4600WAT      O15901   7.572   8.251   5.992
 4600WAT     H115902   7.534   8.300   5.919
 4600WAT     H215903   7.597   8.318   6.055
 4601WAT      O15904   9.134   8.479   6.896
 4601WAT     H115905   9.066   8.546   6.895
 4601WAT     H215906   9.188   8.498   6.819
 4602WAT      O15907   9.279   7.461   6.708
 4602WAT     H115908   9.185   7.465   6.721
 4602WAT     H215909   9.312   7.543   6.747
 4603WAT      O15910   8.332   7.091   6.538
 4603WAT     H115911   8.363   7.036   6.466
 4603WAT     H215912   8.239   7.105   6.520
 4604WAT      O15913   8.888   8.663   6.767
 4604WAT     H115914   8.889   8.623   6.680
 4604WAT     H215915   8.832   8.740   6.757
 4605WAT      O15916   9.017   8.335   6.276
 4605WAT     H115917   9.006   8.241   6.288
 4605WAT     H215918   9.017   8.371   6.365
 4606WAT      O15919   8.827   8.153   6.900
 4606WAT     H115920   8.869   8.132   6.816
 4606WAT     H215921   8.900   8.179   6.957
 4607WAT      O15922   8.571   7.898   6.212
 4607WAT     H115923   8.479   7.891   6.234
 4607WAT     H215924   8.587   7.992   6.200
 4608WAT      O15925   8.570   7.525   5.911
 4608WAT     H115926   8.476   7.541   5.920
 4608WAT     H215927   8.602   7.597   5.857
 4609WAT      O15928   9.222   7.993   6.909
 4609WAT     H115929   9.139   8.000   6.861
 4609WAT     H215930   9.282   8.052   6.862
 4610WAT      O15931   8.974   8.054   6.262
 4610WAT     H115932   8.912   8.020   6.197
 4610WAT     H215933   8.973   7.990   6.333
 4611WAT      O15934   8.919   7.672   7.004
 4611WAT     H115935   8.877   7.754   7.029
 4611WAT     H215936   8.845   7.613   6.984
 4612WAT      O15937   8.132   7.950   6.490
 4612WAT     H115938   8.091   7.879   6.440
 4612WAT     H215939   8.140   7.916   6.579
 4613WAT      O15940   8.179   8.319   6.706
 4613WAT     H115941   8.149   8.259   6.638
 4613WAT     H215942   8.274   8.323   6.695
 4614WAT      O15943   8.003   7.628   6.868
 4614WAT     H115944   8.058   7.639   6.790
 4614WAT     H215945   8.055   7.665   6.939
 4615WAT      O15946   8.988   8.676   7.072
 4615WAT     H115947   8.940   8.757   7.053
 4615WAT     H215948   8.919   8.611   7.088
 4616WAT      O15949   8.088   8.293   7.371
 4616WAT     H115950   7.998   8.315   7.396
 4616WAT     H215951   8.090   8.305   7.276
 4617WAT      O15952   8.792   7.978   5.963
 4617WAT     H115953   8.836   7.894   5.948
 4617WAT     H215954   8.863   8.041   5.971
 4618WAT      O15955   7.971   7.980   7.229
 4618WAT     H115956   7.957   8.067   7.266
 4618WAT     H215957   7.882   7.946   7.214
 4619WAT      O15958   8.603   8.472   6.359
 4619WAT     H115959   8.647   8.546   6.318
 4619WAT     H215960   8.597   8.496   6.452
 4620WAT      O15961   8.150   8.574   7.450
 4620WAT     H115962   8.148   8.615   7.363
 4620WAT     H215963   8.134   8.481   7.433
 4621WAT      O15964   9.150   7.103   5.794
 4621WAT     H115965   9.119   7.113   5.884
 4621WAT     H215966   9.226   7.161   5.789
 4622WAT      O15967   7.802   7.840   6.240
 4622WAT     H115968   7.790   7.913   6.179
 4622WAT     H215969   7.771   7.763   6.192
 4623WAT      O15970   7.566   8.157   6.820
 4623WAT     H115971   7.574   8.171   6.726
 4623WAT     H215972   7.627   8.086   6.840
 4624WAT      O15973   7.690   8.327   6.462
 4624WAT     H115974   7.650   8.341   6.376
 4624WAT     H215975   7.779   8.299   6.441
 4625WAT      O15976   9.286   8.372   7.295
 4625WAT     H115977   9.298   8.348   7.203
 4625WAT     H215978   9.290   8.289   7.342
 4626WAT      O15979   8.672   8.742   7.152
 4626WAT     H115980   8.723   8.733   7.232
 4626WAT     H215981   8.588   8.777   7.181
 4627WAT      O15982   8.870   8.771   6.095
 4627WAT     H115983   8.854   8.742   6.185
 4627WAT     H215984   8.853   8.693   6.041
 4628WAT      O15985   8.117   8.748   6.273
 4628WAT     H115986   8.100   8.657   6.251
 4628WAT     H215987   8.032   8.784   6.297
 4629WAT      O15988   8.840   8.521   5.951
 4629WAT     H115989   8.770   8.521   5.885
 4629WAT     H215990   8.914   8.479   5.908
 4630WAT      O15991   8.796   8.684   6.358
 4630WAT     H115992   8.842   8.606   6.390
 4630WAT     H215993   8.830   8.755   6.413
 4631WAT      O15994   9.271   7.577   7.392
 4631WAT     H115995   9.210   7.628   7.339
 4631WAT     H215996   9.239   7.487   7.386
 4632WAT      O15997   7.571   8.261   7.074
 4632WAT     H115998   7.588   8.214   6.993
 4632WAT     H215999   7.618   8.210   7.141
 4633WAT      O16000   8.049   7.174   6.578
 4633WAT     H116001   8.004   7.252   6.545
 4633WAT     H216002   8.104   7.207   6.649
 4634WAT      O16003   8.477   7.461   7.138
 4634WAT     H116004   8.431   7.482   7.220
 4634WAT     H216005   8.437   7.380   7.108
 4635WAT      O16006   8.977   7.583   7.251
 4635WAT     H116007   8.892   7.553   7.283
 4635WAT     H216008   8.961   7.607   7.160
 4636WAT      O16009   8.687   7.733   7.461
 4636WAT     H116010   8.719   7.650   7.427
 4636WAT     H216011   8.766   7.785   7.476
 4637WAT      O16012   8.360   7.136   6.066
 4637WAT     H116013   8.298   7.136   6.139
 4637WAT     H216014   8.351   7.050   6.026
 4638WAT      O16015   8.252   7.229   6.764
 4638WAT     H116016   8.282   7.319   6.756
 4638WAT     H216017   8.307   7.180   6.702
 4639WAT      O16018   8.028   7.687   6.351
 4639WAT     H116019   8.005   7.665   6.441
 4639WAT     H216020   7.950   7.730   6.316
 4640WAT      O16021   8.751   7.687   6.211
 4640WAT     H116022   8.691   7.760   6.192
 4640WAT     H216023   8.805   7.681   6.132
 4641WAT      O16024   8.272   7.776   7.417
 4641WAT     H116025   8.262   7.682   7.402
 4641WAT     H216026   8.356   7.799   7.378
 4642WAT      O16027   8.611   7.551   6.414
 4642WAT     H116028   8.651   7.583   6.332
 4642WAT     H216029   8.647   7.463   6.425
 4643WAT      O16030   7.785   7.418   7.233
 4643WAT     H116031   7.745   7.502   7.253
 4643WAT     H216032   7.716   7.354   7.252
 4644WAT      O16033   7.515   7.210   6.636
 4644WAT     H116034   7.486   7.267   6.707
 4644WAT     H216035   7.589   7.162   6.672
 4645WAT      O16036   7.534   7.604   5.757
 4645WAT     H116037   7.525   7.698   5.771
 4645WAT     H216038   7.498   7.590   5.669
 4646WAT      O16039   8.670   7.810   6.823
 4646WAT     H116040   8.597   7.861   6.858
 4646WAT     H216041   8.630   7.728   6.793
 4647WAT      O16042   8.314   7.477   6.664
 4647WAT     H116043   8.314   7.433   6.579
 4647WAT     H216044   8.403   7.510   6.675
 4648WAT      O16045   7.899   7.466   6.560
 4648WAT     H116046   7.865   7.513   6.635
 4648WAT     H216047   7.822   7.420   6.524
 4649WAT      O16048   8.320   7.578   5.963
 4649WAT     H116049   8.332   7.573   6.058
 4649WAT     H216050   8.281   7.664   5.947
 4650WAT      O16051   8.716   7.355   6.764
 4650WAT     H116052   8.718   7.400   6.849
 4650WAT     H216053   8.691   7.265   6.786
 4651WAT      O16054   8.221   7.809   5.903
 4651WAT     H116055   8.164   7.764   5.840
 4651WAT     H216056   8.292   7.844   5.849
 4652WAT      O16057   9.059   7.097   7.348
 4652WAT     H116058   9.091   7.023   7.401
 4652WAT     H216059   9.062   7.065   7.258
 4653WAT      O16060   7.729   8.199   7.290
 4653WAT     H116061   7.690   8.135   7.350
 4653WAT     H216062   7.760   8.269   7.347
 4654WAT      O16063   8.344   7.883   6.838
 4654WAT     H116064   8.380   7.836   6.913
 4654WAT     H216065   8.325   7.971   6.873
 4655WAT      O16066   7.630   7.358   6.451
 4655WAT     H116067   7.602   7.321   6.535
 4655WAT     H216068   7.624   7.285   6.390
 4656WAT      O16069   8.123   7.788   7.070
 4656WAT     H116070   8.092   7.875   7.093
 4656WAT     H216071   8.218   7.794   7.074
 4657WAT      O16072   7.976   8.208   6.130
 4657WAT     H116073   7.898   8.154   6.114
 4657WAT     H216074   8.048   8.156   6.096
 4658WAT      O16075   9.051   8.108   6.709
 4658WAT     H116076   9.123   8.157   6.670
 4658WAT     H216077   9.031   8.040   6.645
 4659WAT      O16078   8.597   7.247   6.124
 4659WAT     H116079   8.516   7.197   6.116
 4659WAT     H216080   8.578   7.331   6.082
 4660WAT      O16081   8.590   8.115   7.298
 4660WAT     H116082   8.583   8.023   7.272
 4660WAT     H216083   8.527   8.125   7.369
 4661WAT      O16084   8.869   7.684   5.953
 4661WAT     H116085   8.958   7.716   5.936
 4661WAT     H216086   8.866   7.597   5.914
 4662WAT      O16087   7.980   8.175   6.494
 4662WAT     H116088   8.032   8.095   6.488
 4662WAT     H216089   7.935   8.169   6.578
 4663WAT      O16090   8.469   8.302   6.021
 4663WAT     H116091   8.503   8.376   5.971
 4663WAT     H216092   8.386   8.333   6.057
 4664WAT      O16093   7.728   7.872   7.185
 4664WAT     H116094   7.692   7.938   7.244
 4664WAT     H216095   7.699   7.788   7.222
 4665WAT      O16096   8.048   7.917   7.473
 4665WAT     H116097   8.018   7.932   7.384
 4665WAT     H216098   8.126   7.861   7.464
 4666WAT      O16099   8.583   8.397   7.273
 4666WAT     H116100   8.584   8.304   7.251
 4666WAT     H216101   8.512   8.406   7.337
 4667WAT      O16102   9.096   7.816   5.900
 4667WAT     H116103   9.088   7.859   5.815
 4667WAT     H216104   9.168   7.861   5.943
 4668WAT      O16105   9.204   8.061   7.208
 4668WAT     H116106   9.131   8.120   7.188
 4668WAT     H216107   9.257   8.060   7.128
 4669WAT      O16108   9.199   8.501   6.173
 4669WAT     H116109   9.135   8.435   6.200
 4669WAT     H216110   9.160   8.541   6.095
 4670WAT      O16111   8.757   8.234   6.557
 4670WAT     H116112   8.792   8.174   6.491
 4670WAT     H216113   8.668   8.201   6.575
 4671WAT      O16114   8.365   8.310   6.298
 4671WAT     H116115   8.434   8.364   6.336
 4671WAT     H216116   8.287   8.364   6.302
 4672WAT      O16117   7.579   7.871   5.847
 4672WAT     H116118   7.666   7.900   5.876
 4672WAT     H216119   7.530   7.953   5.836
 4673WAT      O16120   8.296   8.010   6.259
 4673WAT     H116121   8.341   8.091   6.282
 4673WAT     H216122   8.261   7.978   6.343
 4674WAT      O16123   8.526   8.561   6.982
 4674WAT     H116124   8.591   8.582   7.050
 4674WAT     H216125   8.562   8.485   6.937
 4675WAT      O16126   7.886   7.045   6.307
 4675WAT     H116127   7.873   7.044   6.402
 4675WAT     H216128   7.804   7.078   6.272
 4676WAT      O16129   8.653   8.362   6.854
 4676WAT     H116130   8.718   8.292   6.865
 4676WAT     H216131   8.706   8.440   6.836
 4677WAT      O16132   9.038   8.390   5.827
 4677WAT     H116133   9.015   8.318   5.886
 4677WAT     H216134   8.999   8.365   5.743
 4678WAT      O16135   8.831   8.442   7.174
 4678WAT     H116136   8.864   8.500   7.242
 4678WAT     H216137   8.739   8.428   7.197
 4679WAT      O16138   7.616   8.793   5.904
 4679WAT     H116139   7.652   8.853   5.839
 4679WAT     H216140   7.602   8.847   5.981
 4680WAT      O16141   7.586   7.221   7.253
 4680WAT     H116142   7.514   7.240   7.313
 4680WAT     H216143   7.628   7.143   7.290
 4681WAT      O16144   8.996   8.182   5.993
 4681WAT     H116145   8.967   8.228   6.071
 4681WAT     H216146   9.076   8.136   6.019
 4682WAT      O16147   7.615   8.619   7.351
 4682WAT     H116148   7.625   8.525   7.337
 4682WAT     H216149   7.549   8.646   7.287
 4683WAT      O16150   8.218   8.531   5.986
 4683WAT     H116151   8.217   8.604   5.924
 4683WAT     H216152   8.126   8.506   5.995
 4684WAT      O16153   7.778   8.053   6.060
 4684WAT     H116154   7.717   8.127   6.061
 4684WAT     H216155   7.825   8.062   5.978
 4685WAT      O16156   8.735   7.470   7.028
 4685WAT     H116157   8.772   7.388   7.061
 4685WAT     H216158   8.649   7.476   7.069
 4686WAT      O16159   9.072   7.365   6.109
 4686WAT     H116160   9.009   7.376   6.037
 4686WAT     H216161   9.022   7.387   6.188
 4687WAT      O16162   8.516   8.537   5.852
 4687WAT     H116163   8.527   8.517   5.759
 4687WAT     H216164   8.426   8.512   5.872
 4688WAT      O16165   8.269   7.593   6.250
 4688WAT     H116166   8.198   7.640   6.294
 4688WAT     H216167   8.297   7.527   6.314
 4689WAT      O16168   8.431   7.735   7.050
 4689WAT     H116169   8.481   7.783   7.117
 4689WAT     H216170   8.445   7.643   7.071
 4690WAT      O16171   8.672   7.266   6.394
 4690WAT     H116172   8.660   7.268   6.299
 4690WAT     H216173   8.767   7.270   6.406
 4691WAT      O16174   8.381   8.789   6.321
 4691WAT     H116175   8.406   8.785   6.229
 4691WAT     H216176   8.286   8.777   6.321
 4692WAT      O16177   8.089   7.424   5.988
 4692WAT     H116178   8.174   7.468   5.981
 4692WAT     H216179   8.052   7.455   6.070
 4693WAT      O16180   9.152   7.357   7.134
 4693WAT     H116181   9.102   7.431   7.168
 4693WAT     H216182   9.233   7.396   7.103
 4694WAT      O16183   8.981   7.881   6.479
 4694WAT     H116184   8.887   7.883   6.496
 4694WAT     H216185   9.013   7.802   6.524
 4695WAT      O16186   7.979   8.049   5.835
 4695WAT     H116187   8.056   8.038   5.891
 4695WAT     H216188   7.987   7.980   5.770
 4696WAT      O16189   7.848   7.793   5.903
 4696WAT     H116190   7.856   7.698   5.915
 4696WAT     H216191   7.938   7.826   5.914
 4697WAT      O16192   9.181   8.598   6.647
 4697WAT     H116193   9.194   8.681   6.694
 4697WAT     H216194   9.268   8.577   6.612
 4698WAT      O16195   7.929   8.808   6.614
 4698WAT     H116196   8.002   8.753   6.641
 4698WAT     H216197   7.967   8.894   6.600
 4699WAT      O16198   7.617   8.414   6.201
 4699WAT     H116199   7.524   8.438   6.200
 4699WAT     H216200   7.664   8.497   6.189
 4700WAT      O16201   8.240   8.725   5.796
 4700WAT     H116202   8.319   8.754   5.751
 4700WAT     H216203   8.188   8.682   5.728
 4701WAT      O16204   8.856   8.710   7.388
 4701WAT     H116205   8.951   8.701   7.383
 4701WAT     H216206   8.841   8.776   7.456
 4702WAT      O16207   9.145   8.648   5.938
 4702WAT     H116208   9.116   8.606   5.857
 4702WAT     H216209   9.125   8.740   5.926
 4703WAT      O16210   7.601   7.975   7.427
 4703WAT     H116211   7.652   7.917   7.484
 4703WAT     H216212   7.527   8.003   7.481
 4704WAT      O16213   8.291   8.247   5.782
 4704WAT     H116214   8.281   8.185   5.855
 4704WAT     H216215   8.275   8.195   5.704
 4705WAT      O16216   8.306   8.115   7.380
 4705WAT     H116217   8.230   8.172   7.372
 4705WAT     H216218   8.325   8.086   7.291
 4706WAT      O16219   8.615   8.153   5.843
 4706WAT     H116220   8.560   8.198   5.907
 4706WAT     H216221   8.678   8.103   5.895
 4707WAT      O16222   9.021   8.288   7.436
 4707WAT     H116223   9.095   8.322   7.386
 4707WAT     H216224   8.944   8.305   7.381
 4708WAT      O16225   8.182   8.049   6.032
 4708WAT     H116226   8.224   8.032   6.117
 4708WAT     H216227   8.195   7.968   5.983
 4709WAT      O16228   7.998   7.647   7.313
 4709WAT     H116229   7.945   7.598   7.250
 4709WAT     H216230   8.065   7.690   7.260
 4710WAT      O16231   8.433   7.951   5.757
 4710WAT     H116232   8.485   7.880   5.721
 4710WAT     H216233   8.498   8.015   5.787
 4711WAT      O16234   8.888   8.094   7.290
 4711WAT     H116235   8.930   8.109   7.375
 4711WAT     H216236   8.795   8.106   7.306
 4712WAT      O16237   8.935   7.828   7.490
 4712WAT     H116238   8.994   7.752   7.481
 4712WAT     H216239   8.953   7.881   7.412
 4713WAT      O16240   8.047   7.344   7.321
 4713WAT     H116241   8.038   7.282   7.249
 4713WAT     H216242   7.989   7.416   7.298
 4714WAT      O16243   8.324   7.199   7.024
 4714WAT     H116244   8.279   7.202   6.940
 4714WAT     H216245   8.260   7.159   7.084
 4715WAT      O16246   8.364   8.089   7.087
 4715WAT     H116247   8.406   8.173   7.069
 4715WAT     H216248   8.272   8.103   7.064
 4716WAT      O16249   8.598   7.862   7.225
 4716WAT     H116250   8.610   7.802   7.299
 4716WAT     H216251   8.684   7.866   7.183
 4717WAT      O16252   8.832   7.917   7.083
 4717WAT     H116253   8.779   7.970   7.022
 4717WAT     H216254   8.866   7.981   7.146
 4718WAT      O16255   8.072   7.656   5.727
 4718WAT     H116256   8.052   7.570   5.763
 4718WAT     H216257   8.055   7.648   5.633
 4719WAT      O16258   8.149   8.719   7.198
 4719WAT     H116259   8.096   8.792   7.166
 4719WAT     H216260   8.175   8.672   7.119
 4720WAT      O16261   8.275   7.516   7.351
 4720WAT     H116262   8.334   7.485   7.419
 4720WAT     H216263   8.193   7.469   7.366
 4721WAT      O16264   8.757   7.478   7.374
 4721WAT     H116265   8.688   7.412   7.368
 4721WAT     H216266   8.829   7.433   7.419
 4722WAT      O16267   8.820   7.137   5.980
 4722WAT     H116268   8.848   7.053   6.016
 4722WAT     H216269   8.742   7.161   6.031
 4723WAT      O16270   7.952   7.366   5.726
 4723WAT     H116271   7.982   7.367   5.635
 4723WAT     H216272   8.025   7.331   5.776
 4724WAT      O16273   8.435   8.843   7.224
 4724WAT     H116274   8.428   8.933   7.255
 4724WAT     H216275   8.345   8.811   7.221
 4725WAT      O16276   8.273   7.261   5.824
 4725WAT     H116277   8.239   7.193   5.766
 4725WAT     H216278   8.294   7.215   5.906
 4726WAT      O16279   8.490   8.759   5.986
 4726WAT     H116280   8.579   8.793   5.988
 4726WAT     H216281   8.493   8.687   5.924
 4727WAT      O16282   7.854   8.297   5.809
 4727WAT     H116283   7.898   8.351   5.875
 4727WAT     H216284   7.902   8.214   5.810
 4728WAT      O16285   7.575   8.576   6.554
 4728WAT     H116286   7.608   8.489   6.531
 4728WAT     H216287   7.618   8.596   6.637
 4729WAT      O16288   8.035   8.409   6.320
 4729WAT     H116289   8.005   8.396   6.410
 4729WAT     H216290   8.024   8.323   6.280
 4730WAT      O16291   7.624   8.662   6.828
 4730WAT     H116292   7.581   8.680   6.911
 4730WAT     H216293   7.681   8.738   6.814
 4731WAT      O16294   9.188   8.613   7.257
 4731WAT     H116295   9.128   8.618   7.183
 4731WAT     H216296   9.201   8.519   7.270
 4732WAT      O16297   9.312   8.387   5.791
 4732WAT     H116298   9.229   8.393   5.838
 4732WAT     H216299   9.330   8.476   5.760
 4733WAT      O16300   9.257   8.061   6.041
 4733WAT     H116301   9.334   8.118   6.052
 4733WAT     H216302   9.259   8.004   6.118
 4734WAT      O16303   7.607   7.914   6.464
 4734WAT     H116304   7.542   7.887   6.400
 4734WAT     H216305   7.691   7.903   6.419
 4735WAT      O16306   9.358   8.147   6.525
 4735WAT     H116307   9.395   8.068   6.485
 4735WAT     H216308   9.422   8.216   6.508
 4736WAT      O16309   9.056   8.285   7.067
 4736WAT     H116310   8.975   8.328   7.093
 4736WAT     H216311   9.097   8.346   7.005
 4737WAT      O16312   9.263   8.091   5.757
 4737WAT     H116313   9.290   8.181   5.744
 4737WAT     H216314   9.244   8.084   5.850
 4738WAT      O16315   8.902   7.393   5.886
 4738WAT     H116316   8.944   7.374   5.802
 4738WAT     H216317   8.872   7.308   5.917
 4739WAT      O16318   9.252   7.884   6.256
 4739WAT     H116319   9.215   7.807   6.213
 4739WAT     H216320   9.179   7.922   6.305
 4740WAT      O16321   7.711   7.952   6.918
 4740WAT     H116322   7.748   7.943   7.006
 4740WAT     H216323   7.654   7.876   6.908
 4741WAT      O16324   9.191   7.799   7.219
 4741WAT     H116325   9.168   7.776   7.129
 4741WAT     H216326   9.217   7.891   7.215
 4742WAT      O16327   7.666   7.643   7.309
 4742WAT     H116328   7.577   7.640   7.343
 4742WAT     H216329   7.720   7.663   7.385
 4743WAT      O16330   7.529   7.635   6.058
 4743WAT     H116331   7.438   7.661   6.041
 4743WAT     H216332   7.577   7.662   5.980
 4744WAT      O16333   9.180   7.707   6.586
 4744WAT     H116334   9.232   7.657   6.523
 4744WAT     H216335   9.238   7.720   6.661
 4745WAT      O16336   9.198   7.715   6.938
 4745WAT     H116337   9.103   7.712   6.950
 4745WAT     H216338   9.216   7.806   6.915
 4746WAT      O16339   7.783   7.540   5.849
 4746WAT     H116340   7.854   7.498   5.801
 4746WAT     H216341   7.712   7.547   5.786
 4747WAT      O16342   7.748   7.146   5.753
 4747WAT     H116343   7.820   7.200   5.785
 4747WAT     H216344   7.775   7.118   5.666
 4748WAT      O16345   9.129   7.633   6.180
 4748WAT     H116346   9.178   7.609   6.258
 4748WAT     H216347   9.109   7.549   6.138
 4749WAT      O16348   7.717   7.071   6.743
 4749WAT     H116349   7.782   7.016   6.699
 4749WAT     H216350   7.759   7.096   6.826
 4750WAT      O16351   9.272   7.496   6.433
 4750WAT     H116352   9.261   7.481   6.527
 4750WAT     H216353   9.348   7.443   6.409
 4751WAT      O16354   9.106   7.090   7.079
 4751WAT     H116355   9.170   7.151   7.116
 4751WAT     H216356   9.121   7.094   6.985
 4752WAT      O16357   9.361   7.279   5.757
 4752WAT     H116358   9.453   7.266   5.737
 4752WAT     H216359   9.358   7.287   5.853
 4753WAT      O16360   9.368   7.356   6.020
 4753WAT     H116361   9.288   7.350   6.073
 4753WAT     H216362   9.388   7.450   6.019
 4754WAT      O16363   9.062   8.760   6.419
 4754WAT     H116364   9.122   8.728   6.352
 4754WAT     H216365   9.088   8.713   6.499
 4755WAT      O16366   7.692   7.086   7.018
 4755WAT     H116367   7.657   7.132   7.094
 4755WAT     H216368   7.659   6.997   7.026
 4756WAT      O16369   8.223   8.559   6.994
 4756WAT     H116370   8.199   8.586   6.906
 4756WAT     H216371   8.317   8.576   7.000
 4757WAT      O16372   8.443   7.205   7.370
 4757WAT     H116373   8.437   7.265   7.445
 4757WAT     H216374   8.537   7.195   7.355
 4758WAT      O16375   8.707   7.171   7.334
 4758WAT     H116376   8.768   7.203   7.268
 4758WAT     H216377   8.762   7.123   7.396
 4759WAT      O16378   9.349   8.761   7.074
 4759WAT     H116379   9.299   8.801   7.003
 4759WAT     H216380   9.288   8.698   7.114
 4760WAT      O16381   7.759   7.039   7.345
 4760WAT     H116382   7.814   7.021   7.269
 4760WAT     H216383   7.766   6.960   7.399
 4761WAT      O16384   7.837   8.698   7.146
 4761WAT     H116385   7.777   8.685   7.220
 4761WAT     H216386   7.836   8.614   7.100
 4762WAT      O16387   8.781   7.027   6.967
 4762WAT     H116388   8.694   7.061   6.946
 4762WAT     H216389   8.770   6.980   7.049
 4763WAT      O16390   8.872   7.248   7.105
 4763WAT     H116391   8.839   7.167   7.067
 4763WAT     H216392   8.967   7.244   7.093
 4764WAT      O16393   9.117   8.825   6.802
 4764WAT     H116394   9.071   8.900   6.765
 4764WAT     H216395   9.054   8.753   6.796
 4765WAT      O16396   7.800   8.435   7.041
 4765WAT     H116397   7.727   8.373   7.035
 4765WAT     H216398   7.806   8.474   6.954
 4766WAT      O16399   8.160   8.656   6.720
 4766WAT     H116400   8.212   8.595   6.667
 4766WAT     H216401   8.225   8.706   6.769
 4767WAT      O16402   8.434   8.745   6.803
 4767WAT     H116403   8.463   8.720   6.715
 4767WAT     H216404   8.485   8.690   6.862
 4768WAT      O16405   8.556   7.119   6.860
 4768WAT     H116406   8.478   7.166   6.888
 4768WAT     H216407   8.527   7.029   6.850
 4769WAT      O16408   9.011   7.189   6.665
 4769WAT     H116409   9.055   7.184   6.580
 4769WAT     H216410   8.984   7.281   6.672
 4770WAT      O16411   9.198   7.152   6.466
 4770WAT     H116412   9.191   7.058   6.451
 4770WAT     H216413   9.275   7.163   6.521
 4771WAT      O16414   7.628   8.766   6.362
 4771WAT     H116415   7.611   8.703   6.432
 4771WAT     H216416   7.541   8.787   6.327
 4772WAT      O16417   7.690   7.150   6.113
 4772WAT     H116418   7.766   7.161   6.055
 4772WAT     H216419   7.644   7.233   6.108
 4773WAT      O16420   8.344   7.361   6.412
 4773WAT     H116421   8.263   7.323   6.378
 4773WAT     H216422   8.395   7.285   6.442
 4774WAT      O16423   8.795   7.027   6.535
 4774WAT     H116424   8.855   7.085   6.583
 4774WAT     H216425   8.721   7.084   6.513
 4775WAT      O16426   9.109   7.068   6.063
 4775WAT     H116427   9.129   7.157   6.090
 4775WAT     H216428   9.030   7.044   6.112
 4776WAT      O16429   7.789   8.636   6.107
 4776WAT     H116430   7.736   8.674   6.036
 4776WAT     H216431   7.781   8.698   6.179
 4777WAT      O16432   7.928   7.202   5.967
 4777WAT     H116433   7.980   7.123   5.954
 4777WAT     H216434   7.991   7.270   5.990
 4778WAT      O16435   8.147   7.176   6.272
 4778WAT     H116436   8.084   7.106   6.289
 4778WAT     H216437   8.093   7.252   6.250
 4779WAT      O16438   9.264   8.792   6.239
 4779WAT     H116439   9.282   8.723   6.175
 4779WAT     H216440   9.195   8.844   6.200
 4780WAT      O16441   8.049   8.831   5.994
 4780WAT     H116442   8.122   8.802   5.940
 4780WAT     H216443   8.075   8.807   6.083
 4781WAT      O16444   7.965   8.442   5.995
 4781WAT     H116445   7.902   8.489   6.050
 4781WAT     H216446   7.976   8.358   6.038
 4782WAT      O16447   8.710   7.847   4.610
 4782WAT     H116448   8.702   7.756   4.583
 4782WAT     H216449   8.669   7.897   4.539
 4783WAT      O16450   8.523   8.025   4.798
 4783WAT     H116451   8.446   7.977   4.827
 4783WAT     H216452   8.589   7.957   4.780
 4784WAT      O16453   7.925   8.056   4.886
 4784WAT     H116454   7.842   8.031   4.926
 4784WAT     H216455   7.986   8.063   4.959
 4785WAT      O16456   8.925   8.466   4.676
 4785WAT     H116457   8.879   8.388   4.709
 4785WAT     H216458   9.007   8.468   4.726
 4786WAT      O16459   7.923   8.460   4.905
 4786WAT     H116460   7.953   8.371   4.887
 4786WAT     H216461   7.998   8.515   4.882
 4787WAT      O16462   7.766   7.552   4.264
 4787WAT     H116463   7.677   7.586   4.254
 4787WAT     H216464   7.794   7.532   4.175
 4788WAT      O16465   7.562   7.812   4.852
 4788WAT     H116466   7.619   7.735   4.852
 4788WAT     H216467   7.562   7.842   4.762
 4789WAT      O16468   8.548   8.694   4.638
 4789WAT     H116469   8.486   8.740   4.581
 4789WAT     H216470   8.634   8.710   4.598
 4790WAT      O16471   8.468   8.293   4.799
 4790WAT     H116472   8.461   8.198   4.782
 4790WAT     H216473   8.544   8.302   4.856
 4791WAT      O16474   7.687   7.353   5.031
 4791WAT     H116475   7.669   7.263   5.059
 4791WAT     H216476   7.646   7.408   5.099
 4792WAT      O16477   8.571   7.573   4.821
 4792WAT     H116478   8.608   7.486   4.810
 4792WAT     H216479   8.561   7.607   4.732
 4793WAT      O16480   7.984   7.411   4.367
 4793WAT     H116481   7.994   7.501   4.398
 4793WAT     H216482   7.893   7.406   4.338
 4794WAT      O16483   8.949   7.323   4.515
 4794WAT     H116484   9.031   7.274   4.519
 4794WAT     H216485   8.952   7.382   4.590
 4795WAT      O16486   7.748   7.603   4.892
 4795WAT     H116487   7.817   7.629   4.954
 4795WAT     H216488   7.717   7.519   4.925
 4796WAT      O16489   8.168   7.707   4.801
 4796WAT     H116490   8.218   7.757   4.865
 4796WAT     H216491   8.221   7.630   4.783
 4797WAT      O16492   9.378   7.524   5.171
 4797WAT     H116493   9.307   7.563   5.119
 4797WAT     H216494   9.404   7.594   5.231
 4798WAT      O16495   7.996   7.171   5.227
 4798WAT     H116496   7.996   7.223   5.147
 4798WAT     H216497   7.913   7.124   5.225
 4799WAT      O16498   8.635   8.183   4.377
 4799WAT     H116499   8.573   8.229   4.321
 4799WAT     H216500   8.686   8.252   4.419
 4800WAT      O16501   8.121   8.135   5.045
 4800WAT     H116502   8.088   8.198   5.109
 4800WAT     H216503   8.139   8.188   4.967
 4801WAT      O16504   8.972   7.517   4.792
 4801WAT     H116505   8.902   7.546   4.850
 4801WAT     H216506   9.009   7.598   4.756
 4802WAT      O16507   7.964   7.342   5.028
 4802WAT     H116508   7.998   7.427   4.999
 4802WAT     H216509   7.870   7.357   5.040
 4803WAT      O16510   8.042   8.332   5.227
 4803WAT     H116511   8.104   8.400   5.198
 4803WAT     H216512   7.956   8.373   5.217
 4804WAT      O16513   7.572   8.251   4.115
 4804WAT     H116514   7.534   8.300   4.041
 4804WAT     H216515   7.597   8.318   4.178
 4805WAT      O16516   9.134   8.479   5.018
 4805WAT     H116517   9.066   8.546   5.017
 4805WAT     H216518   9.188   8.498   4.942
 4806WAT      O16519   9.279   7.461   4.831
 4806WAT     H116520   9.185   7.465   4.844
 4806WAT     H216521   9.312   7.543   4.869
 4807WAT      O16522   8.332   7.091   4.660
 4807WAT     H116523   8.363   7.036   4.589
 4807WAT     H216524   8.239   7.105   4.642
 4808WAT      O16525   8.888   8.663   4.890
 4808WAT     H116526   8.889   8.623   4.803
 4808WAT     H216527   8.832   8.740   4.879
 4809WAT      O16528   9.017   8.335   4.398
 4809WAT     H116529   9.006   8.241   4.411
 4809WAT     H216530   9.017   8.371   4.487
 4810WAT      O16531   8.827   8.153   5.022
 4810WAT     H116532   8.869   8.132   4.939
 4810WAT     H216533   8.900   8.179   5.079
 4811WAT      O16534   8.571   7.898   4.334
 4811WAT     H116535   8.479   7.891   4.357
 4811WAT     H216536   8.587   7.992   4.323
 4812WAT      O16537   8.570   7.525   4.034
 4812WAT     H116538   8.476   7.541   4.042
 4812WAT     H216539   8.602   7.597   3.979
 4813WAT      O16540   9.222   7.993   5.032
 4813WAT     H116541   9.139   8.000   4.984
 4813WAT     H216542   9.282   8.052   4.985
 4814WAT      O16543   8.974   8.054   4.384
 4814WAT     H116544   8.912   8.020   4.320
 4814WAT     H216545   8.973   7.990   4.455
 4815WAT      O16546   8.919   7.672   5.126
 4815WAT     H116547   8.877   7.754   5.151
 4815WAT     H216548   8.845   7.613   5.107
 4816WAT      O16549   8.132   7.950   4.612
 4816WAT     H116550   8.091   7.879   4.563
 4816WAT     H216551   8.140   7.916   4.701
 4817WAT      O16552   8.179   8.319   4.829
 4817WAT     H116553   8.149   8.259   4.761
 4817WAT     H216554   8.274   8.323   4.818
 4818WAT      O16555   8.003   7.628   4.990
 4818WAT     H116556   8.058   7.639   4.913
 4818WAT     H216557   8.055   7.665   5.062
 4819WAT      O16558   8.988   8.676   5.195
 4819WAT     H116559   8.940   8.757   5.176
 4819WAT     H216560   8.919   8.611   5.210
 4820WAT      O16561   8.088   8.293   5.494
 4820WAT     H116562   7.998   8.315   5.518
 4820WAT     H216563   8.090   8.305   5.399
 4821WAT      O16564   8.792   7.978   4.085
 4821WAT     H116565   8.836   7.894   4.071
 4821WAT     H216566   8.863   8.041   4.094
 4822WAT      O16567   7.971   7.980   5.351
 4822WAT     H116568   7.957   8.067   5.388
 4822WAT     H216569   7.882   7.946   5.337
 4823WAT      O16570   8.603   8.472   4.482
 4823WAT     H116571   8.647   8.546   4.441
 4823WAT     H216572   8.597   8.496   4.574
 4824WAT      O16573   8.150   8.574   5.572
 4824WAT     H116574   8.148   8.615   5.485
 4824WAT     H216575   8.134   8.481   5.556
 4825WAT      O16576   9.150   7.103   3.917
 4825WAT     H116577   9.119   7.113   4.007
 4825WAT     H216578   9.226   7.161   3.912
 4826WAT      O16579   7.802   7.840   4.362
 4826WAT     H116580   7.790   7.913   4.301
 4826WAT     H216581   7.771   7.763   4.315
 4827WAT      O16582   9.346   8.653   5.702
 4827WAT     H116583   9.393   8.700   5.770
 4827WAT     H216584   9.408   8.646   5.629
 4828WAT      O16585   7.566   8.157   4.943
 4828WAT     H116586   7.574   8.171   4.849
 4828WAT     H216587   7.627   8.086   4.962
 4829WAT      O16588   7.690   8.327   4.584
 4829WAT     H116589   7.650   8.341   4.499
 4829WAT     H216590   7.779   8.299   4.564
 4830WAT      O16591   9.286   8.372   5.418
 4830WAT     H116592   9.298   8.348   5.326
 4830WAT     H216593   9.290   8.289   5.465
 4831WAT      O16594   8.672   8.742   5.275
 4831WAT     H116595   8.723   8.733   5.355
 4831WAT     H216596   8.588   8.777   5.304
 4832WAT      O16597   8.870   8.771   4.218
 4832WAT     H116598   8.854   8.742   4.307
 4832WAT     H216599   8.853   8.693   4.164
 4833WAT      O16600   8.117   8.748   4.395
 4833WAT     H116601   8.100   8.657   4.374
 4833WAT     H216602   8.032   8.784   4.419
 4834WAT      O16603   8.840   8.521   4.074
 4834WAT     H116604   8.770   8.521   4.008
 4834WAT     H216605   8.914   8.479   4.031
 4835WAT      O16606   8.796   8.684   4.481
 4835WAT     H116607   8.842   8.606   4.512
 4835WAT     H216608   8.830   8.755   4.535
 4836WAT      O16609   9.271   7.577   5.514
 4836WAT     H116610   9.210   7.628   5.461
 4836WAT     H216611   9.239   7.487   5.509
 4837WAT      O16612   7.571   8.261   5.197
 4837WAT     H116613   7.588   8.214   5.115
 4837WAT     H216614   7.618   8.210   5.263
 4838WAT      O16615   8.049   7.174   4.701
 4838WAT     H116616   8.004   7.252   4.667
 4838WAT     H216617   8.104   7.207   4.771
 4839WAT      O16618   8.477   7.461   5.261
 4839WAT     H116619   8.431   7.482   5.342
 4839WAT     H216620   8.437   7.380   5.231
 4840WAT      O16621   8.977   7.583   5.374
 4840WAT     H116622   8.892   7.553   5.406
 4840WAT     H216623   8.961   7.607   5.283
 4841WAT      O16624   8.687   7.733   5.584
 4841WAT     H116625   8.719   7.650   5.550
 4841WAT     H216626   8.766   7.785   5.599
 4842WAT      O16627   8.360   7.136   4.189
 4842WAT     H116628   8.298   7.136   4.261
 4842WAT     H216629   8.351   7.050   4.149
 4843WAT      O16630   8.252   7.229   4.886
 4843WAT     H116631   8.282   7.319   4.878
 4843WAT     H216632   8.307   7.180   4.825
 4844WAT      O16633   8.028   7.687   4.473
 4844WAT     H116634   8.005   7.665   4.564
 4844WAT     H216635   7.950   7.730   4.439
 4845WAT      O16636   8.751   7.687   4.333
 4845WAT     H116637   8.691   7.760   4.315
 4845WAT     H216638   8.805   7.681   4.255
 4846WAT      O16639   8.272   7.776   5.540
 4846WAT     H116640   8.262   7.682   5.525
 4846WAT     H216641   8.356   7.799   5.500
 4847WAT      O16642   8.611   7.551   4.536
 4847WAT     H116643   8.651   7.583   4.455
 4847WAT     H216644   8.647   7.463   4.548
 4848WAT      O16645   7.785   7.418   5.355
 4848WAT     H116646   7.745   7.502   5.376
 4848WAT     H216647   7.716   7.354   5.374
 4849WAT      O16648   8.442   7.426   5.662
 4849WAT     H116649   8.373   7.407   5.726
 4849WAT     H216650   8.517   7.454   5.716
 4850WAT      O16651   7.515   7.210   4.759
 4850WAT     H116652   7.486   7.267   4.830
 4850WAT     H216653   7.589   7.162   4.795
 4851WAT      O16654   7.534   7.604   3.880
 4851WAT     H116655   7.525   7.698   3.894
 4851WAT     H216656   7.498   7.590   3.792
 4852WAT      O16657   8.670   7.810   4.946
 4852WAT     H116658   8.597   7.861   4.981
 4852WAT     H216659   8.630   7.728   4.916
 4853WAT      O16660   8.314   7.477   4.786
 4853WAT     H116661   8.314   7.433   4.701
 4853WAT     H216662   8.403   7.510   4.797
 4854WAT      O16663   7.899   7.466   4.682
 4854WAT     H116664   7.865   7.513   4.758
 4854WAT     H216665   7.822   7.420   4.646
 4855WAT      O16666   8.320   7.578   4.085
 4855WAT     H116667   8.332   7.573   4.180
 4855WAT     H216668   8.281   7.664   4.070
 4856WAT      O16669   8.716   7.355   4.887
 4856WAT     H116670   8.718   7.400   4.971
 4856WAT     H216671   8.691   7.265   4.908
 4857WAT      O16672   8.221   7.809   4.025
 4857WAT     H116673   8.164   7.764   3.963
 4857WAT     H216674   8.292   7.844   3.972
 4858WAT      O16675   9.059   7.097   5.471
 4858WAT     H116676   9.091   7.023   5.524
 4858WAT     H216677   9.062   7.065   5.381
 4859WAT      O16678   7.729   8.199   5.413
 4859WAT     H116679   7.690   8.135   5.473
 4859WAT     H216680   7.760   8.269   5.470
 4860WAT      O16681   8.344   7.883   4.961
 4860WAT     H116682   8.380   7.836   5.036
 4860WAT     H216683   8.325   7.971   4.995
 4861WAT      O16684   7.630   7.358   4.574
 4861WAT     H116685   7.602   7.321   4.658
 4861WAT     H216686   7.624   7.285   4.513
 4862WAT      O16687   8.123   7.788   5.193
 4862WAT     H116688   8.092   7.875   5.215
 4862WAT     H216689   8.218   7.794   5.196
 4863WAT      O16690   7.976   8.208   4.253
 4863WAT     H116691   7.898   8.154   4.237
 4863WAT     H216692   8.048   8.156   4.219
 4864WAT      O16693   9.051   8.108   4.832
 4864WAT     H116694   9.123   8.157   4.793
 4864WAT     H216695   9.031   8.040   4.767
 4865WAT      O16696   8.597   7.247   4.246
 4865WAT     H116697   8.516   7.197   4.239
 4865WAT     H216698   8.578   7.331   4.204
 4866WAT      O16699   8.590   8.115   5.420
 4866WAT     H116700   8.583   8.023   5.395
 4866WAT     H216701   8.527   8.125   5.492
 4867WAT      O16702   8.869   7.684   4.076
 4867WAT     H116703   8.958   7.716   4.058
 4867WAT     H216704   8.866   7.597   4.037
 4868WAT      O16705   7.980   8.175   4.616
 4868WAT     H116706   8.032   8.095   4.611
 4868WAT     H216707   7.935   8.169   4.700
 4869WAT      O16708   8.469   8.302   4.144
 4869WAT     H116709   8.503   8.376   4.094
 4869WAT     H216710   8.386   8.333   4.180
 4870WAT      O16711   7.728   7.872   5.308
 4870WAT     H116712   7.692   7.938   5.366
 4870WAT     H216713   7.699   7.788   5.345
 4871WAT      O16714   8.048   7.917   5.596
 4871WAT     H116715   8.018   7.932   5.506
 4871WAT     H216716   8.126   7.861   5.587
 4872WAT      O16717   8.583   8.397   5.396
 4872WAT     H116718   8.584   8.304   5.374
 4872WAT     H216719   8.512   8.406   5.459
 4873WAT      O16720   9.096   7.816   4.022
 4873WAT     H116721   9.088   7.859   3.937
 4873WAT     H216722   9.168   7.861   4.066
 4874WAT      O16723   9.204   8.061   5.330
 4874WAT     H116724   9.131   8.120   5.310
 4874WAT     H216725   9.257   8.060   5.250
 4875WAT      O16726   9.199   8.501   4.295
 4875WAT     H116727   9.135   8.435   4.323
 4875WAT     H216728   9.160   8.541   4.218
 4876WAT      O16729   8.757   8.234   4.680
 4876WAT     H116730   8.792   8.174   4.614
 4876WAT     H216731   8.668   8.201   4.697
 4877WAT      O16732   8.365   8.310   4.421
 4877WAT     H116733   8.434   8.364   4.459
 4877WAT     H216734   8.287   8.364   4.424
 4878WAT      O16735   7.579   7.871   3.970
 4878WAT     H116736   7.666   7.900   3.998
 4878WAT     H216737   7.530   7.953   3.958
 4879WAT      O16738   8.296   8.010   4.382
 4879WAT     H116739   8.341   8.091   4.405
 4879WAT     H216740   8.261   7.978   4.465
 4880WAT      O16741   8.526   8.561   5.105
 4880WAT     H116742   8.591   8.582   5.173
 4880WAT     H216743   8.562   8.485   5.060
 4881WAT      O16744   7.886   7.045   4.429
 4881WAT     H116745   7.873   7.044   4.524
 4881WAT     H216746   7.804   7.078   4.394
 4882WAT      O16747   8.653   8.362   4.977
 4882WAT     H116748   8.718   8.292   4.988
 4882WAT     H216749   8.706   8.440   4.959
 4883WAT      O16750   9.038   8.390   3.949
 4883WAT     H116751   9.015   8.318   4.008
 4883WAT     H216752   8.999   8.365   3.865
 4884WAT      O16753   8.831   8.442   5.297
 4884WAT     H116754   8.864   8.500   5.365
 4884WAT     H216755   8.739   8.428   5.320
 4885WAT      O16756   7.616   8.793   4.027
 4885WAT     H116757   7.652   8.853   3.961
 4885WAT     H216758   7.602   8.847   4.104
 4886WAT      O16759   7.586   7.221   5.375
 4886WAT     H116760   7.514   7.240   5.436
 4886WAT     H216761   7.628   7.143   5.412
 4887WAT      O16762   8.996   8.182   4.115
 4887WAT     H116763   8.967   8.228   4.194
 4887WAT     H216764   9.076   8.136   4.142
 4888WAT      O16765   7.615   8.619   5.474
 4888WAT     H116766   7.625   8.525   5.460
 4888WAT     H216767   7.549   8.646   5.409
 4889WAT      O16768   8.414   8.446   5.614
 4889WAT     H116769   8.382   8.375   5.668
 4889WAT     H216770   8.346   8.514   5.621
 4890WAT      O16771   8.218   8.531   4.108
 4890WAT     H116772   8.217   8.604   4.047
 4890WAT     H216773   8.126   8.506   4.118
 4891WAT      O16774   7.778   8.053   4.183
 4891WAT     H116775   7.717   8.127   4.184
 4891WAT     H216776   7.825   8.062   4.100
 4892WAT      O16777   8.735   7.470   5.150
 4892WAT     H116778   8.772   7.388   5.183
 4892WAT     H216779   8.649   7.476   5.192
 4893WAT      O16780   9.072   7.365   4.231
 4893WAT     H116781   9.009   7.376   4.160
 4893WAT     H216782   9.022   7.387   4.310
 4894WAT      O16783   8.516   8.537   3.975
 4894WAT     H116784   8.527   8.517   3.882
 4894WAT     H216785   8.426   8.512   3.995
 4895WAT      O16786   8.269   7.593   4.373
 4895WAT     H116787   8.198   7.640   4.417
 4895WAT     H216788   8.297   7.527   4.436
 4896WAT      O16789   8.431   7.735   5.173
 4896WAT     H116790   8.481   7.783   5.239
 4896WAT     H216791   8.445   7.643   5.193
 4897WAT      O16792   8.672   7.266   4.517
 4897WAT     H116793   8.660   7.268   4.422
 4897WAT     H216794   8.767   7.270   4.529
 4898WAT      O16795   8.381   8.789   4.444
 4898WAT     H116796   8.406   8.785   4.352
 4898WAT     H216797   8.286   8.777   4.443
 4899WAT      O16798   8.089   7.424   4.110
 4899WAT     H116799   8.174   7.468   4.104
 4899WAT     H216800   8.052   7.455   4.193
 4900WAT      O16801   9.152   7.357   5.257
 4900WAT     H116802   9.102   7.431   5.291
 4900WAT     H216803   9.233   7.396   5.225
 4901WAT      O16804   8.981   7.881   4.602
 4901WAT     H116805   8.887   7.883   4.619
 4901WAT     H216806   9.013   7.802   4.646
 4902WAT      O16807   7.979   8.049   3.958
 4902WAT     H116808   8.056   8.038   4.014
 4902WAT     H216809   7.987   7.980   3.892
 4903WAT      O16810   7.848   7.793   4.026
 4903WAT     H116811   7.856   7.698   4.037
 4903WAT     H216812   7.938   7.826   4.037
 4904WAT      O16813   9.181   8.598   4.769
 4904WAT     H116814   9.194   8.681   4.816
 4904WAT     H216815   9.268   8.577   4.734
 4905WAT      O16816   7.929   8.808   4.736
 4905WAT     H116817   8.002   8.753   4.763
 4905WAT     H216818   7.967   8.894   4.722
 4906WAT      O16819   7.617   8.414   4.324
 4906WAT     H116820   7.524   8.438   4.323
 4906WAT     H216821   7.664   8.497   4.312
 4907WAT      O16822   7.829   8.726   5.655
 4907WAT     H116823   7.909   8.758   5.696
 4907WAT     H216824   7.778   8.690   5.727
 4908WAT      O16825   8.240   8.725   3.919
 4908WAT     H116826   8.319   8.754   3.873
 4908WAT     H216827   8.188   8.682   3.851
 4909WAT      O16828   8.713   8.337   5.650
 4909WAT     H116829   8.652   8.339   5.576
 4909WAT     H216830   8.682   8.264   5.704
 4910WAT      O16831   8.856   8.710   5.511
 4910WAT     H116832   8.951   8.701   5.506
 4910WAT     H216833   8.841   8.776   5.578
 4911WAT      O16834   9.145   8.648   4.061
 4911WAT     H116835   9.116   8.606   3.979
 4911WAT     H216836   9.125   8.740   4.049
 4912WAT      O16837   7.601   7.975   5.550
 4912WAT     H116838   7.652   7.917   5.607
 4912WAT     H216839   7.527   8.003   5.603
 4913WAT      O16840   8.291   8.247   3.905
 4913WAT     H116841   8.281   8.185   3.978
 4913WAT     H216842   8.275   8.195   3.827
 4914WAT      O16843   8.306   8.115   5.503
 4914WAT     H116844   8.230   8.172   5.494
 4914WAT     H216845   8.325   8.086   5.414
 4915WAT      O16846   8.615   8.153   3.965
 4915WAT     H116847   8.560   8.198   4.030
 4915WAT     H216848   8.678   8.103   4.018
 4916WAT      O16849   9.021   8.288   5.559
 4916WAT     H116850   9.095   8.322   5.508
 4916WAT     H216851   8.944   8.305   5.503
 4917WAT      O16852   7.804   7.789   5.639
 4917WAT     H116853   7.808   7.759   5.730
 4917WAT     H216854   7.890   7.829   5.623
 4918WAT      O16855   8.182   8.049   4.155
 4918WAT     H116856   8.224   8.032   4.239
 4918WAT     H216857   8.195   7.968   4.106
 4919WAT      O16858   7.998   7.647   5.436
 4919WAT     H116859   7.945   7.598   5.373
 4919WAT     H216860   8.065   7.690   5.382
 4920WAT      O16861   8.433   7.951   3.880
 4920WAT     H116862   8.485   7.880   3.843
 4920WAT     H216863   8.498   8.015   3.910
 4921WAT      O16864   8.888   8.094   5.412
 4921WAT     H116865   8.930   8.109   5.497
 4921WAT     H216866   8.795   8.106   5.428
 4922WAT      O16867   8.935   7.828   5.613
 4922WAT     H116868   8.994   7.752   5.604
 4922WAT     H216869   8.953   7.881   5.535
 4923WAT      O16870   8.047   7.344   5.444
 4923WAT     H116871   8.038   7.282   5.371
 4923WAT     H216872   7.989   7.416   5.421
 4924WAT      O16873   8.324   7.199   5.147
 4924WAT     H116874   8.279   7.202   5.062
 4924WAT     H216875   8.260   7.159   5.207
 4925WAT      O16876   8.364   8.089   5.209
 4925WAT     H116877   8.406   8.173   5.192
 4925WAT     H216878   8.272   8.103   5.186
 4926WAT      O16879   8.598   7.862   5.348
 4926WAT     H116880   8.610   7.802   5.421
 4926WAT     H216881   8.684   7.866   5.306
 4927WAT      O16882   8.832   7.917   5.205
 4927WAT     H116883   8.779   7.970   5.145
 4927WAT     H216884   8.866   7.981   5.268
 4928WAT      O16885   8.072   7.656   3.850
 4928WAT     H116886   8.052   7.570   3.886
 4928WAT     H216887   8.055   7.648   3.756
 4929WAT      O16888   8.149   8.719   5.321
 4929WAT     H116889   8.096   8.792   5.289
 4929WAT     H216890   8.175   8.672   5.242
 4930WAT      O16891   8.275   7.516   5.473
 4930WAT     H116892   8.334   7.485   5.542
 4930WAT     H216893   8.193   7.469   5.489
 4931WAT      O16894   8.757   7.478   5.497
 4931WAT     H116895   8.688   7.412   5.490
 4931WAT     H216896   8.829   7.433   5.541
 4932WAT      O16897   8.820   7.137   4.102
 4932WAT     H116898   8.848   7.053   4.138
 4932WAT     H216899   8.742   7.161   4.154
 4933WAT      O16900   7.952   7.366   3.848
 4933WAT     H116901   7.982   7.367   3.758
 4933WAT     H216902   8.025   7.331   3.898
 4934WAT      O16903   8.435   8.843   5.347
 4934WAT     H116904   8.428   8.933   5.377
 4934WAT     H216905   8.345   8.811   5.344
 4935WAT      O16906   8.273   7.261   3.947
 4935WAT     H116907   8.239   7.193   3.889
 4935WAT     H216908   8.294   7.215   4.028
 4936WAT      O16909   8.490   8.759   4.109
 4936WAT     H116910   8.579   8.793   4.111
 4936WAT     H216911   8.493   8.687   4.046
 4937WAT      O16912   7.854   8.297   3.932
 4937WAT     H116913   7.898   8.351   3.997
 4937WAT     H216914   7.902   8.214   3.933
 4938WAT      O16915   7.575   8.576   4.677
 4938WAT     H116916   7.608   8.489   4.654
 4938WAT     H216917   7.618   8.596   4.760
 4939WAT      O16918   8.035   8.409   4.443
 4939WAT     H116919   8.005   8.396   4.533
 4939WAT     H216920   8.024   8.323   4.402
 4940WAT      O16921   7.624   8.662   4.951
 4940WAT     H116922   7.581   8.680   5.034
 4940WAT     H216923   7.681   8.738   4.937
 4941WAT      O16924   9.188   8.613   5.379
 4941WAT     H116925   9.128   8.618   5.305
 4941WAT     H216926   9.201   8.519   5.392
 4942WAT      O16927   9.312   8.387   3.913
 4942WAT     H116928   9.229   8.393   3.960
 4942WAT     H216929   9.330   8.476   3.883
 4943WAT      O16930   9.257   8.061   4.164
 4943WAT     H116931   9.334   8.118   4.174
 4943WAT     H216932   9.259   8.004   4.241
 4944WAT      O16933   7.607   7.914   4.587
 4944WAT     H116934   7.542   7.887   4.522
 4944WAT     H216935   7.691   7.903   4.542
 4945WAT      O16936   9.358   8.147   4.648
 4945WAT     H116937   9.395   8.068   4.607
 4945WAT     H216938   9.422   8.216   4.630
 4946WAT      O16939   9.056   8.285   5.189
 4946WAT     H116940   8.975   8.328   5.216
 4946WAT     H216941   9.097   8.346   5.128
 4947WAT      O16942   9.263   8.091   3.879
 4947WAT     H116943   9.290   8.181   3.866
 4947WAT     H216944   9.244   8.084   3.973
 4948WAT      O16945   8.902   7.393   4.009
 4948WAT     H116946   8.944   7.374   3.925
 4948WAT     H216947   8.872   7.308   4.040
 4949WAT      O16948   9.252   7.884   4.379
 4949WAT     H116949   9.215   7.807   4.335
 4949WAT     H216950   9.179   7.922   4.427
 4950WAT      O16951   7.711   7.952   5.041
 4950WAT     H116952   7.748   7.943   5.129
 4950WAT     H216953   7.654   7.876   5.031
 4951WAT      O16954   9.191   7.799   5.342
 4951WAT     H116955   9.168   7.776   5.252
 4951WAT     H216956   9.217   7.891   5.337
 4952WAT      O16957   7.666   7.643   5.431
 4952WAT     H116958   7.577   7.640   5.465
 4952WAT     H216959   7.720   7.663   5.508
 4953WAT      O16960   9.035   7.321   5.620
 4953WAT     H116961   9.123   7.322   5.658
 4953WAT     H216962   9.036   7.248   5.559
 4954WAT      O16963   7.529   7.635   4.181
 4954WAT     H116964   7.438   7.661   4.163
 4954WAT     H216965   7.577   7.662   4.103
 4955WAT      O16966   9.180   7.707   4.709
 4955WAT     H116967   9.232   7.657   4.646
 4955WAT     H216968   9.238   7.720   4.783
 4956WAT      O16969   9.198   7.715   5.061
 4956WAT     H116970   9.103   7.712   5.072
 4956WAT     H216971   9.216   7.806   5.037
 4957WAT      O16972   7.783   7.540   3.972
 4957WAT     H116973   7.854   7.498   3.923
 4957WAT     H216974   7.712   7.547   3.909
 4958WAT      O16975   7.748   7.146   3.876
 4958WAT     H116976   7.820   7.200   3.908
 4958WAT     H216977   7.775   7.118   3.788
 4959WAT      O16978   9.129   7.633   4.303
 4959WAT     H116979   9.178   7.609   4.381
 4959WAT     H216980   9.109   7.549   4.261
 4960WAT      O16981   7.717   7.071   4.866
 4960WAT     H116982   7.782   7.016   4.822
 4960WAT     H216983   7.759   7.096   4.948
 4961WAT      O16984   9.272   7.496   4.556
 4961WAT     H116985   9.261   7.481   4.650
 4961WAT     H216986   9.348   7.443   4.532
 4962WAT      O16987   9.106   7.090   5.202
 4962WAT     H116988   9.170   7.151   5.238
 4962WAT     H216989   9.121   7.094   5.107
 4963WAT      O16990   9.361   7.279   3.880
 4963WAT     H116991   9.453   7.266   3.859
 4963WAT     H216992   9.358   7.287   3.975
 4964WAT      O16993   9.368   7.356   4.143
 4964WAT     H116994   9.288   7.350   4.195
 4964WAT     H216995   9.388   7.450   4.141
 4965WAT      O16996   9.062   8.760   4.542
 4965WAT     H116997   9.122   8.728   4.474
 4965WAT     H216998   9.088   8.713   4.621
 4966WAT      O16999   7.692   7.086   5.140
 4966WAT     H117000   7.657   7.132   5.217
 4966WAT     H217001   7.659   6.997   5.149
 4967WAT      O17002   7.853   8.403   5.557
 4967WAT     H117003   7.848   8.366   5.645
 4967WAT     H217004   7.866   8.497   5.571
 4968WAT      O17005   8.223   8.559   5.117
 4968WAT     H117006   8.199   8.586   5.028
 4968WAT     H217007   8.317   8.576   5.122
 4969WAT      O17008   8.443   7.205   5.493
 4969WAT     H117009   8.437   7.265   5.567
 4969WAT     H217010   8.537   7.195   5.478
 4970WAT      O17011   8.707   7.171   5.456
 4970WAT     H117012   8.768   7.203   5.390
 4970WAT     H217013   8.762   7.123   5.518
 4971WAT      O17014   9.349   8.761   5.197
 4971WAT     H117015   9.299   8.801   5.125
 4971WAT     H217016   9.288   8.698   5.236
 4972WAT      O17017   7.759   7.039   5.468
 4972WAT     H117018   7.814   7.021   5.391
 4972WAT     H217019   7.766   6.960   5.521
 4973WAT      O17020   7.837   8.698   5.269
 4973WAT     H117021   7.777   8.685   5.343
 4973WAT     H217022   7.836   8.614   5.222
 4974WAT      O17023   8.781   7.027   5.089
 4974WAT     H117024   8.694   7.061   5.069
 4974WAT     H217025   8.770   6.980   5.172
 4975WAT      O17026   8.872   7.248   5.228
 4975WAT     H117027   8.839   7.167   5.190
 4975WAT     H217028   8.967   7.244   5.215
 4976WAT      O17029   9.117   8.825   4.925
 4976WAT     H117030   9.071   8.900   4.887
 4976WAT     H217031   9.054   8.753   4.919
 4977WAT      O17032   7.800   8.435   5.164
 4977WAT     H117033   7.727   8.373   5.157
 4977WAT     H217034   7.806   8.474   5.077
 4978WAT      O17035   8.160   8.656   4.842
 4978WAT     H117036   8.212   8.595   4.790
 4978WAT     H217037   8.225   8.706   4.892
 4979WAT      O17038   8.434   8.745   4.925
 4979WAT     H117039   8.463   8.720   4.837
 4979WAT     H217040   8.485   8.690   4.984
 4980WAT      O17041   8.556   7.119   4.983
 4980WAT     H117042   8.478   7.166   5.011
 4980WAT     H217043   8.527   7.029   4.972
 4981WAT      O17044   9.011   7.189   4.788
 4981WAT     H117045   9.055   7.184   4.703
 4981WAT     H217046   8.984   7.281   4.795
 4982WAT      O17047   9.198   7.152   4.589
 4982WAT     H117048   9.191   7.058   4.574
 4982WAT     H217049   9.275   7.163   4.643
 4983WAT      O17050   7.628   8.766   4.485
 4983WAT     H117051   7.611   8.703   4.555
 4983WAT     H217052   7.541   8.787   4.450
 4984WAT      O17053   7.690   7.150   4.235
 4984WAT     H117054   7.766   7.161   4.178
 4984WAT     H217055   7.644   7.233   4.231
 4985WAT      O17056   8.344   7.361   4.534
 4985WAT     H117057   8.263   7.323   4.500
 4985WAT     H217058   8.395   7.285   4.564
 4986WAT      O17059   8.795   7.027   4.658
 4986WAT     H117060   8.855   7.085   4.706
 4986WAT     H217061   8.721   7.084   4.636
 4987WAT      O17062   9.109   7.068   4.185
 4987WAT     H117063   9.129   7.157   4.212
 4987WAT     H217064   9.030   7.044   4.235
 4988WAT      O17065   7.789   8.636   4.229
 4988WAT     H117066   7.736   8.674   4.159
 4988WAT     H217067   7.781   8.698   4.301
 4989WAT      O17068   7.928   7.202   4.089
 4989WAT     H117069   7.980   7.123   4.076
 4989WAT     H217070   7.991   7.270   4.113
 4990WAT      O17071   8.147   7.176   4.395
 4990WAT     H117072   8.084   7.106   4.411
 4990WAT     H217073   8.093   7.252   4.373
 4991WAT      O17074   8.441   8.837   5.662
 4991WAT     H117075   8.534   8.814   5.666
 4991WAT     H217076   8.439   8.920   5.614
 4992WAT      O17077   9.264   8.792   4.362
 4992WAT     H117078   9.282   8.723   4.297
 4992WAT     H217079   9.195   8.844   4.322
 4993WAT      O17080   8.159   7.104   5.638
 4993WAT     H117081   8.131   7.154   5.562
 4993WAT     H217082   8.198   7.024   5.602
 4994WAT      O17083   8.049   8.831   4.117
 4994WAT     H117084   8.122   8.802   4.062
 4994WAT     H217085   8.075   8.807   4.206
 4995WAT      O17086   7.965   8.442   4.117
 4995WAT     H117087   7.902   8.489   4.172
 4995WAT     H217088   7.976   8.358   4.161
 4996WAT      O17089   8.820   7.045   5.696
 4996WAT     H117090   8.808   7.077   5.786
 4996WAT     H217091   8.901   7.085   5.666
 4997WAT      O17092   9.098   8.760   5.644
 4997WAT     H117093   9.177   8.710   5.623
 4997WAT     H217094   9.127   8.828   5.705
 4998WAT      O17095   8.710   7.847   2.732
 4998WAT     H117096   8.702   7.756   2.705
 4998WAT     H217097   8.669   7.897   2.662
 4999WAT      O17098   8.523   8.025   2.920
 4999WAT     H117099   8.446   7.977   2.949
 4999WAT     H217100   8.589   7.957   2.903
 5000WAT      O17101   7.925   8.056   3.008
 5000WAT     H117102   7.842   8.031   3.048
 5000WAT     H217103   7.986   8.063   3.082
 5001WAT      O17104   8.925   8.466   2.798
 5001WAT     H117105   8.879   8.388   2.831
 5001WAT     H217106   9.007   8.468   2.849
 5002WAT      O17107   7.923   8.460   3.028
 5002WAT     H117108   7.953   8.371   3.010
 5002WAT     H217109   7.998   8.515   3.005
 5003WAT      O17110   7.766   7.552   2.387
 5003WAT     H117111   7.677   7.586   2.376
 5003WAT     H217112   7.794   7.532   2.297
 5004WAT      O17113   7.562   7.812   2.975
 5004WAT     H117114   7.619   7.735   2.975
 5004WAT     H217115   7.562   7.842   2.884
 5005WAT      O17116   8.548   8.694   2.760
 5005WAT     H117117   8.486   8.740   2.703
 5005WAT     H217118   8.634   8.710   2.720
 5006WAT      O17119   8.468   8.293   2.921
 5006WAT     H117120   8.461   8.198   2.905
 5006WAT     H217121   8.544   8.302   2.978
 5007WAT      O17122   7.687   7.353   3.154
 5007WAT     H117123   7.669   7.263   3.182
 5007WAT     H217124   7.646   7.408   3.221
 5008WAT      O17125   8.571   7.573   2.944
 5008WAT     H117126   8.608   7.486   2.933
 5008WAT     H217127   8.561   7.607   2.855
 5009WAT      O17128   7.984   7.411   2.490
 5009WAT     H117129   7.994   7.501   2.521
 5009WAT     H217130   7.893   7.406   2.461
 5010WAT      O17131   8.949   7.323   2.637
 5010WAT     H117132   9.031   7.274   2.641
 5010WAT     H217133   8.952   7.382   2.712
 5011WAT      O17134   7.748   7.603   3.015
 5011WAT     H117135   7.817   7.629   3.076
 5011WAT     H217136   7.717   7.519   3.048
 5012WAT      O17137   8.168   7.707   2.923
 5012WAT     H117138   8.218   7.757   2.987
 5012WAT     H217139   8.221   7.630   2.906
 5013WAT      O17140   9.378   7.524   3.294
 5013WAT     H117141   9.307   7.563   3.242
 5013WAT     H217142   9.404   7.594   3.354
 5014WAT      O17143   7.996   7.171   3.350
 5014WAT     H117144   7.996   7.223   3.269
 5014WAT     H217145   7.913   7.124   3.348
 5015WAT      O17146   8.635   8.183   2.500
 5015WAT     H117147   8.573   8.229   2.443
 5015WAT     H217148   8.686   8.252   2.541
 5016WAT      O17149   8.121   8.135   3.168
 5016WAT     H117150   8.088   8.198   3.232
 5016WAT     H217151   8.139   8.188   3.090
 5017WAT      O17152   8.972   7.517   2.914
 5017WAT     H117153   8.902   7.546   2.972
 5017WAT     H217154   9.009   7.598   2.878
 5018WAT      O17155   7.964   7.342   3.151
 5018WAT     H117156   7.998   7.427   3.121
 5018WAT     H217157   7.870   7.357   3.162
 5019WAT      O17158   8.042   8.332   3.349
 5019WAT     H117159   8.104   8.400   3.321
 5019WAT     H217160   7.956   8.373   3.340
 5020WAT      O17161   7.572   8.251   2.237
 5020WAT     H117162   7.534   8.300   2.164
 5020WAT     H217163   7.597   8.318   2.300
 5021WAT      O17164   9.134   8.479   3.141
 5021WAT     H117165   9.066   8.546   3.140
 5021WAT     H217166   9.188   8.498   3.064
 5022WAT      O17167   9.279   7.461   2.953
 5022WAT     H117168   9.185   7.465   2.967
 5022WAT     H217169   9.312   7.543   2.992
 5023WAT      O17170   8.332   7.091   2.783
 5023WAT     H117171   8.363   7.036   2.711
 5023WAT     H217172   8.239   7.105   2.765
 5024WAT      O17173   8.888   8.663   3.012
 5024WAT     H117174   8.889   8.623   2.925
 5024WAT     H217175   8.832   8.740   3.002
 5025WAT      O17176   9.017   8.335   2.521
 5025WAT     H117177   9.006   8.241   2.534
 5025WAT     H217178   9.017   8.371   2.610
 5026WAT      O17179   8.827   8.153   3.145
 5026WAT     H117180   8.869   8.132   3.061
 5026WAT     H217181   8.900   8.179   3.202
 5027WAT      O17182   8.571   7.898   2.457
 5027WAT     H117183   8.479   7.891   2.480
 5027WAT     H217184   8.587   7.992   2.445
 5028WAT      O17185   8.570   7.525   2.156
 5028WAT     H117186   8.476   7.541   2.165
 5028WAT     H217187   8.602   7.597   2.102
 5029WAT      O17188   9.222   7.993   3.154
 5029WAT     H117189   9.139   8.000   3.107
 5029WAT     H217190   9.282   8.052   3.107
 5030WAT      O17191   8.974   8.054   2.507
 5030WAT     H117192   8.912   8.020   2.442
 5030WAT     H217193   8.973   7.990   2.578
 5031WAT      O17194   8.919   7.672   3.249
 5031WAT     H117195   8.877   7.754   3.274
 5031WAT     H217196   8.845   7.613   3.229
 5032WAT      O17197   8.132   7.950   2.735
 5032WAT     H117198   8.091   7.879   2.685
 5032WAT     H217199   8.140   7.916   2.824
 5033WAT      O17200   8.179   8.319   2.951
 5033WAT     H117201   8.149   8.259   2.883
 5033WAT     H217202   8.274   8.323   2.940
 5034WAT      O17203   8.003   7.628   3.113
 5034WAT     H117204   8.058   7.639   3.035
 5034WAT     H217205   8.055   7.665   3.184
 5035WAT      O17206   8.988   8.676   3.317
 5035WAT     H117207   8.940   8.757   3.298
 5035WAT     H217208   8.919   8.611   3.333
 5036WAT      O17209   8.088   8.293   3.616
 5036WAT     H117210   7.998   8.315   3.641
 5036WAT     H217211   8.090   8.305   3.521
 5037WAT      O17212   8.792   7.978   2.208
 5037WAT     H117213   8.836   7.894   2.193
 5037WAT     H217214   8.863   8.041   2.216
 5038WAT      O17215   7.971   7.980   3.474
 5038WAT     H117216   7.957   8.067   3.511
 5038WAT     H217217   7.882   7.946   3.459
 5039WAT      O17218   8.603   8.472   2.605
 5039WAT     H117219   8.647   8.546   2.563
 5039WAT     H217220   8.597   8.496   2.697
 5040WAT      O17221   8.150   8.574   3.695
 5040WAT     H117222   8.148   8.615   3.608
 5040WAT     H217223   8.134   8.481   3.678
 5041WAT      O17224   9.150   7.103   2.039
 5041WAT     H117225   9.119   7.113   2.129
 5041WAT     H217226   9.226   7.161   2.034
 5042WAT      O17227   7.802   7.840   2.485
 5042WAT     H117228   7.790   7.913   2.424
 5042WAT     H217229   7.771   7.763   2.437
 5043WAT      O17230   9.346   8.653   3.824
 5043WAT     H117231   9.393   8.700   3.892
 5043WAT     H217232   9.408   8.646   3.752
 5044WAT      O17233   7.566   8.157   3.066
 5044WAT     H117234   7.574   8.171   2.971
 5044WAT     H217235   7.627   8.086   3.085
 5045WAT      O17236   7.690   8.327   2.707
 5045WAT     H117237   7.650   8.341   2.621
 5045WAT     H217238   7.779   8.299   2.686
 5046WAT      O17239   9.286   8.372   3.540
 5046WAT     H117240   9.298   8.348   3.449
 5046WAT     H217241   9.290   8.289   3.588
 5047WAT      O17242   8.672   8.742   3.397
 5047WAT     H117243   8.723   8.733   3.478
 5047WAT     H217244   8.588   8.777   3.427
 5048WAT      O17245   8.870   8.771   2.340
 5048WAT     H117246   8.854   8.742   2.430
 5048WAT     H217247   8.853   8.693   2.287
 5049WAT      O17248   8.117   8.748   2.518
 5049WAT     H117249   8.100   8.657   2.497
 5049WAT     H217250   8.032   8.784   2.542
 5050WAT      O17251   8.840   8.521   2.196
 5050WAT     H117252   8.770   8.521   2.130
 5050WAT     H217253   8.914   8.479   2.153
 5051WAT      O17254   8.796   8.684   2.604
 5051WAT     H117255   8.842   8.606   2.635
 5051WAT     H217256   8.830   8.755   2.658
 5052WAT      O17257   9.271   7.577   3.637
 5052WAT     H117258   9.210   7.628   3.584
 5052WAT     H217259   9.239   7.487   3.631
 5053WAT      O17260   7.571   8.261   3.320
 5053WAT     H117261   7.588   8.214   3.238
 5053WAT     H217262   7.618   8.210   3.386
 5054WAT      O17263   8.049   7.174   2.823
 5054WAT     H117264   8.004   7.252   2.790
 5054WAT     H217265   8.104   7.207   2.894
 5055WAT      O17266   8.477   7.461   3.383
 5055WAT     H117267   8.431   7.482   3.465
 5055WAT     H217268   8.437   7.380   3.353
 5056WAT      O17269   8.977   7.583   3.496
 5056WAT     H117270   8.892   7.553   3.529
 5056WAT     H217271   8.961   7.607   3.405
 5057WAT      O17272   8.687   7.733   3.706
 5057WAT     H117273   8.719   7.650   3.672
 5057WAT     H217274   8.766   7.785   3.721
 5058WAT      O17275   8.360   7.136   2.311
 5058WAT     H117276   8.298   7.136   2.384
 5058WAT     H217277   8.351   7.050   2.272
 5059WAT      O17278   8.252   7.229   3.009
 5059WAT     H117279   8.282   7.319   3.001
 5059WAT     H217280   8.307   7.180   2.948
 5060WAT      O17281   8.028   7.687   2.596
 5060WAT     H117282   8.005   7.665   2.686
 5060WAT     H217283   7.950   7.730   2.561
 5061WAT      O17284   8.751   7.687   2.456
 5061WAT     H117285   8.691   7.760   2.437
 5061WAT     H217286   8.805   7.681   2.378
 5062WAT      O17287   8.272   7.776   3.663
 5062WAT     H117288   8.262   7.682   3.648
 5062WAT     H217289   8.356   7.799   3.623
 5063WAT      O17290   8.611   7.551   2.659
 5063WAT     H117291   8.651   7.583   2.578
 5063WAT     H217292   8.647   7.463   2.670
 5064WAT      O17293   7.785   7.418   3.478
 5064WAT     H117294   7.745   7.502   3.499
 5064WAT     H217295   7.716   7.354   3.497
 5065WAT      O17296   8.442   7.426   3.785
 5065WAT     H117297   8.373   7.407   3.848
 5065WAT     H217298   8.517   7.454   3.838
 5066WAT      O17299   7.515   7.210   2.881
 5066WAT     H117300   7.486   7.267   2.952
 5066WAT     H217301   7.589   7.162   2.917
 5067WAT      O17302   7.534   7.604   2.002
 5067WAT     H117303   7.525   7.698   2.016
 5067WAT     H217304   7.498   7.590   1.914
 5068WAT      O17305   8.670   7.810   3.068
 5068WAT     H117306   8.597   7.861   3.103
 5068WAT     H217307   8.630   7.728   3.038
 5069WAT      O17308   8.314   7.477   2.909
 5069WAT     H117309   8.314   7.433   2.824
 5069WAT     H217310   8.403   7.510   2.920
 5070WAT      O17311   7.899   7.466   2.805
 5070WAT     H117312   7.865   7.513   2.881
 5070WAT     H217313   7.822   7.420   2.769
 5071WAT      O17314   8.320   7.578   2.208
 5071WAT     H117315   8.332   7.573   2.303
 5071WAT     H217316   8.281   7.664   2.192
 5072WAT      O17317   8.716   7.355   3.010
 5072WAT     H117318   8.718   7.400   3.094
 5072WAT     H217319   8.691   7.265   3.031
 5073WAT      O17320   8.221   7.809   2.148
 5073WAT     H117321   8.164   7.764   2.085
 5073WAT     H217322   8.292   7.844   2.094
 5074WAT      O17323   9.059   7.097   3.593
 5074WAT     H117324   9.091   7.023   3.646
 5074WAT     H217325   9.062   7.065   3.503
 5075WAT      O17326   7.729   8.199   3.535
 5075WAT     H117327   7.690   8.135   3.595
 5075WAT     H217328   7.760   8.269   3.592
 5076WAT      O17329   8.344   7.883   3.084
 5076WAT     H117330   8.380   7.836   3.158
 5076WAT     H217331   8.325   7.971   3.118
 5077WAT      O17332   7.630   7.358   2.697
 5077WAT     H117333   7.602   7.321   2.780
 5077WAT     H217334   7.624   7.285   2.635
 5078WAT      O17335   8.123   7.788   3.315
 5078WAT     H117336   8.092   7.875   3.338
 5078WAT     H217337   8.218   7.794   3.319
 5079WAT      O17338   7.976   8.208   2.375
 5079WAT     H117339   7.898   8.154   2.359
 5079WAT     H217340   8.048   8.156   2.341
 5080WAT      O17341   9.051   8.108   2.954
 5080WAT     H117342   9.123   8.157   2.915
 5080WAT     H217343   9.031   8.040   2.890
 5081WAT      O17344   8.597   7.247   2.369
 5081WAT     H117345   8.516   7.197   2.361
 5081WAT     H217346   8.578   7.331   2.327
 5082WAT      O17347   8.590   8.115   3.543
 5082WAT     H117348   8.583   8.023   3.518
 5082WAT     H217349   8.527   8.125   3.614
 5083WAT      O17350   8.869   7.684   2.198
 5083WAT     H117351   8.958   7.716   2.181
 5083WAT     H217352   8.866   7.597   2.159
 5084WAT      O17353   7.980   8.175   2.739
 5084WAT     H117354   8.032   8.095   2.733
 5084WAT     H217355   7.935   8.169   2.823
 5085WAT      O17356   8.469   8.302   2.266
 5085WAT     H117357   8.503   8.376   2.217
 5085WAT     H217358   8.386   8.333   2.302
 5086WAT      O17359   7.728   7.872   3.430
 5086WAT     H117360   7.692   7.938   3.489
 5086WAT     H217361   7.699   7.788   3.467
 5087WAT      O17362   8.048   7.917   3.719
 5087WAT     H117363   8.018   7.932   3.629
 5087WAT     H217364   8.126   7.861   3.709
 5088WAT      O17365   8.583   8.397   3.518
 5088WAT     H117366   8.584   8.304   3.496
 5088WAT     H217367   8.512   8.406   3.582
 5089WAT      O17368   9.096   7.816   2.145
 5089WAT     H117369   9.088   7.859   2.060
 5089WAT     H217370   9.168   7.861   2.188
 5090WAT      O17371   9.204   8.061   3.453
 5090WAT     H117372   9.131   8.120   3.433
 5090WAT     H217373   9.257   8.060   3.373
 5091WAT      O17374   9.199   8.501   2.418
 5091WAT     H117375   9.135   8.435   2.445
 5091WAT     H217376   9.160   8.541   2.340
 5092WAT      O17377   8.757   8.234   2.803
 5092WAT     H117378   8.792   8.174   2.737
 5092WAT     H217379   8.668   8.201   2.820
 5093WAT      O17380   8.365   8.310   2.543
 5093WAT     H117381   8.434   8.364   2.581
 5093WAT     H217382   8.287   8.364   2.547
 5094WAT      O17383   7.579   7.871   2.092
 5094WAT     H117384   7.666   7.900   2.121
 5094WAT     H217385   7.530   7.953   2.081
 5095WAT      O17386   8.296   8.010   2.505
 5095WAT     H117387   8.341   8.091   2.527
 5095WAT     H217388   8.261   7.978   2.588
 5096WAT      O17389   8.526   8.561   3.227
 5096WAT     H117390   8.591   8.582   3.295
 5096WAT     H217391   8.562   8.485   3.182
 5097WAT      O17392   7.886   7.045   2.552
 5097WAT     H117393   7.873   7.044   2.647
 5097WAT     H217394   7.804   7.078   2.517
 5098WAT      O17395   8.653   8.362   3.099
 5098WAT     H117396   8.718   8.292   3.111
 5098WAT     H217397   8.706   8.440   3.081
 5099WAT      O17398   9.038   8.390   2.072
 5099WAT     H117399   9.015   8.318   2.131
 5099WAT     H217400   8.999   8.365   1.988
 5100WAT      O17401   8.831   8.442   3.420
 5100WAT     H117402   8.864   8.500   3.487
 5100WAT     H217403   8.739   8.428   3.443
 5101WAT      O17404   7.616   8.793   2.149
 5101WAT     H117405   7.652   8.853   2.084
 5101WAT     H217406   7.602   8.847   2.226
 5102WAT      O17407   7.586   7.221   3.498
 5102WAT     H117408   7.514   7.240   3.558
 5102WAT     H217409   7.628   7.143   3.535
 5103WAT      O17410   8.996   8.182   2.238
 5103WAT     H117411   8.967   8.228   2.317
 5103WAT     H217412   9.076   8.136   2.265
 5104WAT      O17413   7.615   8.619   3.597
 5104WAT     H117414   7.625   8.525   3.582
 5104WAT     H217415   7.549   8.646   3.532
 5105WAT      O17416   8.414   8.446   3.736
 5105WAT     H117417   8.382   8.375   3.791
 5105WAT     H217418   8.346   8.514   3.744
 5106WAT      O17419   8.218   8.531   2.231
 5106WAT     H117420   8.217   8.604   2.169
 5106WAT     H217421   8.126   8.506   2.240
 5107WAT      O17422   7.778   8.053   2.305
 5107WAT     H117423   7.717   8.127   2.306
 5107WAT     H217424   7.825   8.062   2.223
 5108WAT      O17425   8.735   7.470   3.273
 5108WAT     H117426   8.772   7.388   3.306
 5108WAT     H217427   8.649   7.476   3.314
 5109WAT      O17428   9.072   7.365   2.354
 5109WAT     H117429   9.009   7.376   2.282
 5109WAT     H217430   9.022   7.387   2.433
 5110WAT      O17431   8.516   8.537   2.097
 5110WAT     H117432   8.527   8.517   2.004
 5110WAT     H217433   8.426   8.512   2.118
 5111WAT      O17434   8.269   7.593   2.495
 5111WAT     H117435   8.198   7.640   2.539
 5111WAT     H217436   8.297   7.527   2.559
 5112WAT      O17437   8.431   7.735   3.295
 5112WAT     H117438   8.481   7.783   3.362
 5112WAT     H217439   8.445   7.643   3.316
 5113WAT      O17440   8.672   7.266   2.639
 5113WAT     H117441   8.660   7.268   2.544
 5113WAT     H217442   8.767   7.270   2.651
 5114WAT      O17443   8.381   8.789   2.567
 5114WAT     H117444   8.406   8.785   2.474
 5114WAT     H217445   8.286   8.777   2.566
 5115WAT      O17446   8.089   7.424   2.233
 5115WAT     H117447   8.174   7.468   2.226
 5115WAT     H217448   8.052   7.455   2.316
 5116WAT      O17449   9.152   7.357   3.380
 5116WAT     H117450   9.102   7.431   3.413
 5116WAT     H217451   9.233   7.396   3.348
 5117WAT      O17452   8.981   7.881   2.724
 5117WAT     H117453   8.887   7.883   2.742
 5117WAT     H217454   9.013   7.802   2.769
 5118WAT      O17455   7.979   8.049   2.080
 5118WAT     H117456   8.056   8.038   2.136
 5118WAT     H217457   7.987   7.980   2.015
 5119WAT      O17458   7.848   7.793   2.149
 5119WAT     H117459   7.856   7.698   2.160
 5119WAT     H217460   7.938   7.826   2.159
 5120WAT      O17461   9.181   8.598   2.892
 5120WAT     H117462   9.194   8.681   2.939
 5120WAT     H217463   9.268   8.577   2.857
 5121WAT      O17464   7.929   8.808   2.859
 5121WAT     H117465   8.002   8.753   2.886
 5121WAT     H217466   7.967   8.894   2.845
 5122WAT      O17467   7.617   8.414   2.446
 5122WAT     H117468   7.524   8.438   2.445
 5122WAT     H217469   7.664   8.497   2.434
 5123WAT      O17470   7.829   8.726   3.778
 5123WAT     H117471   7.909   8.758   3.819
 5123WAT     H217472   7.778   8.690   3.850
 5124WAT      O17473   8.240   8.725   2.041
 5124WAT     H117474   8.319   8.754   1.996
 5124WAT     H217475   8.188   8.682   1.973
 5125WAT      O17476   8.713   8.337   3.772
 5125WAT     H117477   8.652   8.339   3.698
 5125WAT     H217478   8.682   8.264   3.826
 5126WAT      O17479   8.856   8.710   3.634
 5126WAT     H117480   8.951   8.701   3.629
 5126WAT     H217481   8.841   8.776   3.701
 5127WAT      O17482   9.145   8.648   2.183
 5127WAT     H117483   9.116   8.606   2.102
 5127WAT     H217484   9.125   8.740   2.171
 5128WAT      O17485   7.601   7.975   3.672
 5128WAT     H117486   7.652   7.917   3.729
 5128WAT     H217487   7.527   8.003   3.726
 5129WAT      O17488   8.291   8.247   2.028
 5129WAT     H117489   8.281   8.185   2.100
 5129WAT     H217490   8.275   8.195   1.949
 5130WAT      O17491   8.306   8.115   3.625
 5130WAT     H117492   8.230   8.172   3.617
 5130WAT     H217493   8.325   8.086   3.536
 5131WAT      O17494   8.615   8.153   2.088
 5131WAT     H117495   8.560   8.198   2.152
 5131WAT     H217496   8.678   8.103   2.140
 5132WAT      O17497   9.021   8.288   3.681
 5132WAT     H117498   9.095   8.322   3.631
 5132WAT     H217499   8.944   8.305   3.626
 5133WAT      O17500   7.804   7.789   3.762
 5133WAT     H117501   7.808   7.759   3.852
 5133WAT     H217502   7.890   7.829   3.746
 5134WAT      O17503   8.182   8.049   2.278
 5134WAT     H117504   8.224   8.032   2.362
 5134WAT     H217505   8.195   7.968   2.228
 5135WAT      O17506   7.998   7.647   3.558
 5135WAT     H117507   7.945   7.598   3.496
 5135WAT     H217508   8.065   7.690   3.505
 5136WAT      O17509   8.433   7.951   2.002
 5136WAT     H117510   8.485   7.880   1.966
 5136WAT     H217511   8.498   8.015   2.032
 5137WAT      O17512   8.888   8.094   3.535
 5137WAT     H117513   8.930   8.109   3.620
 5137WAT     H217514   8.795   8.106   3.551
 5138WAT      O17515   8.935   7.828   3.735
 5138WAT     H117516   8.994   7.752   3.726
 5138WAT     H217517   8.953   7.881   3.657
 5139WAT      O17518   8.047   7.344   3.566
 5139WAT     H117519   8.038   7.282   3.494
 5139WAT     H217520   7.989   7.416   3.544
 5140WAT      O17521   8.324   7.199   3.270
 5140WAT     H117522   8.279   7.202   3.185
 5140WAT     H217523   8.260   7.159   3.329
 5141WAT      O17524   8.364   8.089   3.332
 5141WAT     H117525   8.406   8.173   3.314
 5141WAT     H217526   8.272   8.103   3.309
 5142WAT      O17527   8.598   7.862   3.470
 5142WAT     H117528   8.610   7.802   3.544
 5142WAT     H217529   8.684   7.866   3.428
 5143WAT      O17530   8.832   7.917   3.328
 5143WAT     H117531   8.779   7.970   3.267
 5143WAT     H217532   8.866   7.981   3.391
 5144WAT      O17533   8.072   7.656   1.972
 5144WAT     H117534   8.052   7.570   2.008
 5144WAT     H217535   8.055   7.648   1.878
 5145WAT      O17536   8.149   8.719   3.443
 5145WAT     H117537   8.096   8.792   3.411
 5145WAT     H217538   8.175   8.672   3.364
 5146WAT      O17539   8.275   7.516   3.596
 5146WAT     H117540   8.334   7.485   3.665
 5146WAT     H217541   8.193   7.469   3.611
 5147WAT      O17542   8.757   7.478   3.619
 5147WAT     H117543   8.688   7.412   3.613
 5147WAT     H217544   8.829   7.433   3.664
 5148WAT      O17545   8.820   7.137   2.225
 5148WAT     H117546   8.848   7.053   2.261
 5148WAT     H217547   8.742   7.161   2.276
 5149WAT      O17548   7.952   7.366   1.971
 5149WAT     H117549   7.982   7.367   1.880
 5149WAT     H217550   8.025   7.331   2.021
 5150WAT      O17551   8.435   8.843   3.469
 5150WAT     H117552   8.428   8.933   3.500
 5150WAT     H217553   8.345   8.811   3.466
 5151WAT      O17554   8.273   7.261   2.070
 5151WAT     H117555   8.239   7.193   2.012
 5151WAT     H217556   8.294   7.215   2.151
 5152WAT      O17557   8.490   8.759   2.231
 5152WAT     H117558   8.579   8.793   2.234
 5152WAT     H217559   8.493   8.687   2.169
 5153WAT      O17560   7.854   8.297   2.054
 5153WAT     H117561   7.898   8.351   2.120
 5153WAT     H217562   7.902   8.214   2.055
 5154WAT      O17563   7.575   8.576   2.799
 5154WAT     H117564   7.608   8.489   2.776
 5154WAT     H217565   7.618   8.596   2.883
 5155WAT      O17566   8.035   8.409   2.565
 5155WAT     H117567   8.005   8.396   2.656
 5155WAT     H217568   8.024   8.323   2.525
 5156WAT      O17569   7.624   8.662   3.073
 5156WAT     H117570   7.581   8.680   3.157
 5156WAT     H217571   7.681   8.738   3.059
 5157WAT      O17572   9.188   8.613   3.502
 5157WAT     H117573   9.128   8.618   3.428
 5157WAT     H217574   9.201   8.519   3.515
 5158WAT      O17575   9.312   8.387   2.036
 5158WAT     H117576   9.229   8.393   2.083
 5158WAT     H217577   9.330   8.476   2.005
 5159WAT      O17578   9.257   8.061   2.286
 5159WAT     H117579   9.334   8.118   2.297
 5159WAT     H217580   9.259   8.004   2.363
 5160WAT      O17581   7.607   7.914   2.709
 5160WAT     H117582   7.542   7.887   2.645
 5160WAT     H217583   7.691   7.903   2.664
 5161WAT      O17584   9.358   8.147   2.771
 5161WAT     H117585   9.395   8.068   2.730
 5161WAT     H217586   9.422   8.216   2.753
 5162WAT      O17587   9.056   8.285   3.312
 5162WAT     H117588   8.975   8.328   3.338
 5162WAT     H217589   9.097   8.346   3.251
 5163WAT      O17590   9.263   8.091   2.002
 5163WAT     H117591   9.290   8.181   1.989
 5163WAT     H217592   9.244   8.084   2.095
 5164WAT      O17593   8.902   7.393   2.131
 5164WAT     H117594   8.944   7.374   2.047
 5164WAT     H217595   8.872   7.308   2.162
 5165WAT      O17596   9.252   7.884   2.501
 5165WAT     H117597   9.215   7.807   2.458
 5165WAT     H217598   9.179   7.922   2.550
 5166WAT      O17599   7.711   7.952   3.163
 5166WAT     H117600   7.748   7.943   3.251
 5166WAT     H217601   7.654   7.876   3.153
 5167WAT      O17602   9.191   7.799   3.465
 5167WAT     H117603   9.168   7.776   3.374
 5167WAT     H217604   9.217   7.891   3.460
 5168WAT      O17605   7.666   7.643   3.554
 5168WAT     H117606   7.577   7.640   3.588
 5168WAT     H217607   7.720   7.663   3.630
 5169WAT      O17608   9.035   7.321   3.742
 5169WAT     H117609   9.123   7.322   3.781
 5169WAT     H217610   9.036   7.248   3.681
 5170WAT      O17611   7.529   7.635   2.303
 5170WAT     H117612   7.438   7.661   2.286
 5170WAT     H217613   7.577   7.662   2.225
 5171WAT      O17614   9.180   7.707   2.831
 5171WAT     H117615   9.232   7.657   2.768
 5171WAT     H217616   9.238   7.720   2.906
 5172WAT      O17617   9.198   7.715   3.183
 5172WAT     H117618   9.103   7.712   3.195
 5172WAT     H217619   9.216   7.806   3.160
 5173WAT      O17620   7.783   7.540   2.094
 5173WAT     H117621   7.854   7.498   2.046
 5173WAT     H217622   7.712   7.547   2.031
 5174WAT      O17623   7.748   7.146   1.998
 5174WAT     H117624   7.820   7.200   2.030
 5174WAT     H217625   7.775   7.118   1.911
 5175WAT      O17626   9.129   7.633   2.425
 5175WAT     H117627   9.178   7.609   2.504
 5175WAT     H217628   9.109   7.549   2.383
 5176WAT      O17629   7.717   7.071   2.989
 5176WAT     H117630   7.782   7.016   2.945
 5176WAT     H217631   7.759   7.096   3.071
 5177WAT      O17632   9.272   7.496   2.678
 5177WAT     H117633   9.261   7.481   2.772
 5177WAT     H217634   9.348   7.443   2.654
 5178WAT      O17635   9.106   7.090   3.324
 5178WAT     H117636   9.170   7.151   3.361
 5178WAT     H217637   9.121   7.094   3.230
 5179WAT      O17638   9.361   7.279   2.003
 5179WAT     H117639   9.453   7.266   1.982
 5179WAT     H217640   9.358   7.287   2.098
 5180WAT      O17641   9.368   7.356   2.265
 5180WAT     H117642   9.288   7.350   2.318
 5180WAT     H217643   9.388   7.450   2.264
 5181WAT      O17644   9.062   8.760   2.665
 5181WAT     H117645   9.122   8.728   2.597
 5181WAT     H217646   9.088   8.713   2.744
 5182WAT      O17647   7.692   7.086   3.263
 5182WAT     H117648   7.657   7.132   3.339
 5182WAT     H217649   7.659   6.997   3.271
 5183WAT      O17650   7.853   8.403   3.679
 5183WAT     H117651   7.848   8.366   3.768
 5183WAT     H217652   7.866   8.497   3.693
 5184WAT      O17653   8.223   8.559   3.240
 5184WAT     H117654   8.199   8.586   3.151
 5184WAT     H217655   8.317   8.576   3.245
 5185WAT      O17656   8.443   7.205   3.615
 5185WAT     H117657   8.437   7.265   3.690
 5185WAT     H217658   8.537   7.195   3.601
 5186WAT      O17659   8.707   7.171   3.579
 5186WAT     H117660   8.768   7.203   3.513
 5186WAT     H217661   8.762   7.123   3.641
 5187WAT      O17662   9.349   8.761   3.320
 5187WAT     H117663   9.299   8.801   3.248
 5187WAT     H217664   9.288   8.698   3.359
 5188WAT      O17665   7.759   7.039   3.590
 5188WAT     H117666   7.814   7.021   3.514
 5188WAT     H217667   7.766   6.960   3.644
 5189WAT      O17668   7.837   8.698   3.391
 5189WAT     H117669   7.777   8.685   3.465
 5189WAT     H217670   7.836   8.614   3.345
 5190WAT      O17671   8.781   7.027   3.212
 5190WAT     H117672   8.694   7.061   3.191
 5190WAT     H217673   8.770   6.980   3.294
 5191WAT      O17674   8.872   7.248   3.350
 5191WAT     H117675   8.839   7.167   3.312
 5191WAT     H217676   8.967   7.244   3.338
 5192WAT      O17677   9.117   8.825   3.047
 5192WAT     H117678   9.071   8.900   3.010
 5192WAT     H217679   9.054   8.753   3.042
 5193WAT      O17680   7.800   8.435   3.286
 5193WAT     H117681   7.727   8.373   3.280
 5193WAT     H217682   7.806   8.474   3.199
 5194WAT      O17683   8.160   8.656   2.965
 5194WAT     H117684   8.212   8.595   2.912
 5194WAT     H217685   8.225   8.706   3.014
 5195WAT      O17686   8.434   8.745   3.048
 5195WAT     H117687   8.463   8.720   2.960
 5195WAT     H217688   8.485   8.690   3.107
 5196WAT      O17689   8.556   7.119   3.106
 5196WAT     H117690   8.478   7.166   3.134
 5196WAT     H217691   8.527   7.029   3.095
 5197WAT      O17692   9.011   7.189   2.910
 5197WAT     H117693   9.055   7.184   2.825
 5197WAT     H217694   8.984   7.281   2.917
 5198WAT      O17695   9.198   7.152   2.711
 5198WAT     H117696   9.191   7.058   2.697
 5198WAT     H217697   9.275   7.163   2.766
 5199WAT      O17698   7.628   8.766   2.607
 5199WAT     H117699   7.611   8.703   2.677
 5199WAT     H217700   7.541   8.787   2.572
 5200WAT      O17701   7.690   7.150   2.358
 5200WAT     H117702   7.766   7.161   2.300
 5200WAT     H217703   7.644   7.233   2.353
 5201WAT      O17704   8.344   7.361   2.657
 5201WAT     H117705   8.263   7.323   2.623
 5201WAT     H217706   8.395   7.285   2.687
 5202WAT      O17707   8.795   7.027   2.781
 5202WAT     H117708   8.855   7.085   2.828
 5202WAT     H217709   8.721   7.084   2.758
 5203WAT      O17710   9.109   7.068   2.308
 5203WAT     H117711   9.129   7.157   2.335
 5203WAT     H217712   9.030   7.044   2.357
 5204WAT      O17713   7.789   8.636   2.352
 5204WAT     H117714   7.736   8.674   2.282
 5204WAT     H217715   7.781   8.698   2.424
 5205WAT      O17716   7.928   7.202   2.212
 5205WAT     H117717   7.980   7.123   2.199
 5205WAT     H217718   7.991   7.270   2.235
 5206WAT      O17719   8.147   7.176   2.517
 5206WAT     H117720   8.084   7.106   2.534
 5206WAT     H217721   8.093   7.252   2.496
 5207WAT      O17722   8.441   8.837   3.784
 5207WAT     H117723   8.534   8.814   3.789
 5207WAT     H217724   8.439   8.920   3.736
 5208WAT      O17725   9.264   8.792   2.484
 5208WAT     H117726   9.282   8.723   2.420
 5208WAT     H217727   9.195   8.844   2.445
 5209WAT      O17728   8.159   7.104   3.761
 5209WAT     H117729   8.131   7.154   3.684
 5209WAT     H217730   8.198   7.024   3.724
 5210WAT      O17731   8.049   8.831   2.239
 5210WAT     H117732   8.122   8.802   2.185
 5210WAT     H217733   8.075   8.807   2.328
 5211WAT      O17734   7.965   8.442   2.240
 5211WAT     H117735   7.902   8.489   2.295
 5211WAT     H217736   7.976   8.358   2.283
 5212WAT      O17737   8.820   7.045   3.819
 5212WAT     H117738   8.808   7.077   3.908
 5212WAT     H217739   8.901   7.085   3.789
 5213WAT      O17740   9.098   8.760   3.767
 5213WAT     H117741   9.177   8.710   3.746
 5213WAT     H217742   9.127   8.828   3.827
 5214WAT      O17743   8.710   7.847   0.855
 5214WAT     H117744   8.702   7.756   0.828
 5214WAT     H217745   8.669   7.897   0.784
 5215WAT      O17746   8.523   8.025   1.043
 5215WAT     H117747   8.446   7.977   1.072
 5215WAT     H217748   8.589   7.957   1.026
 5216WAT      O17749   7.925   8.056   1.131
 5216WAT     H117750   7.842   8.031   1.171
 5216WAT     H217751   7.986   8.063   1.204
 5217WAT      O17752   8.925   8.466   0.921
 5217WAT     H117753   8.879   8.388   0.954
 5217WAT     H217754   9.007   8.468   0.972
 5218WAT      O17755   7.923   8.460   1.150
 5218WAT     H117756   7.953   8.371   1.132
 5218WAT     H217757   7.998   8.515   1.128
 5219WAT      O17758   7.766   7.552   0.509
 5219WAT     H117759   7.677   7.586   0.499
 5219WAT     H217760   7.794   7.532   0.420
 5220WAT      O17761   7.562   7.812   1.098
 5220WAT     H117762   7.619   7.735   1.098
 5220WAT     H217763   7.562   7.842   1.007
 5221WAT      O17764   8.548   8.694   0.883
 5221WAT     H117765   8.486   8.740   0.826
 5221WAT     H217766   8.634   8.710   0.843
 5222WAT      O17767   8.468   8.293   1.044
 5222WAT     H117768   8.461   8.198   1.028
 5222WAT     H217769   8.544   8.302   1.101
 5223WAT      O17770   7.687   7.353   1.276
 5223WAT     H117771   7.669   7.263   1.304
 5223WAT     H217772   7.646   7.408   1.344
 5224WAT      O17773   8.571   7.573   1.066
 5224WAT     H117774   8.608   7.486   1.055
 5224WAT     H217775   8.561   7.607   0.977
 5225WAT      O17776   7.984   7.411   0.613
 5225WAT     H117777   7.994   7.501   0.643
 5225WAT     H217778   7.893   7.406   0.584
 5226WAT      O17779   8.949   7.323   0.760
 5226WAT     H117780   9.031   7.274   0.764
 5226WAT     H217781   8.952   7.382   0.835
 5227WAT      O17782   7.748   7.603   1.137
 5227WAT     H117783   7.817   7.629   1.199
 5227WAT     H217784   7.717   7.519   1.170
 5228WAT      O17785   8.168   7.707   1.046
 5228WAT     H117786   8.218   7.757   1.110
 5228WAT     H217787   8.221   7.630   1.028
 5229WAT      O17788   9.378   7.524   1.416
 5229WAT     H117789   9.307   7.563   1.364
 5229WAT     H217790   9.404   7.594   1.476
 5230WAT      O17791   7.996   7.171   1.472
 5230WAT     H117792   7.996   7.223   1.392
 5230WAT     H217793   7.913   7.124   1.470
 5231WAT      O17794   8.635   8.183   0.622
 5231WAT     H117795   8.573   8.229   0.566
 5231WAT     H217796   8.686   8.252   0.664
 5232WAT      O17797   8.121   8.135   1.290
 5232WAT     H117798   8.088   8.198   1.354
 5232WAT     H217799   8.139   8.188   1.212
 5233WAT      O17800   8.972   7.517   1.037
 5233WAT     H117801   8.902   7.546   1.095
 5233WAT     H217802   9.009   7.598   1.001
 5234WAT      O17803   7.964   7.342   1.273
 5234WAT     H117804   7.998   7.427   1.244
 5234WAT     H217805   7.870   7.357   1.285
 5235WAT      O17806   8.042   8.332   1.472
 5235WAT     H117807   8.104   8.400   1.444
 5235WAT     H217808   7.956   8.373   1.463
 5236WAT      O17809   7.572   8.251   0.360
 5236WAT     H117810   7.534   8.300   0.287
 5236WAT     H217811   7.597   8.318   0.423
 5237WAT      O17812   9.134   8.479   1.263
 5237WAT     H117813   9.066   8.546   1.262
 5237WAT     H217814   9.188   8.498   1.187
 5238WAT      O17815   9.279   7.461   1.076
 5238WAT     H117816   9.185   7.465   1.089
 5238WAT     H217817   9.312   7.543   1.115
 5239WAT      O17818   8.332   7.091   0.906
 5239WAT     H117819   8.363   7.036   0.834
 5239WAT     H217820   8.239   7.105   0.887
 5240WAT      O17821   8.888   8.663   1.135
 5240WAT     H117822   8.889   8.623   1.048
 5240WAT     H217823   8.832   8.740   1.124
 5241WAT      O17824   9.017   8.335   0.644
 5241WAT     H117825   9.006   8.241   0.656
 5241WAT     H217826   9.017   8.371   0.732
 5242WAT      O17827   8.827   8.153   1.267
 5242WAT     H117828   8.869   8.132   1.184
 5242WAT     H217829   8.900   8.179   1.325
 5243WAT      O17830   8.571   7.898   0.579
 5243WAT     H117831   8.479   7.891   0.602
 5243WAT     H217832   8.587   7.992   0.568
 5244WAT      O17833   8.570   7.525   0.279
 5244WAT     H117834   8.476   7.541   0.287
 5244WAT     H217835   8.602   7.597   0.224
 5245WAT      O17836   9.222   7.993   1.277
 5245WAT     H117837   9.139   8.000   1.229
 5245WAT     H217838   9.282   8.052   1.230
 5246WAT      O17839   8.974   8.054   0.630
 5246WAT     H117840   8.912   8.020   0.565
 5246WAT     H217841   8.973   7.990   0.700
 5247WAT      O17842   8.919   7.672   1.371
 5247WAT     H117843   8.877   7.754   1.397
 5247WAT     H217844   8.845   7.613   1.352
 5248WAT      O17845   8.132   7.950   0.857
 5248WAT     H117846   8.091   7.879   0.808
 5248WAT     H217847   8.140   7.916   0.946
 5249WAT      O17848   8.179   8.319   1.074
 5249WAT     H117849   8.149   8.259   1.006
 5249WAT     H217850   8.274   8.323   1.063
 5250WAT      O17851   8.003   7.628   1.235
 5250WAT     H117852   8.058   7.639   1.158
 5250WAT     H217853   8.055   7.665   1.307
 5251WAT      O17854   8.988   8.676   1.440
 5251WAT     H117855   8.940   8.757   1.421
 5251WAT     H217856   8.919   8.611   1.455
 5252WAT      O17857   8.088   8.293   1.739
 5252WAT     H117858   7.998   8.315   1.764
 5252WAT     H217859   8.090   8.305   1.644
 5253WAT      O17860   8.792   7.978   0.330
 5253WAT     H117861   8.836   7.894   0.316
 5253WAT     H217862   8.863   8.041   0.339
 5254WAT      O17863   7.971   7.980   1.596
 5254WAT     H117864   7.957   8.067   1.633
 5254WAT     H217865   7.882   7.946   1.582
 5255WAT      O17866   8.603   8.472   0.727
 5255WAT     H117867   8.647   8.546   0.686
 5255WAT     H217868   8.597   8.496   0.819
 5256WAT      O17869   8.150   8.574   1.817
 5256WAT     H117870   8.148   8.615   1.731
 5256WAT     H217871   8.134   8.481   1.801
 5257WAT      O17872   7.802   7.840   0.607
 5257WAT     H117873   7.790   7.913   0.546
 5257WAT     H217874   7.771   7.763   0.560
 5258WAT      O17875   9.346   8.653   1.947
 5258WAT     H117876   9.393   8.700   2.015
 5258WAT     H217877   9.408   8.646   1.874
 5259WAT      O17878   7.566   8.157   1.188
 5259WAT     H117879   7.574   8.171   1.094
 5259WAT     H217880   7.627   8.086   1.207
 5260WAT      O17881   7.690   8.327   0.829
 5260WAT     H117882   7.650   8.341   0.744
 5260WAT     H217883   7.779   8.299   0.809
 5261WAT      O17884   9.286   8.372   1.663
 5261WAT     H117885   9.298   8.348   1.571
 5261WAT     H217886   9.290   8.289   1.710
 5262WAT      O17887   8.672   8.742   1.520
 5262WAT     H117888   8.723   8.733   1.600
 5262WAT     H217889   8.588   8.777   1.549
 5263WAT      O17890   8.870   8.771   0.463
 5263WAT     H117891   8.854   8.742   0.553
 5263WAT     H217892   8.853   8.693   0.409
 5264WAT      O17893   8.117   8.748   0.640
 5264WAT     H117894   8.100   8.657   0.619
 5264WAT     H217895   8.032   8.784   0.664
 5265WAT      O17896   8.840   8.521   0.319
 5265WAT     H117897   8.770   8.521   0.253
 5265WAT     H217898   8.914   8.479   0.276
 5266WAT      O17899   8.796   8.684   0.726
 5266WAT     H117900   8.842   8.606   0.758
 5266WAT     H217901   8.830   8.755   0.781
 5267WAT      O17902   9.271   7.577   1.759
 5267WAT     H117903   9.210   7.628   1.707
 5267WAT     H217904   9.239   7.487   1.754
 5268WAT      O17905   7.571   8.261   1.442
 5268WAT     H117906   7.588   8.214   1.360
 5268WAT     H217907   7.618   8.210   1.509
 5269WAT      O17908   8.049   7.174   0.946
 5269WAT     H117909   8.004   7.252   0.913
 5269WAT     H217910   8.104   7.207   1.016
 5270WAT      O17911   8.477   7.461   1.506
 5270WAT     H117912   8.431   7.482   1.587
 5270WAT     H217913   8.437   7.380   1.476
 5271WAT      O17914   8.977   7.583   1.619
 5271WAT     H117915   8.892   7.553   1.651
 5271WAT     H217916   8.961   7.607   1.528
 5272WAT      O17917   8.687   7.733   1.829
 5272WAT     H117918   8.719   7.650   1.795
 5272WAT     H217919   8.766   7.785   1.844
 5273WAT      O17920   8.360   7.136   0.434
 5273WAT     H117921   8.298   7.136   0.506
 5273WAT     H217922   8.351   7.050   0.394
 5274WAT      O17923   8.252   7.229   1.132
 5274WAT     H117924   8.282   7.319   1.124
 5274WAT     H217925   8.307   7.180   1.070
 5275WAT      O17926   8.028   7.687   0.719
 5275WAT     H117927   8.005   7.665   0.809
 5275WAT     H217928   7.950   7.730   0.684
 5276WAT      O17929   8.751   7.687   0.578
 5276WAT     H117930   8.691   7.760   0.560
 5276WAT     H217931   8.805   7.681   0.500
 5277WAT      O17932   8.272   7.776   1.785
 5277WAT     H117933   8.262   7.682   1.770
 5277WAT     H217934   8.356   7.799   1.746
 5278WAT      O17935   8.611   7.551   0.781
 5278WAT     H117936   8.651   7.583   0.700
 5278WAT     H217937   8.647   7.463   0.793
 5279WAT      O17938   7.785   7.418   1.600
 5279WAT     H117939   7.745   7.502   1.621
 5279WAT     H217940   7.716   7.354   1.620
 5280WAT      O17941   8.442   7.426   1.907
 5280WAT     H117942   8.373   7.407   1.971
 5280WAT     H217943   8.517   7.454   1.961
 5281WAT      O17944   7.515   7.210   1.004
 5281WAT     H117945   7.486   7.267   1.075
 5281WAT     H217946   7.589   7.162   1.040
 5282WAT      O17947   8.670   7.810   1.191
 5282WAT     H117948   8.597   7.861   1.226
 5282WAT     H217949   8.630   7.728   1.161
 5283WAT      O17950   8.314   7.477   1.031
 5283WAT     H117951   8.314   7.433   0.947
 5283WAT     H217952   8.403   7.510   1.042
 5284WAT      O17953   7.899   7.466   0.927
 5284WAT     H117954   7.865   7.513   1.003
 5284WAT     H217955   7.822   7.420   0.891
 5285WAT      O17956   8.320   7.578   0.331
 5285WAT     H117957   8.332   7.573   0.425
 5285WAT     H217958   8.281   7.664   0.315
 5286WAT      O17959   8.716   7.355   1.132
 5286WAT     H117960   8.718   7.400   1.217
 5286WAT     H217961   8.691   7.265   1.154
 5287WAT      O17962   8.221   7.809   0.270
 5287WAT     H117963   8.164   7.764   0.208
 5287WAT     H217964   8.292   7.844   0.217
 5288WAT      O17965   9.059   7.097   1.716
 5288WAT     H117966   9.091   7.023   1.769
 5288WAT     H217967   9.062   7.065   1.626
 5289WAT      O17968   7.729   8.199   1.658
 5289WAT     H117969   7.690   8.135   1.718
 5289WAT     H217970   7.760   8.269   1.715
 5290WAT      O17971   8.344   7.883   1.206
 5290WAT     H117972   8.380   7.836   1.281
 5290WAT     H217973   8.325   7.971   1.240
 5291WAT      O17974   7.630   7.358   0.819
 5291WAT     H117975   7.602   7.321   0.903
 5291WAT     H217976   7.624   7.285   0.758
 5292WAT      O17977   8.123   7.788   1.438
 5292WAT     H117978   8.092   7.875   1.460
 5292WAT     H217979   8.218   7.794   1.442
 5293WAT      O17980   7.976   8.208   0.498
 5293WAT     H117981   7.898   8.154   0.482
 5293WAT     H217982   8.048   8.156   0.464
 5294WAT      O17983   9.051   8.108   1.077
 5294WAT     H117984   9.123   8.157   1.038
 5294WAT     H217985   9.031   8.040   1.012
 5295WAT      O17986   8.597   7.247   0.491
 5295WAT     H117987   8.516   7.197   0.484
 5295WAT     H217988   8.578   7.331   0.450
 5296WAT      O17989   8.590   8.115   1.666
 5296WAT     H117990   8.583   8.023   1.640
 5296WAT     H217991   8.527   8.125   1.737
 5297WAT      O17992   8.869   7.684   0.321
 5297WAT     H117993   8.958   7.716   0.303
 5297WAT     H217994   8.866   7.597   0.282
 5298WAT      O17995   7.980   8.175   0.861
 5298WAT     H117996   8.032   8.095   0.856
 5298WAT     H217997   7.935   8.169   0.946
 5299WAT      O17998   8.469   8.302   0.389
 5299WAT     H117999   8.503   8.376   0.339
 5299WAT     H218000   8.386   8.333   0.425
 5300WAT      O18001   7.728   7.872   1.553
 5300WAT     H118002   7.692   7.938   1.611
 5300WAT     H218003   7.699   7.788   1.590
 5301WAT      O18004   8.048   7.917   1.841
 5301WAT     H118005   8.018   7.932   1.751
 5301WAT     H218006   8.126   7.861   1.832
 5302WAT      O18007   8.583   8.397   1.641
 5302WAT     H118008   8.584   8.304   1.619
 5302WAT     H218009   8.512   8.406   1.705
 5303WAT      O18010   9.096   7.816   0.268
 5303WAT     H118011   9.088   7.859   0.183
 5303WAT     H218012   9.168   7.861   0.311
 5304WAT      O18013   9.204   8.061   1.575
 5304WAT     H118014   9.131   8.120   1.556
 5304WAT     H218015   9.257   8.060   1.495
 5305WAT      O18016   9.199   8.501   0.540
 5305WAT     H118017   9.135   8.435   0.568
 5305WAT     H218018   9.160   8.541   0.463
 5306WAT      O18019   8.757   8.234   0.925
 5306WAT     H118020   8.792   8.174   0.859
 5306WAT     H218021   8.668   8.201   0.942
 5307WAT      O18022   8.365   8.310   0.666
 5307WAT     H118023   8.434   8.364   0.704
 5307WAT     H218024   8.287   8.364   0.669
 5308WAT      O18025   7.579   7.871   0.215
 5308WAT     H118026   7.666   7.900   0.243
 5308WAT     H218027   7.530   7.953   0.204
 5309WAT      O18028   8.296   8.010   0.627
 5309WAT     H118029   8.341   8.091   0.650
 5309WAT     H218030   8.261   7.978   0.710
 5310WAT      O18031   8.526   8.561   1.350
 5310WAT     H118032   8.591   8.582   1.418
 5310WAT     H218033   8.562   8.485   1.305
 5311WAT      O18034   7.886   7.045   0.674
 5311WAT     H118035   7.873   7.044   0.769
 5311WAT     H218036   7.804   7.078   0.639
 5312WAT      O18037   8.653   8.362   1.222
 5312WAT     H118038   8.718   8.292   1.233
 5312WAT     H218039   8.706   8.440   1.204
 5313WAT      O18040   8.831   8.442   1.542
 5313WAT     H118041   8.864   8.500   1.610
 5313WAT     H218042   8.739   8.428   1.565
 5314WAT      O18043   7.616   8.793   0.272
 5314WAT     H118044   7.652   8.853   0.206
 5314WAT     H218045   7.602   8.847   0.349
 5315WAT      O18046   7.586   7.221   1.620
 5315WAT     H118047   7.514   7.240   1.681
 5315WAT     H218048   7.628   7.143   1.658
 5316WAT      O18049   8.996   8.182   0.360
 5316WAT     H118050   8.967   8.228   0.439
 5316WAT     H218051   9.076   8.136   0.387
 5317WAT      O18052   7.615   8.619   1.719
 5317WAT     H118053   7.625   8.525   1.705
 5317WAT     H218054   7.549   8.646   1.654
 5318WAT      O18055   8.414   8.446   1.859
 5318WAT     H118056   8.382   8.375   1.914
 5318WAT     H218057   8.346   8.514   1.866
 5319WAT      O18058   8.218   8.531   0.353
 5319WAT     H118059   8.217   8.604   0.292
 5319WAT     H218060   8.126   8.506   0.363
 5320WAT      O18061   7.778   8.053   0.428
 5320WAT     H118062   7.717   8.127   0.429
 5320WAT     H218063   7.825   8.062   0.345
 5321WAT      O18064   8.735   7.470   1.395
 5321WAT     H118065   8.772   7.388   1.428
 5321WAT     H218066   8.649   7.476   1.437
 5322WAT      O18067   9.072   7.365   0.476
 5322WAT     H118068   9.009   7.376   0.405
 5322WAT     H218069   9.022   7.387   0.555
 5323WAT      O18070   8.269   7.593   0.618
 5323WAT     H118071   8.198   7.640   0.662
 5323WAT     H218072   8.297   7.527   0.681
 5324WAT      O18073   8.431   7.735   1.418
 5324WAT     H118074   8.481   7.783   1.484
 5324WAT     H218075   8.445   7.643   1.439
 5325WAT      O18076   8.672   7.266   0.762
 5325WAT     H118077   8.660   7.268   0.667
 5325WAT     H218078   8.767   7.270   0.774
 5326WAT      O18079   8.381   8.789   0.689
 5326WAT     H118080   8.406   8.785   0.597
 5326WAT     H218081   8.286   8.777   0.688
 5327WAT      O18082   8.089   7.424   0.355
 5327WAT     H118083   8.174   7.468   0.349
 5327WAT     H218084   8.052   7.455   0.438
 5328WAT      O18085   9.152   7.357   1.502
 5328WAT     H118086   9.102   7.431   1.536
 5328WAT     H218087   9.233   7.396   1.470
 5329WAT      O18088   8.981   7.881   0.847
 5329WAT     H118089   8.887   7.883   0.864
 5329WAT     H218090   9.013   7.802   0.891
 5330WAT      O18091   7.848   7.793   0.271
 5330WAT     H118092   7.856   7.698   0.282
 5330WAT     H218093   7.938   7.826   0.282
 5331WAT      O18094   9.181   8.598   1.014
 5331WAT     H118095   9.194   8.681   1.061
 5331WAT     H218096   9.268   8.577   0.979
 5332WAT      O18097   7.929   8.808   0.981
 5332WAT     H118098   8.002   8.753   1.009
 5332WAT     H218099   7.967   8.894   0.967
 5333WAT      O18100   7.617   8.414   0.569
 5333WAT     H118101   7.524   8.438   0.568
 5333WAT     H218102   7.664   8.497   0.557
 5334WAT      O18103   7.829   8.726   1.900
 5334WAT     H118104   7.909   8.758   1.942
 5334WAT     H218105   7.778   8.690   1.972
 5335WAT      O18106   8.713   8.337   1.895
 5335WAT     H118107   8.652   8.339   1.821
 5335WAT     H218108   8.682   8.264   1.949
 5336WAT      O18109   8.856   8.710   1.756
 5336WAT     H118110   8.951   8.701   1.751
 5336WAT     H218111   8.841   8.776   1.823
 5337WAT      O18112   9.145   8.648   0.306
 5337WAT     H118113   9.116   8.606   0.225
 5337WAT     H218114   9.125   8.740   0.294
 5338WAT      O18115   7.601   7.975   1.795
 5338WAT     H118116   7.652   7.917   1.852
 5338WAT     H218117   7.527   8.003   1.848
 5339WAT      O18118   8.306   8.115   1.748
 5339WAT     H118119   8.230   8.172   1.740
 5339WAT     H218120   8.325   8.086   1.659
 5340WAT      O18121   8.615   8.153   0.211
 5340WAT     H118122   8.560   8.198   0.275
 5340WAT     H218123   8.678   8.103   0.263
 5341WAT      O18124   9.021   8.288   1.804
 5341WAT     H118125   9.095   8.322   1.753
 5341WAT     H218126   8.944   8.305   1.748
 5342WAT      O18127   7.804   7.789   1.884
 5342WAT     H118128   7.808   7.759   1.975
 5342WAT     H218129   7.890   7.829   1.868
 5343WAT      O18130   8.182   8.049   0.400
 5343WAT     H118131   8.224   8.032   0.484
 5343WAT     H218132   8.195   7.968   0.351
 5344WAT      O18133   7.998   7.647   1.681
 5344WAT     H118134   7.945   7.598   1.618
 5344WAT     H218135   8.065   7.690   1.627
 5345WAT      O18136   8.888   8.094   1.657
 5345WAT     H118137   8.930   8.109   1.742
 5345WAT     H218138   8.795   8.106   1.674
 5346WAT      O18139   8.935   7.828   1.858
 5346WAT     H118140   8.994   7.752   1.849
 5346WAT     H218141   8.953   7.881   1.780
 5347WAT      O18142   8.047   7.344   1.689
 5347WAT     H118143   8.038   7.282   1.616
 5347WAT     H218144   7.989   7.416   1.666
 5348WAT      O18145   8.324   7.199   1.392
 5348WAT     H118146   8.279   7.202   1.308
 5348WAT     H218147   8.260   7.159   1.452
 5349WAT      O18148   8.364   8.089   1.454
 5349WAT     H118149   8.406   8.173   1.437
 5349WAT     H218150   8.272   8.103   1.431
 5350WAT      O18151   8.598   7.862   1.593
 5350WAT     H118152   8.610   7.802   1.667
 5350WAT     H218153   8.684   7.866   1.551
 5351WAT      O18154   8.832   7.917   1.450
 5351WAT     H118155   8.779   7.970   1.390
 5351WAT     H218156   8.866   7.981   1.513
 5352WAT      O18157   8.149   8.719   1.566
 5352WAT     H118158   8.096   8.792   1.534
 5352WAT     H218159   8.175   8.672   1.487
 5353WAT      O18160   8.275   7.516   1.718
 5353WAT     H118161   8.334   7.485   1.787
 5353WAT     H218162   8.193   7.469   1.734
 5354WAT      O18163   8.757   7.478   1.742
 5354WAT     H118164   8.688   7.412   1.735
 5354WAT     H218165   8.829   7.433   1.786
 5355WAT      O18166   8.820   7.137   0.348
 5355WAT     H118167   8.848   7.053   0.383
 5355WAT     H218168   8.742   7.161   0.399
 5356WAT      O18169   8.435   8.843   1.592
 5356WAT     H118170   8.428   8.933   1.622
 5356WAT     H218171   8.345   8.811   1.589
 5357WAT      O18172   8.490   8.759   0.354
 5357WAT     H118173   8.579   8.793   0.356
 5357WAT     H218174   8.493   8.687   0.291
 5358WAT      O18175   7.854   8.297   0.177
 5358WAT     H118176   7.898   8.351   0.242
 5358WAT     H218177   7.902   8.214   0.178
 5359WAT      O18178   7.575   8.576   0.922
 5359WAT     H118179   7.608   8.489   0.899
 5359WAT     H218180   7.618   8.596   1.005
 5360WAT      O18181   8.035   8.409   0.688
 5360WAT     H118182   8.005   8.396   0.778
 5360WAT     H218183   8.024   8.323   0.647
 5361WAT      O18184   7.624   8.662   1.196
 5361WAT     H118185   7.581   8.680   1.279
 5361WAT     H218186   7.681   8.738   1.182
 5362WAT      O18187   9.188   8.613   1.625
 5362WAT     H118188   9.128   8.618   1.550
 5362WAT     H218189   9.201   8.519   1.638
 5363WAT      O18190   9.257   8.061   0.409
 5363WAT     H118191   9.334   8.118   0.419
 5363WAT     H218192   9.259   8.004   0.486
 5364WAT      O18193   7.607   7.914   0.832
 5364WAT     H118194   7.542   7.887   0.767
 5364WAT     H218195   7.691   7.903   0.787
 5365WAT      O18196   9.358   8.147   0.893
 5365WAT     H118197   9.395   8.068   0.852
 5365WAT     H218198   9.422   8.216   0.875
 5366WAT      O18199   9.056   8.285   1.434
 5366WAT     H118200   8.975   8.328   1.461
 5366WAT     H218201   9.097   8.346   1.373
 5367WAT      O18202   8.902   7.393   0.254
 5367WAT     H118203   8.944   7.374   0.170
 5367WAT     H218204   8.872   7.308   0.285
 5368WAT      O18205   9.252   7.884   0.624
 5368WAT     H118206   9.215   7.807   0.580
 5368WAT     H218207   9.179   7.922   0.672
 5369WAT      O18208   7.711   7.952   1.286
 5369WAT     H118209   7.748   7.943   1.374
 5369WAT     H218210   7.654   7.876   1.276
 5370WAT      O18211   9.191   7.799   1.587
 5370WAT     H118212   9.168   7.776   1.497
 5370WAT     H218213   9.217   7.891   1.583
 5371WAT      O18214   7.666   7.643   1.676
 5371WAT     H118215   7.577   7.640   1.710
 5371WAT     H218216   7.720   7.663   1.753
 5372WAT      O18217   9.035   7.321   1.865
 5372WAT     H118218   9.123   7.322   1.903
 5372WAT     H218219   9.036   7.248   1.804
 5373WAT      O18220   7.529   7.635   0.426
 5373WAT     H118221   7.438   7.661   0.409
 5373WAT     H218222   7.577   7.662   0.348
 5374WAT      O18223   9.180   7.707   0.954
 5374WAT     H118224   9.232   7.657   0.891
 5374WAT     H218225   9.238   7.720   1.028
 5375WAT      O18226   9.198   7.715   1.306
 5375WAT     H118227   9.103   7.712   1.317
 5375WAT     H218228   9.216   7.806   1.282
 5376WAT      O18229   9.129   7.633   0.548
 5376WAT     H118230   9.178   7.609   0.626
 5376WAT     H218231   9.109   7.549   0.506
 5377WAT      O18232   7.717   7.071   1.111
 5377WAT     H118233   7.782   7.016   1.067
 5377WAT     H218234   7.759   7.096   1.193
 5378WAT      O18235   9.272   7.496   0.801
 5378WAT     H118236   9.261   7.481   0.895
 5378WAT     H218237   9.348   7.443   0.777
 5379WAT      O18238   9.106   7.090   1.447
 5379WAT     H118239   9.170   7.151   1.483
 5379WAT     H218240   9.121   7.094   1.352
 5380WAT      O18241   9.368   7.356   0.388
 5380WAT     H118242   9.288   7.350   0.441
 5380WAT     H218243   9.388   7.450   0.387
 5381WAT      O18244   9.062   8.760   0.787
 5381WAT     H118245   9.122   8.728   0.719
 5381WAT     H218246   9.088   8.713   0.866
 5382WAT      O18247   7.692   7.086   1.385
 5382WAT     H118248   7.657   7.132   1.462
 5382WAT     H218249   7.659   6.997   1.394
 5383WAT      O18250   7.853   8.403   1.802
 5383WAT     H118251   7.848   8.366   1.890
 5383WAT     H218252   7.866   8.497   1.816
 5384WAT      O18253   8.223   8.559   1.362
 5384WAT     H118254   8.199   8.586   1.273
 5384WAT     H218255   8.317   8.576   1.368
 5385WAT      O18256   8.443   7.205   1.738
 5385WAT     H118257   8.437   7.265   1.813
 5385WAT     H218258   8.537   7.195   1.723
 5386WAT      O18259   8.707   7.171   1.702
 5386WAT     H118260   8.768   7.203   1.635
 5386WAT     H218261   8.762   7.123   1.764
 5387WAT      O18262   9.349   8.761   1.442
 5387WAT     H118263   9.299   8.801   1.370
 5387WAT     H218264   9.288   8.698   1.482
 5388WAT      O18265   7.759   7.039   1.713
 5388WAT     H118266   7.814   7.021   1.637
 5388WAT     H218267   7.766   6.960   1.767
 5389WAT      O18268   7.837   8.698   1.514
 5389WAT     H118269   7.777   8.685   1.588
 5389WAT     H218270   7.836   8.614   1.467
 5390WAT      O18271   8.781   7.027   1.334
 5390WAT     H118272   8.694   7.061   1.314
 5390WAT     H218273   8.770   6.980   1.417
 5391WAT      O18274   8.872   7.248   1.473
 5391WAT     H118275   8.839   7.167   1.435
 5391WAT     H218276   8.967   7.244   1.460
 5392WAT      O18277   9.117   8.825   1.170
 5392WAT     H118278   9.071   8.900   1.133
 5392WAT     H218279   9.054   8.753   1.164
 5393WAT      O18280   7.800   8.435   1.409
 5393WAT     H118281   7.727   8.373   1.402
 5393WAT     H218282   7.806   8.474   1.322
 5394WAT      O18283   8.160   8.656   1.088
 5394WAT     H118284   8.212   8.595   1.035
 5394WAT     H218285   8.225   8.706   1.137
 5395WAT      O18286   8.434   8.745   1.170
 5395WAT     H118287   8.463   8.720   1.083
 5395WAT     H218288   8.485   8.690   1.229
 5396WAT      O18289   8.556   7.119   1.228
 5396WAT     H118290   8.478   7.166   1.256
 5396WAT     H218291   8.527   7.029   1.217
 5397WAT      O18292   9.011   7.189   1.033
 5397WAT     H118293   9.055   7.184   0.948
 5397WAT     H218294   8.984   7.281   1.040
 5398WAT      O18295   9.198   7.152   0.834
 5398WAT     H118296   9.191   7.058   0.819
 5398WAT     H218297   9.275   7.163   0.888
 5399WAT      O18298   7.628   8.766   0.730
 5399WAT     H118299   7.611   8.703   0.800
 5399WAT     H218300   7.541   8.787   0.695
 5400WAT      O18301   7.690   7.150   0.480
 5400WAT     H118302   7.766   7.161   0.423
 5400WAT     H218303   7.644   7.233   0.476
 5401WAT      O18304   8.344   7.361   0.779
 5401WAT     H118305   8.263   7.323   0.745
 5401WAT     H218306   8.395   7.285   0.810
 5402WAT      O18307   8.795   7.027   0.903
 5402WAT     H118308   8.855   7.085   0.951
 5402WAT     H218309   8.721   7.084   0.881
 5403WAT      O18310   9.109   7.068   0.431
 5403WAT     H118311   9.129   7.157   0.457
 5403WAT     H218312   9.030   7.044   0.480
 5404WAT      O18313   7.789   8.636   0.474
 5404WAT     H118314   7.736   8.674   0.404
 5404WAT     H218315   7.781   8.698   0.547
 5405WAT      O18316   7.928   7.202   0.334
 5405WAT     H118317   7.980   7.123   0.321
 5405WAT     H218318   7.991   7.270   0.358
 5406WAT      O18319   8.147   7.176   0.640
 5406WAT     H118320   8.084   7.106   0.656
 5406WAT     H218321   8.093   7.252   0.618
 5407WAT      O18322   8.441   8.837   1.907
 5407WAT     H118323   8.534   8.814   1.911
 5407WAT     H218324   8.439   8.920   1.859
 5408WAT      O18325   9.264   8.792   0.607
 5408WAT     H118326   9.282   8.723   0.542
 5408WAT     H218327   9.195   8.844   0.567
 5409WAT      O18328   8.159   7.104   1.883
 5409WAT     H118329   8.131   7.154   1.807
 5409WAT     H218330   8.198   7.024   1.847
 5410WAT      O18331   8.049   8.831   0.362
 5410WAT     H118332   8.122   8.802   0.307
 5410WAT     H218333   8.075   8.807   0.451
 5411WAT      O18334   7.965   8.442   0.362
 5411WAT     H118335   7.902   8.489   0.417
 5411WAT     H218336   7.976   8.358   0.406
 5412WAT      O18337   8.820   7.045   1.941
 5412WAT     H118338   8.808   7.077   2.031
 5412WAT     H218339   8.901   7.085   1.911
 5413WAT      O18340   9.098   8.760   1.889
 5413WAT     H118341   9.177   8.710   1.869
 5413WAT     H218342   9.127   8.828   1.950
 5414WAT      O18343   8.710   5.970   6.487
 5414WAT     H118344   8.702   5.878   6.460
 5414WAT     H218345   8.669   6.019   6.417
 5415WAT      O18346   8.523   6.148   6.675
 5415WAT     H118347   8.446   6.100   6.704
 5415WAT     H218348   8.589   6.080   6.658
 5416WAT      O18349   7.925   6.179   6.763
 5416WAT     H118350   7.842   6.153   6.803
 5416WAT     H218351   7.986   6.186   6.837
 5417WAT      O18352   8.925   6.588   6.553
 5417WAT     H118353   8.879   6.511   6.586
 5417WAT     H218354   9.007   6.591   6.604
 5418WAT      O18355   7.923   6.582   6.783
 5418WAT     H118356   7.953   6.493   6.765
 5418WAT     H218357   7.998   6.638   6.760
 5419WAT      O18358   7.766   5.675   6.141
 5419WAT     H118359   7.677   5.709   6.131
 5419WAT     H218360   7.794   5.655   6.052
 5420WAT      O18361   7.562   5.935   6.730
 5420WAT     H118362   7.619   5.858   6.730
 5420WAT     H218363   7.562   5.965   6.639
 5421WAT      O18364   8.548   6.817   6.515
 5421WAT     H118365   8.486   6.862   6.458
 5421WAT     H218366   8.634   6.832   6.475
 5422WAT      O18367   8.468   6.415   6.676
 5422WAT     H118368   8.461   6.321   6.660
 5422WAT     H218369   8.544   6.424   6.733
 5423WAT      O18370   7.687   5.476   6.909
 5423WAT     H118371   7.669   5.386   6.937
 5423WAT     H218372   7.646   5.530   6.976
 5424WAT      O18373   8.571   5.696   6.699
 5424WAT     H118374   8.608   5.609   6.687
 5424WAT     H218375   8.561   5.729   6.610
 5425WAT      O18376   7.984   5.533   6.245
 5425WAT     H118377   7.994   5.623   6.276
 5425WAT     H218378   7.893   5.528   6.216
 5426WAT      O18379   8.949   5.445   6.392
 5426WAT     H118380   9.031   5.396   6.396
 5426WAT     H218381   8.952   5.504   6.467
 5427WAT      O18382   7.748   5.725   6.769
 5427WAT     H118383   7.817   5.752   6.831
 5427WAT     H218384   7.717   5.641   6.803
 5428WAT      O18385   8.168   5.830   6.678
 5428WAT     H118386   8.218   5.880   6.742
 5428WAT     H218387   8.221   5.752   6.661
 5429WAT      O18388   9.378   5.647   7.048
 5429WAT     H118389   9.307   5.686   6.997
 5429WAT     H218390   9.404   5.717   7.109
 5430WAT      O18391   7.996   5.294   7.105
 5430WAT     H118392   7.996   5.346   7.024
 5430WAT     H218393   7.913   5.246   7.102
 5431WAT      O18394   8.635   6.305   6.255
 5431WAT     H118395   8.573   6.352   6.198
 5431WAT     H218396   8.686   6.374   6.296
 5432WAT      O18397   8.121   6.258   6.922
 5432WAT     H118398   8.088   6.321   6.987
 5432WAT     H218399   8.139   6.311   6.845
 5433WAT      O18400   8.972   5.639   6.669
 5433WAT     H118401   8.902   5.668   6.727
 5433WAT     H218402   9.009   5.720   6.633
 5434WAT      O18403   7.964   5.465   6.905
 5434WAT     H118404   7.998   5.549   6.876
 5434WAT     H218405   7.870   5.480   6.917
 5435WAT      O18406   8.042   6.455   7.104
 5435WAT     H118407   8.104   6.522   7.076
 5435WAT     H218408   7.956   6.496   7.095
 5436WAT      O18409   7.572   6.374   5.992
 5436WAT     H118410   7.534   6.423   5.919
 5436WAT     H218411   7.597   6.441   6.055
 5437WAT      O18412   9.134   6.601   6.896
 5437WAT     H118413   9.066   6.668   6.895
 5437WAT     H218414   9.188   6.621   6.819
 5438WAT      O18415   9.279   5.584   6.708
 5438WAT     H118416   9.185   5.587   6.721
 5438WAT     H218417   9.312   5.665   6.747
 5439WAT      O18418   8.332   5.214   6.538
 5439WAT     H118419   8.363   5.158   6.466
 5439WAT     H218420   8.239   5.227   6.520
 5440WAT      O18421   8.888   6.786   6.767
 5440WAT     H118422   8.889   6.745   6.680
 5440WAT     H218423   8.832   6.863   6.757
 5441WAT      O18424   9.017   6.458   6.276
 5441WAT     H118425   9.006   6.363   6.288
 5441WAT     H218426   9.017   6.494   6.365
 5442WAT      O18427   8.827   6.276   6.900
 5442WAT     H118428   8.869   6.254   6.816
 5442WAT     H218429   8.900   6.302   6.957
 5443WAT      O18430   8.571   6.020   6.212
 5443WAT     H118431   8.479   6.014   6.234
 5443WAT     H218432   8.587   6.114   6.200
 5444WAT      O18433   8.570   5.648   5.911
 5444WAT     H118434   8.476   5.664   5.920
 5444WAT     H218435   8.602   5.719   5.857
 5445WAT      O18436   9.222   6.116   6.909
 5445WAT     H118437   9.139   6.123   6.861
 5445WAT     H218438   9.282   6.174   6.862
 5446WAT      O18439   8.974   6.177   6.262
 5446WAT     H118440   8.912   6.143   6.197
 5446WAT     H218441   8.973   6.112   6.333
 5447WAT      O18442   8.919   5.794   7.004
 5447WAT     H118443   8.877   5.877   7.029
 5447WAT     H218444   8.845   5.736   6.984
 5448WAT      O18445   8.132   6.073   6.490
 5448WAT     H118446   8.091   6.002   6.440
 5448WAT     H218447   8.140   6.039   6.579
 5449WAT      O18448   8.179   6.442   6.706
 5449WAT     H118449   8.149   6.381   6.638
 5449WAT     H218450   8.274   6.445   6.695
 5450WAT      O18451   8.003   5.750   6.868
 5450WAT     H118452   8.058   5.761   6.790
 5450WAT     H218453   8.055   5.788   6.939
 5451WAT      O18454   8.988   6.799   7.072
 5451WAT     H118455   8.940   6.880   7.053
 5451WAT     H218456   8.919   6.734   7.088
 5452WAT      O18457   8.088   6.415   7.371
 5452WAT     H118458   7.998   6.438   7.396
 5452WAT     H218459   8.090   6.428   7.276
 5453WAT      O18460   8.792   6.100   5.963
 5453WAT     H118461   8.836   6.017   5.948
 5453WAT     H218462   8.863   6.164   5.971
 5454WAT      O18463   7.971   6.103   7.229
 5454WAT     H118464   7.957   6.190   7.266
 5454WAT     H218465   7.882   6.068   7.214
 5455WAT      O18466   8.603   6.594   6.359
 5455WAT     H118467   8.647   6.669   6.318
 5455WAT     H218468   8.597   6.619   6.452
 5456WAT      O18469   8.150   6.697   7.450
 5456WAT     H118470   8.148   6.737   7.363
 5456WAT     H218471   8.134   6.604   7.433
 5457WAT      O18472   9.150   5.226   5.794
 5457WAT     H118473   9.119   5.235   5.884
 5457WAT     H218474   9.226   5.284   5.789
 5458WAT      O18475   7.802   5.962   6.240
 5458WAT     H118476   7.790   6.035   6.179
 5458WAT     H218477   7.771   5.885   6.192
 5459WAT      O18478   7.566   6.280   6.820
 5459WAT     H118479   7.574   6.293   6.726
 5459WAT     H218480   7.627   6.209   6.840
 5460WAT      O18481   7.690   6.450   6.462
 5460WAT     H118482   7.650   6.464   6.376
 5460WAT     H218483   7.779   6.421   6.441
 5461WAT      O18484   9.286   6.494   7.295
 5461WAT     H118485   9.298   6.470   7.203
 5461WAT     H218486   9.290   6.411   7.342
 5462WAT      O18487   8.672   6.865   7.152
 5462WAT     H118488   8.723   6.856   7.232
 5462WAT     H218489   8.588   6.899   7.181
 5463WAT      O18490   8.870   6.893   6.095
 5463WAT     H118491   8.854   6.864   6.185
 5463WAT     H218492   8.853   6.815   6.041
 5464WAT      O18493   8.117   6.871   6.273
 5464WAT     H118494   8.100   6.779   6.251
 5464WAT     H218495   8.032   6.907   6.297
 5465WAT      O18496   8.840   6.644   5.951
 5465WAT     H118497   8.770   6.644   5.885
 5465WAT     H218498   8.914   6.602   5.908
 5466WAT      O18499   8.796   6.807   6.358
 5466WAT     H118500   8.842   6.728   6.390
 5466WAT     H218501   8.830   6.878   6.413
 5467WAT      O18502   9.271   5.700   7.392
 5467WAT     H118503   9.210   5.750   7.339
 5467WAT     H218504   9.239   5.610   7.386
 5468WAT      O18505   7.571   6.384   7.074
 5468WAT     H118506   7.588   6.337   6.993
 5468WAT     H218507   7.618   6.333   7.141
 5469WAT      O18508   8.049   5.297   6.578
 5469WAT     H118509   8.004   5.375   6.545
 5469WAT     H218510   8.104   5.329   6.649
 5470WAT      O18511   8.477   5.583   7.138
 5470WAT     H118512   8.431   5.604   7.220
 5470WAT     H218513   8.437   5.502   7.108
 5471WAT      O18514   8.977   5.706   7.251
 5471WAT     H118515   8.892   5.676   7.283
 5471WAT     H218516   8.961   5.730   7.160
 5472WAT      O18517   8.687   5.856   7.461
 5472WAT     H118518   8.719   5.772   7.427
 5472WAT     H218519   8.766   5.908   7.476
 5473WAT      O18520   8.360   5.259   6.066
 5473WAT     H118521   8.298   5.259   6.139
 5473WAT     H218522   8.351   5.172   6.026
 5474WAT      O18523   8.252   5.351   6.764
 5474WAT     H118524   8.282   5.442   6.756
 5474WAT     H218525   8.307   5.302   6.702
 5475WAT      O18526   8.028   5.809   6.351
 5475WAT     H118527   8.005   5.788   6.441
 5475WAT     H218528   7.950   5.852   6.316
 5476WAT      O18529   8.751   5.810   6.211
 5476WAT     H118530   8.691   5.882   6.192
 5476WAT     H218531   8.805   5.804   6.132
 5477WAT      O18532   8.272   5.899   7.417
 5477WAT     H118533   8.262   5.805   7.402
 5477WAT     H218534   8.356   5.921   7.378
 5478WAT      O18535   8.611   5.673   6.414
 5478WAT     H118536   8.651   5.705   6.332
 5478WAT     H218537   8.647   5.586   6.425
 5479WAT      O18538   7.785   5.540   7.233
 5479WAT     H118539   7.745   5.625   7.253
 5479WAT     H218540   7.716   5.476   7.252
 5480WAT      O18541   7.515   5.332   6.636
 5480WAT     H118542   7.486   5.389   6.707
 5480WAT     H218543   7.589   5.284   6.672
 5481WAT      O18544   7.534   5.727   5.757
 5481WAT     H118545   7.525   5.821   5.771
 5481WAT     H218546   7.498   5.712   5.669
 5482WAT      O18547   8.670   5.932   6.823
 5482WAT     H118548   8.597   5.983   6.858
 5482WAT     H218549   8.630   5.851   6.793
 5483WAT      O18550   8.314   5.600   6.664
 5483WAT     H118551   8.314   5.556   6.579
 5483WAT     H218552   8.403   5.632   6.675
 5484WAT      O18553   7.899   5.588   6.560
 5484WAT     H118554   7.865   5.636   6.635
 5484WAT     H218555   7.822   5.543   6.524
 5485WAT      O18556   8.320   5.700   5.963
 5485WAT     H118557   8.332   5.696   6.058
 5485WAT     H218558   8.281   5.786   5.947
 5486WAT      O18559   8.716   5.478   6.764
 5486WAT     H118560   8.718   5.523   6.849
 5486WAT     H218561   8.691   5.388   6.786
 5487WAT      O18562   8.221   5.931   5.903
 5487WAT     H118563   8.164   5.886   5.840
 5487WAT     H218564   8.292   5.967   5.849
 5488WAT      O18565   9.059   5.219   7.348
 5488WAT     H118566   9.091   5.146   7.401
 5488WAT     H218567   9.062   5.187   7.258
 5489WAT      O18568   7.729   6.321   7.290
 5489WAT     H118569   7.690   6.257   7.350
 5489WAT     H218570   7.760   6.392   7.347
 5490WAT      O18571   8.344   6.006   6.838
 5490WAT     H118572   8.380   5.959   6.913
 5490WAT     H218573   8.325   6.093   6.873
 5491WAT      O18574   7.630   5.480   6.451
 5491WAT     H118575   7.602   5.444   6.535
 5491WAT     H218576   7.624   5.407   6.390
 5492WAT      O18577   8.123   5.910   7.070
 5492WAT     H118578   8.092   5.998   7.093
 5492WAT     H218579   8.218   5.916   7.074
 5493WAT      O18580   7.976   6.331   6.130
 5493WAT     H118581   7.898   6.277   6.114
 5493WAT     H218582   8.048   6.279   6.096
 5494WAT      O18583   9.051   6.230   6.709
 5494WAT     H118584   9.123   6.280   6.670
 5494WAT     H218585   9.031   6.163   6.645
 5495WAT      O18586   8.597   5.370   6.124
 5495WAT     H118587   8.516   5.320   6.116
 5495WAT     H218588   8.578   5.454   6.082
 5496WAT      O18589   8.590   6.237   7.298
 5496WAT     H118590   8.583   6.145   7.272
 5496WAT     H218591   8.527   6.247   7.369
 5497WAT      O18592   8.869   5.807   5.953
 5497WAT     H118593   8.958   5.838   5.936
 5497WAT     H218594   8.866   5.720   5.914
 5498WAT      O18595   7.980   6.298   6.494
 5498WAT     H118596   8.032   6.217   6.488
 5498WAT     H218597   7.935   6.291   6.578
 5499WAT      O18598   8.469   6.424   6.021
 5499WAT     H118599   8.503   6.499   5.971
 5499WAT     H218600   8.386   6.455   6.057
 5500WAT      O18601   7.728   5.994   7.185
 5500WAT     H118602   7.692   6.061   7.244
 5500WAT     H218603   7.699   5.911   7.222
 5501WAT      O18604   8.048   6.040   7.473
 5501WAT     H118605   8.018   6.055   7.384
 5501WAT     H218606   8.126   5.984   7.464
 5502WAT      O18607   8.583   6.520   7.273
 5502WAT     H118608   8.584   6.426   7.251
 5502WAT     H218609   8.512   6.528   7.337
 5503WAT      O18610   9.096   5.938   5.900
 5503WAT     H118611   9.088   5.981   5.815
 5503WAT     H218612   9.168   5.984   5.943
 5504WAT      O18613   9.204   6.184   7.208
 5504WAT     H118614   9.131   6.243   7.188
 5504WAT     H218615   9.257   6.183   7.128
 5505WAT      O18616   9.199   6.623   6.173
 5505WAT     H118617   9.135   6.558   6.200
 5505WAT     H218618   9.160   6.664   6.095
 5506WAT      O18619   8.757   6.356   6.557
 5506WAT     H118620   8.792   6.297   6.491
 5506WAT     H218621   8.668   6.324   6.575
 5507WAT      O18622   8.365   6.432   6.298
 5507WAT     H118623   8.434   6.487   6.336
 5507WAT     H218624   8.287   6.487   6.302
 5508WAT      O18625   7.579   5.994   5.847
 5508WAT     H118626   7.666   6.022   5.876
 5508WAT     H218627   7.530   6.075   5.836
 5509WAT      O18628   8.296   6.133   6.259
 5509WAT     H118629   8.341   6.214   6.282
 5509WAT     H218630   8.261   6.101   6.343
 5510WAT      O18631   8.526   6.684   6.982
 5510WAT     H118632   8.591   6.704   7.050
 5510WAT     H218633   8.562   6.608   6.937
 5511WAT      O18634   7.886   5.167   6.307
 5511WAT     H118635   7.873   5.166   6.402
 5511WAT     H218636   7.804   5.201   6.272
 5512WAT      O18637   8.653   6.484   6.854
 5512WAT     H118638   8.718   6.414   6.865
 5512WAT     H218639   8.706   6.562   6.836
 5513WAT      O18640   9.038   6.513   5.827
 5513WAT     H118641   9.015   6.441   5.886
 5513WAT     H218642   8.999   6.488   5.743
 5514WAT      O18643   8.831   6.564   7.174
 5514WAT     H118644   8.864   6.623   7.242
 5514WAT     H218645   8.739   6.551   7.197
 5515WAT      O18646   7.616   6.915   5.904
 5515WAT     H118647   7.652   6.975   5.839
 5515WAT     H218648   7.602   6.970   5.981
 5516WAT      O18649   7.586   5.343   7.253
 5516WAT     H118650   7.514   5.363   7.313
 5516WAT     H218651   7.628   5.265   7.290
 5517WAT      O18652   8.996   6.304   5.993
 5517WAT     H118653   8.967   6.350   6.071
 5517WAT     H218654   9.076   6.258   6.019
 5518WAT      O18655   7.615   6.742   7.351
 5518WAT     H118656   7.625   6.648   7.337
 5518WAT     H218657   7.549   6.768   7.287
 5519WAT      O18658   8.218   6.654   5.986
 5519WAT     H118659   8.217   6.727   5.924
 5519WAT     H218660   8.126   6.629   5.995
 5520WAT      O18661   7.778   6.176   6.060
 5520WAT     H118662   7.717   6.250   6.061
 5520WAT     H218663   7.825   6.185   5.978
 5521WAT      O18664   8.735   5.592   7.028
 5521WAT     H118665   8.772   5.510   7.061
 5521WAT     H218666   8.649   5.598   7.069
 5522WAT      O18667   9.072   5.488   6.109
 5522WAT     H118668   9.009   5.498   6.037
 5522WAT     H218669   9.022   5.510   6.188
 5523WAT      O18670   8.516   6.660   5.852
 5523WAT     H118671   8.527   6.640   5.759
 5523WAT     H218672   8.426   6.634   5.872
 5524WAT      O18673   8.269   5.716   6.250
 5524WAT     H118674   8.198   5.763   6.294
 5524WAT     H218675   8.297   5.650   6.314
 5525WAT      O18676   8.431   5.858   7.050
 5525WAT     H118677   8.481   5.905   7.117
 5525WAT     H218678   8.445   5.765   7.071
 5526WAT      O18679   8.672   5.388   6.394
 5526WAT     H118680   8.660   5.390   6.299
 5526WAT     H218681   8.767   5.393   6.406
 5527WAT      O18682   8.381   6.912   6.321
 5527WAT     H118683   8.406   6.908   6.229
 5527WAT     H218684   8.286   6.899   6.321
 5528WAT      O18685   8.089   5.547   5.988
 5528WAT     H118686   8.174   5.590   5.981
 5528WAT     H218687   8.052   5.578   6.070
 5529WAT      O18688   9.152   5.479   7.134
 5529WAT     H118689   9.102   5.553   7.168
 5529WAT     H218690   9.233   5.518   7.103
 5530WAT      O18691   8.981   6.004   6.479
 5530WAT     H118692   8.887   6.005   6.496
 5530WAT     H218693   9.013   5.925   6.524
 5531WAT      O18694   7.979   6.172   5.835
 5531WAT     H118695   8.056   6.161   5.891
 5531WAT     H218696   7.987   6.102   5.770
 5532WAT      O18697   7.848   5.915   5.903
 5532WAT     H118698   7.856   5.820   5.915
 5532WAT     H218699   7.938   5.948   5.914
 5533WAT      O18700   9.181   6.721   6.647
 5533WAT     H118701   9.194   6.803   6.694
 5533WAT     H218702   9.268   6.700   6.612
 5534WAT      O18703   7.929   6.930   6.614
 5534WAT     H118704   8.002   6.875   6.641
 5534WAT     H218705   7.967   7.017   6.600
 5535WAT      O18706   7.617   6.537   6.201
 5535WAT     H118707   7.524   6.561   6.200
 5535WAT     H218708   7.664   6.620   6.189
 5536WAT      O18709   8.240   6.847   5.796
 5536WAT     H118710   8.319   6.876   5.751
 5536WAT     H218711   8.188   6.804   5.728
 5537WAT      O18712   8.856   6.832   7.388
 5537WAT     H118713   8.951   6.824   7.383
 5537WAT     H218714   8.841   6.899   7.456
 5538WAT      O18715   9.145   6.770   5.938
 5538WAT     H118716   9.116   6.729   5.857
 5538WAT     H218717   9.125   6.863   5.926
 5539WAT      O18718   7.601   6.097   7.427
 5539WAT     H118719   7.652   6.039   7.484
 5539WAT     H218720   7.527   6.126   7.481
 5540WAT      O18721   8.291   6.369   5.782
 5540WAT     H118722   8.281   6.308   5.855
 5540WAT     H218723   8.275   6.317   5.704
 5541WAT      O18724   8.306   6.238   7.380
 5541WAT     H118725   8.230   6.295   7.372
 5541WAT     H218726   8.325   6.209   7.291
 5542WAT      O18727   8.615   6.276   5.843
 5542WAT     H118728   8.560   6.320   5.907
 5542WAT     H218729   8.678   6.225   5.895
 5543WAT      O18730   9.021   6.411   7.436
 5543WAT     H118731   9.095   6.445   7.386
 5543WAT     H218732   8.944   6.428   7.381
 5544WAT      O18733   8.182   6.172   6.032
 5544WAT     H118734   8.224   6.155   6.117
 5544WAT     H218735   8.195   6.091   5.983
 5545WAT      O18736   7.998   5.770   7.313
 5545WAT     H118737   7.945   5.720   7.250
 5545WAT     H218738   8.065   5.812   7.260
 5546WAT      O18739   8.433   6.074   5.757
 5546WAT     H118740   8.485   6.002   5.721
 5546WAT     H218741   8.498   6.138   5.787
 5547WAT      O18742   8.888   6.216   7.290
 5547WAT     H118743   8.930   6.232   7.375
 5547WAT     H218744   8.795   6.229   7.306
 5548WAT      O18745   8.935   5.950   7.490
 5548WAT     H118746   8.994   5.875   7.481
 5548WAT     H218747   8.953   6.003   7.412
 5549WAT      O18748   8.047   5.466   7.321
 5549WAT     H118749   8.038   5.404   7.249
 5549WAT     H218750   7.989   5.539   7.298
 5550WAT      O18751   8.324   5.322   7.024
 5550WAT     H118752   8.279   5.324   6.940
 5550WAT     H218753   8.260   5.282   7.084
 5551WAT      O18754   8.364   6.211   7.087
 5551WAT     H118755   8.406   6.296   7.069
 5551WAT     H218756   8.272   6.225   7.064
 5552WAT      O18757   8.598   5.985   7.225
 5552WAT     H118758   8.610   5.925   7.299
 5552WAT     H218759   8.684   5.988   7.183
 5553WAT      O18760   8.832   6.040   7.083
 5553WAT     H118761   8.779   6.092   7.022
 5553WAT     H218762   8.866   6.103   7.146
 5554WAT      O18763   8.072   5.779   5.727
 5554WAT     H118764   8.052   5.693   5.763
 5554WAT     H218765   8.055   5.770   5.633
 5555WAT      O18766   8.149   6.842   7.198
 5555WAT     H118767   8.096   6.914   7.166
 5555WAT     H218768   8.175   6.794   7.119
 5556WAT      O18769   8.275   5.639   7.351
 5556WAT     H118770   8.334   5.608   7.419
 5556WAT     H218771   8.193   5.592   7.366
 5557WAT      O18772   8.757   5.600   7.374
 5557WAT     H118773   8.688   5.534   7.368
 5557WAT     H218774   8.829   5.556   7.419
 5558WAT      O18775   8.820   5.260   5.980
 5558WAT     H118776   8.848   5.176   6.016
 5558WAT     H218777   8.742   5.283   6.031
 5559WAT      O18778   7.952   5.489   5.726
 5559WAT     H118779   7.982   5.490   5.635
 5559WAT     H218780   8.025   5.454   5.776
 5560WAT      O18781   8.435   6.965   7.224
 5560WAT     H118782   8.428   7.056   7.255
 5560WAT     H218783   8.345   6.934   7.221
 5561WAT      O18784   8.273   5.383   5.824
 5561WAT     H118785   8.239   5.315   5.766
 5561WAT     H218786   8.294   5.337   5.906
 5562WAT      O18787   8.490   6.882   5.986
 5562WAT     H118788   8.579   6.916   5.988
 5562WAT     H218789   8.493   6.810   5.924
 5563WAT      O18790   7.854   6.419   5.809
 5563WAT     H118791   7.898   6.474   5.875
 5563WAT     H218792   7.902   6.337   5.810
 5564WAT      O18793   7.575   6.698   6.554
 5564WAT     H118794   7.608   6.611   6.531
 5564WAT     H218795   7.618   6.719   6.637
 5565WAT      O18796   8.035   6.531   6.320
 5565WAT     H118797   8.005   6.519   6.410
 5565WAT     H218798   8.024   6.445   6.280
 5566WAT      O18799   7.624   6.785   6.828
 5566WAT     H118800   7.581   6.803   6.911
 5566WAT     H218801   7.681   6.861   6.814
 5567WAT      O18802   9.188   6.735   7.257
 5567WAT     H118803   9.128   6.741   7.183
 5567WAT     H218804   9.201   6.641   7.270
 5568WAT      O18805   9.312   6.509   5.791
 5568WAT     H118806   9.229   6.516   5.838
 5568WAT     H218807   9.330   6.598   5.760
 5569WAT      O18808   9.257   6.184   6.041
 5569WAT     H118809   9.334   6.241   6.052
 5569WAT     H218810   9.259   6.127   6.118
 5570WAT      O18811   7.607   6.036   6.464
 5570WAT     H118812   7.542   6.009   6.400
 5570WAT     H218813   7.691   6.025   6.419
 5571WAT      O18814   9.358   6.269   6.525
 5571WAT     H118815   9.395   6.191   6.485
 5571WAT     H218816   9.422   6.338   6.508
 5572WAT      O18817   9.056   6.408   7.067
 5572WAT     H118818   8.975   6.451   7.093
 5572WAT     H218819   9.097   6.469   7.005
 5573WAT      O18820   9.263   6.213   5.757
 5573WAT     H118821   9.290   6.304   5.744
 5573WAT     H218822   9.244   6.207   5.850
 5574WAT      O18823   8.902   5.516   5.886
 5574WAT     H118824   8.944   5.497   5.802
 5574WAT     H218825   8.872   5.430   5.917
 5575WAT      O18826   9.252   6.007   6.256
 5575WAT     H118827   9.215   5.930   6.213
 5575WAT     H218828   9.179   6.045   6.305
 5576WAT      O18829   7.711   6.075   6.918
 5576WAT     H118830   7.748   6.066   7.006
 5576WAT     H218831   7.654   5.998   6.908
 5577WAT      O18832   9.191   5.921   7.219
 5577WAT     H118833   9.168   5.899   7.129
 5577WAT     H218834   9.217   6.013   7.215
 5578WAT      O18835   7.666   5.766   7.309
 5578WAT     H118836   7.577   5.762   7.343
 5578WAT     H218837   7.720   5.786   7.385
 5579WAT      O18838   7.529   5.757   6.058
 5579WAT     H118839   7.438   5.783   6.041
 5579WAT     H218840   7.577   5.784   5.980
 5580WAT      O18841   9.180   5.829   6.586
 5580WAT     H118842   9.232   5.780   6.523
 5580WAT     H218843   9.238   5.843   6.661
 5581WAT      O18844   9.198   5.838   6.938
 5581WAT     H118845   9.103   5.834   6.950
 5581WAT     H218846   9.216   5.929   6.915
 5582WAT      O18847   7.783   5.663   5.849
 5582WAT     H118848   7.854   5.621   5.801
 5582WAT     H218849   7.712   5.670   5.786
 5583WAT      O18850   7.748   5.268   5.753
 5583WAT     H118851   7.820   5.322   5.785
 5583WAT     H218852   7.775   5.241   5.666
 5584WAT      O18853   9.129   5.755   6.180
 5584WAT     H118854   9.178   5.732   6.258
 5584WAT     H218855   9.109   5.671   6.138
 5585WAT      O18856   7.717   5.193   6.743
 5585WAT     H118857   7.782   5.138   6.699
 5585WAT     H218858   7.759   5.219   6.826
 5586WAT      O18859   9.272   5.619   6.433
 5586WAT     H118860   9.261   5.603   6.527
 5586WAT     H218861   9.348   5.566   6.409
 5587WAT      O18862   9.106   5.213   7.079
 5587WAT     H118863   9.170   5.274   7.116
 5587WAT     H218864   9.121   5.216   6.985
 5588WAT      O18865   9.361   5.402   5.757
 5588WAT     H118866   9.453   5.389   5.737
 5588WAT     H218867   9.358   5.410   5.853
 5589WAT      O18868   9.368   5.479   6.020
 5589WAT     H118869   9.288   5.472   6.073
 5589WAT     H218870   9.388   5.572   6.019
 5590WAT      O18871   9.062   6.883   6.419
 5590WAT     H118872   9.122   6.851   6.352
 5590WAT     H218873   9.088   6.835   6.499
 5591WAT      O18874   7.692   5.209   7.018
 5591WAT     H118875   7.657   5.254   7.094
 5591WAT     H218876   7.659   5.119   7.026
 5592WAT      O18877   8.223   6.682   6.994
 5592WAT     H118878   8.199   6.708   6.906
 5592WAT     H218879   8.317   6.699   7.000
 5593WAT      O18880   8.443   5.328   7.370
 5593WAT     H118881   8.437   5.387   7.445
 5593WAT     H218882   8.537   5.317   7.355
 5594WAT      O18883   8.707   5.294   7.334
 5594WAT     H118884   8.768   5.325   7.268
 5594WAT     H218885   8.762   5.245   7.396
 5595WAT      O18886   9.349   6.883   7.074
 5595WAT     H118887   9.299   6.923   7.003
 5595WAT     H218888   9.288   6.821   7.114
 5596WAT      O18889   7.759   5.162   7.345
 5596WAT     H118890   7.814   5.143   7.269
 5596WAT     H218891   7.766   5.082   7.399
 5597WAT      O18892   7.837   6.821   7.146
 5597WAT     H118893   7.777   6.807   7.220
 5597WAT     H218894   7.836   6.737   7.100
 5598WAT      O18895   8.781   5.150   6.967
 5598WAT     H118896   8.694   5.183   6.946
 5598WAT     H218897   8.770   5.103   7.049
 5599WAT      O18898   8.872   5.371   7.105
 5599WAT     H118899   8.839   5.289   7.067
 5599WAT     H218900   8.967   5.366   7.093
 5600WAT      O18901   9.117   6.948   6.802
 5600WAT     H118902   9.071   7.023   6.765
 5600WAT     H218903   9.054   6.876   6.796
 5601WAT      O18904   7.800   6.557   7.041
 5601WAT     H118905   7.727   6.495   7.035
 5601WAT     H218906   7.806   6.597   6.954
 5602WAT      O18907   8.160   6.779   6.720
 5602WAT     H118908   8.212   6.717   6.667
 5602WAT     H218909   8.225   6.829   6.769
 5603WAT      O18910   8.434   6.868   6.803
 5603WAT     H118911   8.463   6.842   6.715
 5603WAT     H218912   8.485   6.812   6.862
 5604WAT      O18913   8.556   5.242   6.860
 5604WAT     H118914   8.478   5.289   6.888
 5604WAT     H218915   8.527   5.151   6.850
 5605WAT      O18916   9.011   5.312   6.665
 5605WAT     H118917   9.055   5.306   6.580
 5605WAT     H218918   8.984   5.403   6.672
 5606WAT      O18919   9.198   5.275   6.466
 5606WAT     H118920   9.191   5.181   6.451
 5606WAT     H218921   9.275   5.286   6.521
 5607WAT      O18922   7.628   6.889   6.362
 5607WAT     H118923   7.611   6.826   6.432
 5607WAT     H218924   7.541   6.910   6.327
 5608WAT      O18925   7.690   5.272   6.113
 5608WAT     H118926   7.766   5.283   6.055
 5608WAT     H218927   7.644   5.356   6.108
 5609WAT      O18928   8.344   5.483   6.412
 5609WAT     H118929   8.263   5.446   6.378
 5609WAT     H218930   8.395   5.408   6.442
 5610WAT      O18931   8.795   5.150   6.535
 5610WAT     H118932   8.855   5.207   6.583
 5610WAT     H218933   8.721   5.206   6.513
 5611WAT      O18934   9.109   5.190   6.063
 5611WAT     H118935   9.129   5.280   6.090
 5611WAT     H218936   9.030   5.167   6.112
 5612WAT      O18937   7.789   6.758   6.107
 5612WAT     H118938   7.736   6.796   6.036
 5612WAT     H218939   7.781   6.821   6.179
 5613WAT      O18940   7.928   5.325   5.967
 5613WAT     H118941   7.980   5.246   5.954
 5613WAT     H218942   7.991   5.393   5.990
 5614WAT      O18943   8.147   5.298   6.272
 5614WAT     H118944   8.084   5.228   6.289
 5614WAT     H218945   8.093   5.375   6.250
 5615WAT      O18946   9.264   6.914   6.239
 5615WAT     H118947   9.282   6.845   6.175
 5615WAT     H218948   9.195   6.967   6.200
 5616WAT      O18949   8.049   6.953   5.994
 5616WAT     H118950   8.122   6.925   5.940
 5616WAT     H218951   8.075   6.929   6.083
 5617WAT      O18952   7.965   6.565   5.995
 5617WAT     H118953   7.902   6.612   6.050
 5617WAT     H218954   7.976   6.480   6.038
 5618WAT      O18955   8.710   5.970   4.610
 5618WAT     H118956   8.702   5.878   4.583
 5618WAT     H218957   8.669   6.019   4.539
 5619WAT      O18958   8.523   6.148   4.798
 5619WAT     H118959   8.446   6.100   4.827
 5619WAT     H218960   8.589   6.080   4.780
 5620WAT      O18961   7.925   6.179   4.886
 5620WAT     H118962   7.842   6.153   4.926
 5620WAT     H218963   7.986   6.186   4.959
 5621WAT      O18964   8.925   6.588   4.676
 5621WAT     H118965   8.879   6.511   4.709
 5621WAT     H218966   9.007   6.591   4.726
 5622WAT      O18967   7.923   6.582   4.905
 5622WAT     H118968   7.953   6.493   4.887
 5622WAT     H218969   7.998   6.638   4.882
 5623WAT      O18970   7.766   5.675   4.264
 5623WAT     H118971   7.677   5.709   4.254
 5623WAT     H218972   7.794   5.655   4.175
 5624WAT      O18973   7.562   5.935   4.852
 5624WAT     H118974   7.619   5.858   4.852
 5624WAT     H218975   7.562   5.965   4.762
 5625WAT      O18976   8.548   6.817   4.638
 5625WAT     H118977   8.486   6.862   4.581
 5625WAT     H218978   8.634   6.832   4.598
 5626WAT      O18979   8.468   6.415   4.799
 5626WAT     H118980   8.461   6.321   4.782
 5626WAT     H218981   8.544   6.424   4.856
 5627WAT      O18982   7.687   5.476   5.031
 5627WAT     H118983   7.669   5.386   5.059
 5627WAT     H218984   7.646   5.530   5.099
 5628WAT      O18985   8.571   5.696   4.821
 5628WAT     H118986   8.608   5.609   4.810
 5628WAT     H218987   8.561   5.729   4.732
 5629WAT      O18988   7.984   5.533   4.367
 5629WAT     H118989   7.994   5.623   4.398
 5629WAT     H218990   7.893   5.528   4.338
 5630WAT      O18991   8.949   5.445   4.515
 5630WAT     H118992   9.031   5.396   4.519
 5630WAT     H218993   8.952   5.504   4.590
 5631WAT      O18994   7.748   5.725   4.892
 5631WAT     H118995   7.817   5.752   4.954
 5631WAT     H218996   7.717   5.641   4.925
 5632WAT      O18997   8.168   5.830   4.801
 5632WAT     H118998   8.218   5.880   4.865
 5632WAT     H218999   8.221   5.752   4.783
 5633WAT      O19000   9.378   5.647   5.171
 5633WAT     H119001   9.307   5.686   5.119
 5633WAT     H219002   9.404   5.717   5.231
 5634WAT      O19003   7.996   5.294   5.227
 5634WAT     H119004   7.996   5.346   5.147
 5634WAT     H219005   7.913   5.246   5.225
 5635WAT      O19006   8.635   6.305   4.377
 5635WAT     H119007   8.573   6.352   4.321
 5635WAT     H219008   8.686   6.374   4.419
 5636WAT      O19009   8.121   6.258   5.045
 5636WAT     H119010   8.088   6.321   5.109
 5636WAT     H219011   8.139   6.311   4.967
 5637WAT      O19012   8.972   5.639   4.792
 5637WAT     H119013   8.902   5.668   4.850
 5637WAT     H219014   9.009   5.720   4.756
 5638WAT      O19015   7.964   5.465   5.028
 5638WAT     H119016   7.998   5.549   4.999
 5638WAT     H219017   7.870   5.480   5.040
 5639WAT      O19018   8.042   6.455   5.227
 5639WAT     H119019   8.104   6.522   5.198
 5639WAT     H219020   7.956   6.496   5.217
 5640WAT      O19021   7.572   6.374   4.115
 5640WAT     H119022   7.534   6.423   4.041
 5640WAT     H219023   7.597   6.441   4.178
 5641WAT      O19024   9.134   6.601   5.018
 5641WAT     H119025   9.066   6.668   5.017
 5641WAT     H219026   9.188   6.621   4.942
 5642WAT      O19027   9.279   5.584   4.831
 5642WAT     H119028   9.185   5.587   4.844
 5642WAT     H219029   9.312   5.665   4.869
 5643WAT      O19030   8.332   5.214   4.660
 5643WAT     H119031   8.363   5.158   4.589
 5643WAT     H219032   8.239   5.227   4.642
 5644WAT      O19033   8.888   6.786   4.890
 5644WAT     H119034   8.889   6.745   4.803
 5644WAT     H219035   8.832   6.863   4.879
 5645WAT      O19036   9.017   6.458   4.398
 5645WAT     H119037   9.006   6.363   4.411
 5645WAT     H219038   9.017   6.494   4.487
 5646WAT      O19039   8.827   6.276   5.022
 5646WAT     H119040   8.869   6.254   4.939
 5646WAT     H219041   8.900   6.302   5.079
 5647WAT      O19042   8.571   6.020   4.334
 5647WAT     H119043   8.479   6.014   4.357
 5647WAT     H219044   8.587   6.114   4.323
 5648WAT      O19045   8.570   5.648   4.034
 5648WAT     H119046   8.476   5.664   4.042
 5648WAT     H219047   8.602   5.719   3.979
 5649WAT      O19048   9.222   6.116   5.032
 5649WAT     H119049   9.139   6.123   4.984
 5649WAT     H219050   9.282   6.174   4.985
 5650WAT      O19051   8.974   6.177   4.384
 5650WAT     H119052   8.912   6.143   4.320
 5650WAT     H219053   8.973   6.112   4.455
 5651WAT      O19054   8.919   5.794   5.126
 5651WAT     H119055   8.877   5.877   5.151
 5651WAT     H219056   8.845   5.736   5.107
 5652WAT      O19057   8.132   6.073   4.612
 5652WAT     H119058   8.091   6.002   4.563
 5652WAT     H219059   8.140   6.039   4.701
 5653WAT      O19060   8.179   6.442   4.829
 5653WAT     H119061   8.149   6.381   4.761
 5653WAT     H219062   8.274   6.445   4.818
 5654WAT      O19063   8.003   5.750   4.990
 5654WAT     H119064   8.058   5.761   4.913
 5654WAT     H219065   8.055   5.788   5.062
 5655WAT      O19066   8.988   6.799   5.195
 5655WAT     H119067   8.940   6.880   5.176
 5655WAT     H219068   8.919   6.734   5.210
 5656WAT      O19069   8.088   6.415   5.494
 5656WAT     H119070   7.998   6.438   5.518
 5656WAT     H219071   8.090   6.428   5.399
 5657WAT      O19072   8.792   6.100   4.085
 5657WAT     H119073   8.836   6.017   4.071
 5657WAT     H219074   8.863   6.164   4.094
 5658WAT      O19075   7.971   6.103   5.351
 5658WAT     H119076   7.957   6.190   5.388
 5658WAT     H219077   7.882   6.068   5.337
 5659WAT      O19078   8.603   6.594   4.482
 5659WAT     H119079   8.647   6.669   4.441
 5659WAT     H219080   8.597   6.619   4.574
 5660WAT      O19081   8.150   6.697   5.572
 5660WAT     H119082   8.148   6.737   5.485
 5660WAT     H219083   8.134   6.604   5.556
 5661WAT      O19084   9.150   5.226   3.917
 5661WAT     H119085   9.119   5.235   4.007
 5661WAT     H219086   9.226   5.284   3.912
 5662WAT      O19087   7.802   5.962   4.362
 5662WAT     H119088   7.790   6.035   4.301
 5662WAT     H219089   7.771   5.885   4.315
 5663WAT      O19090   9.346   6.775   5.702
 5663WAT     H119091   9.393   6.823   5.770
 5663WAT     H219092   9.408   6.768   5.629
 5664WAT      O19093   7.566   6.280   4.943
 5664WAT     H119094   7.574   6.293   4.849
 5664WAT     H219095   7.627   6.209   4.962
 5665WAT      O19096   7.690   6.450   4.584
 5665WAT     H119097   7.650   6.464   4.499
 5665WAT     H219098   7.779   6.421   4.564
 5666WAT      O19099   9.286   6.494   5.418
 5666WAT     H119100   9.298   6.470   5.326
 5666WAT     H219101   9.290   6.411   5.465
 5667WAT      O19102   8.672   6.865   5.275
 5667WAT     H119103   8.723   6.856   5.355
 5667WAT     H219104   8.588   6.899   5.304
 5668WAT      O19105   8.870   6.893   4.218
 5668WAT     H119106   8.854   6.864   4.307
 5668WAT     H219107   8.853   6.815   4.164
 5669WAT      O19108   8.117   6.871   4.395
 5669WAT     H119109   8.100   6.779   4.374
 5669WAT     H219110   8.032   6.907   4.419
 5670WAT      O19111   8.840   6.644   4.074
 5670WAT     H119112   8.770   6.644   4.008
 5670WAT     H219113   8.914   6.602   4.031
 5671WAT      O19114   8.796   6.807   4.481
 5671WAT     H119115   8.842   6.728   4.512
 5671WAT     H219116   8.830   6.878   4.535
 5672WAT      O19117   9.271   5.700   5.514
 5672WAT     H119118   9.210   5.750   5.461
 5672WAT     H219119   9.239   5.610   5.509
 5673WAT      O19120   7.571   6.384   5.197
 5673WAT     H119121   7.588   6.337   5.115
 5673WAT     H219122   7.618   6.333   5.263
 5674WAT      O19123   8.049   5.297   4.701
 5674WAT     H119124   8.004   5.375   4.667
 5674WAT     H219125   8.104   5.329   4.771
 5675WAT      O19126   8.477   5.583   5.261
 5675WAT     H119127   8.431   5.604   5.342
 5675WAT     H219128   8.437   5.502   5.231
 5676WAT      O19129   8.977   5.706   5.374
 5676WAT     H119130   8.892   5.676   5.406
 5676WAT     H219131   8.961   5.730   5.283
 5677WAT      O19132   8.687   5.856   5.584
 5677WAT     H119133   8.719   5.772   5.550
 5677WAT     H219134   8.766   5.908   5.599
 5678WAT      O19135   8.360   5.259   4.189
 5678WAT     H119136   8.298   5.259   4.261
 5678WAT     H219137   8.351   5.172   4.149
 5679WAT      O19138   8.252   5.351   4.886
 5679WAT     H119139   8.282   5.442   4.878
 5679WAT     H219140   8.307   5.302   4.825
 5680WAT      O19141   8.028   5.809   4.473
 5680WAT     H119142   8.005   5.788   4.564
 5680WAT     H219143   7.950   5.852   4.439
 5681WAT      O19144   8.751   5.810   4.333
 5681WAT     H119145   8.691   5.882   4.315
 5681WAT     H219146   8.805   5.804   4.255
 5682WAT      O19147   8.272   5.899   5.540
 5682WAT     H119148   8.262   5.805   5.525
 5682WAT     H219149   8.356   5.921   5.500
 5683WAT      O19150   8.611   5.673   4.536
 5683WAT     H119151   8.651   5.705   4.455
 5683WAT     H219152   8.647   5.586   4.548
 5684WAT      O19153   7.785   5.540   5.355
 5684WAT     H119154   7.745   5.625   5.376
 5684WAT     H219155   7.716   5.476   5.374
 5685WAT      O19156   8.442   5.548   5.662
 5685WAT     H119157   8.373   5.529   5.726
 5685WAT     H219158   8.517   5.577   5.716
 5686WAT      O19159   7.515   5.332   4.759
 5686WAT     H119160   7.486   5.389   4.830
 5686WAT     H219161   7.589   5.284   4.795
 5687WAT      O19162   7.534   5.727   3.880
 5687WAT     H119163   7.525   5.821   3.894
 5687WAT     H219164   7.498   5.712   3.792
 5688WAT      O19165   8.670   5.932   4.946
 5688WAT     H119166   8.597   5.983   4.981
 5688WAT     H219167   8.630   5.851   4.916
 5689WAT      O19168   8.314   5.600   4.786
 5689WAT     H119169   8.314   5.556   4.701
 5689WAT     H219170   8.403   5.632   4.797
 5690WAT      O19171   7.899   5.588   4.682
 5690WAT     H119172   7.865   5.636   4.758
 5690WAT     H219173   7.822   5.543   4.646
 5691WAT      O19174   8.320   5.700   4.085
 5691WAT     H119175   8.332   5.696   4.180
 5691WAT     H219176   8.281   5.786   4.070
 5692WAT      O19177   8.716   5.478   4.887
 5692WAT     H119178   8.718   5.523   4.971
 5692WAT     H219179   8.691   5.388   4.908
 5693WAT      O19180   8.221   5.931   4.025
 5693WAT     H119181   8.164   5.886   3.963
 5693WAT     H219182   8.292   5.967   3.972
 5694WAT      O19183   9.059   5.219   5.471
 5694WAT     H119184   9.091   5.146   5.524
 5694WAT     H219185   9.062   5.187   5.381
 5695WAT      O19186   7.729   6.321   5.413
 5695WAT     H119187   7.690   6.257   5.473
 5695WAT     H219188   7.760   6.392   5.470
 5696WAT      O19189   8.344   6.006   4.961
 5696WAT     H119190   8.380   5.959   5.036
 5696WAT     H219191   8.325   6.093   4.995
 5697WAT      O19192   7.630   5.480   4.574
 5697WAT     H119193   7.602   5.444   4.658
 5697WAT     H219194   7.624   5.407   4.513
 5698WAT      O19195   8.123   5.910   5.193
 5698WAT     H119196   8.092   5.998   5.215
 5698WAT     H219197   8.218   5.916   5.196
 5699WAT      O19198   7.976   6.331   4.253
 5699WAT     H119199   7.898   6.277   4.237
 5699WAT     H219200   8.048   6.279   4.219
 5700WAT      O19201   9.051   6.230   4.832
 5700WAT     H119202   9.123   6.280   4.793
 5700WAT     H219203   9.031   6.163   4.767
 5701WAT      O19204   8.597   5.370   4.246
 5701WAT     H119205   8.516   5.320   4.239
 5701WAT     H219206   8.578   5.454   4.204
 5702WAT      O19207   8.590   6.237   5.420
 5702WAT     H119208   8.583   6.145   5.395
 5702WAT     H219209   8.527   6.247   5.492
 5703WAT      O19210   8.869   5.807   4.076
 5703WAT     H119211   8.958   5.838   4.058
 5703WAT     H219212   8.866   5.720   4.037
 5704WAT      O19213   7.980   6.298   4.616
 5704WAT     H119214   8.032   6.217   4.611
 5704WAT     H219215   7.935   6.291   4.700
 5705WAT      O19216   8.469   6.424   4.144
 5705WAT     H119217   8.503   6.499   4.094
 5705WAT     H219218   8.386   6.455   4.180
 5706WAT      O19219   7.728   5.994   5.308
 5706WAT     H119220   7.692   6.061   5.366
 5706WAT     H219221   7.699   5.911   5.345
 5707WAT      O19222   8.048   6.040   5.596
 5707WAT     H119223   8.018   6.055   5.506
 5707WAT     H219224   8.126   5.984   5.587
 5708WAT      O19225   8.583   6.520   5.396
 5708WAT     H119226   8.584   6.426   5.374
 5708WAT     H219227   8.512   6.528   5.459
 5709WAT      O19228   9.096   5.938   4.022
 5709WAT     H119229   9.088   5.981   3.937
 5709WAT     H219230   9.168   5.984   4.066
 5710WAT      O19231   9.204   6.184   5.330
 5710WAT     H119232   9.131   6.243   5.310
 5710WAT     H219233   9.257   6.183   5.250
 5711WAT      O19234   9.199   6.623   4.295
 5711WAT     H119235   9.135   6.558   4.323
 5711WAT     H219236   9.160   6.664   4.218
 5712WAT      O19237   8.757   6.356   4.680
 5712WAT     H119238   8.792   6.297   4.614
 5712WAT     H219239   8.668   6.324   4.697
 5713WAT      O19240   8.365   6.432   4.421
 5713WAT     H119241   8.434   6.487   4.459
 5713WAT     H219242   8.287   6.487   4.424
 5714WAT      O19243   7.579   5.994   3.970
 5714WAT     H119244   7.666   6.022   3.998
 5714WAT     H219245   7.530   6.075   3.958
 5715WAT      O19246   8.296   6.133   4.382
 5715WAT     H119247   8.341   6.214   4.405
 5715WAT     H219248   8.261   6.101   4.465
 5716WAT      O19249   8.526   6.684   5.105
 5716WAT     H119250   8.591   6.704   5.173
 5716WAT     H219251   8.562   6.608   5.060
 5717WAT      O19252   7.886   5.167   4.429
 5717WAT     H119253   7.873   5.166   4.524
 5717WAT     H219254   7.804   5.201   4.394
 5718WAT      O19255   8.653   6.484   4.977
 5718WAT     H119256   8.718   6.414   4.988
 5718WAT     H219257   8.706   6.562   4.959
 5719WAT      O19258   9.038   6.513   3.949
 5719WAT     H119259   9.015   6.441   4.008
 5719WAT     H219260   8.999   6.488   3.865
 5720WAT      O19261   8.831   6.564   5.297
 5720WAT     H119262   8.864   6.623   5.365
 5720WAT     H219263   8.739   6.551   5.320
 5721WAT      O19264   7.616   6.915   4.027
 5721WAT     H119265   7.652   6.975   3.961
 5721WAT     H219266   7.602   6.970   4.104
 5722WAT      O19267   7.586   5.343   5.375
 5722WAT     H119268   7.514   5.363   5.436
 5722WAT     H219269   7.628   5.265   5.412
 5723WAT      O19270   8.996   6.304   4.115
 5723WAT     H119271   8.967   6.350   4.194
 5723WAT     H219272   9.076   6.258   4.142
 5724WAT      O19273   7.615   6.742   5.474
 5724WAT     H119274   7.625   6.648   5.460
 5724WAT     H219275   7.549   6.768   5.409
 5725WAT      O19276   8.414   6.569   5.614
 5725WAT     H119277   8.382   6.497   5.668
 5725WAT     H219278   8.346   6.637   5.621
 5726WAT      O19279   8.218   6.654   4.108
 5726WAT     H119280   8.217   6.727   4.047
 5726WAT     H219281   8.126   6.629   4.118
 5727WAT      O19282   7.778   6.176   4.183
 5727WAT     H119283   7.717   6.250   4.184
 5727WAT     H219284   7.825   6.185   4.100
 5728WAT      O19285   8.735   5.592   5.150
 5728WAT     H119286   8.772   5.510   5.183
 5728WAT     H219287   8.649   5.598   5.192
 5729WAT      O19288   9.072   5.488   4.231
 5729WAT     H119289   9.009   5.498   4.160
 5729WAT     H219290   9.022   5.510   4.310
 5730WAT      O19291   8.516   6.660   3.975
 5730WAT     H119292   8.527   6.640   3.882
 5730WAT     H219293   8.426   6.634   3.995
 5731WAT      O19294   8.269   5.716   4.373
 5731WAT     H119295   8.198   5.763   4.417
 5731WAT     H219296   8.297   5.650   4.436
 5732WAT      O19297   8.431   5.858   5.173
 5732WAT     H119298   8.481   5.905   5.239
 5732WAT     H219299   8.445   5.765   5.193
 5733WAT      O19300   8.672   5.388   4.517
 5733WAT     H119301   8.660   5.390   4.422
 5733WAT     H219302   8.767   5.393   4.529
 5734WAT      O19303   8.381   6.912   4.444
 5734WAT     H119304   8.406   6.908   4.352
 5734WAT     H219305   8.286   6.899   4.443
 5735WAT      O19306   8.089   5.547   4.110
 5735WAT     H119307   8.174   5.590   4.104
 5735WAT     H219308   8.052   5.578   4.193
 5736WAT      O19309   9.152   5.479   5.257
 5736WAT     H119310   9.102   5.553   5.291
 5736WAT     H219311   9.233   5.518   5.225
 5737WAT      O19312   8.981   6.004   4.602
 5737WAT     H119313   8.887   6.005   4.619
 5737WAT     H219314   9.013   5.925   4.646
 5738WAT      O19315   7.979   6.172   3.958
 5738WAT     H119316   8.056   6.161   4.014
 5738WAT     H219317   7.987   6.102   3.892
 5739WAT      O19318   7.848   5.915   4.026
 5739WAT     H119319   7.856   5.820   4.037
 5739WAT     H219320   7.938   5.948   4.037
 5740WAT      O19321   9.181   6.721   4.769
 5740WAT     H119322   9.194   6.803   4.816
 5740WAT     H219323   9.268   6.700   4.734
 5741WAT      O19324   7.929   6.930   4.736
 5741WAT     H119325   8.002   6.875   4.763
 5741WAT     H219326   7.967   7.017   4.722
 5742WAT      O19327   7.617   6.537   4.324
 5742WAT     H119328   7.524   6.561   4.323
 5742WAT     H219329   7.664   6.620   4.312
 5743WAT      O19330   7.829   6.849   5.655
 5743WAT     H119331   7.909   6.881   5.696
 5743WAT     H219332   7.778   6.813   5.727
 5744WAT      O19333   8.240   6.847   3.919
 5744WAT     H119334   8.319   6.876   3.873
 5744WAT     H219335   8.188   6.804   3.851
 5745WAT      O19336   8.713   6.459   5.650
 5745WAT     H119337   8.652   6.462   5.576
 5745WAT     H219338   8.682   6.386   5.704
 5746WAT      O19339   8.856   6.832   5.511
 5746WAT     H119340   8.951   6.824   5.506
 5746WAT     H219341   8.841   6.899   5.578
 5747WAT      O19342   9.145   6.770   4.061
 5747WAT     H119343   9.116   6.729   3.979
 5747WAT     H219344   9.125   6.863   4.049
 5748WAT      O19345   7.601   6.097   5.550
 5748WAT     H119346   7.652   6.039   5.607
 5748WAT     H219347   7.527   6.126   5.603
 5749WAT      O19348   8.291   6.369   3.905
 5749WAT     H119349   8.281   6.308   3.978
 5749WAT     H219350   8.275   6.317   3.827
 5750WAT      O19351   8.306   6.238   5.503
 5750WAT     H119352   8.230   6.295   5.494
 5750WAT     H219353   8.325   6.209   5.414
 5751WAT      O19354   8.615   6.276   3.965
 5751WAT     H119355   8.560   6.320   4.030
 5751WAT     H219356   8.678   6.225   4.018
 5752WAT      O19357   9.021   6.411   5.559
 5752WAT     H119358   9.095   6.445   5.508
 5752WAT     H219359   8.944   6.428   5.503
 5753WAT      O19360   7.804   5.912   5.639
 5753WAT     H119361   7.808   5.882   5.730
 5753WAT     H219362   7.890   5.952   5.623
 5754WAT      O19363   8.182   6.172   4.155
 5754WAT     H119364   8.224   6.155   4.239
 5754WAT     H219365   8.195   6.091   4.106
 5755WAT      O19366   7.998   5.770   5.436
 5755WAT     H119367   7.945   5.720   5.373
 5755WAT     H219368   8.065   5.812   5.382
 5756WAT      O19369   8.433   6.074   3.880
 5756WAT     H119370   8.485   6.002   3.843
 5756WAT     H219371   8.498   6.138   3.910
 5757WAT      O19372   8.888   6.216   5.412
 5757WAT     H119373   8.930   6.232   5.497
 5757WAT     H219374   8.795   6.229   5.428
 5758WAT      O19375   8.935   5.950   5.613
 5758WAT     H119376   8.994   5.875   5.604
 5758WAT     H219377   8.953   6.003   5.535
 5759WAT      O19378   8.047   5.466   5.444
 5759WAT     H119379   8.038   5.404   5.371
 5759WAT     H219380   7.989   5.539   5.421
 5760WAT      O19381   8.324   5.322   5.147
 5760WAT     H119382   8.279   5.324   5.062
 5760WAT     H219383   8.260   5.282   5.207
 5761WAT      O19384   8.364   6.211   5.209
 5761WAT     H119385   8.406   6.296   5.192
 5761WAT     H219386   8.272   6.225   5.186
 5762WAT      O19387   8.598   5.985   5.348
 5762WAT     H119388   8.610   5.925   5.421
 5762WAT     H219389   8.684   5.988   5.306
 5763WAT      O19390   8.832   6.040   5.205
 5763WAT     H119391   8.779   6.092   5.145
 5763WAT     H219392   8.866   6.103   5.268
 5764WAT      O19393   8.072   5.779   3.850
 5764WAT     H119394   8.052   5.693   3.886
 5764WAT     H219395   8.055   5.770   3.756
 5765WAT      O19396   8.149   6.842   5.321
 5765WAT     H119397   8.096   6.914   5.289
 5765WAT     H219398   8.175   6.794   5.242
 5766WAT      O19399   8.275   5.639   5.473
 5766WAT     H119400   8.334   5.608   5.542
 5766WAT     H219401   8.193   5.592   5.489
 5767WAT      O19402   8.757   5.600   5.497
 5767WAT     H119403   8.688   5.534   5.490
 5767WAT     H219404   8.829   5.556   5.541
 5768WAT      O19405   8.820   5.260   4.102
 5768WAT     H119406   8.848   5.176   4.138
 5768WAT     H219407   8.742   5.283   4.154
 5769WAT      O19408   7.952   5.489   3.848
 5769WAT     H119409   7.982   5.490   3.758
 5769WAT     H219410   8.025   5.454   3.898
 5770WAT      O19411   8.435   6.965   5.347
 5770WAT     H119412   8.428   7.056   5.377
 5770WAT     H219413   8.345   6.934   5.344
 5771WAT      O19414   8.273   5.383   3.947
 5771WAT     H119415   8.239   5.315   3.889
 5771WAT     H219416   8.294   5.337   4.028
 5772WAT      O19417   8.490   6.882   4.109
 5772WAT     H119418   8.579   6.916   4.111
 5772WAT     H219419   8.493   6.810   4.046
 5773WAT      O19420   7.854   6.419   3.932
 5773WAT     H119421   7.898   6.474   3.997
 5773WAT     H219422   7.902   6.337   3.933
 5774WAT      O19423   7.575   6.698   4.677
 5774WAT     H119424   7.608   6.611   4.654
 5774WAT     H219425   7.618   6.719   4.760
 5775WAT      O19426   8.035   6.531   4.443
 5775WAT     H119427   8.005   6.519   4.533
 5775WAT     H219428   8.024   6.445   4.402
 5776WAT      O19429   7.624   6.785   4.951
 5776WAT     H119430   7.581   6.803   5.034
 5776WAT     H219431   7.681   6.861   4.937
 5777WAT      O19432   9.188   6.735   5.379
 5777WAT     H119433   9.128   6.741   5.305
 5777WAT     H219434   9.201   6.641   5.392
 5778WAT      O19435   9.312   6.509   3.913
 5778WAT     H119436   9.229   6.516   3.960
 5778WAT     H219437   9.330   6.598   3.883
 5779WAT      O19438   9.257   6.184   4.164
 5779WAT     H119439   9.334   6.241   4.174
 5779WAT     H219440   9.259   6.127   4.241
 5780WAT      O19441   7.607   6.036   4.587
 5780WAT     H119442   7.542   6.009   4.522
 5780WAT     H219443   7.691   6.025   4.542
 5781WAT      O19444   9.358   6.269   4.648
 5781WAT     H119445   9.395   6.191   4.607
 5781WAT     H219446   9.422   6.338   4.630
 5782WAT      O19447   9.056   6.408   5.189
 5782WAT     H119448   8.975   6.451   5.216
 5782WAT     H219449   9.097   6.469   5.128
 5783WAT      O19450   9.263   6.213   3.879
 5783WAT     H119451   9.290   6.304   3.866
 5783WAT     H219452   9.244   6.207   3.973
 5784WAT      O19453   8.902   5.516   4.009
 5784WAT     H119454   8.944   5.497   3.925
 5784WAT     H219455   8.872   5.430   4.040
 5785WAT      O19456   9.252   6.007   4.379
 5785WAT     H119457   9.215   5.930   4.335
 5785WAT     H219458   9.179   6.045   4.427
 5786WAT      O19459   7.711   6.075   5.041
 5786WAT     H119460   7.748   6.066   5.129
 5786WAT     H219461   7.654   5.998   5.031
 5787WAT      O19462   9.191   5.921   5.342
 5787WAT     H119463   9.168   5.899   5.252
 5787WAT     H219464   9.217   6.013   5.337
 5788WAT      O19465   7.666   5.766   5.431
 5788WAT     H119466   7.577   5.762   5.465
 5788WAT     H219467   7.720   5.786   5.508
 5789WAT      O19468   9.035   5.444   5.620
 5789WAT     H119469   9.123   5.445   5.658
 5789WAT     H219470   9.036   5.370   5.559
 5790WAT      O19471   7.529   5.757   4.181
 5790WAT     H119472   7.438   5.783   4.163
 5790WAT     H219473   7.577   5.784   4.103
 5791WAT      O19474   9.180   5.829   4.709
 5791WAT     H119475   9.232   5.780   4.646
 5791WAT     H219476   9.238   5.843   4.783
 5792WAT      O19477   9.198   5.838   5.061
 5792WAT     H119478   9.103   5.834   5.072
 5792WAT     H219479   9.216   5.929   5.037
 5793WAT      O19480   7.783   5.663   3.972
 5793WAT     H119481   7.854   5.621   3.923
 5793WAT     H219482   7.712   5.670   3.909
 5794WAT      O19483   7.748   5.268   3.876
 5794WAT     H119484   7.820   5.322   3.908
 5794WAT     H219485   7.775   5.241   3.788
 5795WAT      O19486   9.129   5.755   4.303
 5795WAT     H119487   9.178   5.732   4.381
 5795WAT     H219488   9.109   5.671   4.261
 5796WAT      O19489   7.717   5.193   4.866
 5796WAT     H119490   7.782   5.138   4.822
 5796WAT     H219491   7.759   5.219   4.948
 5797WAT      O19492   9.272   5.619   4.556
 5797WAT     H119493   9.261   5.603   4.650
 5797WAT     H219494   9.348   5.566   4.532
 5798WAT      O19495   9.106   5.213   5.202
 5798WAT     H119496   9.170   5.274   5.238
 5798WAT     H219497   9.121   5.216   5.107
 5799WAT      O19498   9.361   5.402   3.880
 5799WAT     H119499   9.453   5.389   3.859
 5799WAT     H219500   9.358   5.410   3.975
 5800WAT      O19501   9.368   5.479   4.143
 5800WAT     H119502   9.288   5.472   4.195
 5800WAT     H219503   9.388   5.572   4.141
 5801WAT      O19504   9.062   6.883   4.542
 5801WAT     H119505   9.122   6.851   4.474
 5801WAT     H219506   9.088   6.835   4.621
 5802WAT      O19507   7.692   5.209   5.140
 5802WAT     H119508   7.657   5.254   5.217
 5802WAT     H219509   7.659   5.119   5.149
 5803WAT      O19510   7.853   6.526   5.557
 5803WAT     H119511   7.848   6.489   5.645
 5803WAT     H219512   7.866   6.620   5.571
 5804WAT      O19513   8.223   6.682   5.117
 5804WAT     H119514   8.199   6.708   5.028
 5804WAT     H219515   8.317   6.699   5.122
 5805WAT      O19516   8.443   5.328   5.493
 5805WAT     H119517   8.437   5.387   5.567
 5805WAT     H219518   8.537   5.317   5.478
 5806WAT      O19519   8.707   5.294   5.456
 5806WAT     H119520   8.768   5.325   5.390
 5806WAT     H219521   8.762   5.245   5.518
 5807WAT      O19522   9.349   6.883   5.197
 5807WAT     H119523   9.299   6.923   5.125
 5807WAT     H219524   9.288   6.821   5.236
 5808WAT      O19525   7.759   5.162   5.468
 5808WAT     H119526   7.814   5.143   5.391
 5808WAT     H219527   7.766   5.082   5.521
 5809WAT      O19528   7.837   6.821   5.269
 5809WAT     H119529   7.777   6.807   5.343
 5809WAT     H219530   7.836   6.737   5.222
 5810WAT      O19531   8.781   5.150   5.089
 5810WAT     H119532   8.694   5.183   5.069
 5810WAT     H219533   8.770   5.103   5.172
 5811WAT      O19534   8.872   5.371   5.228
 5811WAT     H119535   8.839   5.289   5.190
 5811WAT     H219536   8.967   5.366   5.215
 5812WAT      O19537   9.117   6.948   4.925
 5812WAT     H119538   9.071   7.023   4.887
 5812WAT     H219539   9.054   6.876   4.919
 5813WAT      O19540   7.800   6.557   5.164
 5813WAT     H119541   7.727   6.495   5.157
 5813WAT     H219542   7.806   6.597   5.077
 5814WAT      O19543   8.160   6.779   4.842
 5814WAT     H119544   8.212   6.717   4.790
 5814WAT     H219545   8.225   6.829   4.892
 5815WAT      O19546   8.434   6.868   4.925
 5815WAT     H119547   8.463   6.842   4.837
 5815WAT     H219548   8.485   6.812   4.984
 5816WAT      O19549   8.556   5.242   4.983
 5816WAT     H119550   8.478   5.289   5.011
 5816WAT     H219551   8.527   5.151   4.972
 5817WAT      O19552   9.011   5.312   4.788
 5817WAT     H119553   9.055   5.306   4.703
 5817WAT     H219554   8.984   5.403   4.795
 5818WAT      O19555   9.198   5.275   4.589
 5818WAT     H119556   9.191   5.181   4.574
 5818WAT     H219557   9.275   5.286   4.643
 5819WAT      O19558   7.628   6.889   4.485
 5819WAT     H119559   7.611   6.826   4.555
 5819WAT     H219560   7.541   6.910   4.450
 5820WAT      O19561   7.690   5.272   4.235
 5820WAT     H119562   7.766   5.283   4.178
 5820WAT     H219563   7.644   5.356   4.231
 5821WAT      O19564   8.344   5.483   4.534
 5821WAT     H119565   8.263   5.446   4.500
 5821WAT     H219566   8.395   5.408   4.564
 5822WAT      O19567   8.795   5.150   4.658
 5822WAT     H119568   8.855   5.207   4.706
 5822WAT     H219569   8.721   5.206   4.636
 5823WAT      O19570   9.109   5.190   4.185
 5823WAT     H119571   9.129   5.280   4.212
 5823WAT     H219572   9.030   5.167   4.235
 5824WAT      O19573   7.789   6.758   4.229
 5824WAT     H119574   7.736   6.796   4.159
 5824WAT     H219575   7.781   6.821   4.301
 5825WAT      O19576   7.928   5.325   4.089
 5825WAT     H119577   7.980   5.246   4.076
 5825WAT     H219578   7.991   5.393   4.113
 5826WAT      O19579   8.147   5.298   4.395
 5826WAT     H119580   8.084   5.228   4.411
 5826WAT     H219581   8.093   5.375   4.373
 5827WAT      O19582   8.441   6.960   5.662
 5827WAT     H119583   8.534   6.936   5.666
 5827WAT     H219584   8.439   7.043   5.614
 5828WAT      O19585   9.264   6.914   4.362
 5828WAT     H119586   9.282   6.845   4.297
 5828WAT     H219587   9.195   6.967   4.322
 5829WAT      O19588   8.159   5.226   5.638
 5829WAT     H119589   8.131   5.277   5.562
 5829WAT     H219590   8.198   5.147   5.602
 5830WAT      O19591   8.049   6.953   4.117
 5830WAT     H119592   8.122   6.925   4.062
 5830WAT     H219593   8.075   6.929   4.206
 5831WAT      O19594   7.965   6.565   4.117
 5831WAT     H119595   7.902   6.612   4.172
 5831WAT     H219596   7.976   6.480   4.161
 5832WAT      O19597   8.820   5.168   5.696
 5832WAT     H119598   8.808   5.200   5.786
 5832WAT     H219599   8.901   5.208   5.666
 5833WAT      O19600   9.098   6.883   5.644
 5833WAT     H119601   9.177   6.833   5.623
 5833WAT     H219602   9.127   6.950   5.705
 5834WAT      O19603   8.710   5.970   2.732
 5834WAT     H119604   8.702   5.878   2.705
 5834WAT     H219605   8.669   6.019   2.662
 5835WAT      O19606   8.523   6.148   2.920
 5835WAT     H119607   8.446   6.100   2.949
 5835WAT     H219608   8.589   6.080   2.903
 5836WAT      O19609   7.925   6.179   3.008
 5836WAT     H119610   7.842   6.153   3.048
 5836WAT     H219611   7.986   6.186   3.082
 5837WAT      O19612   8.925   6.588   2.798
 5837WAT     H119613   8.879   6.511   2.831
 5837WAT     H219614   9.007   6.591   2.849
 5838WAT      O19615   7.923   6.582   3.028
 5838WAT     H119616   7.953   6.493   3.010
 5838WAT     H219617   7.998   6.638   3.005
 5839WAT      O19618   7.766   5.675   2.387
 5839WAT     H119619   7.677   5.709   2.376
 5839WAT     H219620   7.794   5.655   2.297
 5840WAT      O19621   7.562   5.935   2.975
 5840WAT     H119622   7.619   5.858   2.975
 5840WAT     H219623   7.562   5.965   2.884
 5841WAT      O19624   8.548   6.817   2.760
 5841WAT     H119625   8.486   6.862   2.703
 5841WAT     H219626   8.634   6.832   2.720
 5842WAT      O19627   8.468   6.415   2.921
 5842WAT     H119628   8.461   6.321   2.905
 5842WAT     H219629   8.544   6.424   2.978
 5843WAT      O19630   7.687   5.476   3.154
 5843WAT     H119631   7.669   5.386   3.182
 5843WAT     H219632   7.646   5.530   3.221
 5844WAT      O19633   8.571   5.696   2.944
 5844WAT     H119634   8.608   5.609   2.933
 5844WAT     H219635   8.561   5.729   2.855
 5845WAT      O19636   7.984   5.533   2.490
 5845WAT     H119637   7.994   5.623   2.521
 5845WAT     H219638   7.893   5.528   2.461
 5846WAT      O19639   8.949   5.445   2.637
 5846WAT     H119640   9.031   5.396   2.641
 5846WAT     H219641   8.952   5.504   2.712
 5847WAT      O19642   7.748   5.725   3.015
 5847WAT     H119643   7.817   5.752   3.076
 5847WAT     H219644   7.717   5.641   3.048
 5848WAT      O19645   8.168   5.830   2.923
 5848WAT     H119646   8.218   5.880   2.987
 5848WAT     H219647   8.221   5.752   2.906
 5849WAT      O19648   9.378   5.647   3.294
 5849WAT     H119649   9.307   5.686   3.242
 5849WAT     H219650   9.404   5.717   3.354
 5850WAT      O19651   7.996   5.294   3.350
 5850WAT     H119652   7.996   5.346   3.269
 5850WAT     H219653   7.913   5.246   3.348
 5851WAT      O19654   8.635   6.305   2.500
 5851WAT     H119655   8.573   6.352   2.443
 5851WAT     H219656   8.686   6.374   2.541
 5852WAT      O19657   8.121   6.258   3.168
 5852WAT     H119658   8.088   6.321   3.232
 5852WAT     H219659   8.139   6.311   3.090
 5853WAT      O19660   8.972   5.639   2.914
 5853WAT     H119661   8.902   5.668   2.972
 5853WAT     H219662   9.009   5.720   2.878
 5854WAT      O19663   7.964   5.465   3.151
 5854WAT     H119664   7.998   5.549   3.121
 5854WAT     H219665   7.870   5.480   3.162
 5855WAT      O19666   8.042   6.455   3.349
 5855WAT     H119667   8.104   6.522   3.321
 5855WAT     H219668   7.956   6.496   3.340
 5856WAT      O19669   7.572   6.374   2.237
 5856WAT     H119670   7.534   6.423   2.164
 5856WAT     H219671   7.597   6.441   2.300
 5857WAT      O19672   9.134   6.601   3.141
 5857WAT     H119673   9.066   6.668   3.140
 5857WAT     H219674   9.188   6.621   3.064
 5858WAT      O19675   9.279   5.584   2.953
 5858WAT     H119676   9.185   5.587   2.967
 5858WAT     H219677   9.312   5.665   2.992
 5859WAT      O19678   8.332   5.214   2.783
 5859WAT     H119679   8.363   5.158   2.711
 5859WAT     H219680   8.239   5.227   2.765
 5860WAT      O19681   8.888   6.786   3.012
 5860WAT     H119682   8.889   6.745   2.925
 5860WAT     H219683   8.832   6.863   3.002
 5861WAT      O19684   9.017   6.458   2.521
 5861WAT     H119685   9.006   6.363   2.534
 5861WAT     H219686   9.017   6.494   2.610
 5862WAT      O19687   8.827   6.276   3.145
 5862WAT     H119688   8.869   6.254   3.061
 5862WAT     H219689   8.900   6.302   3.202
 5863WAT      O19690   8.571   6.020   2.457
 5863WAT     H119691   8.479   6.014   2.480
 5863WAT     H219692   8.587   6.114   2.445
 5864WAT      O19693   8.570   5.648   2.156
 5864WAT     H119694   8.476   5.664   2.165
 5864WAT     H219695   8.602   5.719   2.102
 5865WAT      O19696   9.222   6.116   3.154
 5865WAT     H119697   9.139   6.123   3.107
 5865WAT     H219698   9.282   6.174   3.107
 5866WAT      O19699   8.974   6.177   2.507
 5866WAT     H119700   8.912   6.143   2.442
 5866WAT     H219701   8.973   6.112   2.578
 5867WAT      O19702   8.919   5.794   3.249
 5867WAT     H119703   8.877   5.877   3.274
 5867WAT     H219704   8.845   5.736   3.229
 5868WAT      O19705   8.132   6.073   2.735
 5868WAT     H119706   8.091   6.002   2.685
 5868WAT     H219707   8.140   6.039   2.824
 5869WAT      O19708   8.179   6.442   2.951
 5869WAT     H119709   8.149   6.381   2.883
 5869WAT     H219710   8.274   6.445   2.940
 5870WAT      O19711   8.003   5.750   3.113
 5870WAT     H119712   8.058   5.761   3.035
 5870WAT     H219713   8.055   5.788   3.184
 5871WAT      O19714   8.988   6.799   3.317
 5871WAT     H119715   8.940   6.880   3.298
 5871WAT     H219716   8.919   6.734   3.333
 5872WAT      O19717   8.088   6.415   3.616
 5872WAT     H119718   7.998   6.438   3.641
 5872WAT     H219719   8.090   6.428   3.521
 5873WAT      O19720   8.792   6.100   2.208
 5873WAT     H119721   8.836   6.017   2.193
 5873WAT     H219722   8.863   6.164   2.216
 5874WAT      O19723   7.971   6.103   3.474
 5874WAT     H119724   7.957   6.190   3.511
 5874WAT     H219725   7.882   6.068   3.459
 5875WAT      O19726   8.603   6.594   2.605
 5875WAT     H119727   8.647   6.669   2.563
 5875WAT     H219728   8.597   6.619   2.697
 5876WAT      O19729   8.150   6.697   3.695
 5876WAT     H119730   8.148   6.737   3.608
 5876WAT     H219731   8.134   6.604   3.678
 5877WAT      O19732   9.150   5.226   2.039
 5877WAT     H119733   9.119   5.235   2.129
 5877WAT     H219734   9.226   5.284   2.034
 5878WAT      O19735   7.802   5.962   2.485
 5878WAT     H119736   7.790   6.035   2.424
 5878WAT     H219737   7.771   5.885   2.437
 5879WAT      O19738   9.346   6.775   3.824
 5879WAT     H119739   9.393   6.823   3.892
 5879WAT     H219740   9.408   6.768   3.752
 5880WAT      O19741   7.566   6.280   3.066
 5880WAT     H119742   7.574   6.293   2.971
 5880WAT     H219743   7.627   6.209   3.085
 5881WAT      O19744   7.690   6.450   2.707
 5881WAT     H119745   7.650   6.464   2.621
 5881WAT     H219746   7.779   6.421   2.686
 5882WAT      O19747   9.286   6.494   3.540
 5882WAT     H119748   9.298   6.470   3.449
 5882WAT     H219749   9.290   6.411   3.588
 5883WAT      O19750   8.672   6.865   3.397
 5883WAT     H119751   8.723   6.856   3.478
 5883WAT     H219752   8.588   6.899   3.427
 5884WAT      O19753   8.870   6.893   2.340
 5884WAT     H119754   8.854   6.864   2.430
 5884WAT     H219755   8.853   6.815   2.287
 5885WAT      O19756   8.117   6.871   2.518
 5885WAT     H119757   8.100   6.779   2.497
 5885WAT     H219758   8.032   6.907   2.542
 5886WAT      O19759   8.840   6.644   2.196
 5886WAT     H119760   8.770   6.644   2.130
 5886WAT     H219761   8.914   6.602   2.153
 5887WAT      O19762   8.796   6.807   2.604
 5887WAT     H119763   8.842   6.728   2.635
 5887WAT     H219764   8.830   6.878   2.658
 5888WAT      O19765   9.271   5.700   3.637
 5888WAT     H119766   9.210   5.750   3.584
 5888WAT     H219767   9.239   5.610   3.631
 5889WAT      O19768   7.571   6.384   3.320
 5889WAT     H119769   7.588   6.337   3.238
 5889WAT     H219770   7.618   6.333   3.386
 5890WAT      O19771   8.049   5.297   2.823
 5890WAT     H119772   8.004   5.375   2.790
 5890WAT     H219773   8.104   5.329   2.894
 5891WAT      O19774   8.477   5.583   3.383
 5891WAT     H119775   8.431   5.604   3.465
 5891WAT     H219776   8.437   5.502   3.353
 5892WAT      O19777   8.977   5.706   3.496
 5892WAT     H119778   8.892   5.676   3.529
 5892WAT     H219779   8.961   5.730   3.405
 5893WAT      O19780   8.687   5.856   3.706
 5893WAT     H119781   8.719   5.772   3.672
 5893WAT     H219782   8.766   5.908   3.721
 5894WAT      O19783   8.360   5.259   2.311
 5894WAT     H119784   8.298   5.259   2.384
 5894WAT     H219785   8.351   5.172   2.272
 5895WAT      O19786   8.252   5.351   3.009
 5895WAT     H119787   8.282   5.442   3.001
 5895WAT     H219788   8.307   5.302   2.948
 5896WAT      O19789   8.028   5.809   2.596
 5896WAT     H119790   8.005   5.788   2.686
 5896WAT     H219791   7.950   5.852   2.561
 5897WAT      O19792   8.751   5.810   2.456
 5897WAT     H119793   8.691   5.882   2.437
 5897WAT     H219794   8.805   5.804   2.378
 5898WAT      O19795   8.272   5.899   3.663
 5898WAT     H119796   8.262   5.805   3.648
 5898WAT     H219797   8.356   5.921   3.623
 5899WAT      O19798   8.611   5.673   2.659
 5899WAT     H119799   8.651   5.705   2.578
 5899WAT     H219800   8.647   5.586   2.670
 5900WAT      O19801   7.785   5.540   3.478
 5900WAT     H119802   7.745   5.625   3.499
 5900WAT     H219803   7.716   5.476   3.497
 5901WAT      O19804   8.442   5.548   3.785
 5901WAT     H119805   8.373   5.529   3.848
 5901WAT     H219806   8.517   5.577   3.838
 5902WAT      O19807   7.515   5.332   2.881
 5902WAT     H119808   7.486   5.389   2.952
 5902WAT     H219809   7.589   5.284   2.917
 5903WAT      O19810   7.534   5.727   2.002
 5903WAT     H119811   7.525   5.821   2.016
 5903WAT     H219812   7.498   5.712   1.914
 5904WAT      O19813   8.670   5.932   3.068
 5904WAT     H119814   8.597   5.983   3.103
 5904WAT     H219815   8.630   5.851   3.038
 5905WAT      O19816   8.314   5.600   2.909
 5905WAT     H119817   8.314   5.556   2.824
 5905WAT     H219818   8.403   5.632   2.920
 5906WAT      O19819   7.899   5.588   2.805
 5906WAT     H119820   7.865   5.636   2.881
 5906WAT     H219821   7.822   5.543   2.769
 5907WAT      O19822   8.320   5.700   2.208
 5907WAT     H119823   8.332   5.696   2.303
 5907WAT     H219824   8.281   5.786   2.192
 5908WAT      O19825   8.716   5.478   3.010
 5908WAT     H119826   8.718   5.523   3.094
 5908WAT     H219827   8.691   5.388   3.031
 5909WAT      O19828   8.221   5.931   2.148
 5909WAT     H119829   8.164   5.886   2.085
 5909WAT     H219830   8.292   5.967   2.094
 5910WAT      O19831   9.059   5.219   3.593
 5910WAT     H119832   9.091   5.146   3.646
 5910WAT     H219833   9.062   5.187   3.503
 5911WAT      O19834   7.729   6.321   3.535
 5911WAT     H119835   7.690   6.257   3.595
 5911WAT     H219836   7.760   6.392   3.592
 5912WAT      O19837   8.344   6.006   3.084
 5912WAT     H119838   8.380   5.959   3.158
 5912WAT     H219839   8.325   6.093   3.118
 5913WAT      O19840   7.630   5.480   2.697
 5913WAT     H119841   7.602   5.444   2.780
 5913WAT     H219842   7.624   5.407   2.635
 5914WAT      O19843   8.123   5.910   3.315
 5914WAT     H119844   8.092   5.998   3.338
 5914WAT     H219845   8.218   5.916   3.319
 5915WAT      O19846   7.976   6.331   2.375
 5915WAT     H119847   7.898   6.277   2.359
 5915WAT     H219848   8.048   6.279   2.341
 5916WAT      O19849   9.051   6.230   2.954
 5916WAT     H119850   9.123   6.280   2.915
 5916WAT     H219851   9.031   6.163   2.890
 5917WAT      O19852   8.597   5.370   2.369
 5917WAT     H119853   8.516   5.320   2.361
 5917WAT     H219854   8.578   5.454   2.327
 5918WAT      O19855   8.590   6.237   3.543
 5918WAT     H119856   8.583   6.145   3.518
 5918WAT     H219857   8.527   6.247   3.614
 5919WAT      O19858   8.869   5.807   2.198
 5919WAT     H119859   8.958   5.838   2.181
 5919WAT     H219860   8.866   5.720   2.159
 5920WAT      O19861   7.980   6.298   2.739
 5920WAT     H119862   8.032   6.217   2.733
 5920WAT     H219863   7.935   6.291   2.823
 5921WAT      O19864   8.469   6.424   2.266
 5921WAT     H119865   8.503   6.499   2.217
 5921WAT     H219866   8.386   6.455   2.302
 5922WAT      O19867   7.728   5.994   3.430
 5922WAT     H119868   7.692   6.061   3.489
 5922WAT     H219869   7.699   5.911   3.467
 5923WAT      O19870   8.048   6.040   3.719
 5923WAT     H119871   8.018   6.055   3.629
 5923WAT     H219872   8.126   5.984   3.709
 5924WAT      O19873   8.583   6.520   3.518
 5924WAT     H119874   8.584   6.426   3.496
 5924WAT     H219875   8.512   6.528   3.582
 5925WAT      O19876   9.096   5.938   2.145
 5925WAT     H119877   9.088   5.981   2.060
 5925WAT     H219878   9.168   5.984   2.188
 5926WAT      O19879   9.204   6.184   3.453
 5926WAT     H119880   9.131   6.243   3.433
 5926WAT     H219881   9.257   6.183   3.373
 5927WAT      O19882   9.199   6.623   2.418
 5927WAT     H119883   9.135   6.558   2.445
 5927WAT     H219884   9.160   6.664   2.340
 5928WAT      O19885   8.757   6.356   2.803
 5928WAT     H119886   8.792   6.297   2.737
 5928WAT     H219887   8.668   6.324   2.820
 5929WAT      O19888   8.365   6.432   2.543
 5929WAT     H119889   8.434   6.487   2.581
 5929WAT     H219890   8.287   6.487   2.547
 5930WAT      O19891   7.579   5.994   2.092
 5930WAT     H119892   7.666   6.022   2.121
 5930WAT     H219893   7.530   6.075   2.081
 5931WAT      O19894   8.296   6.133   2.505
 5931WAT     H119895   8.341   6.214   2.527
 5931WAT     H219896   8.261   6.101   2.588
 5932WAT      O19897   8.526   6.684   3.227
 5932WAT     H119898   8.591   6.704   3.295
 5932WAT     H219899   8.562   6.608   3.182
 5933WAT      O19900   7.886   5.167   2.552
 5933WAT     H119901   7.873   5.166   2.647
 5933WAT     H219902   7.804   5.201   2.517
 5934WAT      O19903   8.653   6.484   3.099
 5934WAT     H119904   8.718   6.414   3.111
 5934WAT     H219905   8.706   6.562   3.081
 5935WAT      O19906   9.038   6.513   2.072
 5935WAT     H119907   9.015   6.441   2.131
 5935WAT     H219908   8.999   6.488   1.988
 5936WAT      O19909   8.831   6.564   3.420
 5936WAT     H119910   8.864   6.623   3.487
 5936WAT     H219911   8.739   6.551   3.443
 5937WAT      O19912   7.616   6.915   2.149
 5937WAT     H119913   7.652   6.975   2.084
 5937WAT     H219914   7.602   6.970   2.226
 5938WAT      O19915   7.586   5.343   3.498
 5938WAT     H119916   7.514   5.363   3.558
 5938WAT     H219917   7.628   5.265   3.535
 5939WAT      O19918   8.996   6.304   2.238
 5939WAT     H119919   8.967   6.350   2.317
 5939WAT     H219920   9.076   6.258   2.265
 5940WAT      O19921   7.615   6.742   3.597
 5940WAT     H119922   7.625   6.648   3.582
 5940WAT     H219923   7.549   6.768   3.532
 5941WAT      O19924   8.414   6.569   3.736
 5941WAT     H119925   8.382   6.497   3.791
 5941WAT     H219926   8.346   6.637   3.744
 5942WAT      O19927   8.218   6.654   2.231
 5942WAT     H119928   8.217   6.727   2.169
 5942WAT     H219929   8.126   6.629   2.240
 5943WAT      O19930   7.778   6.176   2.305
 5943WAT     H119931   7.717   6.250   2.306
 5943WAT     H219932   7.825   6.185   2.223
 5944WAT      O19933   8.735   5.592   3.273
 5944WAT     H119934   8.772   5.510   3.306
 5944WAT     H219935   8.649   5.598   3.314
 5945WAT      O19936   9.072   5.488   2.354
 5945WAT     H119937   9.009   5.498   2.282
 5945WAT     H219938   9.022   5.510   2.433
 5946WAT      O19939   8.516   6.660   2.097
 5946WAT     H119940   8.527   6.640   2.004
 5946WAT     H219941   8.426   6.634   2.118
 5947WAT      O19942   8.269   5.716   2.495
 5947WAT     H119943   8.198   5.763   2.539
 5947WAT     H219944   8.297   5.650   2.559
 5948WAT      O19945   8.431   5.858   3.295
 5948WAT     H119946   8.481   5.905   3.362
 5948WAT     H219947   8.445   5.765   3.316
 5949WAT      O19948   8.672   5.388   2.639
 5949WAT     H119949   8.660   5.390   2.544
 5949WAT     H219950   8.767   5.393   2.651
 5950WAT      O19951   8.381   6.912   2.567
 5950WAT     H119952   8.406   6.908   2.474
 5950WAT     H219953   8.286   6.899   2.566
 5951WAT      O19954   8.089   5.547   2.233
 5951WAT     H119955   8.174   5.590   2.226
 5951WAT     H219956   8.052   5.578   2.316
 5952WAT      O19957   9.152   5.479   3.380
 5952WAT     H119958   9.102   5.553   3.413
 5952WAT     H219959   9.233   5.518   3.348
 5953WAT      O19960   8.981   6.004   2.724
 5953WAT     H119961   8.887   6.005   2.742
 5953WAT     H219962   9.013   5.925   2.769
 5954WAT      O19963   7.979   6.172   2.080
 5954WAT     H119964   8.056   6.161   2.136
 5954WAT     H219965   7.987   6.102   2.015
 5955WAT      O19966   7.848   5.915   2.149
 5955WAT     H119967   7.856   5.820   2.160
 5955WAT     H219968   7.938   5.948   2.159
 5956WAT      O19969   9.181   6.721   2.892
 5956WAT     H119970   9.194   6.803   2.939
 5956WAT     H219971   9.268   6.700   2.857
 5957WAT      O19972   7.929   6.930   2.859
 5957WAT     H119973   8.002   6.875   2.886
 5957WAT     H219974   7.967   7.017   2.845
 5958WAT      O19975   7.617   6.537   2.446
 5958WAT     H119976   7.524   6.561   2.445
 5958WAT     H219977   7.664   6.620   2.434
 5959WAT      O19978   7.829   6.849   3.778
 5959WAT     H119979   7.909   6.881   3.819
 5959WAT     H219980   7.778   6.813   3.850
 5960WAT      O19981   8.240   6.847   2.041
 5960WAT     H119982   8.319   6.876   1.996
 5960WAT     H219983   8.188   6.804   1.973
 5961WAT      O19984   8.713   6.459   3.772
 5961WAT     H119985   8.652   6.462   3.698
 5961WAT     H219986   8.682   6.386   3.826
 5962WAT      O19987   8.856   6.832   3.634
 5962WAT     H119988   8.951   6.824   3.629
 5962WAT     H219989   8.841   6.899   3.701
 5963WAT      O19990   9.145   6.770   2.183
 5963WAT     H119991   9.116   6.729   2.102
 5963WAT     H219992   9.125   6.863   2.171
 5964WAT      O19993   7.601   6.097   3.672
 5964WAT     H119994   7.652   6.039   3.729
 5964WAT     H219995   7.527   6.126   3.726
 5965WAT      O19996   8.291   6.369   2.028
 5965WAT     H119997   8.281   6.308   2.100
 5965WAT     H219998   8.275   6.317   1.949
 5966WAT      O19999   8.306   6.238   3.625
 5966WAT     H120000   8.230   6.295   3.617
 5966WAT     H220001   8.325   6.209   3.536
 5967WAT      O20002   8.615   6.276   2.088
 5967WAT     H120003   8.560   6.320   2.152
 5967WAT     H220004   8.678   6.225   2.140
 5968WAT      O20005   9.021   6.411   3.681
 5968WAT     H120006   9.095   6.445   3.631
 5968WAT     H220007   8.944   6.428   3.626
 5969WAT      O20008   7.804   5.912   3.762
 5969WAT     H120009   7.808   5.882   3.852
 5969WAT     H220010   7.890   5.952   3.746
 5970WAT      O20011   8.182   6.172   2.278
 5970WAT     H120012   8.224   6.155   2.362
 5970WAT     H220013   8.195   6.091   2.228
 5971WAT      O20014   7.998   5.770   3.558
 5971WAT     H120015   7.945   5.720   3.496
 5971WAT     H220016   8.065   5.812   3.505
 5972WAT      O20017   8.433   6.074   2.002
 5972WAT     H120018   8.485   6.002   1.966
 5972WAT     H220019   8.498   6.138   2.032
 5973WAT      O20020   8.888   6.216   3.535
 5973WAT     H120021   8.930   6.232   3.620
 5973WAT     H220022   8.795   6.229   3.551
 5974WAT      O20023   8.935   5.950   3.735
 5974WAT     H120024   8.994   5.875   3.726
 5974WAT     H220025   8.953   6.003   3.657
 5975WAT      O20026   8.047   5.466   3.566
 5975WAT     H120027   8.038   5.404   3.494
 5975WAT     H220028   7.989   5.539   3.544
 5976WAT      O20029   8.324   5.322   3.270
 5976WAT     H120030   8.279   5.324   3.185
 5976WAT     H220031   8.260   5.282   3.329
 5977WAT      O20032   8.364   6.211   3.332
 5977WAT     H120033   8.406   6.296   3.314
 5977WAT     H220034   8.272   6.225   3.309
 5978WAT      O20035   8.598   5.985   3.470
 5978WAT     H120036   8.610   5.925   3.544
 5978WAT     H220037   8.684   5.988   3.428
 5979WAT      O20038   8.832   6.040   3.328
 5979WAT     H120039   8.779   6.092   3.267
 5979WAT     H220040   8.866   6.103   3.391
 5980WAT      O20041   8.072   5.779   1.972
 5980WAT     H120042   8.052   5.693   2.008
 5980WAT     H220043   8.055   5.770   1.878
 5981WAT      O20044   8.149   6.842   3.443
 5981WAT     H120045   8.096   6.914   3.411
 5981WAT     H220046   8.175   6.794   3.364
 5982WAT      O20047   8.275   5.639   3.596
 5982WAT     H120048   8.334   5.608   3.665
 5982WAT     H220049   8.193   5.592   3.611
 5983WAT      O20050   8.757   5.600   3.619
 5983WAT     H120051   8.688   5.534   3.613
 5983WAT     H220052   8.829   5.556   3.664
 5984WAT      O20053   8.820   5.260   2.225
 5984WAT     H120054   8.848   5.176   2.261
 5984WAT     H220055   8.742   5.283   2.276
 5985WAT      O20056   7.952   5.489   1.971
 5985WAT     H120057   7.982   5.490   1.880
 5985WAT     H220058   8.025   5.454   2.021
 5986WAT      O20059   8.435   6.965   3.469
 5986WAT     H120060   8.428   7.056   3.500
 5986WAT     H220061   8.345   6.934   3.466
 5987WAT      O20062   8.273   5.383   2.070
 5987WAT     H120063   8.239   5.315   2.012
 5987WAT     H220064   8.294   5.337   2.151
 5988WAT      O20065   8.490   6.882   2.231
 5988WAT     H120066   8.579   6.916   2.234
 5988WAT     H220067   8.493   6.810   2.169
 5989WAT      O20068   7.854   6.419   2.054
 5989WAT     H120069   7.898   6.474   2.120
 5989WAT     H220070   7.902   6.337   2.055
 5990WAT      O20071   7.575   6.698   2.799
 5990WAT     H120072   7.608   6.611   2.776
 5990WAT     H220073   7.618   6.719   2.883
 5991WAT      O20074   8.035   6.531   2.565
 5991WAT     H120075   8.005   6.519   2.656
 5991WAT     H220076   8.024   6.445   2.525
 5992WAT      O20077   7.624   6.785   3.073
 5992WAT     H120078   7.581   6.803   3.157
 5992WAT     H220079   7.681   6.861   3.059
 5993WAT      O20080   9.188   6.735   3.502
 5993WAT     H120081   9.128   6.741   3.428
 5993WAT     H220082   9.201   6.641   3.515
 5994WAT      O20083   9.312   6.509   2.036
 5994WAT     H120084   9.229   6.516   2.083
 5994WAT     H220085   9.330   6.598   2.005
 5995WAT      O20086   9.257   6.184   2.286
 5995WAT     H120087   9.334   6.241   2.297
 5995WAT     H220088   9.259   6.127   2.363
 5996WAT      O20089   7.607   6.036   2.709
 5996WAT     H120090   7.542   6.009   2.645
 5996WAT     H220091   7.691   6.025   2.664
 5997WAT      O20092   9.358   6.269   2.771
 5997WAT     H120093   9.395   6.191   2.730
 5997WAT     H220094   9.422   6.338   2.753
 5998WAT      O20095   9.056   6.408   3.312
 5998WAT     H120096   8.975   6.451   3.338
 5998WAT     H220097   9.097   6.469   3.251
 5999WAT      O20098   9.263   6.213   2.002
 5999WAT     H120099   9.290   6.304   1.989
 5999WAT     H220100   9.244   6.207   2.095
 6000WAT      O20101   8.902   5.516   2.131
 6000WAT     H120102   8.944   5.497   2.047
 6000WAT     H220103   8.872   5.430   2.162
 6001WAT      O20104   9.252   6.007   2.501
 6001WAT     H120105   9.215   5.930   2.458
 6001WAT     H220106   9.179   6.045   2.550
 6002WAT      O20107   7.711   6.075   3.163
 6002WAT     H120108   7.748   6.066   3.251
 6002WAT     H220109   7.654   5.998   3.153
 6003WAT      O20110   9.191   5.921   3.465
 6003WAT     H120111   9.168   5.899   3.374
 6003WAT     H220112   9.217   6.013   3.460
 6004WAT      O20113   7.666   5.766   3.554
 6004WAT     H120114   7.577   5.762   3.588
 6004WAT     H220115   7.720   5.786   3.630
 6005WAT      O20116   9.035   5.444   3.742
 6005WAT     H120117   9.123   5.445   3.781
 6005WAT     H220118   9.036   5.370   3.681
 6006WAT      O20119   7.529   5.757   2.303
 6006WAT     H120120   7.438   5.783   2.286
 6006WAT     H220121   7.577   5.784   2.225
 6007WAT      O20122   9.180   5.829   2.831
 6007WAT     H120123   9.232   5.780   2.768
 6007WAT     H220124   9.238   5.843   2.906
 6008WAT      O20125   9.198   5.838   3.183
 6008WAT     H120126   9.103   5.834   3.195
 6008WAT     H220127   9.216   5.929   3.160
 6009WAT      O20128   7.783   5.663   2.094
 6009WAT     H120129   7.854   5.621   2.046
 6009WAT     H220130   7.712   5.670   2.031
 6010WAT      O20131   7.748   5.268   1.998
 6010WAT     H120132   7.820   5.322   2.030
 6010WAT     H220133   7.775   5.241   1.911
 6011WAT      O20134   9.129   5.755   2.425
 6011WAT     H120135   9.178   5.732   2.504
 6011WAT     H220136   9.109   5.671   2.383
 6012WAT      O20137   7.717   5.193   2.989
 6012WAT     H120138   7.782   5.138   2.945
 6012WAT     H220139   7.759   5.219   3.071
 6013WAT      O20140   9.272   5.619   2.678
 6013WAT     H120141   9.261   5.603   2.772
 6013WAT     H220142   9.348   5.566   2.654
 6014WAT      O20143   9.106   5.213   3.324
 6014WAT     H120144   9.170   5.274   3.361
 6014WAT     H220145   9.121   5.216   3.230
 6015WAT      O20146   9.361   5.402   2.003
 6015WAT     H120147   9.453   5.389   1.982
 6015WAT     H220148   9.358   5.410   2.098
 6016WAT      O20149   9.368   5.479   2.265
 6016WAT     H120150   9.288   5.472   2.318
 6016WAT     H220151   9.388   5.572   2.264
 6017WAT      O20152   9.062   6.883   2.665
 6017WAT     H120153   9.122   6.851   2.597
 6017WAT     H220154   9.088   6.835   2.744
 6018WAT      O20155   7.692   5.209   3.263
 6018WAT     H120156   7.657   5.254   3.339
 6018WAT     H220157   7.659   5.119   3.271
 6019WAT      O20158   7.853   6.526   3.679
 6019WAT     H120159   7.848   6.489   3.768
 6019WAT     H220160   7.866   6.620   3.693
 6020WAT      O20161   8.223   6.682   3.240
 6020WAT     H120162   8.199   6.708   3.151
 6020WAT     H220163   8.317   6.699   3.245
 6021WAT      O20164   8.443   5.328   3.615
 6021WAT     H120165   8.437   5.387   3.690
 6021WAT     H220166   8.537   5.317   3.601
 6022WAT      O20167   8.707   5.294   3.579
 6022WAT     H120168   8.768   5.325   3.513
 6022WAT     H220169   8.762   5.245   3.641
 6023WAT      O20170   9.349   6.883   3.320
 6023WAT     H120171   9.299   6.923   3.248
 6023WAT     H220172   9.288   6.821   3.359
 6024WAT      O20173   7.759   5.162   3.590
 6024WAT     H120174   7.814   5.143   3.514
 6024WAT     H220175   7.766   5.082   3.644
 6025WAT      O20176   7.837   6.821   3.391
 6025WAT     H120177   7.777   6.807   3.465
 6025WAT     H220178   7.836   6.737   3.345
 6026WAT      O20179   8.781   5.150   3.212
 6026WAT     H120180   8.694   5.183   3.191
 6026WAT     H220181   8.770   5.103   3.294
 6027WAT      O20182   8.872   5.371   3.350
 6027WAT     H120183   8.839   5.289   3.312
 6027WAT     H220184   8.967   5.366   3.338
 6028WAT      O20185   9.117   6.948   3.047
 6028WAT     H120186   9.071   7.023   3.010
 6028WAT     H220187   9.054   6.876   3.042
 6029WAT      O20188   7.800   6.557   3.286
 6029WAT     H120189   7.727   6.495   3.280
 6029WAT     H220190   7.806   6.597   3.199
 6030WAT      O20191   8.160   6.779   2.965
 6030WAT     H120192   8.212   6.717   2.912
 6030WAT     H220193   8.225   6.829   3.014
 6031WAT      O20194   8.434   6.868   3.048
 6031WAT     H120195   8.463   6.842   2.960
 6031WAT     H220196   8.485   6.812   3.107
 6032WAT      O20197   8.556   5.242   3.106
 6032WAT     H120198   8.478   5.289   3.134
 6032WAT     H220199   8.527   5.151   3.095
 6033WAT      O20200   9.011   5.312   2.910
 6033WAT     H120201   9.055   5.306   2.825
 6033WAT     H220202   8.984   5.403   2.917
 6034WAT      O20203   9.198   5.275   2.711
 6034WAT     H120204   9.191   5.181   2.697
 6034WAT     H220205   9.275   5.286   2.766
 6035WAT      O20206   7.628   6.889   2.607
 6035WAT     H120207   7.611   6.826   2.677
 6035WAT     H220208   7.541   6.910   2.572
 6036WAT      O20209   7.690   5.272   2.358
 6036WAT     H120210   7.766   5.283   2.300
 6036WAT     H220211   7.644   5.356   2.353
 6037WAT      O20212   8.344   5.483   2.657
 6037WAT     H120213   8.263   5.446   2.623
 6037WAT     H220214   8.395   5.408   2.687
 6038WAT      O20215   8.795   5.150   2.781
 6038WAT     H120216   8.855   5.207   2.828
 6038WAT     H220217   8.721   5.206   2.758
 6039WAT      O20218   9.109   5.190   2.308
 6039WAT     H120219   9.129   5.280   2.335
 6039WAT     H220220   9.030   5.167   2.357
 6040WAT      O20221   7.789   6.758   2.352
 6040WAT     H120222   7.736   6.796   2.282
 6040WAT     H220223   7.781   6.821   2.424
 6041WAT      O20224   7.928   5.325   2.212
 6041WAT     H120225   7.980   5.246   2.199
 6041WAT     H220226   7.991   5.393   2.235
 6042WAT      O20227   8.147   5.298   2.517
 6042WAT     H120228   8.084   5.228   2.534
 6042WAT     H220229   8.093   5.375   2.496
 6043WAT      O20230   8.441   6.960   3.784
 6043WAT     H120231   8.534   6.936   3.789
 6043WAT     H220232   8.439   7.043   3.736
 6044WAT      O20233   9.264   6.914   2.484
 6044WAT     H120234   9.282   6.845   2.420
 6044WAT     H220235   9.195   6.967   2.445
 6045WAT      O20236   8.159   5.226   3.761
 6045WAT     H120237   8.131   5.277   3.684
 6045WAT     H220238   8.198   5.147   3.724
 6046WAT      O20239   8.049   6.953   2.239
 6046WAT     H120240   8.122   6.925   2.185
 6046WAT     H220241   8.075   6.929   2.328
 6047WAT      O20242   7.965   6.565   2.240
 6047WAT     H120243   7.902   6.612   2.295
 6047WAT     H220244   7.976   6.480   2.283
 6048WAT      O20245   8.820   5.168   3.819
 6048WAT     H120246   8.808   5.200   3.908
 6048WAT     H220247   8.901   5.208   3.789
 6049WAT      O20248   9.098   6.883   3.767
 6049WAT     H120249   9.177   6.833   3.746
 6049WAT     H220250   9.127   6.950   3.827
 6050WAT      O20251   8.710   5.970   0.855
 6050WAT     H120252   8.702   5.878   0.828
 6050WAT     H220253   8.669   6.019   0.784
 6051WAT      O20254   8.523   6.148   1.043
 6051WAT     H120255   8.446   6.100   1.072
 6051WAT     H220256   8.589   6.080   1.026
 6052WAT      O20257   7.925   6.179   1.131
 6052WAT     H120258   7.842   6.153   1.171
 6052WAT     H220259   7.986   6.186   1.204
 6053WAT      O20260   8.925   6.588   0.921
 6053WAT     H120261   8.879   6.511   0.954
 6053WAT     H220262   9.007   6.591   0.972
 6054WAT      O20263   7.923   6.582   1.150
 6054WAT     H120264   7.953   6.493   1.132
 6054WAT     H220265   7.998   6.638   1.128
 6055WAT      O20266   7.766   5.675   0.509
 6055WAT     H120267   7.677   5.709   0.499
 6055WAT     H220268   7.794   5.655   0.420
 6056WAT      O20269   7.562   5.935   1.098
 6056WAT     H120270   7.619   5.858   1.098
 6056WAT     H220271   7.562   5.965   1.007
 6057WAT      O20272   8.548   6.817   0.883
 6057WAT     H120273   8.486   6.862   0.826
 6057WAT     H220274   8.634   6.832   0.843
 6058WAT      O20275   8.468   6.415   1.044
 6058WAT     H120276   8.461   6.321   1.028
 6058WAT     H220277   8.544   6.424   1.101
 6059WAT      O20278   7.687   5.476   1.276
 6059WAT     H120279   7.669   5.386   1.304
 6059WAT     H220280   7.646   5.530   1.344
 6060WAT      O20281   8.571   5.696   1.066
 6060WAT     H120282   8.608   5.609   1.055
 6060WAT     H220283   8.561   5.729   0.977
 6061WAT      O20284   7.984   5.533   0.613
 6061WAT     H120285   7.994   5.623   0.643
 6061WAT     H220286   7.893   5.528   0.584
 6062WAT      O20287   8.949   5.445   0.760
 6062WAT     H120288   9.031   5.396   0.764
 6062WAT     H220289   8.952   5.504   0.835
 6063WAT      O20290   7.748   5.725   1.137
 6063WAT     H120291   7.817   5.752   1.199
 6063WAT     H220292   7.717   5.641   1.170
 6064WAT      O20293   8.168   5.830   1.046
 6064WAT     H120294   8.218   5.880   1.110
 6064WAT     H220295   8.221   5.752   1.028
 6065WAT      O20296   9.378   5.647   1.416
 6065WAT     H120297   9.307   5.686   1.364
 6065WAT     H220298   9.404   5.717   1.476
 6066WAT      O20299   7.996   5.294   1.472
 6066WAT     H120300   7.996   5.346   1.392
 6066WAT     H220301   7.913   5.246   1.470
 6067WAT      O20302   8.635   6.305   0.622
 6067WAT     H120303   8.573   6.352   0.566
 6067WAT     H220304   8.686   6.374   0.664
 6068WAT      O20305   8.121   6.258   1.290
 6068WAT     H120306   8.088   6.321   1.354
 6068WAT     H220307   8.139   6.311   1.212
 6069WAT      O20308   8.972   5.639   1.037
 6069WAT     H120309   8.902   5.668   1.095
 6069WAT     H220310   9.009   5.720   1.001
 6070WAT      O20311   7.964   5.465   1.273
 6070WAT     H120312   7.998   5.549   1.244
 6070WAT     H220313   7.870   5.480   1.285
 6071WAT      O20314   8.042   6.455   1.472
 6071WAT     H120315   8.104   6.522   1.444
 6071WAT     H220316   7.956   6.496   1.463
 6072WAT      O20317   7.572   6.374   0.360
 6072WAT     H120318   7.534   6.423   0.287
 6072WAT     H220319   7.597   6.441   0.423
 6073WAT      O20320   9.134   6.601   1.263
 6073WAT     H120321   9.066   6.668   1.262
 6073WAT     H220322   9.188   6.621   1.187
 6074WAT      O20323   9.279   5.584   1.076
 6074WAT     H120324   9.185   5.587   1.089
 6074WAT     H220325   9.312   5.665   1.115
 6075WAT      O20326   8.332   5.214   0.906
 6075WAT     H120327   8.363   5.158   0.834
 6075WAT     H220328   8.239   5.227   0.887
 6076WAT      O20329   8.888   6.786   1.135
 6076WAT     H120330   8.889   6.745   1.048
 6076WAT     H220331   8.832   6.863   1.124
 6077WAT      O20332   9.017   6.458   0.644
 6077WAT     H120333   9.006   6.363   0.656
 6077WAT     H220334   9.017   6.494   0.732
 6078WAT      O20335   8.827   6.276   1.267
 6078WAT     H120336   8.869   6.254   1.184
 6078WAT     H220337   8.900   6.302   1.325
 6079WAT      O20338   8.571   6.020   0.579
 6079WAT     H120339   8.479   6.014   0.602
 6079WAT     H220340   8.587   6.114   0.568
 6080WAT      O20341   8.570   5.648   0.279
 6080WAT     H120342   8.476   5.664   0.287
 6080WAT     H220343   8.602   5.719   0.224
 6081WAT      O20344   9.222   6.116   1.277
 6081WAT     H120345   9.139   6.123   1.229
 6081WAT     H220346   9.282   6.174   1.230
 6082WAT      O20347   8.974   6.177   0.630
 6082WAT     H120348   8.912   6.143   0.565
 6082WAT     H220349   8.973   6.112   0.700
 6083WAT      O20350   8.919   5.794   1.371
 6083WAT     H120351   8.877   5.877   1.397
 6083WAT     H220352   8.845   5.736   1.352
 6084WAT      O20353   8.132   6.073   0.857
 6084WAT     H120354   8.091   6.002   0.808
 6084WAT     H220355   8.140   6.039   0.946
 6085WAT      O20356   8.179   6.442   1.074
 6085WAT     H120357   8.149   6.381   1.006
 6085WAT     H220358   8.274   6.445   1.063
 6086WAT      O20359   8.003   5.750   1.235
 6086WAT     H120360   8.058   5.761   1.158
 6086WAT     H220361   8.055   5.788   1.307
 6087WAT      O20362   8.988   6.799   1.440
 6087WAT     H120363   8.940   6.880   1.421
 6087WAT     H220364   8.919   6.734   1.455
 6088WAT      O20365   8.088   6.415   1.739
 6088WAT     H120366   7.998   6.438   1.764
 6088WAT     H220367   8.090   6.428   1.644
 6089WAT      O20368   8.792   6.100   0.330
 6089WAT     H120369   8.836   6.017   0.316
 6089WAT     H220370   8.863   6.164   0.339
 6090WAT      O20371   7.971   6.103   1.596
 6090WAT     H120372   7.957   6.190   1.633
 6090WAT     H220373   7.882   6.068   1.582
 6091WAT      O20374   8.603   6.594   0.727
 6091WAT     H120375   8.647   6.669   0.686
 6091WAT     H220376   8.597   6.619   0.819
 6092WAT      O20377   8.150   6.697   1.817
 6092WAT     H120378   8.148   6.737   1.731
 6092WAT     H220379   8.134   6.604   1.801
 6093WAT      O20380   7.802   5.962   0.607
 6093WAT     H120381   7.790   6.035   0.546
 6093WAT     H220382   7.771   5.885   0.560
 6094WAT      O20383   9.346   6.775   1.947
 6094WAT     H120384   9.393   6.823   2.015
 6094WAT     H220385   9.408   6.768   1.874
 6095WAT      O20386   7.566   6.280   1.188
 6095WAT     H120387   7.574   6.293   1.094
 6095WAT     H220388   7.627   6.209   1.207
 6096WAT      O20389   7.690   6.450   0.829
 6096WAT     H120390   7.650   6.464   0.744
 6096WAT     H220391   7.779   6.421   0.809
 6097WAT      O20392   9.286   6.494   1.663
 6097WAT     H120393   9.298   6.470   1.571
 6097WAT     H220394   9.290   6.411   1.710
 6098WAT      O20395   8.672   6.865   1.520
 6098WAT     H120396   8.723   6.856   1.600
 6098WAT     H220397   8.588   6.899   1.549
 6099WAT      O20398   8.870   6.893   0.463
 6099WAT     H120399   8.854   6.864   0.553
 6099WAT     H220400   8.853   6.815   0.409
 6100WAT      O20401   8.117   6.871   0.640
 6100WAT     H120402   8.100   6.779   0.619
 6100WAT     H220403   8.032   6.907   0.664
 6101WAT      O20404   8.840   6.644   0.319
 6101WAT     H120405   8.770   6.644   0.253
 6101WAT     H220406   8.914   6.602   0.276
 6102WAT      O20407   8.796   6.807   0.726
 6102WAT     H120408   8.842   6.728   0.758
 6102WAT     H220409   8.830   6.878   0.781
 6103WAT      O20410   9.271   5.700   1.759
 6103WAT     H120411   9.210   5.750   1.707
 6103WAT     H220412   9.239   5.610   1.754
 6104WAT      O20413   7.571   6.384   1.442
 6104WAT     H120414   7.588   6.337   1.360
 6104WAT     H220415   7.618   6.333   1.509
 6105WAT      O20416   8.049   5.297   0.946
 6105WAT     H120417   8.004   5.375   0.913
 6105WAT     H220418   8.104   5.329   1.016
 6106WAT      O20419   8.477   5.583   1.506
 6106WAT     H120420   8.431   5.604   1.587
 6106WAT     H220421   8.437   5.502   1.476
 6107WAT      O20422   8.977   5.706   1.619
 6107WAT     H120423   8.892   5.676   1.651
 6107WAT     H220424   8.961   5.730   1.528
 6108WAT      O20425   8.687   5.856   1.829
 6108WAT     H120426   8.719   5.772   1.795
 6108WAT     H220427   8.766   5.908   1.844
 6109WAT      O20428   8.360   5.259   0.434
 6109WAT     H120429   8.298   5.259   0.506
 6109WAT     H220430   8.351   5.172   0.394
 6110WAT      O20431   8.252   5.351   1.132
 6110WAT     H120432   8.282   5.442   1.124
 6110WAT     H220433   8.307   5.302   1.070
 6111WAT      O20434   8.028   5.809   0.719
 6111WAT     H120435   8.005   5.788   0.809
 6111WAT     H220436   7.950   5.852   0.684
 6112WAT      O20437   8.751   5.810   0.578
 6112WAT     H120438   8.691   5.882   0.560
 6112WAT     H220439   8.805   5.804   0.500
 6113WAT      O20440   8.272   5.899   1.785
 6113WAT     H120441   8.262   5.805   1.770
 6113WAT     H220442   8.356   5.921   1.746
 6114WAT      O20443   8.611   5.673   0.781
 6114WAT     H120444   8.651   5.705   0.700
 6114WAT     H220445   8.647   5.586   0.793
 6115WAT      O20446   7.785   5.540   1.600
 6115WAT     H120447   7.745   5.625   1.621
 6115WAT     H220448   7.716   5.476   1.620
 6116WAT      O20449   8.442   5.548   1.907
 6116WAT     H120450   8.373   5.529   1.971
 6116WAT     H220451   8.517   5.577   1.961
 6117WAT      O20452   7.515   5.332   1.004
 6117WAT     H120453   7.486   5.389   1.075
 6117WAT     H220454   7.589   5.284   1.040
 6118WAT      O20455   8.670   5.932   1.191
 6118WAT     H120456   8.597   5.983   1.226
 6118WAT     H220457   8.630   5.851   1.161
 6119WAT      O20458   8.314   5.600   1.031
 6119WAT     H120459   8.314   5.556   0.947
 6119WAT     H220460   8.403   5.632   1.042
 6120WAT      O20461   7.899   5.588   0.927
 6120WAT     H120462   7.865   5.636   1.003
 6120WAT     H220463   7.822   5.543   0.891
 6121WAT      O20464   8.320   5.700   0.331
 6121WAT     H120465   8.332   5.696   0.425
 6121WAT     H220466   8.281   5.786   0.315
 6122WAT      O20467   8.716   5.478   1.132
 6122WAT     H120468   8.718   5.523   1.217
 6122WAT     H220469   8.691   5.388   1.154
 6123WAT      O20470   8.221   5.931   0.270
 6123WAT     H120471   8.164   5.886   0.208
 6123WAT     H220472   8.292   5.967   0.217
 6124WAT      O20473   9.059   5.219   1.716
 6124WAT     H120474   9.091   5.146   1.769
 6124WAT     H220475   9.062   5.187   1.626
 6125WAT      O20476   7.729   6.321   1.658
 6125WAT     H120477   7.690   6.257   1.718
 6125WAT     H220478   7.760   6.392   1.715
 6126WAT      O20479   8.344   6.006   1.206
 6126WAT     H120480   8.380   5.959   1.281
 6126WAT     H220481   8.325   6.093   1.240
 6127WAT      O20482   7.630   5.480   0.819
 6127WAT     H120483   7.602   5.444   0.903
 6127WAT     H220484   7.624   5.407   0.758
 6128WAT      O20485   8.123   5.910   1.438
 6128WAT     H120486   8.092   5.998   1.460
 6128WAT     H220487   8.218   5.916   1.442
 6129WAT      O20488   7.976   6.331   0.498
 6129WAT     H120489   7.898   6.277   0.482
 6129WAT     H220490   8.048   6.279   0.464
 6130WAT      O20491   9.051   6.230   1.077
 6130WAT     H120492   9.123   6.280   1.038
 6130WAT     H220493   9.031   6.163   1.012
 6131WAT      O20494   8.597   5.370   0.491
 6131WAT     H120495   8.516   5.320   0.484
 6131WAT     H220496   8.578   5.454   0.450
 6132WAT      O20497   8.590   6.237   1.666
 6132WAT     H120498   8.583   6.145   1.640
 6132WAT     H220499   8.527   6.247   1.737
 6133WAT      O20500   8.869   5.807   0.321
 6133WAT     H120501   8.958   5.838   0.303
 6133WAT     H220502   8.866   5.720   0.282
 6134WAT      O20503   7.980   6.298   0.861
 6134WAT     H120504   8.032   6.217   0.856
 6134WAT     H220505   7.935   6.291   0.946
 6135WAT      O20506   8.469   6.424   0.389
 6135WAT     H120507   8.503   6.499   0.339
 6135WAT     H220508   8.386   6.455   0.425
 6136WAT      O20509   7.728   5.994   1.553
 6136WAT     H120510   7.692   6.061   1.611
 6136WAT     H220511   7.699   5.911   1.590
 6137WAT      O20512   8.048   6.040   1.841
 6137WAT     H120513   8.018   6.055   1.751
 6137WAT     H220514   8.126   5.984   1.832
 6138WAT      O20515   8.583   6.520   1.641
 6138WAT     H120516   8.584   6.426   1.619
 6138WAT     H220517   8.512   6.528   1.705
 6139WAT      O20518   9.096   5.938   0.268
 6139WAT     H120519   9.088   5.981   0.183
 6139WAT     H220520   9.168   5.984   0.311
 6140WAT      O20521   9.204   6.184   1.575
 6140WAT     H120522   9.131   6.243   1.556
 6140WAT     H220523   9.257   6.183   1.495
 6141WAT      O20524   9.199   6.623   0.540
 6141WAT     H120525   9.135   6.558   0.568
 6141WAT     H220526   9.160   6.664   0.463
 6142WAT      O20527   8.757   6.356   0.925
 6142WAT     H120528   8.792   6.297   0.859
 6142WAT     H220529   8.668   6.324   0.942
 6143WAT      O20530   8.365   6.432   0.666
 6143WAT     H120531   8.434   6.487   0.704
 6143WAT     H220532   8.287   6.487   0.669
 6144WAT      O20533   7.579   5.994   0.215
 6144WAT     H120534   7.666   6.022   0.243
 6144WAT     H220535   7.530   6.075   0.204
 6145WAT      O20536   8.296   6.133   0.627
 6145WAT     H120537   8.341   6.214   0.650
 6145WAT     H220538   8.261   6.101   0.710
 6146WAT      O20539   8.526   6.684   1.350
 6146WAT     H120540   8.591   6.704   1.418
 6146WAT     H220541   8.562   6.608   1.305
 6147WAT      O20542   7.886   5.167   0.674
 6147WAT     H120543   7.873   5.166   0.769
 6147WAT     H220544   7.804   5.201   0.639
 6148WAT      O20545   8.653   6.484   1.222
 6148WAT     H120546   8.718   6.414   1.233
 6148WAT     H220547   8.706   6.562   1.204
 6149WAT      O20548   8.831   6.564   1.542
 6149WAT     H120549   8.864   6.623   1.610
 6149WAT     H220550   8.739   6.551   1.565
 6150WAT      O20551   7.616   6.915   0.272
 6150WAT     H120552   7.652   6.975   0.206
 6150WAT     H220553   7.602   6.970   0.349
 6151WAT      O20554   7.586   5.343   1.620
 6151WAT     H120555   7.514   5.363   1.681
 6151WAT     H220556   7.628   5.265   1.658
 6152WAT      O20557   8.996   6.304   0.360
 6152WAT     H120558   8.967   6.350   0.439
 6152WAT     H220559   9.076   6.258   0.387
 6153WAT      O20560   7.615   6.742   1.719
 6153WAT     H120561   7.625   6.648   1.705
 6153WAT     H220562   7.549   6.768   1.654
 6154WAT      O20563   8.414   6.569   1.859
 6154WAT     H120564   8.382   6.497   1.914
 6154WAT     H220565   8.346   6.637   1.866
 6155WAT      O20566   8.218   6.654   0.353
 6155WAT     H120567   8.217   6.727   0.292
 6155WAT     H220568   8.126   6.629   0.363
 6156WAT      O20569   7.778   6.176   0.428
 6156WAT     H120570   7.717   6.250   0.429
 6156WAT     H220571   7.825   6.185   0.345
 6157WAT      O20572   8.735   5.592   1.395
 6157WAT     H120573   8.772   5.510   1.428
 6157WAT     H220574   8.649   5.598   1.437
 6158WAT      O20575   9.072   5.488   0.476
 6158WAT     H120576   9.009   5.498   0.405
 6158WAT     H220577   9.022   5.510   0.555
 6159WAT      O20578   8.269   5.716   0.618
 6159WAT     H120579   8.198   5.763   0.662
 6159WAT     H220580   8.297   5.650   0.681
 6160WAT      O20581   8.431   5.858   1.418
 6160WAT     H120582   8.481   5.905   1.484
 6160WAT     H220583   8.445   5.765   1.439
 6161WAT      O20584   8.672   5.388   0.762
 6161WAT     H120585   8.660   5.390   0.667
 6161WAT     H220586   8.767   5.393   0.774
 6162WAT      O20587   8.381   6.912   0.689
 6162WAT     H120588   8.406   6.908   0.597
 6162WAT     H220589   8.286   6.899   0.688
 6163WAT      O20590   8.089   5.547   0.355
 6163WAT     H120591   8.174   5.590   0.349
 6163WAT     H220592   8.052   5.578   0.438
 6164WAT      O20593   9.152   5.479   1.502
 6164WAT     H120594   9.102   5.553   1.536
 6164WAT     H220595   9.233   5.518   1.470
 6165WAT      O20596   8.981   6.004   0.847
 6165WAT     H120597   8.887   6.005   0.864
 6165WAT     H220598   9.013   5.925   0.891
 6166WAT      O20599   7.848   5.915   0.271
 6166WAT     H120600   7.856   5.820   0.282
 6166WAT     H220601   7.938   5.948   0.282
 6167WAT      O20602   9.181   6.721   1.014
 6167WAT     H120603   9.194   6.803   1.061
 6167WAT     H220604   9.268   6.700   0.979
 6168WAT      O20605   7.929   6.930   0.981
 6168WAT     H120606   8.002   6.875   1.009
 6168WAT     H220607   7.967   7.017   0.967
 6169WAT      O20608   7.617   6.537   0.569
 6169WAT     H120609   7.524   6.561   0.568
 6169WAT     H220610   7.664   6.620   0.557
 6170WAT      O20611   7.829   6.849   1.900
 6170WAT     H120612   7.909   6.881   1.942
 6170WAT     H220613   7.778   6.813   1.972
 6171WAT      O20614   8.713   6.459   1.895
 6171WAT     H120615   8.652   6.462   1.821
 6171WAT     H220616   8.682   6.386   1.949
 6172WAT      O20617   8.856   6.832   1.756
 6172WAT     H120618   8.951   6.824   1.751
 6172WAT     H220619   8.841   6.899   1.823
 6173WAT      O20620   9.145   6.770   0.306
 6173WAT     H120621   9.116   6.729   0.225
 6173WAT     H220622   9.125   6.863   0.294
 6174WAT      O20623   7.601   6.097   1.795
 6174WAT     H120624   7.652   6.039   1.852
 6174WAT     H220625   7.527   6.126   1.848
 6175WAT      O20626   8.306   6.238   1.748
 6175WAT     H120627   8.230   6.295   1.740
 6175WAT     H220628   8.325   6.209   1.659
 6176WAT      O20629   8.615   6.276   0.211
 6176WAT     H120630   8.560   6.320   0.275
 6176WAT     H220631   8.678   6.225   0.263
 6177WAT      O20632   9.021   6.411   1.804
 6177WAT     H120633   9.095   6.445   1.753
 6177WAT     H220634   8.944   6.428   1.748
 6178WAT      O20635   7.804   5.912   1.884
 6178WAT     H120636   7.808   5.882   1.975
 6178WAT     H220637   7.890   5.952   1.868
 6179WAT      O20638   8.182   6.172   0.400
 6179WAT     H120639   8.224   6.155   0.484
 6179WAT     H220640   8.195   6.091   0.351
 6180WAT      O20641   7.998   5.770   1.681
 6180WAT     H120642   7.945   5.720   1.618
 6180WAT     H220643   8.065   5.812   1.627
 6181WAT      O20644   8.888   6.216   1.657
 6181WAT     H120645   8.930   6.232   1.742
 6181WAT     H220646   8.795   6.229   1.674
 6182WAT      O20647   8.935   5.950   1.858
 6182WAT     H120648   8.994   5.875   1.849
 6182WAT     H220649   8.953   6.003   1.780
 6183WAT      O20650   8.047   5.466   1.689
 6183WAT     H120651   8.038   5.404   1.616
 6183WAT     H220652   7.989   5.539   1.666
 6184WAT      O20653   8.324   5.322   1.392
 6184WAT     H120654   8.279   5.324   1.308
 6184WAT     H220655   8.260   5.282   1.452
 6185WAT      O20656   8.364   6.211   1.454
 6185WAT     H120657   8.406   6.296   1.437
 6185WAT     H220658   8.272   6.225   1.431
 6186WAT      O20659   8.598   5.985   1.593
 6186WAT     H120660   8.610   5.925   1.667
 6186WAT     H220661   8.684   5.988   1.551
 6187WAT      O20662   8.832   6.040   1.450
 6187WAT     H120663   8.779   6.092   1.390
 6187WAT     H220664   8.866   6.103   1.513
 6188WAT      O20665   8.149   6.842   1.566
 6188WAT     H120666   8.096   6.914   1.534
 6188WAT     H220667   8.175   6.794   1.487
 6189WAT      O20668   8.275   5.639   1.718
 6189WAT     H120669   8.334   5.608   1.787
 6189WAT     H220670   8.193   5.592   1.734
 6190WAT      O20671   8.757   5.600   1.742
 6190WAT     H120672   8.688   5.534   1.735
 6190WAT     H220673   8.829   5.556   1.786
 6191WAT      O20674   8.820   5.260   0.348
 6191WAT     H120675   8.848   5.176   0.383
 6191WAT     H220676   8.742   5.283   0.399
 6192WAT      O20677   8.435   6.965   1.592
 6192WAT     H120678   8.428   7.056   1.622
 6192WAT     H220679   8.345   6.934   1.589
 6193WAT      O20680   8.490   6.882   0.354
 6193WAT     H120681   8.579   6.916   0.356
 6193WAT     H220682   8.493   6.810   0.291
 6194WAT      O20683   7.854   6.419   0.177
 6194WAT     H120684   7.898   6.474   0.242
 6194WAT     H220685   7.902   6.337   0.178
 6195WAT      O20686   7.575   6.698   0.922
 6195WAT     H120687   7.608   6.611   0.899
 6195WAT     H220688   7.618   6.719   1.005
 6196WAT      O20689   8.035   6.531   0.688
 6196WAT     H120690   8.005   6.519   0.778
 6196WAT     H220691   8.024   6.445   0.647
 6197WAT      O20692   7.624   6.785   1.196
 6197WAT     H120693   7.581   6.803   1.279
 6197WAT     H220694   7.681   6.861   1.182
 6198WAT      O20695   9.188   6.735   1.625
 6198WAT     H120696   9.128   6.741   1.550
 6198WAT     H220697   9.201   6.641   1.638
 6199WAT      O20698   9.257   6.184   0.409
 6199WAT     H120699   9.334   6.241   0.419
 6199WAT     H220700   9.259   6.127   0.486
 6200WAT      O20701   7.607   6.036   0.832
 6200WAT     H120702   7.542   6.009   0.767
 6200WAT     H220703   7.691   6.025   0.787
 6201WAT      O20704   9.358   6.269   0.893
 6201WAT     H120705   9.395   6.191   0.852
 6201WAT     H220706   9.422   6.338   0.875
 6202WAT      O20707   9.056   6.408   1.434
 6202WAT     H120708   8.975   6.451   1.461
 6202WAT     H220709   9.097   6.469   1.373
 6203WAT      O20710   8.902   5.516   0.254
 6203WAT     H120711   8.944   5.497   0.170
 6203WAT     H220712   8.872   5.430   0.285
 6204WAT      O20713   9.252   6.007   0.624
 6204WAT     H120714   9.215   5.930   0.580
 6204WAT     H220715   9.179   6.045   0.672
 6205WAT      O20716   7.711   6.075   1.286
 6205WAT     H120717   7.748   6.066   1.374
 6205WAT     H220718   7.654   5.998   1.276
 6206WAT      O20719   9.191   5.921   1.587
 6206WAT     H120720   9.168   5.899   1.497
 6206WAT     H220721   9.217   6.013   1.583
 6207WAT      O20722   7.666   5.766   1.676
 6207WAT     H120723   7.577   5.762   1.710
 6207WAT     H220724   7.720   5.786   1.753
 6208WAT      O20725   9.035   5.444   1.865
 6208WAT     H120726   9.123   5.445   1.903
 6208WAT     H220727   9.036   5.370   1.804
 6209WAT      O20728   7.529   5.757   0.426
 6209WAT     H120729   7.438   5.783   0.409
 6209WAT     H220730   7.577   5.784   0.348
 6210WAT      O20731   9.180   5.829   0.954
 6210WAT     H120732   9.232   5.780   0.891
 6210WAT     H220733   9.238   5.843   1.028
 6211WAT      O20734   9.198   5.838   1.306
 6211WAT     H120735   9.103   5.834   1.317
 6211WAT     H220736   9.216   5.929   1.282
 6212WAT      O20737   9.129   5.755   0.548
 6212WAT     H120738   9.178   5.732   0.626
 6212WAT     H220739   9.109   5.671   0.506
 6213WAT      O20740   7.717   5.193   1.111
 6213WAT     H120741   7.782   5.138   1.067
 6213WAT     H220742   7.759   5.219   1.193
 6214WAT      O20743   9.272   5.619   0.801
 6214WAT     H120744   9.261   5.603   0.895
 6214WAT     H220745   9.348   5.566   0.777
 6215WAT      O20746   9.106   5.213   1.447
 6215WAT     H120747   9.170   5.274   1.483
 6215WAT     H220748   9.121   5.216   1.352
 6216WAT      O20749   9.368   5.479   0.388
 6216WAT     H120750   9.288   5.472   0.441
 6216WAT     H220751   9.388   5.572   0.387
 6217WAT      O20752   9.062   6.883   0.787
 6217WAT     H120753   9.122   6.851   0.719
 6217WAT     H220754   9.088   6.835   0.866
 6218WAT      O20755   7.692   5.209   1.385
 6218WAT     H120756   7.657   5.254   1.462
 6218WAT     H220757   7.659   5.119   1.394
 6219WAT      O20758   7.853   6.526   1.802
 6219WAT     H120759   7.848   6.489   1.890
 6219WAT     H220760   7.866   6.620   1.816
 6220WAT      O20761   8.223   6.682   1.362
 6220WAT     H120762   8.199   6.708   1.273
 6220WAT     H220763   8.317   6.699   1.368
 6221WAT      O20764   8.443   5.328   1.738
 6221WAT     H120765   8.437   5.387   1.813
 6221WAT     H220766   8.537   5.317   1.723
 6222WAT      O20767   8.707   5.294   1.702
 6222WAT     H120768   8.768   5.325   1.635
 6222WAT     H220769   8.762   5.245   1.764
 6223WAT      O20770   9.349   6.883   1.442
 6223WAT     H120771   9.299   6.923   1.370
 6223WAT     H220772   9.288   6.821   1.482
 6224WAT      O20773   7.759   5.162   1.713
 6224WAT     H120774   7.814   5.143   1.637
 6224WAT     H220775   7.766   5.082   1.767
 6225WAT      O20776   7.837   6.821   1.514
 6225WAT     H120777   7.777   6.807   1.588
 6225WAT     H220778   7.836   6.737   1.467
 6226WAT      O20779   8.781   5.150   1.334
 6226WAT     H120780   8.694   5.183   1.314
 6226WAT     H220781   8.770   5.103   1.417
 6227WAT      O20782   8.872   5.371   1.473
 6227WAT     H120783   8.839   5.289   1.435
 6227WAT     H220784   8.967   5.366   1.460
 6228WAT      O20785   9.117   6.948   1.170
 6228WAT     H120786   9.071   7.023   1.133
 6228WAT     H220787   9.054   6.876   1.164
 6229WAT      O20788   7.800   6.557   1.409
 6229WAT     H120789   7.727   6.495   1.402
 6229WAT     H220790   7.806   6.597   1.322
 6230WAT      O20791   8.160   6.779   1.088
 6230WAT     H120792   8.212   6.717   1.035
 6230WAT     H220793   8.225   6.829   1.137
 6231WAT      O20794   8.434   6.868   1.170
 6231WAT     H120795   8.463   6.842   1.083
 6231WAT     H220796   8.485   6.812   1.229
 6232WAT      O20797   8.556   5.242   1.228
 6232WAT     H120798   8.478   5.289   1.256
 6232WAT     H220799   8.527   5.151   1.217
 6233WAT      O20800   9.011   5.312   1.033
 6233WAT     H120801   9.055   5.306   0.948
 6233WAT     H220802   8.984   5.403   1.040
 6234WAT      O20803   9.198   5.275   0.834
 6234WAT     H120804   9.191   5.181   0.819
 6234WAT     H220805   9.275   5.286   0.888
 6235WAT      O20806   7.628   6.889   0.730
 6235WAT     H120807   7.611   6.826   0.800
 6235WAT     H220808   7.541   6.910   0.695
 6236WAT      O20809   7.690   5.272   0.480
 6236WAT     H120810   7.766   5.283   0.423
 6236WAT     H220811   7.644   5.356   0.476
 6237WAT      O20812   8.344   5.483   0.779
 6237WAT     H120813   8.263   5.446   0.745
 6237WAT     H220814   8.395   5.408   0.810
 6238WAT      O20815   8.795   5.150   0.903
 6238WAT     H120816   8.855   5.207   0.951
 6238WAT     H220817   8.721   5.206   0.881
 6239WAT      O20818   9.109   5.190   0.431
 6239WAT     H120819   9.129   5.280   0.457
 6239WAT     H220820   9.030   5.167   0.480
 6240WAT      O20821   7.789   6.758   0.474
 6240WAT     H120822   7.736   6.796   0.404
 6240WAT     H220823   7.781   6.821   0.547
 6241WAT      O20824   7.928   5.325   0.334
 6241WAT     H120825   7.980   5.246   0.321
 6241WAT     H220826   7.991   5.393   0.358
 6242WAT      O20827   8.147   5.298   0.640
 6242WAT     H120828   8.084   5.228   0.656
 6242WAT     H220829   8.093   5.375   0.618
 6243WAT      O20830   8.441   6.960   1.907
 6243WAT     H120831   8.534   6.936   1.911
 6243WAT     H220832   8.439   7.043   1.859
 6244WAT      O20833   9.264   6.914   0.607
 6244WAT     H120834   9.282   6.845   0.542
 6244WAT     H220835   9.195   6.967   0.567
 6245WAT      O20836   8.159   5.226   1.883
 6245WAT     H120837   8.131   5.277   1.807
 6245WAT     H220838   8.198   5.147   1.847
 6246WAT      O20839   8.049   6.953   0.362
 6246WAT     H120840   8.122   6.925   0.307
 6246WAT     H220841   8.075   6.929   0.451
 6247WAT      O20842   7.965   6.565   0.362
 6247WAT     H120843   7.902   6.612   0.417
 6247WAT     H220844   7.976   6.480   0.406
 6248WAT      O20845   8.820   5.168   1.941
 6248WAT     H120846   8.808   5.200   2.031
 6248WAT     H220847   8.901   5.208   1.911
 6249WAT      O20848   9.098   6.883   1.889
 6249WAT     H120849   9.177   6.833   1.869
 6249WAT     H220850   9.127   6.950   1.950
 6250WAT      O20851   8.710   4.092   6.487
 6250WAT     H120852   8.702   4.001   6.460
 6250WAT     H220853   8.669   4.142   6.417
 6251WAT      O20854   8.523   4.270   6.675
 6251WAT     H120855   8.446   4.222   6.704
 6251WAT     H220856   8.589   4.202   6.658
 6252WAT      O20857   7.925   4.301   6.763
 6252WAT     H120858   7.842   4.276   6.803
 6252WAT     H220859   7.986   4.308   6.837
 6253WAT      O20860   8.925   4.711   6.553
 6253WAT     H120861   8.879   4.634   6.586
 6253WAT     H220862   9.007   4.713   6.604
 6254WAT      O20863   7.923   4.705   6.783
 6254WAT     H120864   7.953   4.616   6.765
 6254WAT     H220865   7.998   4.760   6.760
 6255WAT      O20866   7.766   3.797   6.141
 6255WAT     H120867   7.677   3.832   6.131
 6255WAT     H220868   7.794   3.777   6.052
 6256WAT      O20869   7.562   4.057   6.730
 6256WAT     H120870   7.619   3.981   6.730
 6256WAT     H220871   7.562   4.087   6.639
 6257WAT      O20872   8.548   4.939   6.515
 6257WAT     H120873   8.486   4.985   6.458
 6257WAT     H220874   8.634   4.955   6.475
 6258WAT      O20875   8.468   4.538   6.676
 6258WAT     H120876   8.461   4.444   6.660
 6258WAT     H220877   8.544   4.547   6.733
 6259WAT      O20878   7.687   3.598   6.909
 6259WAT     H120879   7.669   3.508   6.937
 6259WAT     H220880   7.646   3.653   6.976
 6260WAT      O20881   8.571   3.818   6.699
 6260WAT     H120882   8.608   3.731   6.687
 6260WAT     H220883   8.561   3.852   6.610
 6261WAT      O20884   7.984   3.656   6.245
 6261WAT     H120885   7.994   3.746   6.276
 6261WAT     H220886   7.893   3.651   6.216
 6262WAT      O20887   8.949   3.568   6.392
 6262WAT     H120888   9.031   3.519   6.396
 6262WAT     H220889   8.952   3.627   6.467
 6263WAT      O20890   7.748   3.848   6.769
 6263WAT     H120891   7.817   3.874   6.831
 6263WAT     H220892   7.717   3.764   6.803
 6264WAT      O20893   8.168   3.953   6.678
 6264WAT     H120894   8.218   4.002   6.742
 6264WAT     H220895   8.221   3.875   6.661
 6265WAT      O20896   9.378   3.770   7.048
 6265WAT     H120897   9.307   3.808   6.997
 6265WAT     H220898   9.404   3.839   7.109
 6266WAT      O20899   7.996   3.417   7.105
 6266WAT     H120900   7.996   3.468   7.024
 6266WAT     H220901   7.913   3.369   7.102
 6267WAT      O20902   8.635   4.428   6.255
 6267WAT     H120903   8.573   4.474   6.198
 6267WAT     H220904   8.686   4.497   6.296
 6268WAT      O20905   8.121   4.380   6.922
 6268WAT     H120906   8.088   4.443   6.987
 6268WAT     H220907   8.139   4.433   6.845
 6269WAT      O20908   8.972   3.762   6.669
 6269WAT     H120909   8.902   3.791   6.727
 6269WAT     H220910   9.009   3.843   6.633
 6270WAT      O20911   7.964   3.588   6.905
 6270WAT     H120912   7.998   3.672   6.876
 6270WAT     H220913   7.870   3.602   6.917
 6271WAT      O20914   8.042   4.577   7.104
 6271WAT     H120915   8.104   4.645   7.076
 6271WAT     H220916   7.956   4.618   7.095
 6272WAT      O20917   7.572   4.496   5.992
 6272WAT     H120918   7.534   4.545   5.919
 6272WAT     H220919   7.597   4.564   6.055
 6273WAT      O20920   9.134   4.724   6.896
 6273WAT     H120921   9.066   4.791   6.895
 6273WAT     H220922   9.188   4.743   6.819
 6274WAT      O20923   9.279   3.706   6.708
 6274WAT     H120924   9.185   3.710   6.721
 6274WAT     H220925   9.312   3.788   6.747
 6275WAT      O20926   8.332   3.336   6.538
 6275WAT     H120927   8.363   3.281   6.466
 6275WAT     H220928   8.239   3.350   6.520
 6276WAT      O20929   8.888   4.908   6.767
 6276WAT     H120930   8.889   4.868   6.680
 6276WAT     H220931   8.832   4.986   6.757
 6277WAT      O20932   9.017   4.580   6.276
 6277WAT     H120933   9.006   4.486   6.288
 6277WAT     H220934   9.017   4.616   6.365
 6278WAT      O20935   8.827   4.398   6.900
 6278WAT     H120936   8.869   4.377   6.816
 6278WAT     H220937   8.900   4.424   6.957
 6279WAT      O20938   8.571   4.143   6.212
 6279WAT     H120939   8.479   4.136   6.234
 6279WAT     H220940   8.587   4.237   6.200
 6280WAT      O20941   8.570   3.770   5.911
 6280WAT     H120942   8.476   3.786   5.920
 6280WAT     H220943   8.602   3.842   5.857
 6281WAT      O20944   9.222   4.238   6.909
 6281WAT     H120945   9.139   4.245   6.861
 6281WAT     H220946   9.282   4.297   6.862
 6282WAT      O20947   8.974   4.299   6.262
 6282WAT     H120948   8.912   4.265   6.197
 6282WAT     H220949   8.973   4.235   6.333
 6283WAT      O20950   8.919   3.917   7.004
 6283WAT     H120951   8.877   4.000   7.029
 6283WAT     H220952   8.845   3.858   6.984
 6284WAT      O20953   8.132   4.196   6.490
 6284WAT     H120954   8.091   4.124   6.440
 6284WAT     H220955   8.140   4.161   6.579
 6285WAT      O20956   8.179   4.564   6.706
 6285WAT     H120957   8.149   4.504   6.638
 6285WAT     H220958   8.274   4.568   6.695
 6286WAT      O20959   8.003   3.873   6.868
 6286WAT     H120960   8.058   3.884   6.790
 6286WAT     H220961   8.055   3.910   6.939
 6287WAT      O20962   8.988   4.922   7.072
 6287WAT     H120963   8.940   5.002   7.053
 6287WAT     H220964   8.919   4.856   7.088
 6288WAT      O20965   8.088   4.538   7.371
 6288WAT     H120966   7.998   4.560   7.396
 6288WAT     H220967   8.090   4.550   7.276
 6289WAT      O20968   8.792   4.223   5.963
 6289WAT     H120969   8.836   4.139   5.948
 6289WAT     H220970   8.863   4.286   5.971
 6290WAT      O20971   7.971   4.225   7.229
 6290WAT     H120972   7.957   4.312   7.266
 6290WAT     H220973   7.882   4.191   7.214
 6291WAT      O20974   8.603   4.717   6.359
 6291WAT     H120975   8.647   4.791   6.318
 6291WAT     H220976   8.597   4.741   6.452
 6292WAT      O20977   8.150   4.819   7.450
 6292WAT     H120978   8.148   4.860   7.363
 6292WAT     H220979   8.134   4.727   7.433
 6293WAT      O20980   9.150   3.348   5.794
 6293WAT     H120981   9.119   3.358   5.884
 6293WAT     H220982   9.226   3.406   5.789
 6294WAT      O20983   7.802   4.085   6.240
 6294WAT     H120984   7.790   4.158   6.179
 6294WAT     H220985   7.771   4.008   6.192
 6295WAT      O20986   7.566   4.402   6.820
 6295WAT     H120987   7.574   4.416   6.726
 6295WAT     H220988   7.627   4.331   6.840
 6296WAT      O20989   7.690   4.572   6.462
 6296WAT     H120990   7.650   4.586   6.376
 6296WAT     H220991   7.779   4.544   6.441
 6297WAT      O20992   9.286   4.617   7.295
 6297WAT     H120993   9.298   4.593   7.203
 6297WAT     H220994   9.290   4.534   7.342
 6298WAT      O20995   8.672   4.987   7.152
 6298WAT     H120996   8.723   4.978   7.232
 6298WAT     H220997   8.588   5.022   7.181
 6299WAT      O20998   8.870   5.016   6.095
 6299WAT     H120999   8.854   4.987   6.185
 6299WAT     H221000   8.853   4.938   6.041
 6300WAT      O21001   8.117   4.994   6.273
 6300WAT     H121002   8.100   4.902   6.251
 6300WAT     H221003   8.032   5.029   6.297
 6301WAT      O21004   8.840   4.767   5.951
 6301WAT     H121005   8.770   4.766   5.885
 6301WAT     H221006   8.914   4.724   5.908
 6302WAT      O21007   8.796   4.929   6.358
 6302WAT     H121008   8.842   4.851   6.390
 6302WAT     H221009   8.830   5.000   6.413
 6303WAT      O21010   9.271   3.822   7.392
 6303WAT     H121011   9.210   3.873   7.339
 6303WAT     H221012   9.239   3.732   7.386
 6304WAT      O21013   7.571   4.506   7.074
 6304WAT     H121014   7.588   4.459   6.993
 6304WAT     H221015   7.618   4.456   7.141
 6305WAT      O21016   8.049   3.419   6.578
 6305WAT     H121017   8.004   3.497   6.545
 6305WAT     H221018   8.104   3.452   6.649
 6306WAT      O21019   8.477   3.706   7.138
 6306WAT     H121020   8.431   3.727   7.220
 6306WAT     H221021   8.437   3.625   7.108
 6307WAT      O21022   8.977   3.828   7.251
 6307WAT     H121023   8.892   3.798   7.283
 6307WAT     H221024   8.961   3.853   7.160
 6308WAT      O21025   8.687   3.978   7.461
 6308WAT     H121026   8.719   3.895   7.427
 6308WAT     H221027   8.766   4.030   7.476
 6309WAT      O21028   8.360   3.381   6.066
 6309WAT     H121029   8.298   3.381   6.139
 6309WAT     H221030   8.351   3.295   6.026
 6310WAT      O21031   8.252   3.474   6.764
 6310WAT     H121032   8.282   3.564   6.756
 6310WAT     H221033   8.307   3.425   6.702
 6311WAT      O21034   8.028   3.932   6.351
 6311WAT     H121035   8.005   3.910   6.441
 6311WAT     H221036   7.950   3.975   6.316
 6312WAT      O21037   8.751   3.932   6.211
 6312WAT     H121038   8.691   4.005   6.192
 6312WAT     H221039   8.805   3.926   6.132
 6313WAT      O21040   8.272   4.022   7.417
 6313WAT     H121041   8.262   3.928   7.402
 6313WAT     H221042   8.356   4.044   7.378
 6314WAT      O21043   8.611   3.796   6.414
 6314WAT     H121044   8.651   3.828   6.332
 6314WAT     H221045   8.647   3.708   6.425
 6315WAT      O21046   7.785   3.663   7.233
 6315WAT     H121047   7.745   3.747   7.253
 6315WAT     H221048   7.716   3.599   7.252
 6316WAT      O21049   7.515   3.455   6.636
 6316WAT     H121050   7.486   3.512   6.707
 6316WAT     H221051   7.589   3.407   6.672
 6317WAT      O21052   7.534   3.849   5.757
 6317WAT     H121053   7.525   3.943   5.771
 6317WAT     H221054   7.498   3.835   5.669
 6318WAT      O21055   8.670   4.055   6.823
 6318WAT     H121056   8.597   4.106   6.858
 6318WAT     H221057   8.630   3.973   6.793
 6319WAT      O21058   8.314   3.723   6.664
 6319WAT     H121059   8.314   3.678   6.579
 6319WAT     H221060   8.403   3.755   6.675
 6320WAT      O21061   7.899   3.711   6.560
 6320WAT     H121062   7.865   3.759   6.635
 6320WAT     H221063   7.822   3.665   6.524
 6321WAT      O21064   8.320   3.823   5.963
 6321WAT     H121065   8.332   3.819   6.058
 6321WAT     H221066   8.281   3.909   5.947
 6322WAT      O21067   8.716   3.600   6.764
 6322WAT     H121068   8.718   3.645   6.849
 6322WAT     H221069   8.691   3.510   6.786
 6323WAT      O21070   8.221   4.054   5.903
 6323WAT     H121071   8.164   4.009   5.840
 6323WAT     H221072   8.292   4.090   5.849
 6324WAT      O21073   9.059   3.342   7.348
 6324WAT     H121074   9.091   3.269   7.401
 6324WAT     H221075   9.062   3.310   7.258
 6325WAT      O21076   7.729   4.444   7.290
 6325WAT     H121077   7.690   4.380   7.350
 6325WAT     H221078   7.760   4.514   7.347
 6326WAT      O21079   8.344   4.129   6.838
 6326WAT     H121080   8.380   4.081   6.913
 6326WAT     H221081   8.325   4.216   6.873
 6327WAT      O21082   7.630   3.603   6.451
 6327WAT     H121083   7.602   3.567   6.535
 6327WAT     H221084   7.624   3.530   6.390
 6328WAT      O21085   8.123   4.033   7.070
 6328WAT     H121086   8.092   4.121   7.093
 6328WAT     H221087   8.218   4.039   7.074
 6329WAT      O21088   7.976   4.453   6.130
 6329WAT     H121089   7.898   4.399   6.114
 6329WAT     H221090   8.048   4.401   6.096
 6330WAT      O21091   9.051   4.353   6.709
 6330WAT     H121092   9.123   4.402   6.670
 6330WAT     H221093   9.031   4.285   6.645
 6331WAT      O21094   8.597   3.492   6.124
 6331WAT     H121095   8.516   3.442   6.116
 6331WAT     H221096   8.578   3.576   6.082
 6332WAT      O21097   8.590   4.360   7.298
 6332WAT     H121098   8.583   4.268   7.272
 6332WAT     H221099   8.527   4.370   7.369
 6333WAT      O21100   8.869   3.930   5.953
 6333WAT     H121101   8.958   3.961   5.936
 6333WAT     H221102   8.866   3.842   5.914
 6334WAT      O21103   7.980   4.420   6.494
 6334WAT     H121104   8.032   4.340   6.488
 6334WAT     H221105   7.935   4.414   6.578
 6335WAT      O21106   8.469   4.547   6.021
 6335WAT     H121107   8.503   4.621   5.971
 6335WAT     H221108   8.386   4.578   6.057
 6336WAT      O21109   7.728   4.117   7.185
 6336WAT     H121110   7.692   4.183   7.244
 6336WAT     H221111   7.699   4.034   7.222
 6337WAT      O21112   8.048   4.163   7.473
 6337WAT     H121113   8.018   4.177   7.384
 6337WAT     H221114   8.126   4.107   7.464
 6338WAT      O21115   8.583   4.642   7.273
 6338WAT     H121116   8.584   4.549   7.251
 6338WAT     H221117   8.512   4.651   7.337
 6339WAT      O21118   9.096   4.061   5.900
 6339WAT     H121119   9.088   4.104   5.815
 6339WAT     H221120   9.168   4.107   5.943
 6340WAT      O21121   9.204   4.306   7.208
 6340WAT     H121122   9.131   4.366   7.188
 6340WAT     H221123   9.257   4.306   7.128
 6341WAT      O21124   9.199   4.746   6.173
 6341WAT     H121125   9.135   4.681   6.200
 6341WAT     H221126   9.160   4.787   6.095
 6342WAT      O21127   8.757   4.479   6.557
 6342WAT     H121128   8.792   4.419   6.491
 6342WAT     H221129   8.668   4.446   6.575
 6343WAT      O21130   8.365   4.555   6.298
 6343WAT     H121131   8.434   4.610   6.336
 6343WAT     H221132   8.287   4.609   6.302
 6344WAT      O21133   7.579   4.117   5.847
 6344WAT     H121134   7.666   4.145   5.876
 6344WAT     H221135   7.530   4.198   5.836
 6345WAT      O21136   8.296   4.255   6.259
 6345WAT     H121137   8.341   4.336   6.282
 6345WAT     H221138   8.261   4.224   6.343
 6346WAT      O21139   8.526   4.806   6.982
 6346WAT     H121140   8.591   4.827   7.050
 6346WAT     H221141   8.562   4.730   6.937
 6347WAT      O21142   7.886   3.290   6.307
 6347WAT     H121143   7.873   3.289   6.402
 6347WAT     H221144   7.804   3.324   6.272
 6348WAT      O21145   8.653   4.607   6.854
 6348WAT     H121146   8.718   4.537   6.865
 6348WAT     H221147   8.706   4.685   6.836
 6349WAT      O21148   9.038   4.635   5.827
 6349WAT     H121149   9.015   4.564   5.886
 6349WAT     H221150   8.999   4.610   5.743
 6350WAT      O21151   8.831   4.687   7.174
 6350WAT     H121152   8.864   4.745   7.242
 6350WAT     H221153   8.739   4.674   7.197
 6351WAT      O21154   7.616   5.038   5.904
 6351WAT     H121155   7.652   5.098   5.839
 6351WAT     H221156   7.602   5.092   5.981
 6352WAT      O21157   7.586   3.466   7.253
 6352WAT     H121158   7.514   3.486   7.313
 6352WAT     H221159   7.628   3.388   7.290
 6353WAT      O21160   8.996   4.427   5.993
 6353WAT     H121161   8.967   4.473   6.071
 6353WAT     H221162   9.076   4.381   6.019
 6354WAT      O21163   7.615   4.864   7.351
 6354WAT     H121164   7.625   4.770   7.337
 6354WAT     H221165   7.549   4.891   7.287
 6355WAT      O21166   8.218   4.776   5.986
 6355WAT     H121167   8.217   4.849   5.924
 6355WAT     H221168   8.126   4.752   5.995
 6356WAT      O21169   7.778   4.298   6.060
 6356WAT     H121170   7.717   4.372   6.061
 6356WAT     H221171   7.825   4.307   5.978
 6357WAT      O21172   8.735   3.715   7.028
 6357WAT     H121173   8.772   3.633   7.061
 6357WAT     H221174   8.649   3.721   7.069
 6358WAT      O21175   9.072   3.610   6.109
 6358WAT     H121176   9.009   3.621   6.037
 6358WAT     H221177   9.022   3.632   6.188
 6359WAT      O21178   8.516   4.782   5.852
 6359WAT     H121179   8.527   4.762   5.759
 6359WAT     H221180   8.426   4.757   5.872
 6360WAT      O21181   8.269   3.838   6.250
 6360WAT     H121182   8.198   3.885   6.294
 6360WAT     H221183   8.297   3.773   6.314
 6361WAT      O21184   8.431   3.980   7.050
 6361WAT     H121185   8.481   4.028   7.117
 6361WAT     H221186   8.445   3.888   7.071
 6362WAT      O21187   8.672   3.511   6.394
 6362WAT     H121188   8.660   3.513   6.299
 6362WAT     H221189   8.767   3.516   6.406
 6363WAT      O21190   8.381   5.034   6.321
 6363WAT     H121191   8.406   5.031   6.229
 6363WAT     H221192   8.286   5.022   6.321
 6364WAT      O21193   8.089   3.669   5.988
 6364WAT     H121194   8.174   3.713   5.981
 6364WAT     H221195   8.052   3.700   6.070
 6365WAT      O21196   9.152   3.602   7.134
 6365WAT     H121197   9.102   3.676   7.168
 6365WAT     H221198   9.233   3.641   7.103
 6366WAT      O21199   8.981   4.126   6.479
 6366WAT     H121200   8.887   4.128   6.496
 6366WAT     H221201   9.013   4.048   6.524
 6367WAT      O21202   7.979   4.294   5.835
 6367WAT     H121203   8.056   4.283   5.891
 6367WAT     H221204   7.987   4.225   5.770
 6368WAT      O21205   7.848   4.038   5.903
 6368WAT     H121206   7.856   3.943   5.915
 6368WAT     H221207   7.938   4.071   5.914
 6369WAT      O21208   9.181   4.843   6.647
 6369WAT     H121209   9.194   4.926   6.694
 6369WAT     H221210   9.268   4.822   6.612
 6370WAT      O21211   7.929   5.053   6.614
 6370WAT     H121212   8.002   4.998   6.641
 6370WAT     H221213   7.967   5.139   6.600
 6371WAT      O21214   7.617   4.659   6.201
 6371WAT     H121215   7.524   4.684   6.200
 6371WAT     H221216   7.664   4.742   6.189
 6372WAT      O21217   8.240   4.970   5.796
 6372WAT     H121218   8.319   4.999   5.751
 6372WAT     H221219   8.188   4.927   5.728
 6373WAT      O21220   8.856   4.955   7.388
 6373WAT     H121221   8.951   4.946   7.383
 6373WAT     H221222   8.841   5.021   7.456
 6374WAT      O21223   9.145   4.893   5.938
 6374WAT     H121224   9.116   4.851   5.857
 6374WAT     H221225   9.125   4.986   5.926
 6375WAT      O21226   7.601   4.220   7.427
 6375WAT     H121227   7.652   4.162   7.484
 6375WAT     H221228   7.527   4.248   7.481
 6376WAT      O21229   8.291   4.492   5.782
 6376WAT     H121230   8.281   4.431   5.855
 6376WAT     H221231   8.275   4.440   5.704
 6377WAT      O21232   8.306   4.361   7.380
 6377WAT     H121233   8.230   4.417   7.372
 6377WAT     H221234   8.325   4.331   7.291
 6378WAT      O21235   8.615   4.398   5.843
 6378WAT     H121236   8.560   4.443   5.907
 6378WAT     H221237   8.678   4.348   5.895
 6379WAT      O21238   9.021   4.534   7.436
 6379WAT     H121239   9.095   4.567   7.386
 6379WAT     H221240   8.944   4.551   7.381
 6380WAT      O21241   8.182   4.294   6.032
 6380WAT     H121242   8.224   4.278   6.117
 6380WAT     H221243   8.195   4.213   5.983
 6381WAT      O21244   7.998   3.892   7.313
 6381WAT     H121245   7.945   3.843   7.250
 6381WAT     H221246   8.065   3.935   7.260
 6382WAT      O21247   8.433   4.196   5.757
 6382WAT     H121248   8.485   4.125   5.721
 6382WAT     H221249   8.498   4.260   5.787
 6383WAT      O21250   8.888   4.339   7.290
 6383WAT     H121251   8.930   4.354   7.375
 6383WAT     H221252   8.795   4.351   7.306
 6384WAT      O21253   8.935   4.073   7.490
 6384WAT     H121254   8.994   3.997   7.481
 6384WAT     H221255   8.953   4.126   7.412
 6385WAT      O21256   8.047   3.589   7.321
 6385WAT     H121257   8.038   3.527   7.249
 6385WAT     H221258   7.989   3.661   7.298
 6386WAT      O21259   8.324   3.444   7.024
 6386WAT     H121260   8.279   3.447   6.940
 6386WAT     H221261   8.260   3.405   7.084
 6387WAT      O21262   8.364   4.334   7.087
 6387WAT     H121263   8.406   4.418   7.069
 6387WAT     H221264   8.272   4.348   7.064
 6388WAT      O21265   8.598   4.107   7.225
 6388WAT     H121266   8.610   4.048   7.299
 6388WAT     H221267   8.684   4.111   7.183
 6389WAT      O21268   8.832   4.163   7.083
 6389WAT     H121269   8.779   4.215   7.022
 6389WAT     H221270   8.866   4.226   7.146
 6390WAT      O21271   8.072   3.901   5.727
 6390WAT     H121272   8.052   3.815   5.763
 6390WAT     H221273   8.055   3.893   5.633
 6391WAT      O21274   8.149   4.965   7.198
 6391WAT     H121275   8.096   5.037   7.166
 6391WAT     H221276   8.175   4.917   7.119
 6392WAT      O21277   8.275   3.761   7.351
 6392WAT     H121278   8.334   3.731   7.419
 6392WAT     H221279   8.193   3.714   7.366
 6393WAT      O21280   8.757   3.723   7.374
 6393WAT     H121281   8.688   3.657   7.368
 6393WAT     H221282   8.829   3.678   7.419
 6394WAT      O21283   8.820   3.383   5.980
 6394WAT     H121284   8.848   3.298   6.016
 6394WAT     H221285   8.742   3.406   6.031
 6395WAT      O21286   7.952   3.611   5.726
 6395WAT     H121287   7.982   3.612   5.635
 6395WAT     H221288   8.025   3.576   5.776
 6396WAT      O21289   8.435   5.088   7.224
 6396WAT     H121290   8.428   5.178   7.255
 6396WAT     H221291   8.345   5.056   7.221
 6397WAT      O21292   8.273   3.506   5.824
 6397WAT     H121293   8.239   3.438   5.766
 6397WAT     H221294   8.294   3.460   5.906
 6398WAT      O21295   8.490   5.005   5.986
 6398WAT     H121296   8.579   5.038   5.988
 6398WAT     H221297   8.493   4.932   5.924
 6399WAT      O21298   7.854   4.542   5.809
 6399WAT     H121299   7.898   4.596   5.875
 6399WAT     H221300   7.902   4.459   5.810
 6400WAT      O21301   7.575   4.821   6.554
 6400WAT     H121302   7.608   4.734   6.531
 6400WAT     H221303   7.618   4.841   6.637
 6401WAT      O21304   8.035   4.654   6.320
 6401WAT     H121305   8.005   4.642   6.410
 6401WAT     H221306   8.024   4.568   6.280
 6402WAT      O21307   7.624   4.907   6.828
 6402WAT     H121308   7.581   4.925   6.911
 6402WAT     H221309   7.681   4.983   6.814
 6403WAT      O21310   9.188   4.858   7.257
 6403WAT     H121311   9.128   4.864   7.183
 6403WAT     H221312   9.201   4.764   7.270
 6404WAT      O21313   9.312   4.632   5.791
 6404WAT     H121314   9.229   4.639   5.838
 6404WAT     H221315   9.330   4.721   5.760
 6405WAT      O21316   9.257   4.306   6.041
 6405WAT     H121317   9.334   4.363   6.052
 6405WAT     H221318   9.259   4.250   6.118
 6406WAT      O21319   7.607   4.159   6.464
 6406WAT     H121320   7.542   4.132   6.400
 6406WAT     H221321   7.691   4.148   6.419
 6407WAT      O21322   9.358   4.392   6.525
 6407WAT     H121323   9.395   4.313   6.485
 6407WAT     H221324   9.422   4.461   6.508
 6408WAT      O21325   9.056   4.530   7.067
 6408WAT     H121326   8.975   4.573   7.093
 6408WAT     H221327   9.097   4.591   7.005
 6409WAT      O21328   9.263   4.336   5.757
 6409WAT     H121329   9.290   4.426   5.744
 6409WAT     H221330   9.244   4.329   5.850
 6410WAT      O21331   8.902   3.638   5.886
 6410WAT     H121332   8.944   3.619   5.802
 6410WAT     H221333   8.872   3.553   5.917
 6411WAT      O21334   9.252   4.129   6.256
 6411WAT     H121335   9.215   4.053   6.213
 6411WAT     H221336   9.179   4.168   6.305
 6412WAT      O21337   7.711   4.197   6.918
 6412WAT     H121338   7.748   4.188   7.006
 6412WAT     H221339   7.654   4.121   6.908
 6413WAT      O21340   9.191   4.044   7.219
 6413WAT     H121341   9.168   4.021   7.129
 6413WAT     H221342   9.217   4.136   7.215
 6414WAT      O21343   7.666   3.888   7.309
 6414WAT     H121344   7.577   3.885   7.343
 6414WAT     H221345   7.720   3.908   7.385
 6415WAT      O21346   7.529   3.880   6.058
 6415WAT     H121347   7.438   3.906   6.041
 6415WAT     H221348   7.577   3.907   5.980
 6416WAT      O21349   9.180   3.952   6.586
 6416WAT     H121350   9.232   3.903   6.523
 6416WAT     H221351   9.238   3.965   6.661
 6417WAT      O21352   9.198   3.960   6.938
 6417WAT     H121353   9.103   3.957   6.950
 6417WAT     H221354   9.216   4.051   6.915
 6418WAT      O21355   7.783   3.785   5.849
 6418WAT     H121356   7.854   3.743   5.801
 6418WAT     H221357   7.712   3.792   5.786
 6419WAT      O21358   7.748   3.391   5.753
 6419WAT     H121359   7.820   3.445   5.785
 6419WAT     H221360   7.775   3.363   5.666
 6420WAT      O21361   9.129   3.878   6.180
 6420WAT     H121362   9.178   3.854   6.258
 6420WAT     H221363   9.109   3.794   6.138
 6421WAT      O21364   7.717   3.316   6.743
 6421WAT     H121365   7.782   3.261   6.699
 6421WAT     H221366   7.759   3.341   6.826
 6422WAT      O21367   9.272   3.741   6.433
 6422WAT     H121368   9.261   3.726   6.527
 6422WAT     H221369   9.348   3.688   6.409
 6423WAT      O21370   9.106   3.335   7.079
 6423WAT     H121371   9.170   3.397   7.116
 6423WAT     H221372   9.121   3.339   6.985
 6424WAT      O21373   9.361   3.524   5.757
 6424WAT     H121374   9.453   3.511   5.737
 6424WAT     H221375   9.358   3.532   5.853
 6425WAT      O21376   9.368   3.601   6.020
 6425WAT     H121377   9.288   3.595   6.073
 6425WAT     H221378   9.388   3.695   6.019
 6426WAT      O21379   9.062   5.005   6.419
 6426WAT     H121380   9.122   4.973   6.352
 6426WAT     H221381   9.088   4.958   6.499
 6427WAT      O21382   7.692   3.331   7.018
 6427WAT     H121383   7.657   3.377   7.094
 6427WAT     H221384   7.659   3.242   7.026
 6428WAT      O21385   8.223   4.804   6.994
 6428WAT     H121386   8.199   4.831   6.906
 6428WAT     H221387   8.317   4.821   7.000
 6429WAT      O21388   8.443   3.450   7.370
 6429WAT     H121389   8.437   3.510   7.445
 6429WAT     H221390   8.537   3.440   7.355
 6430WAT      O21391   8.707   3.416   7.334
 6430WAT     H121392   8.768   3.448   7.268
 6430WAT     H221393   8.762   3.368   7.396
 6431WAT      O21394   9.349   5.006   7.074
 6431WAT     H121395   9.299   5.046   7.003
 6431WAT     H221396   9.288   4.944   7.114
 6432WAT      O21397   7.759   3.284   7.345
 6432WAT     H121398   7.814   3.266   7.269
 6432WAT     H221399   7.766   3.205   7.399
 6433WAT      O21400   7.837   4.943   7.146
 6433WAT     H121401   7.777   4.930   7.220
 6433WAT     H221402   7.836   4.860   7.100
 6434WAT      O21403   8.781   3.272   6.967
 6434WAT     H121404   8.694   3.306   6.946
 6434WAT     H221405   8.770   3.225   7.049
 6435WAT      O21406   8.872   3.493   7.105
 6435WAT     H121407   8.839   3.412   7.067
 6435WAT     H221408   8.967   3.489   7.093
 6436WAT      O21409   9.117   5.070   6.802
 6436WAT     H121410   9.071   5.145   6.765
 6436WAT     H221411   9.054   4.998   6.796
 6437WAT      O21412   7.800   4.680   7.041
 6437WAT     H121413   7.727   4.618   7.035
 6437WAT     H221414   7.806   4.719   6.954
 6438WAT      O21415   8.160   4.901   6.720
 6438WAT     H121416   8.212   4.840   6.667
 6438WAT     H221417   8.225   4.951   6.769
 6439WAT      O21418   8.434   4.990   6.803
 6439WAT     H121419   8.463   4.965   6.715
 6439WAT     H221420   8.485   4.935   6.862
 6440WAT      O21421   8.556   3.364   6.860
 6440WAT     H121422   8.478   3.412   6.888
 6440WAT     H221423   8.527   3.274   6.850
 6441WAT      O21424   9.011   3.434   6.665
 6441WAT     H121425   9.055   3.429   6.580
 6441WAT     H221426   8.984   3.526   6.672
 6442WAT      O21427   9.198   3.398   6.466
 6442WAT     H121428   9.191   3.303   6.451
 6442WAT     H221429   9.275   3.408   6.521
 6443WAT      O21430   7.628   5.011   6.362
 6443WAT     H121431   7.611   4.948   6.432
 6443WAT     H221432   7.541   5.032   6.327
 6444WAT      O21433   7.690   3.395   6.113
 6444WAT     H121434   7.766   3.406   6.055
 6444WAT     H221435   7.644   3.478   6.108
 6445WAT      O21436   8.344   3.606   6.412
 6445WAT     H121437   8.263   3.569   6.378
 6445WAT     H221438   8.395   3.530   6.442
 6446WAT      O21439   8.795   3.272   6.535
 6446WAT     H121440   8.855   3.330   6.583
 6446WAT     H221441   8.721   3.329   6.513
 6447WAT      O21442   9.109   3.313   6.063
 6447WAT     H121443   9.129   3.403   6.090
 6447WAT     H221444   9.030   3.290   6.112
 6448WAT      O21445   7.789   4.881   6.107
 6448WAT     H121446   7.736   4.919   6.036
 6448WAT     H221447   7.781   4.943   6.179
 6449WAT      O21448   7.928   3.447   5.967
 6449WAT     H121449   7.980   3.369   5.954
 6449WAT     H221450   7.991   3.515   5.990
 6450WAT      O21451   8.147   3.421   6.272
 6450WAT     H121452   8.084   3.351   6.289
 6450WAT     H221453   8.093   3.497   6.250
 6451WAT      O21454   9.264   5.037   6.239
 6451WAT     H121455   9.282   4.968   6.175
 6451WAT     H221456   9.195   5.089   6.200
 6452WAT      O21457   8.049   5.076   5.994
 6452WAT     H121458   8.122   5.047   5.940
 6452WAT     H221459   8.075   5.052   6.083
 6453WAT      O21460   7.965   4.687   5.995
 6453WAT     H121461   7.902   4.734   6.050
 6453WAT     H221462   7.976   4.603   6.038
 6454WAT      O21463   8.710   4.092   4.610
 6454WAT     H121464   8.702   4.001   4.583
 6454WAT     H221465   8.669   4.142   4.539
 6455WAT      O21466   8.523   4.270   4.798
 6455WAT     H121467   8.446   4.222   4.827
 6455WAT     H221468   8.589   4.202   4.780
 6456WAT      O21469   7.925   4.301   4.886
 6456WAT     H121470   7.842   4.276   4.926
 6456WAT     H221471   7.986   4.308   4.959
 6457WAT      O21472   8.925   4.711   4.676
 6457WAT     H121473   8.879   4.634   4.709
 6457WAT     H221474   9.007   4.713   4.726
 6458WAT      O21475   7.923   4.705   4.905
 6458WAT     H121476   7.953   4.616   4.887
 6458WAT     H221477   7.998   4.760   4.882
 6459WAT      O21478   7.766   3.797   4.264
 6459WAT     H121479   7.677   3.832   4.254
 6459WAT     H221480   7.794   3.777   4.175
 6460WAT      O21481   7.562   4.057   4.852
 6460WAT     H121482   7.619   3.981   4.852
 6460WAT     H221483   7.562   4.087   4.762
 6461WAT      O21484   8.548   4.939   4.638
 6461WAT     H121485   8.486   4.985   4.581
 6461WAT     H221486   8.634   4.955   4.598
 6462WAT      O21487   8.468   4.538   4.799
 6462WAT     H121488   8.461   4.444   4.782
 6462WAT     H221489   8.544   4.547   4.856
 6463WAT      O21490   7.687   3.598   5.031
 6463WAT     H121491   7.669   3.508   5.059
 6463WAT     H221492   7.646   3.653   5.099
 6464WAT      O21493   8.571   3.818   4.821
 6464WAT     H121494   8.608   3.731   4.810
 6464WAT     H221495   8.561   3.852   4.732
 6465WAT      O21496   7.984   3.656   4.367
 6465WAT     H121497   7.994   3.746   4.398
 6465WAT     H221498   7.893   3.651   4.338
 6466WAT      O21499   8.949   3.568   4.515
 6466WAT     H121500   9.031   3.519   4.519
 6466WAT     H221501   8.952   3.627   4.590
 6467WAT      O21502   7.748   3.848   4.892
 6467WAT     H121503   7.817   3.874   4.954
 6467WAT     H221504   7.717   3.764   4.925
 6468WAT      O21505   8.168   3.953   4.801
 6468WAT     H121506   8.218   4.002   4.865
 6468WAT     H221507   8.221   3.875   4.783
 6469WAT      O21508   9.378   3.770   5.171
 6469WAT     H121509   9.307   3.808   5.119
 6469WAT     H221510   9.404   3.839   5.231
 6470WAT      O21511   7.996   3.417   5.227
 6470WAT     H121512   7.996   3.468   5.147
 6470WAT     H221513   7.913   3.369   5.225
 6471WAT      O21514   8.635   4.428   4.377
 6471WAT     H121515   8.573   4.474   4.321
 6471WAT     H221516   8.686   4.497   4.419
 6472WAT      O21517   8.121   4.380   5.045
 6472WAT     H121518   8.088   4.443   5.109
 6472WAT     H221519   8.139   4.433   4.967
 6473WAT      O21520   8.972   3.762   4.792
 6473WAT     H121521   8.902   3.791   4.850
 6473WAT     H221522   9.009   3.843   4.756
 6474WAT      O21523   7.964   3.588   5.028
 6474WAT     H121524   7.998   3.672   4.999
 6474WAT     H221525   7.870   3.602   5.040
 6475WAT      O21526   8.042   4.577   5.227
 6475WAT     H121527   8.104   4.645   5.198
 6475WAT     H221528   7.956   4.618   5.217
 6476WAT      O21529   7.572   4.496   4.115
 6476WAT     H121530   7.534   4.545   4.041
 6476WAT     H221531   7.597   4.564   4.178
 6477WAT      O21532   9.134   4.724   5.018
 6477WAT     H121533   9.066   4.791   5.017
 6477WAT     H221534   9.188   4.743   4.942
 6478WAT      O21535   9.279   3.706   4.831
 6478WAT     H121536   9.185   3.710   4.844
 6478WAT     H221537   9.312   3.788   4.869
 6479WAT      O21538   8.332   3.336   4.660
 6479WAT     H121539   8.363   3.281   4.589
 6479WAT     H221540   8.239   3.350   4.642
 6480WAT      O21541   8.888   4.908   4.890
 6480WAT     H121542   8.889   4.868   4.803
 6480WAT     H221543   8.832   4.986   4.879
 6481WAT      O21544   9.017   4.580   4.398
 6481WAT     H121545   9.006   4.486   4.411
 6481WAT     H221546   9.017   4.616   4.487
 6482WAT      O21547   8.827   4.398   5.022
 6482WAT     H121548   8.869   4.377   4.939
 6482WAT     H221549   8.900   4.424   5.079
 6483WAT      O21550   8.571   4.143   4.334
 6483WAT     H121551   8.479   4.136   4.357
 6483WAT     H221552   8.587   4.237   4.323
 6484WAT      O21553   8.570   3.770   4.034
 6484WAT     H121554   8.476   3.786   4.042
 6484WAT     H221555   8.602   3.842   3.979
 6485WAT      O21556   9.222   4.238   5.032
 6485WAT     H121557   9.139   4.245   4.984
 6485WAT     H221558   9.282   4.297   4.985
 6486WAT      O21559   8.974   4.299   4.384
 6486WAT     H121560   8.912   4.265   4.320
 6486WAT     H221561   8.973   4.235   4.455
 6487WAT      O21562   8.919   3.917   5.126
 6487WAT     H121563   8.877   4.000   5.151
 6487WAT     H221564   8.845   3.858   5.107
 6488WAT      O21565   8.132   4.196   4.612
 6488WAT     H121566   8.091   4.124   4.563
 6488WAT     H221567   8.140   4.161   4.701
 6489WAT      O21568   8.179   4.564   4.829
 6489WAT     H121569   8.149   4.504   4.761
 6489WAT     H221570   8.274   4.568   4.818
 6490WAT      O21571   8.003   3.873   4.990
 6490WAT     H121572   8.058   3.884   4.913
 6490WAT     H221573   8.055   3.910   5.062
 6491WAT      O21574   8.988   4.922   5.195
 6491WAT     H121575   8.940   5.002   5.176
 6491WAT     H221576   8.919   4.856   5.210
 6492WAT      O21577   8.088   4.538   5.494
 6492WAT     H121578   7.998   4.560   5.518
 6492WAT     H221579   8.090   4.550   5.399
 6493WAT      O21580   8.792   4.223   4.085
 6493WAT     H121581   8.836   4.139   4.071
 6493WAT     H221582   8.863   4.286   4.094
 6494WAT      O21583   7.971   4.225   5.351
 6494WAT     H121584   7.957   4.312   5.388
 6494WAT     H221585   7.882   4.191   5.337
 6495WAT      O21586   8.603   4.717   4.482
 6495WAT     H121587   8.647   4.791   4.441
 6495WAT     H221588   8.597   4.741   4.574
 6496WAT      O21589   8.150   4.819   5.572
 6496WAT     H121590   8.148   4.860   5.485
 6496WAT     H221591   8.134   4.727   5.556
 6497WAT      O21592   9.150   3.348   3.917
 6497WAT     H121593   9.119   3.358   4.007
 6497WAT     H221594   9.226   3.406   3.912
 6498WAT      O21595   7.802   4.085   4.362
 6498WAT     H121596   7.790   4.158   4.301
 6498WAT     H221597   7.771   4.008   4.315
 6499WAT      O21598   9.346   4.898   5.702
 6499WAT     H121599   9.393   4.946   5.770
 6499WAT     H221600   9.408   4.891   5.629
 6500WAT      O21601   7.566   4.402   4.943
 6500WAT     H121602   7.574   4.416   4.849
 6500WAT     H221603   7.627   4.331   4.962
 6501WAT      O21604   7.690   4.572   4.584
 6501WAT     H121605   7.650   4.586   4.499
 6501WAT     H221606   7.779   4.544   4.564
 6502WAT      O21607   9.286   4.617   5.418
 6502WAT     H121608   9.298   4.593   5.326
 6502WAT     H221609   9.290   4.534   5.465
 6503WAT      O21610   8.672   4.987   5.275
 6503WAT     H121611   8.723   4.978   5.355
 6503WAT     H221612   8.588   5.022   5.304
 6504WAT      O21613   8.870   5.016   4.218
 6504WAT     H121614   8.854   4.987   4.307
 6504WAT     H221615   8.853   4.938   4.164
 6505WAT      O21616   8.117   4.994   4.395
 6505WAT     H121617   8.100   4.902   4.374
 6505WAT     H221618   8.032   5.029   4.419
 6506WAT      O21619   8.840   4.767   4.074
 6506WAT     H121620   8.770   4.766   4.008
 6506WAT     H221621   8.914   4.724   4.031
 6507WAT      O21622   8.796   4.929   4.481
 6507WAT     H121623   8.842   4.851   4.512
 6507WAT     H221624   8.830   5.000   4.535
 6508WAT      O21625   9.271   3.822   5.514
 6508WAT     H121626   9.210   3.873   5.461
 6508WAT     H221627   9.239   3.732   5.509
 6509WAT      O21628   7.571   4.506   5.197
 6509WAT     H121629   7.588   4.459   5.115
 6509WAT     H221630   7.618   4.456   5.263
 6510WAT      O21631   8.049   3.419   4.701
 6510WAT     H121632   8.004   3.497   4.667
 6510WAT     H221633   8.104   3.452   4.771
 6511WAT      O21634   8.477   3.706   5.261
 6511WAT     H121635   8.431   3.727   5.342
 6511WAT     H221636   8.437   3.625   5.231
 6512WAT      O21637   8.977   3.828   5.374
 6512WAT     H121638   8.892   3.798   5.406
 6512WAT     H221639   8.961   3.853   5.283
 6513WAT      O21640   8.687   3.978   5.584
 6513WAT     H121641   8.719   3.895   5.550
 6513WAT     H221642   8.766   4.030   5.599
 6514WAT      O21643   8.360   3.381   4.189
 6514WAT     H121644   8.298   3.381   4.261
 6514WAT     H221645   8.351   3.295   4.149
 6515WAT      O21646   8.252   3.474   4.886
 6515WAT     H121647   8.282   3.564   4.878
 6515WAT     H221648   8.307   3.425   4.825
 6516WAT      O21649   8.028   3.932   4.473
 6516WAT     H121650   8.005   3.910   4.564
 6516WAT     H221651   7.950   3.975   4.439
 6517WAT      O21652   8.751   3.932   4.333
 6517WAT     H121653   8.691   4.005   4.315
 6517WAT     H221654   8.805   3.926   4.255
 6518WAT      O21655   8.272   4.022   5.540
 6518WAT     H121656   8.262   3.928   5.525
 6518WAT     H221657   8.356   4.044   5.500
 6519WAT      O21658   8.611   3.796   4.536
 6519WAT     H121659   8.651   3.828   4.455
 6519WAT     H221660   8.647   3.708   4.548
 6520WAT      O21661   7.785   3.663   5.355
 6520WAT     H121662   7.745   3.747   5.376
 6520WAT     H221663   7.716   3.599   5.374
 6521WAT      O21664   8.442   3.671   5.662
 6521WAT     H121665   8.373   3.652   5.726
 6521WAT     H221666   8.517   3.699   5.716
 6522WAT      O21667   7.515   3.455   4.759
 6522WAT     H121668   7.486   3.512   4.830
 6522WAT     H221669   7.589   3.407   4.795
 6523WAT      O21670   8.670   4.055   4.946
 6523WAT     H121671   8.597   4.106   4.981
 6523WAT     H221672   8.630   3.973   4.916
 6524WAT      O21673   8.314   3.723   4.786
 6524WAT     H121674   8.314   3.678   4.701
 6524WAT     H221675   8.403   3.755   4.797
 6525WAT      O21676   7.899   3.711   4.682
 6525WAT     H121677   7.865   3.759   4.758
 6525WAT     H221678   7.822   3.665   4.646
 6526WAT      O21679   8.320   3.823   4.085
 6526WAT     H121680   8.332   3.819   4.180
 6526WAT     H221681   8.281   3.909   4.070
 6527WAT      O21682   8.716   3.600   4.887
 6527WAT     H121683   8.718   3.645   4.971
 6527WAT     H221684   8.691   3.510   4.908
 6528WAT      O21685   8.221   4.054   4.025
 6528WAT     H121686   8.164   4.009   3.963
 6528WAT     H221687   8.292   4.090   3.972
 6529WAT      O21688   9.059   3.342   5.471
 6529WAT     H121689   9.091   3.269   5.524
 6529WAT     H221690   9.062   3.310   5.381
 6530WAT      O21691   7.729   4.444   5.413
 6530WAT     H121692   7.690   4.380   5.473
 6530WAT     H221693   7.760   4.514   5.470
 6531WAT      O21694   8.344   4.129   4.961
 6531WAT     H121695   8.380   4.081   5.036
 6531WAT     H221696   8.325   4.216   4.995
 6532WAT      O21697   7.630   3.603   4.574
 6532WAT     H121698   7.602   3.567   4.658
 6532WAT     H221699   7.624   3.530   4.513
 6533WAT      O21700   8.123   4.033   5.193
 6533WAT     H121701   8.092   4.121   5.215
 6533WAT     H221702   8.218   4.039   5.196
 6534WAT      O21703   7.976   4.453   4.253
 6534WAT     H121704   7.898   4.399   4.237
 6534WAT     H221705   8.048   4.401   4.219
 6535WAT      O21706   9.051   4.353   4.832
 6535WAT     H121707   9.123   4.402   4.793
 6535WAT     H221708   9.031   4.285   4.767
 6536WAT      O21709   8.597   3.492   4.246
 6536WAT     H121710   8.516   3.442   4.239
 6536WAT     H221711   8.578   3.576   4.204
 6537WAT      O21712   8.590   4.360   5.420
 6537WAT     H121713   8.583   4.268   5.395
 6537WAT     H221714   8.527   4.370   5.492
 6538WAT      O21715   8.869   3.930   4.076
 6538WAT     H121716   8.958   3.961   4.058
 6538WAT     H221717   8.866   3.842   4.037
 6539WAT      O21718   7.980   4.420   4.616
 6539WAT     H121719   8.032   4.340   4.611
 6539WAT     H221720   7.935   4.414   4.700
 6540WAT      O21721   8.469   4.547   4.144
 6540WAT     H121722   8.503   4.621   4.094
 6540WAT     H221723   8.386   4.578   4.180
 6541WAT      O21724   7.728   4.117   5.308
 6541WAT     H121725   7.692   4.183   5.366
 6541WAT     H221726   7.699   4.034   5.345
 6542WAT      O21727   8.048   4.163   5.596
 6542WAT     H121728   8.018   4.177   5.506
 6542WAT     H221729   8.126   4.107   5.587
 6543WAT      O21730   8.583   4.642   5.396
 6543WAT     H121731   8.584   4.549   5.374
 6543WAT     H221732   8.512   4.651   5.459
 6544WAT      O21733   9.096   4.061   4.022
 6544WAT     H121734   9.088   4.104   3.937
 6544WAT     H221735   9.168   4.107   4.066
 6545WAT      O21736   9.204   4.306   5.330
 6545WAT     H121737   9.131   4.366   5.310
 6545WAT     H221738   9.257   4.306   5.250
 6546WAT      O21739   9.199   4.746   4.295
 6546WAT     H121740   9.135   4.681   4.323
 6546WAT     H221741   9.160   4.787   4.218
 6547WAT      O21742   8.757   4.479   4.680
 6547WAT     H121743   8.792   4.419   4.614
 6547WAT     H221744   8.668   4.446   4.697
 6548WAT      O21745   8.365   4.555   4.421
 6548WAT     H121746   8.434   4.610   4.459
 6548WAT     H221747   8.287   4.609   4.424
 6549WAT      O21748   7.579   4.117   3.970
 6549WAT     H121749   7.666   4.145   3.998
 6549WAT     H221750   7.530   4.198   3.958
 6550WAT      O21751   8.296   4.255   4.382
 6550WAT     H121752   8.341   4.336   4.405
 6550WAT     H221753   8.261   4.224   4.465
 6551WAT      O21754   8.526   4.806   5.105
 6551WAT     H121755   8.591   4.827   5.173
 6551WAT     H221756   8.562   4.730   5.060
 6552WAT      O21757   7.886   3.290   4.429
 6552WAT     H121758   7.873   3.289   4.524
 6552WAT     H221759   7.804   3.324   4.394
 6553WAT      O21760   8.653   4.607   4.977
 6553WAT     H121761   8.718   4.537   4.988
 6553WAT     H221762   8.706   4.685   4.959
 6554WAT      O21763   9.038   4.635   3.949
 6554WAT     H121764   9.015   4.564   4.008
 6554WAT     H221765   8.999   4.610   3.865
 6555WAT      O21766   8.831   4.687   5.297
 6555WAT     H121767   8.864   4.745   5.365
 6555WAT     H221768   8.739   4.674   5.320
 6556WAT      O21769   7.616   5.038   4.027
 6556WAT     H121770   7.652   5.098   3.961
 6556WAT     H221771   7.602   5.092   4.104
 6557WAT      O21772   7.586   3.466   5.375
 6557WAT     H121773   7.514   3.486   5.436
 6557WAT     H221774   7.628   3.388   5.412
 6558WAT      O21775   8.996   4.427   4.115
 6558WAT     H121776   8.967   4.473   4.194
 6558WAT     H221777   9.076   4.381   4.142
 6559WAT      O21778   7.615   4.864   5.474
 6559WAT     H121779   7.625   4.770   5.460
 6559WAT     H221780   7.549   4.891   5.409
 6560WAT      O21781   8.414   4.692   5.614
 6560WAT     H121782   8.382   4.620   5.668
 6560WAT     H221783   8.346   4.759   5.621
 6561WAT      O21784   8.218   4.776   4.108
 6561WAT     H121785   8.217   4.849   4.047
 6561WAT     H221786   8.126   4.752   4.118
 6562WAT      O21787   7.778   4.298   4.183
 6562WAT     H121788   7.717   4.372   4.184
 6562WAT     H221789   7.825   4.307   4.100
 6563WAT      O21790   8.735   3.715   5.150
 6563WAT     H121791   8.772   3.633   5.183
 6563WAT     H221792   8.649   3.721   5.192
 6564WAT      O21793   9.072   3.610   4.231
 6564WAT     H121794   9.009   3.621   4.160
 6564WAT     H221795   9.022   3.632   4.310
 6565WAT      O21796   8.516   4.782   3.975
 6565WAT     H121797   8.527   4.762   3.882
 6565WAT     H221798   8.426   4.757   3.995
 6566WAT      O21799   8.269   3.838   4.373
 6566WAT     H121800   8.198   3.885   4.417
 6566WAT     H221801   8.297   3.773   4.436
 6567WAT      O21802   8.431   3.980   5.173
 6567WAT     H121803   8.481   4.028   5.239
 6567WAT     H221804   8.445   3.888   5.193
 6568WAT      O21805   8.672   3.511   4.517
 6568WAT     H121806   8.660   3.513   4.422
 6568WAT     H221807   8.767   3.516   4.529
 6569WAT      O21808   8.381   5.034   4.444
 6569WAT     H121809   8.406   5.031   4.352
 6569WAT     H221810   8.286   5.022   4.443
 6570WAT      O21811   8.089   3.669   4.110
 6570WAT     H121812   8.174   3.713   4.104
 6570WAT     H221813   8.052   3.700   4.193
 6571WAT      O21814   9.152   3.602   5.257
 6571WAT     H121815   9.102   3.676   5.291
 6571WAT     H221816   9.233   3.641   5.225
 6572WAT      O21817   8.981   4.126   4.602
 6572WAT     H121818   8.887   4.128   4.619
 6572WAT     H221819   9.013   4.048   4.646
 6573WAT      O21820   7.979   4.294   3.958
 6573WAT     H121821   8.056   4.283   4.014
 6573WAT     H221822   7.987   4.225   3.892
 6574WAT      O21823   7.848   4.038   4.026
 6574WAT     H121824   7.856   3.943   4.037
 6574WAT     H221825   7.938   4.071   4.037
 6575WAT      O21826   9.181   4.843   4.769
 6575WAT     H121827   9.194   4.926   4.816
 6575WAT     H221828   9.268   4.822   4.734
 6576WAT      O21829   7.929   5.053   4.736
 6576WAT     H121830   8.002   4.998   4.763
 6576WAT     H221831   7.967   5.139   4.722
 6577WAT      O21832   7.617   4.659   4.324
 6577WAT     H121833   7.524   4.684   4.323
 6577WAT     H221834   7.664   4.742   4.312
 6578WAT      O21835   7.829   4.971   5.655
 6578WAT     H121836   7.909   5.003   5.696
 6578WAT     H221837   7.778   4.935   5.727
 6579WAT      O21838   8.240   4.970   3.919
 6579WAT     H121839   8.319   4.999   3.873
 6579WAT     H221840   8.188   4.927   3.851
 6580WAT      O21841   8.713   4.582   5.650
 6580WAT     H121842   8.652   4.584   5.576
 6580WAT     H221843   8.682   4.509   5.704
 6581WAT      O21844   8.856   4.955   5.511
 6581WAT     H121845   8.951   4.946   5.506
 6581WAT     H221846   8.841   5.021   5.578
 6582WAT      O21847   9.145   4.893   4.061
 6582WAT     H121848   9.116   4.851   3.979
 6582WAT     H221849   9.125   4.986   4.049
 6583WAT      O21850   7.601   4.220   5.550
 6583WAT     H121851   7.652   4.162   5.607
 6583WAT     H221852   7.527   4.248   5.603
 6584WAT      O21853   8.291   4.492   3.905
 6584WAT     H121854   8.281   4.431   3.978
 6584WAT     H221855   8.275   4.440   3.827
 6585WAT      O21856   8.306   4.361   5.503
 6585WAT     H121857   8.230   4.417   5.494
 6585WAT     H221858   8.325   4.331   5.414
 6586WAT      O21859   8.615   4.398   3.965
 6586WAT     H121860   8.560   4.443   4.030
 6586WAT     H221861   8.678   4.348   4.018
 6587WAT      O21862   9.021   4.534   5.559
 6587WAT     H121863   9.095   4.567   5.508
 6587WAT     H221864   8.944   4.551   5.503
 6588WAT      O21865   7.804   4.034   5.639
 6588WAT     H121866   7.808   4.004   5.730
 6588WAT     H221867   7.890   4.074   5.623
 6589WAT      O21868   8.182   4.294   4.155
 6589WAT     H121869   8.224   4.278   4.239
 6589WAT     H221870   8.195   4.213   4.106
 6590WAT      O21871   7.998   3.892   5.436
 6590WAT     H121872   7.945   3.843   5.373
 6590WAT     H221873   8.065   3.935   5.382
 6591WAT      O21874   8.433   4.196   3.880
 6591WAT     H121875   8.485   4.125   3.843
 6591WAT     H221876   8.498   4.260   3.910
 6592WAT      O21877   8.888   4.339   5.412
 6592WAT     H121878   8.930   4.354   5.497
 6592WAT     H221879   8.795   4.351   5.428
 6593WAT      O21880   8.935   4.073   5.613
 6593WAT     H121881   8.994   3.997   5.604
 6593WAT     H221882   8.953   4.126   5.535
 6594WAT      O21883   8.047   3.589   5.444
 6594WAT     H121884   8.038   3.527   5.371
 6594WAT     H221885   7.989   3.661   5.421
 6595WAT      O21886   8.324   3.444   5.147
 6595WAT     H121887   8.279   3.447   5.062
 6595WAT     H221888   8.260   3.405   5.207
 6596WAT      O21889   8.364   4.334   5.209
 6596WAT     H121890   8.406   4.418   5.192
 6596WAT     H221891   8.272   4.348   5.186
 6597WAT      O21892   8.598   4.107   5.348
 6597WAT     H121893   8.610   4.048   5.421
 6597WAT     H221894   8.684   4.111   5.306
 6598WAT      O21895   8.832   4.163   5.205
 6598WAT     H121896   8.779   4.215   5.145
 6598WAT     H221897   8.866   4.226   5.268
 6599WAT      O21898   8.072   3.901   3.850
 6599WAT     H121899   8.052   3.815   3.886
 6599WAT     H221900   8.055   3.893   3.756
 6600WAT      O21901   8.149   4.965   5.321
 6600WAT     H121902   8.096   5.037   5.289
 6600WAT     H221903   8.175   4.917   5.242
 6601WAT      O21904   8.275   3.761   5.473
 6601WAT     H121905   8.334   3.731   5.542
 6601WAT     H221906   8.193   3.714   5.489
 6602WAT      O21907   8.757   3.723   5.497
 6602WAT     H121908   8.688   3.657   5.490
 6602WAT     H221909   8.829   3.678   5.541
 6603WAT      O21910   8.820   3.383   4.102
 6603WAT     H121911   8.848   3.298   4.138
 6603WAT     H221912   8.742   3.406   4.154
 6604WAT      O21913   8.435   5.088   5.347
 6604WAT     H121914   8.428   5.178   5.377
 6604WAT     H221915   8.345   5.056   5.344
 6605WAT      O21916   8.273   3.506   3.947
 6605WAT     H121917   8.239   3.438   3.889
 6605WAT     H221918   8.294   3.460   4.028
 6606WAT      O21919   8.490   5.005   4.109
 6606WAT     H121920   8.579   5.038   4.111
 6606WAT     H221921   8.493   4.932   4.046
 6607WAT      O21922   7.854   4.542   3.932
 6607WAT     H121923   7.898   4.596   3.997
 6607WAT     H221924   7.902   4.459   3.933
 6608WAT      O21925   7.575   4.821   4.677
 6608WAT     H121926   7.608   4.734   4.654
 6608WAT     H221927   7.618   4.841   4.760
 6609WAT      O21928   8.035   4.654   4.443
 6609WAT     H121929   8.005   4.642   4.533
 6609WAT     H221930   8.024   4.568   4.402
 6610WAT      O21931   7.624   4.907   4.951
 6610WAT     H121932   7.581   4.925   5.034
 6610WAT     H221933   7.681   4.983   4.937
 6611WAT      O21934   9.188   4.858   5.379
 6611WAT     H121935   9.128   4.864   5.305
 6611WAT     H221936   9.201   4.764   5.392
 6612WAT      O21937   9.312   4.632   3.913
 6612WAT     H121938   9.229   4.639   3.960
 6612WAT     H221939   9.330   4.721   3.883
 6613WAT      O21940   9.257   4.306   4.164
 6613WAT     H121941   9.334   4.363   4.174
 6613WAT     H221942   9.259   4.250   4.241
 6614WAT      O21943   7.607   4.159   4.587
 6614WAT     H121944   7.542   4.132   4.522
 6614WAT     H221945   7.691   4.148   4.542
 6615WAT      O21946   9.358   4.392   4.648
 6615WAT     H121947   9.395   4.313   4.607
 6615WAT     H221948   9.422   4.461   4.630
 6616WAT      O21949   9.056   4.530   5.189
 6616WAT     H121950   8.975   4.573   5.216
 6616WAT     H221951   9.097   4.591   5.128
 6617WAT      O21952   9.263   4.336   3.879
 6617WAT     H121953   9.290   4.426   3.866
 6617WAT     H221954   9.244   4.329   3.973
 6618WAT      O21955   8.902   3.638   4.009
 6618WAT     H121956   8.944   3.619   3.925
 6618WAT     H221957   8.872   3.553   4.040
 6619WAT      O21958   9.252   4.129   4.379
 6619WAT     H121959   9.215   4.053   4.335
 6619WAT     H221960   9.179   4.168   4.427
 6620WAT      O21961   7.711   4.197   5.041
 6620WAT     H121962   7.748   4.188   5.129
 6620WAT     H221963   7.654   4.121   5.031
 6621WAT      O21964   9.191   4.044   5.342
 6621WAT     H121965   9.168   4.021   5.252
 6621WAT     H221966   9.217   4.136   5.337
 6622WAT      O21967   7.666   3.888   5.431
 6622WAT     H121968   7.577   3.885   5.465
 6622WAT     H221969   7.720   3.908   5.508
 6623WAT      O21970   9.035   3.567   5.620
 6623WAT     H121971   9.123   3.567   5.658
 6623WAT     H221972   9.036   3.493   5.559
 6624WAT      O21973   9.180   3.952   4.709
 6624WAT     H121974   9.232   3.903   4.646
 6624WAT     H221975   9.238   3.965   4.783
 6625WAT      O21976   9.198   3.960   5.061
 6625WAT     H121977   9.103   3.957   5.072
 6625WAT     H221978   9.216   4.051   5.037
 6626WAT      O21979   9.129   3.878   4.303
 6626WAT     H121980   9.178   3.854   4.381
 6626WAT     H221981   9.109   3.794   4.261
 6627WAT      O21982   7.717   3.316   4.866
 6627WAT     H121983   7.782   3.261   4.822
 6627WAT     H221984   7.759   3.341   4.948
 6628WAT      O21985   9.272   3.741   4.556
 6628WAT     H121986   9.261   3.726   4.650
 6628WAT     H221987   9.348   3.688   4.532
 6629WAT      O21988   9.106   3.335   5.202
 6629WAT     H121989   9.170   3.397   5.238
 6629WAT     H221990   9.121   3.339   5.107
 6630WAT      O21991   9.361   3.524   3.880
 6630WAT     H121992   9.453   3.511   3.859
 6630WAT     H221993   9.358   3.532   3.975
 6631WAT      O21994   9.368   3.601   4.143
 6631WAT     H121995   9.288   3.595   4.195
 6631WAT     H221996   9.388   3.695   4.141
 6632WAT      O21997   9.062   5.005   4.542
 6632WAT     H121998   9.122   4.973   4.474
 6632WAT     H221999   9.088   4.958   4.621
 6633WAT      O22000   7.692   3.331   5.140
 6633WAT     H122001   7.657   3.377   5.217
 6633WAT     H222002   7.659   3.242   5.149
 6634WAT      O22003   7.853   4.649   5.557
 6634WAT     H122004   7.848   4.611   5.645
 6634WAT     H222005   7.866   4.742   5.571
 6635WAT      O22006   8.223   4.804   5.117
 6635WAT     H122007   8.199   4.831   5.028
 6635WAT     H222008   8.317   4.821   5.122
 6636WAT      O22009   8.443   3.450   5.493
 6636WAT     H122010   8.437   3.510   5.567
 6636WAT     H222011   8.537   3.440   5.478
 6637WAT      O22012   8.707   3.416   5.456
 6637WAT     H122013   8.768   3.448   5.390
 6637WAT     H222014   8.762   3.368   5.518
 6638WAT      O22015   9.349   5.006   5.197
 6638WAT     H122016   9.299   5.046   5.125
 6638WAT     H222017   9.288   4.944   5.236
 6639WAT      O22018   7.759   3.284   5.468
 6639WAT     H122019   7.814   3.266   5.391
 6639WAT     H222020   7.766   3.205   5.521
 6640WAT      O22021   7.837   4.943   5.269
 6640WAT     H122022   7.777   4.930   5.343
 6640WAT     H222023   7.836   4.860   5.222
 6641WAT      O22024   8.781   3.272   5.089
 6641WAT     H122025   8.694   3.306   5.069
 6641WAT     H222026   8.770   3.225   5.172
 6642WAT      O22027   8.872   3.493   5.228
 6642WAT     H122028   8.839   3.412   5.190
 6642WAT     H222029   8.967   3.489   5.215
 6643WAT      O22030   9.117   5.070   4.925
 6643WAT     H122031   9.071   5.145   4.887
 6643WAT     H222032   9.054   4.998   4.919
 6644WAT      O22033   7.800   4.680   5.164
 6644WAT     H122034   7.727   4.618   5.157
 6644WAT     H222035   7.806   4.719   5.077
 6645WAT      O22036   8.160   4.901   4.842
 6645WAT     H122037   8.212   4.840   4.790
 6645WAT     H222038   8.225   4.951   4.892
 6646WAT      O22039   8.434   4.990   4.925
 6646WAT     H122040   8.463   4.965   4.837
 6646WAT     H222041   8.485   4.935   4.984
 6647WAT      O22042   8.556   3.364   4.983
 6647WAT     H122043   8.478   3.412   5.011
 6647WAT     H222044   8.527   3.274   4.972
 6648WAT      O22045   9.011   3.434   4.788
 6648WAT     H122046   9.055   3.429   4.703
 6648WAT     H222047   8.984   3.526   4.795
 6649WAT      O22048   9.198   3.398   4.589
 6649WAT     H122049   9.191   3.303   4.574
 6649WAT     H222050   9.275   3.408   4.643
 6650WAT      O22051   7.628   5.011   4.485
 6650WAT     H122052   7.611   4.948   4.555
 6650WAT     H222053   7.541   5.032   4.450
 6651WAT      O22054   8.344   3.606   4.534
 6651WAT     H122055   8.263   3.569   4.500
 6651WAT     H222056   8.395   3.530   4.564
 6652WAT      O22057   8.795   3.272   4.658
 6652WAT     H122058   8.855   3.330   4.706
 6652WAT     H222059   8.721   3.329   4.636
 6653WAT      O22060   9.109   3.313   4.185
 6653WAT     H122061   9.129   3.403   4.212
 6653WAT     H222062   9.030   3.290   4.235
 6654WAT      O22063   7.789   4.881   4.229
 6654WAT     H122064   7.736   4.919   4.159
 6654WAT     H222065   7.781   4.943   4.301
 6655WAT      O22066   8.147   3.421   4.395
 6655WAT     H122067   8.084   3.351   4.411
 6655WAT     H222068   8.093   3.497   4.373
 6656WAT      O22069   8.441   5.082   5.662
 6656WAT     H122070   8.534   5.059   5.666
 6656WAT     H222071   8.439   5.165   5.614
 6657WAT      O22072   9.264   5.037   4.362
 6657WAT     H122073   9.282   4.968   4.297
 6657WAT     H222074   9.195   5.089   4.322
 6658WAT      O22075   8.159   3.349   5.638
 6658WAT     H122076   8.131   3.399   5.562
 6658WAT     H222077   8.198   3.269   5.602
 6659WAT      O22078   8.049   5.076   4.117
 6659WAT     H122079   8.122   5.047   4.062
 6659WAT     H222080   8.075   5.052   4.206
 6660WAT      O22081   7.965   4.687   4.117
 6660WAT     H122082   7.902   4.734   4.172
 6660WAT     H222083   7.976   4.603   4.161
 6661WAT      O22084   8.820   3.290   5.696
 6661WAT     H122085   8.808   3.322   5.786
 6661WAT     H222086   8.901   3.331   5.666
 6662WAT      O22087   9.098   5.005   5.644
 6662WAT     H122088   9.177   4.956   5.623
 6662WAT     H222089   9.127   5.073   5.705
 6663WAT      O22090   8.710   4.092   2.732
 6663WAT     H122091   8.702   4.001   2.705
 6663WAT     H222092   8.669   4.142   2.662
 6664WAT      O22093   8.523   4.270   2.920
 6664WAT     H122094   8.446   4.222   2.949
 6664WAT     H222095   8.589   4.202   2.903
 6665WAT      O22096   7.925   4.301   3.008
 6665WAT     H122097   7.842   4.276   3.048
 6665WAT     H222098   7.986   4.308   3.082
 6666WAT      O22099   8.925   4.711   2.798
 6666WAT     H122100   8.879   4.634   2.831
 6666WAT     H222101   9.007   4.713   2.849
 6667WAT      O22102   7.923   4.705   3.028
 6667WAT     H122103   7.953   4.616   3.010
 6667WAT     H222104   7.998   4.760   3.005
 6668WAT      O22105   8.548   4.939   2.760
 6668WAT     H122106   8.486   4.985   2.703
 6668WAT     H222107   8.634   4.955   2.720
 6669WAT      O22108   8.468   4.538   2.921
 6669WAT     H122109   8.461   4.444   2.905
 6669WAT     H222110   8.544   4.547   2.978
 6670WAT      O22111   8.571   3.818   2.944
 6670WAT     H122112   8.608   3.731   2.933
 6670WAT     H222113   8.561   3.852   2.855
 6671WAT      O22114   9.378   3.770   3.294
 6671WAT     H122115   9.307   3.808   3.242
 6671WAT     H222116   9.404   3.839   3.354
 6672WAT      O22117   8.635   4.428   2.500
 6672WAT     H122118   8.573   4.474   2.443
 6672WAT     H222119   8.686   4.497   2.541
 6673WAT      O22120   8.121   4.380   3.168
 6673WAT     H122121   8.088   4.443   3.232
 6673WAT     H222122   8.139   4.433   3.090
 6674WAT      O22123   8.972   3.762   2.914
 6674WAT     H122124   8.902   3.791   2.972
 6674WAT     H222125   9.009   3.843   2.878
 6675WAT      O22126   8.042   4.577   3.349
 6675WAT     H122127   8.104   4.645   3.321
 6675WAT     H222128   7.956   4.618   3.340
 6676WAT      O22129   7.572   4.496   2.237
 6676WAT     H122130   7.534   4.545   2.164
 6676WAT     H222131   7.597   4.564   2.300
 6677WAT      O22132   9.134   4.724   3.141
 6677WAT     H122133   9.066   4.791   3.140
 6677WAT     H222134   9.188   4.743   3.064
 6678WAT      O22135   9.279   3.706   2.953
 6678WAT     H122136   9.185   3.710   2.967
 6678WAT     H222137   9.312   3.788   2.992
 6679WAT      O22138   8.888   4.908   3.012
 6679WAT     H122139   8.889   4.868   2.925
 6679WAT     H222140   8.832   4.986   3.002
 6680WAT      O22141   9.017   4.580   2.521
 6680WAT     H122142   9.006   4.486   2.534
 6680WAT     H222143   9.017   4.616   2.610
 6681WAT      O22144   8.827   4.398   3.145
 6681WAT     H122145   8.869   4.377   3.061
 6681WAT     H222146   8.900   4.424   3.202
 6682WAT      O22147   8.571   4.143   2.457
 6682WAT     H122148   8.479   4.136   2.480
 6682WAT     H222149   8.587   4.237   2.445
 6683WAT      O22150   8.570   3.770   2.156
 6683WAT     H122151   8.476   3.786   2.165
 6683WAT     H222152   8.602   3.842   2.102
 6684WAT      O22153   9.222   4.238   3.154
 6684WAT     H122154   9.139   4.245   3.107
 6684WAT     H222155   9.282   4.297   3.107
 6685WAT      O22156   8.974   4.299   2.507
 6685WAT     H122157   8.912   4.265   2.442
 6685WAT     H222158   8.973   4.235   2.578
 6686WAT      O22159   8.919   3.917   3.249
 6686WAT     H122160   8.877   4.000   3.274
 6686WAT     H222161   8.845   3.858   3.229
 6687WAT      O22162   8.179   4.564   2.951
 6687WAT     H122163   8.149   4.504   2.883
 6687WAT     H222164   8.274   4.568   2.940
 6688WAT      O22165   8.988   4.922   3.317
 6688WAT     H122166   8.940   5.002   3.298
 6688WAT     H222167   8.919   4.856   3.333
 6689WAT      O22168   8.088   4.538   3.616
 6689WAT     H122169   7.998   4.560   3.641
 6689WAT     H222170   8.090   4.550   3.521
 6690WAT      O22171   8.792   4.223   2.208
 6690WAT     H122172   8.836   4.139   2.193
 6690WAT     H222173   8.863   4.286   2.216
 6691WAT      O22174   7.971   4.225   3.474
 6691WAT     H122175   7.957   4.312   3.511
 6691WAT     H222176   7.882   4.191   3.459
 6692WAT      O22177   8.603   4.717   2.605
 6692WAT     H122178   8.647   4.791   2.563
 6692WAT     H222179   8.597   4.741   2.697
 6693WAT      O22180   8.150   4.819   3.695
 6693WAT     H122181   8.148   4.860   3.608
 6693WAT     H222182   8.134   4.727   3.678
 6694WAT      O22183   7.802   4.085   2.485
 6694WAT     H122184   7.790   4.158   2.424
 6694WAT     H222185   7.771   4.008   2.437
 6695WAT      O22186   9.346   4.898   3.824
 6695WAT     H122187   9.393   4.946   3.892
 6695WAT     H222188   9.408   4.891   3.752
 6696WAT      O22189   7.566   4.402   3.066
 6696WAT     H122190   7.574   4.416   2.971
 6696WAT     H222191   7.627   4.331   3.085
 6697WAT      O22192   7.690   4.572   2.707
 6697WAT     H122193   7.650   4.586   2.621
 6697WAT     H222194   7.779   4.544   2.686
 6698WAT      O22195   9.286   4.617   3.540
 6698WAT     H122196   9.298   4.593   3.449
 6698WAT     H222197   9.290   4.534   3.588
 6699WAT      O22198   8.672   4.987   3.397
 6699WAT     H122199   8.723   4.978   3.478
 6699WAT     H222200   8.588   5.022   3.427
 6700WAT      O22201   8.870   5.016   2.340
 6700WAT     H122202   8.854   4.987   2.430
 6700WAT     H222203   8.853   4.938   2.287
 6701WAT      O22204   8.117   4.994   2.518
 6701WAT     H122205   8.100   4.902   2.497
 6701WAT     H222206   8.032   5.029   2.542
 6702WAT      O22207   8.840   4.767   2.196
 6702WAT     H122208   8.770   4.766   2.130
 6702WAT     H222209   8.914   4.724   2.153
 6703WAT      O22210   8.796   4.929   2.604
 6703WAT     H122211   8.842   4.851   2.635
 6703WAT     H222212   8.830   5.000   2.658
 6704WAT      O22213   9.271   3.822   3.637
 6704WAT     H122214   9.210   3.873   3.584
 6704WAT     H222215   9.239   3.732   3.631
 6705WAT      O22216   7.571   4.506   3.320
 6705WAT     H122217   7.588   4.459   3.238
 6705WAT     H222218   7.618   4.456   3.386
 6706WAT      O22219   8.477   3.706   3.383
 6706WAT     H122220   8.431   3.727   3.465
 6706WAT     H222221   8.437   3.625   3.353
 6707WAT      O22222   8.977   3.828   3.496
 6707WAT     H122223   8.892   3.798   3.529
 6707WAT     H222224   8.961   3.853   3.405
 6708WAT      O22225   8.687   3.978   3.706
 6708WAT     H122226   8.719   3.895   3.672
 6708WAT     H222227   8.766   4.030   3.721
 6709WAT      O22228   8.252   3.474   3.009
 6709WAT     H122229   8.282   3.564   3.001
 6709WAT     H222230   8.307   3.425   2.948
 6710WAT      O22231   8.751   3.932   2.456
 6710WAT     H122232   8.691   4.005   2.437
 6710WAT     H222233   8.805   3.926   2.378
 6711WAT      O22234   8.272   4.022   3.663
 6711WAT     H122235   8.262   3.928   3.648
 6711WAT     H222236   8.356   4.044   3.623
 6712WAT      O22237   8.442   3.671   3.785
 6712WAT     H122238   8.373   3.652   3.848
 6712WAT     H222239   8.517   3.699   3.838
 6713WAT      O22240   7.534   3.849   2.002
 6713WAT     H122241   7.525   3.943   2.016
 6713WAT     H222242   7.498   3.835   1.914
 6714WAT      O22243   8.670   4.055   3.068
 6714WAT     H122244   8.597   4.106   3.103
 6714WAT     H222245   8.630   3.973   3.038
 6715WAT      O22246   8.716   3.600   3.010
 6715WAT     H122247   8.718   3.645   3.094
 6715WAT     H222248   8.691   3.510   3.031
 6716WAT      O22249   8.221   4.054   2.148
 6716WAT     H122250   8.164   4.009   2.085
 6716WAT     H222251   8.292   4.090   2.094
 6717WAT      O22252   9.059   3.342   3.593
 6717WAT     H122253   9.091   3.269   3.646
 6717WAT     H222254   9.062   3.310   3.503
 6718WAT      O22255   7.729   4.444   3.535
 6718WAT     H122256   7.690   4.380   3.595
 6718WAT     H222257   7.760   4.514   3.592
 6719WAT      O22258   8.344   4.129   3.084
 6719WAT     H122259   8.380   4.081   3.158
 6719WAT     H222260   8.325   4.216   3.118
 6720WAT      O22261   8.123   4.033   3.315
 6720WAT     H122262   8.092   4.121   3.338
 6720WAT     H222263   8.218   4.039   3.319
 6721WAT      O22264   7.976   4.453   2.375
 6721WAT     H122265   7.898   4.399   2.359
 6721WAT     H222266   8.048   4.401   2.341
 6722WAT      O22267   9.051   4.353   2.954
 6722WAT     H122268   9.123   4.402   2.915
 6722WAT     H222269   9.031   4.285   2.890
 6723WAT      O22270   8.590   4.360   3.543
 6723WAT     H122271   8.583   4.268   3.518
 6723WAT     H222272   8.527   4.370   3.614
 6724WAT      O22273   8.869   3.930   2.198
 6724WAT     H122274   8.958   3.961   2.181
 6724WAT     H222275   8.866   3.842   2.159
 6725WAT      O22276   7.980   4.420   2.739
 6725WAT     H122277   8.032   4.340   2.733
 6725WAT     H222278   7.935   4.414   2.823
 6726WAT      O22279   8.469   4.547   2.266
 6726WAT     H122280   8.503   4.621   2.217
 6726WAT     H222281   8.386   4.578   2.302
 6727WAT      O22282   7.728   4.117   3.430
 6727WAT     H122283   7.692   4.183   3.489
 6727WAT     H222284   7.699   4.034   3.467
 6728WAT      O22285   8.048   4.163   3.719
 6728WAT     H122286   8.018   4.177   3.629
 6728WAT     H222287   8.126   4.107   3.709
 6729WAT      O22288   8.583   4.642   3.518
 6729WAT     H122289   8.584   4.549   3.496
 6729WAT     H222290   8.512   4.651   3.582
 6730WAT      O22291   9.096   4.061   2.145
 6730WAT     H122292   9.088   4.104   2.060
 6730WAT     H222293   9.168   4.107   2.188
 6731WAT      O22294   9.204   4.306   3.453
 6731WAT     H122295   9.131   4.366   3.433
 6731WAT     H222296   9.257   4.306   3.373
 6732WAT      O22297   9.199   4.746   2.418
 6732WAT     H122298   9.135   4.681   2.445
 6732WAT     H222299   9.160   4.787   2.340
 6733WAT      O22300   8.757   4.479   2.803
 6733WAT     H122301   8.792   4.419   2.737
 6733WAT     H222302   8.668   4.446   2.820
 6734WAT      O22303   8.365   4.555   2.543
 6734WAT     H122304   8.434   4.610   2.581
 6734WAT     H222305   8.287   4.609   2.547
 6735WAT      O22306   7.579   4.117   2.092
 6735WAT     H122307   7.666   4.145   2.121
 6735WAT     H222308   7.530   4.198   2.081
 6736WAT      O22309   8.296   4.255   2.505
 6736WAT     H122310   8.341   4.336   2.527
 6736WAT     H222311   8.261   4.224   2.588
 6737WAT      O22312   8.526   4.806   3.227
 6737WAT     H122313   8.591   4.827   3.295
 6737WAT     H222314   8.562   4.730   3.182
 6738WAT      O22315   8.653   4.607   3.099
 6738WAT     H122316   8.718   4.537   3.111
 6738WAT     H222317   8.706   4.685   3.081
 6739WAT      O22318   9.038   4.635   2.072
 6739WAT     H122319   9.015   4.564   2.131
 6739WAT     H222320   8.999   4.610   1.988
 6740WAT      O22321   8.831   4.687   3.420
 6740WAT     H122322   8.864   4.745   3.487
 6740WAT     H222323   8.739   4.674   3.443
 6741WAT      O22324   7.616   5.038   2.149
 6741WAT     H122325   7.652   5.098   2.084
 6741WAT     H222326   7.602   5.092   2.226
 6742WAT      O22327   8.996   4.427   2.238
 6742WAT     H122328   8.967   4.473   2.317
 6742WAT     H222329   9.076   4.381   2.265
 6743WAT      O22330   7.615   4.864   3.597
 6743WAT     H122331   7.625   4.770   3.582
 6743WAT     H222332   7.549   4.891   3.532
 6744WAT      O22333   8.414   4.692   3.736
 6744WAT     H122334   8.382   4.620   3.791
 6744WAT     H222335   8.346   4.759   3.744
 6745WAT      O22336   8.218   4.776   2.231
 6745WAT     H122337   8.217   4.849   2.169
 6745WAT     H222338   8.126   4.752   2.240
 6746WAT      O22339   7.778   4.298   2.305
 6746WAT     H122340   7.717   4.372   2.306
 6746WAT     H222341   7.825   4.307   2.223
 6747WAT      O22342   8.735   3.715   3.273
 6747WAT     H122343   8.772   3.633   3.306
 6747WAT     H222344   8.649   3.721   3.314
 6748WAT      O22345   8.516   4.782   2.097
 6748WAT     H122346   8.527   4.762   2.004
 6748WAT     H222347   8.426   4.757   2.118
 6749WAT      O22348   8.431   3.980   3.295
 6749WAT     H122349   8.481   4.028   3.362
 6749WAT     H222350   8.445   3.888   3.316
 6750WAT      O22351   8.381   5.034   2.567
 6750WAT     H122352   8.406   5.031   2.474
 6750WAT     H222353   8.286   5.022   2.566
 6751WAT      O22354   9.152   3.602   3.380
 6751WAT     H122355   9.102   3.676   3.413
 6751WAT     H222356   9.233   3.641   3.348
 6752WAT      O22357   8.981   4.126   2.724
 6752WAT     H122358   8.887   4.128   2.742
 6752WAT     H222359   9.013   4.048   2.769
 6753WAT      O22360   7.979   4.294   2.080
 6753WAT     H122361   8.056   4.283   2.136
 6753WAT     H222362   7.987   4.225   2.015
 6754WAT      O22363   7.848   4.038   2.149
 6754WAT     H122364   7.856   3.943   2.160
 6754WAT     H222365   7.938   4.071   2.159
 6755WAT      O22366   9.181   4.843   2.892
 6755WAT     H122367   9.194   4.926   2.939
 6755WAT     H222368   9.268   4.822   2.857
 6756WAT      O22369   7.929   5.053   2.859
 6756WAT     H122370   8.002   4.998   2.886
 6756WAT     H222371   7.967   5.139   2.845
 6757WAT      O22372   7.617   4.659   2.446
 6757WAT     H122373   7.524   4.684   2.445
 6757WAT     H222374   7.664   4.742   2.434
 6758WAT      O22375   7.829   4.971   3.778
 6758WAT     H122376   7.909   5.003   3.819
 6758WAT     H222377   7.778   4.935   3.850
 6759WAT      O22378   8.240   4.970   2.041
 6759WAT     H122379   8.319   4.999   1.996
 6759WAT     H222380   8.188   4.927   1.973
 6760WAT      O22381   8.713   4.582   3.772
 6760WAT     H122382   8.652   4.584   3.698
 6760WAT     H222383   8.682   4.509   3.826
 6761WAT      O22384   8.856   4.955   3.634
 6761WAT     H122385   8.951   4.946   3.629
 6761WAT     H222386   8.841   5.021   3.701
 6762WAT      O22387   9.145   4.893   2.183
 6762WAT     H122388   9.116   4.851   2.102
 6762WAT     H222389   9.125   4.986   2.171
 6763WAT      O22390   7.601   4.220   3.672
 6763WAT     H122391   7.652   4.162   3.729
 6763WAT     H222392   7.527   4.248   3.726
 6764WAT      O22393   8.291   4.492   2.028
 6764WAT     H122394   8.281   4.431   2.100
 6764WAT     H222395   8.275   4.440   1.949
 6765WAT      O22396   8.306   4.361   3.625
 6765WAT     H122397   8.230   4.417   3.617
 6765WAT     H222398   8.325   4.331   3.536
 6766WAT      O22399   8.615   4.398   2.088
 6766WAT     H122400   8.560   4.443   2.152
 6766WAT     H222401   8.678   4.348   2.140
 6767WAT      O22402   9.021   4.534   3.681
 6767WAT     H122403   9.095   4.567   3.631
 6767WAT     H222404   8.944   4.551   3.626
 6768WAT      O22405   7.804   4.034   3.762
 6768WAT     H122406   7.808   4.004   3.852
 6768WAT     H222407   7.890   4.074   3.746
 6769WAT      O22408   8.182   4.294   2.278
 6769WAT     H122409   8.224   4.278   2.362
 6769WAT     H222410   8.195   4.213   2.228
 6770WAT      O22411   7.998   3.892   3.558
 6770WAT     H122412   7.945   3.843   3.496
 6770WAT     H222413   8.065   3.935   3.505
 6771WAT      O22414   8.433   4.196   2.002
 6771WAT     H122415   8.485   4.125   1.966
 6771WAT     H222416   8.498   4.260   2.032
 6772WAT      O22417   8.888   4.339   3.535
 6772WAT     H122418   8.930   4.354   3.620
 6772WAT     H222419   8.795   4.351   3.551
 6773WAT      O22420   8.935   4.073   3.735
 6773WAT     H122421   8.994   3.997   3.726
 6773WAT     H222422   8.953   4.126   3.657
 6774WAT      O22423   8.324   3.444   3.270
 6774WAT     H122424   8.279   3.447   3.185
 6774WAT     H222425   8.260   3.405   3.329
 6775WAT      O22426   8.364   4.334   3.332
 6775WAT     H122427   8.406   4.418   3.314
 6775WAT     H222428   8.272   4.348   3.309
 6776WAT      O22429   8.598   4.107   3.470
 6776WAT     H122430   8.610   4.048   3.544
 6776WAT     H222431   8.684   4.111   3.428
 6777WAT      O22432   8.832   4.163   3.328
 6777WAT     H122433   8.779   4.215   3.267
 6777WAT     H222434   8.866   4.226   3.391
 6778WAT      O22435   8.072   3.901   1.972
 6778WAT     H122436   8.052   3.815   2.008
 6778WAT     H222437   8.055   3.893   1.878
 6779WAT      O22438   8.149   4.965   3.443
 6779WAT     H122439   8.096   5.037   3.411
 6779WAT     H222440   8.175   4.917   3.364
 6780WAT      O22441   8.275   3.761   3.596
 6780WAT     H122442   8.334   3.731   3.665
 6780WAT     H222443   8.193   3.714   3.611
 6781WAT      O22444   8.757   3.723   3.619
 6781WAT     H122445   8.688   3.657   3.613
 6781WAT     H222446   8.829   3.678   3.664
 6782WAT      O22447   7.952   3.611   1.971
 6782WAT     H122448   7.982   3.612   1.880
 6782WAT     H222449   8.025   3.576   2.021
 6783WAT      O22450   8.435   5.088   3.469
 6783WAT     H122451   8.428   5.178   3.500
 6783WAT     H222452   8.345   5.056   3.466
 6784WAT      O22453   8.490   5.005   2.231
 6784WAT     H122454   8.579   5.038   2.234
 6784WAT     H222455   8.493   4.932   2.169
 6785WAT      O22456   7.854   4.542   2.054
 6785WAT     H122457   7.898   4.596   2.120
 6785WAT     H222458   7.902   4.459   2.055
 6786WAT      O22459   7.575   4.821   2.799
 6786WAT     H122460   7.608   4.734   2.776
 6786WAT     H222461   7.618   4.841   2.883
 6787WAT      O22462   8.035   4.654   2.565
 6787WAT     H122463   8.005   4.642   2.656
 6787WAT     H222464   8.024   4.568   2.525
 6788WAT      O22465   7.624   4.907   3.073
 6788WAT     H122466   7.581   4.925   3.157
 6788WAT     H222467   7.681   4.983   3.059
 6789WAT      O22468   9.188   4.858   3.502
 6789WAT     H122469   9.128   4.864   3.428
 6789WAT     H222470   9.201   4.764   3.515
 6790WAT      O22471   9.312   4.632   2.036
 6790WAT     H122472   9.229   4.639   2.083
 6790WAT     H222473   9.330   4.721   2.005
 6791WAT      O22474   9.257   4.306   2.286
 6791WAT     H122475   9.334   4.363   2.297
 6791WAT     H222476   9.259   4.250   2.363
 6792WAT      O22477   9.358   4.392   2.771
 6792WAT     H122478   9.395   4.313   2.730
 6792WAT     H222479   9.422   4.461   2.753
 6793WAT      O22480   9.056   4.530   3.312
 6793WAT     H122481   8.975   4.573   3.338
 6793WAT     H222482   9.097   4.591   3.251
 6794WAT      O22483   9.263   4.336   2.002
 6794WAT     H122484   9.290   4.426   1.989
 6794WAT     H222485   9.244   4.329   2.095
 6795WAT      O22486   7.711   4.197   3.163
 6795WAT     H122487   7.748   4.188   3.251
 6795WAT     H222488   7.654   4.121   3.153
 6796WAT      O22489   9.191   4.044   3.465
 6796WAT     H122490   9.168   4.021   3.374
 6796WAT     H222491   9.217   4.136   3.460
 6797WAT      O22492   9.035   3.567   3.742
 6797WAT     H122493   9.123   3.567   3.781
 6797WAT     H222494   9.036   3.493   3.681
 6798WAT      O22495   7.529   3.880   2.303
 6798WAT     H122496   7.438   3.906   2.286
 6798WAT     H222497   7.577   3.907   2.225
 6799WAT      O22498   9.180   3.952   2.831
 6799WAT     H122499   9.232   3.903   2.768
 6799WAT     H222500   9.238   3.965   2.906
 6800WAT      O22501   9.198   3.960   3.183
 6800WAT     H122502   9.103   3.957   3.195
 6800WAT     H222503   9.216   4.051   3.160
 6801WAT      O22504   7.783   3.785   2.094
 6801WAT     H122505   7.854   3.743   2.046
 6801WAT     H222506   7.712   3.792   2.031
 6802WAT      O22507   7.748   3.391   1.998
 6802WAT     H122508   7.820   3.445   2.030
 6802WAT     H222509   7.775   3.363   1.911
 6803WAT      O22510   9.106   3.335   3.324
 6803WAT     H122511   9.170   3.397   3.361
 6803WAT     H222512   9.121   3.339   3.230
 6804WAT      O22513   9.062   5.005   2.665
 6804WAT     H122514   9.122   4.973   2.597
 6804WAT     H222515   9.088   4.958   2.744
 6805WAT      O22516   7.853   4.649   3.679
 6805WAT     H122517   7.848   4.611   3.768
 6805WAT     H222518   7.866   4.742   3.693
 6806WAT      O22519   8.223   4.804   3.240
 6806WAT     H122520   8.199   4.831   3.151
 6806WAT     H222521   8.317   4.821   3.245
 6807WAT      O22522   8.443   3.450   3.615
 6807WAT     H122523   8.437   3.510   3.690
 6807WAT     H222524   8.537   3.440   3.601
 6808WAT      O22525   8.707   3.416   3.579
 6808WAT     H122526   8.768   3.448   3.513
 6808WAT     H222527   8.762   3.368   3.641
 6809WAT      O22528   9.349   5.006   3.320
 6809WAT     H122529   9.299   5.046   3.248
 6809WAT     H222530   9.288   4.944   3.359
 6810WAT      O22531   7.837   4.943   3.391
 6810WAT     H122532   7.777   4.930   3.465
 6810WAT     H222533   7.836   4.860   3.345
 6811WAT      O22534   8.781   3.272   3.212
 6811WAT     H122535   8.694   3.306   3.191
 6811WAT     H222536   8.770   3.225   3.294
 6812WAT      O22537   8.872   3.493   3.350
 6812WAT     H122538   8.839   3.412   3.312
 6812WAT     H222539   8.967   3.489   3.338
 6813WAT      O22540   9.117   5.070   3.047
 6813WAT     H122541   9.071   5.145   3.010
 6813WAT     H222542   9.054   4.998   3.042
 6814WAT      O22543   7.800   4.680   3.286
 6814WAT     H122544   7.727   4.618   3.280
 6814WAT     H222545   7.806   4.719   3.199
 6815WAT      O22546   8.160   4.901   2.965
 6815WAT     H122547   8.212   4.840   2.912
 6815WAT     H222548   8.225   4.951   3.014
 6816WAT      O22549   8.434   4.990   3.048
 6816WAT     H122550   8.463   4.965   2.960
 6816WAT     H222551   8.485   4.935   3.107
 6817WAT      O22552   8.556   3.364   3.106
 6817WAT     H122553   8.478   3.412   3.134
 6817WAT     H222554   8.527   3.274   3.095
 6818WAT      O22555   9.011   3.434   2.910
 6818WAT     H122556   9.055   3.429   2.825
 6818WAT     H222557   8.984   3.526   2.917
 6819WAT      O22558   7.628   5.011   2.607
 6819WAT     H122559   7.611   4.948   2.677
 6819WAT     H222560   7.541   5.032   2.572
 6820WAT      O22561   8.795   3.272   2.781
 6820WAT     H122562   8.855   3.330   2.828
 6820WAT     H222563   8.721   3.329   2.758
 6821WAT      O22564   7.789   4.881   2.352
 6821WAT     H122565   7.736   4.919   2.282
 6821WAT     H222566   7.781   4.943   2.424
 6822WAT      O22567   8.441   5.082   3.784
 6822WAT     H122568   8.534   5.059   3.789
 6822WAT     H222569   8.439   5.165   3.736
 6823WAT      O22570   9.264   5.037   2.484
 6823WAT     H122571   9.282   4.968   2.420
 6823WAT     H222572   9.195   5.089   2.445
 6824WAT      O22573   8.159   3.349   3.761
 6824WAT     H122574   8.131   3.399   3.684
 6824WAT     H222575   8.198   3.269   3.724
 6825WAT      O22576   8.049   5.076   2.239
 6825WAT     H122577   8.122   5.047   2.185
 6825WAT     H222578   8.075   5.052   2.328
 6826WAT      O22579   7.965   4.687   2.240
 6826WAT     H122580   7.902   4.734   2.295
 6826WAT     H222581   7.976   4.603   2.283
 6827WAT      O22582   8.820   3.290   3.819
 6827WAT     H122583   8.808   3.322   3.908
 6827WAT     H222584   8.901   3.331   3.789
 6828WAT      O22585   9.098   5.005   3.767
 6828WAT     H122586   9.177   4.956   3.746
 6828WAT     H222587   9.127   5.073   3.827
 6829WAT      O22588   8.710   4.092   0.855
 6829WAT     H122589   8.702   4.001   0.828
 6829WAT     H222590   8.669   4.142   0.784
 6830WAT      O22591   8.523   4.270   1.043
 6830WAT     H122592   8.446   4.222   1.072
 6830WAT     H222593   8.589   4.202   1.026
 6831WAT      O22594   7.925   4.301   1.131
 6831WAT     H122595   7.842   4.276   1.171
 6831WAT     H222596   7.986   4.308   1.204
 6832WAT      O22597   8.925   4.711   0.921
 6832WAT     H122598   8.879   4.634   0.954
 6832WAT     H222599   9.007   4.713   0.972
 6833WAT      O22600   7.923   4.705   1.150
 6833WAT     H122601   7.953   4.616   1.132
 6833WAT     H222602   7.998   4.760   1.128
 6834WAT      O22603   7.766   3.797   0.509
 6834WAT     H122604   7.677   3.832   0.499
 6834WAT     H222605   7.794   3.777   0.420
 6835WAT      O22606   7.562   4.057   1.098
 6835WAT     H122607   7.619   3.981   1.098
 6835WAT     H222608   7.562   4.087   1.007
 6836WAT      O22609   8.548   4.939   0.883
 6836WAT     H122610   8.486   4.985   0.826
 6836WAT     H222611   8.634   4.955   0.843
 6837WAT      O22612   8.468   4.538   1.044
 6837WAT     H122613   8.461   4.444   1.028
 6837WAT     H222614   8.544   4.547   1.101
 6838WAT      O22615   7.687   3.598   1.276
 6838WAT     H122616   7.669   3.508   1.304
 6838WAT     H222617   7.646   3.653   1.344
 6839WAT      O22618   8.571   3.818   1.066
 6839WAT     H122619   8.608   3.731   1.055
 6839WAT     H222620   8.561   3.852   0.977
 6840WAT      O22621   7.984   3.656   0.613
 6840WAT     H122622   7.994   3.746   0.643
 6840WAT     H222623   7.893   3.651   0.584
 6841WAT      O22624   8.949   3.568   0.760
 6841WAT     H122625   9.031   3.519   0.764
 6841WAT     H222626   8.952   3.627   0.835
 6842WAT      O22627   7.748   3.848   1.137
 6842WAT     H122628   7.817   3.874   1.199
 6842WAT     H222629   7.717   3.764   1.170
 6843WAT      O22630   8.168   3.953   1.046
 6843WAT     H122631   8.218   4.002   1.110
 6843WAT     H222632   8.221   3.875   1.028
 6844WAT      O22633   9.378   3.770   1.416
 6844WAT     H122634   9.307   3.808   1.364
 6844WAT     H222635   9.404   3.839   1.476
 6845WAT      O22636   7.996   3.417   1.472
 6845WAT     H122637   7.996   3.468   1.392
 6845WAT     H222638   7.913   3.369   1.470
 6846WAT      O22639   8.635   4.428   0.622
 6846WAT     H122640   8.573   4.474   0.566
 6846WAT     H222641   8.686   4.497   0.664
 6847WAT      O22642   8.121   4.380   1.290
 6847WAT     H122643   8.088   4.443   1.354
 6847WAT     H222644   8.139   4.433   1.212
 6848WAT      O22645   8.972   3.762   1.037
 6848WAT     H122646   8.902   3.791   1.095
 6848WAT     H222647   9.009   3.843   1.001
 6849WAT      O22648   7.964   3.588   1.273
 6849WAT     H122649   7.998   3.672   1.244
 6849WAT     H222650   7.870   3.602   1.285
 6850WAT      O22651   8.042   4.577   1.472
 6850WAT     H122652   8.104   4.645   1.444
 6850WAT     H222653   7.956   4.618   1.463
 6851WAT      O22654   7.572   4.496   0.360
 6851WAT     H122655   7.534   4.545   0.287
 6851WAT     H222656   7.597   4.564   0.423
 6852WAT      O22657   9.134   4.724   1.263
 6852WAT     H122658   9.066   4.791   1.262
 6852WAT     H222659   9.188   4.743   1.187
 6853WAT      O22660   9.279   3.706   1.076
 6853WAT     H122661   9.185   3.710   1.089
 6853WAT     H222662   9.312   3.788   1.115
 6854WAT      O22663   8.332   3.336   0.906
 6854WAT     H122664   8.363   3.281   0.834
 6854WAT     H222665   8.239   3.350   0.887
 6855WAT      O22666   8.888   4.908   1.135
 6855WAT     H122667   8.889   4.868   1.048
 6855WAT     H222668   8.832   4.986   1.124
 6856WAT      O22669   9.017   4.580   0.644
 6856WAT     H122670   9.006   4.486   0.656
 6856WAT     H222671   9.017   4.616   0.732
 6857WAT      O22672   8.827   4.398   1.267
 6857WAT     H122673   8.869   4.377   1.184
 6857WAT     H222674   8.900   4.424   1.325
 6858WAT      O22675   8.571   4.143   0.579
 6858WAT     H122676   8.479   4.136   0.602
 6858WAT     H222677   8.587   4.237   0.568
 6859WAT      O22678   8.570   3.770   0.279
 6859WAT     H122679   8.476   3.786   0.287
 6859WAT     H222680   8.602   3.842   0.224
 6860WAT      O22681   9.222   4.238   1.277
 6860WAT     H122682   9.139   4.245   1.229
 6860WAT     H222683   9.282   4.297   1.230
 6861WAT      O22684   8.974   4.299   0.630
 6861WAT     H122685   8.912   4.265   0.565
 6861WAT     H222686   8.973   4.235   0.700
 6862WAT      O22687   8.919   3.917   1.371
 6862WAT     H122688   8.877   4.000   1.397
 6862WAT     H222689   8.845   3.858   1.352
 6863WAT      O22690   8.132   4.196   0.857
 6863WAT     H122691   8.091   4.124   0.808
 6863WAT     H222692   8.140   4.161   0.946
 6864WAT      O22693   8.179   4.564   1.074
 6864WAT     H122694   8.149   4.504   1.006
 6864WAT     H222695   8.274   4.568   1.063
 6865WAT      O22696   8.003   3.873   1.235
 6865WAT     H122697   8.058   3.884   1.158
 6865WAT     H222698   8.055   3.910   1.307
 6866WAT      O22699   8.988   4.922   1.440
 6866WAT     H122700   8.940   5.002   1.421
 6866WAT     H222701   8.919   4.856   1.455
 6867WAT      O22702   8.088   4.538   1.739
 6867WAT     H122703   7.998   4.560   1.764
 6867WAT     H222704   8.090   4.550   1.644
 6868WAT      O22705   8.792   4.223   0.330
 6868WAT     H122706   8.836   4.139   0.316
 6868WAT     H222707   8.863   4.286   0.339
 6869WAT      O22708   7.971   4.225   1.596
 6869WAT     H122709   7.957   4.312   1.633
 6869WAT     H222710   7.882   4.191   1.582
 6870WAT      O22711   8.603   4.717   0.727
 6870WAT     H122712   8.647   4.791   0.686
 6870WAT     H222713   8.597   4.741   0.819
 6871WAT      O22714   8.150   4.819   1.817
 6871WAT     H122715   8.148   4.860   1.731
 6871WAT     H222716   8.134   4.727   1.801
 6872WAT      O22717   7.802   4.085   0.607
 6872WAT     H122718   7.790   4.158   0.546
 6872WAT     H222719   7.771   4.008   0.560
 6873WAT      O22720   9.346   4.898   1.947
 6873WAT     H122721   9.393   4.946   2.015
 6873WAT     H222722   9.408   4.891   1.874
 6874WAT      O22723   7.566   4.402   1.188
 6874WAT     H122724   7.574   4.416   1.094
 6874WAT     H222725   7.627   4.331   1.207
 6875WAT      O22726   7.690   4.572   0.829
 6875WAT     H122727   7.650   4.586   0.744
 6875WAT     H222728   7.779   4.544   0.809
 6876WAT      O22729   9.286   4.617   1.663
 6876WAT     H122730   9.298   4.593   1.571
 6876WAT     H222731   9.290   4.534   1.710
 6877WAT      O22732   8.672   4.987   1.520
 6877WAT     H122733   8.723   4.978   1.600
 6877WAT     H222734   8.588   5.022   1.549
 6878WAT      O22735   8.870   5.016   0.463
 6878WAT     H122736   8.854   4.987   0.553
 6878WAT     H222737   8.853   4.938   0.409
 6879WAT      O22738   8.117   4.994   0.640
 6879WAT     H122739   8.100   4.902   0.619
 6879WAT     H222740   8.032   5.029   0.664
 6880WAT      O22741   8.840   4.767   0.319
 6880WAT     H122742   8.770   4.766   0.253
 6880WAT     H222743   8.914   4.724   0.276
 6881WAT      O22744   8.796   4.929   0.726
 6881WAT     H122745   8.842   4.851   0.758
 6881WAT     H222746   8.830   5.000   0.781
 6882WAT      O22747   9.271   3.822   1.759
 6882WAT     H122748   9.210   3.873   1.707
 6882WAT     H222749   9.239   3.732   1.754
 6883WAT      O22750   7.571   4.506   1.442
 6883WAT     H122751   7.588   4.459   1.360
 6883WAT     H222752   7.618   4.456   1.509
 6884WAT      O22753   8.049   3.419   0.946
 6884WAT     H122754   8.004   3.497   0.913
 6884WAT     H222755   8.104   3.452   1.016
 6885WAT      O22756   8.477   3.706   1.506
 6885WAT     H122757   8.431   3.727   1.587
 6885WAT     H222758   8.437   3.625   1.476
 6886WAT      O22759   8.977   3.828   1.619
 6886WAT     H122760   8.892   3.798   1.651
 6886WAT     H222761   8.961   3.853   1.528
 6887WAT      O22762   8.687   3.978   1.829
 6887WAT     H122763   8.719   3.895   1.795
 6887WAT     H222764   8.766   4.030   1.844
 6888WAT      O22765   8.360   3.381   0.434
 6888WAT     H122766   8.298   3.381   0.506
 6888WAT     H222767   8.351   3.295   0.394
 6889WAT      O22768   8.252   3.474   1.132
 6889WAT     H122769   8.282   3.564   1.124
 6889WAT     H222770   8.307   3.425   1.070
 6890WAT      O22771   8.028   3.932   0.719
 6890WAT     H122772   8.005   3.910   0.809
 6890WAT     H222773   7.950   3.975   0.684
 6891WAT      O22774   8.751   3.932   0.578
 6891WAT     H122775   8.691   4.005   0.560
 6891WAT     H222776   8.805   3.926   0.500
 6892WAT      O22777   8.272   4.022   1.785
 6892WAT     H122778   8.262   3.928   1.770
 6892WAT     H222779   8.356   4.044   1.746
 6893WAT      O22780   8.611   3.796   0.781
 6893WAT     H122781   8.651   3.828   0.700
 6893WAT     H222782   8.647   3.708   0.793
 6894WAT      O22783   7.785   3.663   1.600
 6894WAT     H122784   7.745   3.747   1.621
 6894WAT     H222785   7.716   3.599   1.620
 6895WAT      O22786   8.442   3.671   1.907
 6895WAT     H122787   8.373   3.652   1.971
 6895WAT     H222788   8.517   3.699   1.961
 6896WAT      O22789   7.515   3.455   1.004
 6896WAT     H122790   7.486   3.512   1.075
 6896WAT     H222791   7.589   3.407   1.040
 6897WAT      O22792   8.670   4.055   1.191
 6897WAT     H122793   8.597   4.106   1.226
 6897WAT     H222794   8.630   3.973   1.161
 6898WAT      O22795   8.314   3.723   1.031
 6898WAT     H122796   8.314   3.678   0.947
 6898WAT     H222797   8.403   3.755   1.042
 6899WAT      O22798   7.899   3.711   0.927
 6899WAT     H122799   7.865   3.759   1.003
 6899WAT     H222800   7.822   3.665   0.891
 6900WAT      O22801   8.320   3.823   0.331
 6900WAT     H122802   8.332   3.819   0.425
 6900WAT     H222803   8.281   3.909   0.315
 6901WAT      O22804   8.716   3.600   1.132
 6901WAT     H122805   8.718   3.645   1.217
 6901WAT     H222806   8.691   3.510   1.154
 6902WAT      O22807   8.221   4.054   0.270
 6902WAT     H122808   8.164   4.009   0.208
 6902WAT     H222809   8.292   4.090   0.217
 6903WAT      O22810   7.729   4.444   1.658
 6903WAT     H122811   7.690   4.380   1.718
 6903WAT     H222812   7.760   4.514   1.715
 6904WAT      O22813   8.344   4.129   1.206
 6904WAT     H122814   8.380   4.081   1.281
 6904WAT     H222815   8.325   4.216   1.240
 6905WAT      O22816   7.630   3.603   0.819
 6905WAT     H122817   7.602   3.567   0.903
 6905WAT     H222818   7.624   3.530   0.758
 6906WAT      O22819   8.123   4.033   1.438
 6906WAT     H122820   8.092   4.121   1.460
 6906WAT     H222821   8.218   4.039   1.442
 6907WAT      O22822   7.976   4.453   0.498
 6907WAT     H122823   7.898   4.399   0.482
 6907WAT     H222824   8.048   4.401   0.464
 6908WAT      O22825   9.051   4.353   1.077
 6908WAT     H122826   9.123   4.402   1.038
 6908WAT     H222827   9.031   4.285   1.012
 6909WAT      O22828   8.597   3.492   0.491
 6909WAT     H122829   8.516   3.442   0.484
 6909WAT     H222830   8.578   3.576   0.450
 6910WAT      O22831   8.590   4.360   1.666
 6910WAT     H122832   8.583   4.268   1.640
 6910WAT     H222833   8.527   4.370   1.737
 6911WAT      O22834   8.869   3.930   0.321
 6911WAT     H122835   8.958   3.961   0.303
 6911WAT     H222836   8.866   3.842   0.282
 6912WAT      O22837   7.980   4.420   0.861
 6912WAT     H122838   8.032   4.340   0.856
 6912WAT     H222839   7.935   4.414   0.946
 6913WAT      O22840   8.469   4.547   0.389
 6913WAT     H122841   8.503   4.621   0.339
 6913WAT     H222842   8.386   4.578   0.425
 6914WAT      O22843   7.728   4.117   1.553
 6914WAT     H122844   7.692   4.183   1.611
 6914WAT     H222845   7.699   4.034   1.590
 6915WAT      O22846   8.048   4.163   1.841
 6915WAT     H122847   8.018   4.177   1.751
 6915WAT     H222848   8.126   4.107   1.832
 6916WAT      O22849   8.583   4.642   1.641
 6916WAT     H122850   8.584   4.549   1.619
 6916WAT     H222851   8.512   4.651   1.705
 6917WAT      O22852   9.096   4.061   0.268
 6917WAT     H122853   9.088   4.104   0.183
 6917WAT     H222854   9.168   4.107   0.311
 6918WAT      O22855   9.204   4.306   1.575
 6918WAT     H122856   9.131   4.366   1.556
 6918WAT     H222857   9.257   4.306   1.495
 6919WAT      O22858   9.199   4.746   0.540
 6919WAT     H122859   9.135   4.681   0.568
 6919WAT     H222860   9.160   4.787   0.463
 6920WAT      O22861   8.757   4.479   0.925
 6920WAT     H122862   8.792   4.419   0.859
 6920WAT     H222863   8.668   4.446   0.942
 6921WAT      O22864   8.365   4.555   0.666
 6921WAT     H122865   8.434   4.610   0.704
 6921WAT     H222866   8.287   4.609   0.669
 6922WAT      O22867   7.579   4.117   0.215
 6922WAT     H122868   7.666   4.145   0.243
 6922WAT     H222869   7.530   4.198   0.204
 6923WAT      O22870   8.296   4.255   0.627
 6923WAT     H122871   8.341   4.336   0.650
 6923WAT     H222872   8.261   4.224   0.710
 6924WAT      O22873   8.526   4.806   1.350
 6924WAT     H122874   8.591   4.827   1.418
 6924WAT     H222875   8.562   4.730   1.305
 6925WAT      O22876   7.886   3.290   0.674
 6925WAT     H122877   7.873   3.289   0.769
 6925WAT     H222878   7.804   3.324   0.639
 6926WAT      O22879   8.653   4.607   1.222
 6926WAT     H122880   8.718   4.537   1.233
 6926WAT     H222881   8.706   4.685   1.204
 6927WAT      O22882   8.831   4.687   1.542
 6927WAT     H122883   8.864   4.745   1.610
 6927WAT     H222884   8.739   4.674   1.565
 6928WAT      O22885   7.616   5.038   0.272
 6928WAT     H122886   7.652   5.098   0.206
 6928WAT     H222887   7.602   5.092   0.349
 6929WAT      O22888   7.586   3.466   1.620
 6929WAT     H122889   7.514   3.486   1.681
 6929WAT     H222890   7.628   3.388   1.658
 6930WAT      O22891   8.996   4.427   0.360
 6930WAT     H122892   8.967   4.473   0.439
 6930WAT     H222893   9.076   4.381   0.387
 6931WAT      O22894   7.615   4.864   1.719
 6931WAT     H122895   7.625   4.770   1.705
 6931WAT     H222896   7.549   4.891   1.654
 6932WAT      O22897   8.414   4.692   1.859
 6932WAT     H122898   8.382   4.620   1.914
 6932WAT     H222899   8.346   4.759   1.866
 6933WAT      O22900   8.218   4.776   0.353
 6933WAT     H122901   8.217   4.849   0.292
 6933WAT     H222902   8.126   4.752   0.363
 6934WAT      O22903   7.778   4.298   0.428
 6934WAT     H122904   7.717   4.372   0.429
 6934WAT     H222905   7.825   4.307   0.345
 6935WAT      O22906   8.735   3.715   1.395
 6935WAT     H122907   8.772   3.633   1.428
 6935WAT     H222908   8.649   3.721   1.437
 6936WAT      O22909   9.072   3.610   0.476
 6936WAT     H122910   9.009   3.621   0.405
 6936WAT     H222911   9.022   3.632   0.555
 6937WAT      O22912   8.269   3.838   0.618
 6937WAT     H122913   8.198   3.885   0.662
 6937WAT     H222914   8.297   3.773   0.681
 6938WAT      O22915   8.431   3.980   1.418
 6938WAT     H122916   8.481   4.028   1.484
 6938WAT     H222917   8.445   3.888   1.439
 6939WAT      O22918   8.672   3.511   0.762
 6939WAT     H122919   8.660   3.513   0.667
 6939WAT     H222920   8.767   3.516   0.774
 6940WAT      O22921   8.381   5.034   0.689
 6940WAT     H122922   8.406   5.031   0.597
 6940WAT     H222923   8.286   5.022   0.688
 6941WAT      O22924   8.089   3.669   0.355
 6941WAT     H122925   8.174   3.713   0.349
 6941WAT     H222926   8.052   3.700   0.438
 6942WAT      O22927   9.152   3.602   1.502
 6942WAT     H122928   9.102   3.676   1.536
 6942WAT     H222929   9.233   3.641   1.470
 6943WAT      O22930   8.981   4.126   0.847
 6943WAT     H122931   8.887   4.128   0.864
 6943WAT     H222932   9.013   4.048   0.891
 6944WAT      O22933   7.848   4.038   0.271
 6944WAT     H122934   7.856   3.943   0.282
 6944WAT     H222935   7.938   4.071   0.282
 6945WAT      O22936   9.181   4.843   1.014
 6945WAT     H122937   9.194   4.926   1.061
 6945WAT     H222938   9.268   4.822   0.979
 6946WAT      O22939   7.929   5.053   0.981
 6946WAT     H122940   8.002   4.998   1.009
 6946WAT     H222941   7.967   5.139   0.967
 6947WAT      O22942   7.617   4.659   0.569
 6947WAT     H122943   7.524   4.684   0.568
 6947WAT     H222944   7.664   4.742   0.557
 6948WAT      O22945   7.829   4.971   1.900
 6948WAT     H122946   7.909   5.003   1.942
 6948WAT     H222947   7.778   4.935   1.972
 6949WAT      O22948   8.713   4.582   1.895
 6949WAT     H122949   8.652   4.584   1.821
 6949WAT     H222950   8.682   4.509   1.949
 6950WAT      O22951   8.856   4.955   1.756
 6950WAT     H122952   8.951   4.946   1.751
 6950WAT     H222953   8.841   5.021   1.823
 6951WAT      O22954   9.145   4.893   0.306
 6951WAT     H122955   9.116   4.851   0.225
 6951WAT     H222956   9.125   4.986   0.294
 6952WAT      O22957   7.601   4.220   1.795
 6952WAT     H122958   7.652   4.162   1.852
 6952WAT     H222959   7.527   4.248   1.848
 6953WAT      O22960   8.306   4.361   1.748
 6953WAT     H122961   8.230   4.417   1.740
 6953WAT     H222962   8.325   4.331   1.659
 6954WAT      O22963   8.615   4.398   0.211
 6954WAT     H122964   8.560   4.443   0.275
 6954WAT     H222965   8.678   4.348   0.263
 6955WAT      O22966   9.021   4.534   1.804
 6955WAT     H122967   9.095   4.567   1.753
 6955WAT     H222968   8.944   4.551   1.748
 6956WAT      O22969   7.804   4.034   1.884
 6956WAT     H122970   7.808   4.004   1.975
 6956WAT     H222971   7.890   4.074   1.868
 6957WAT      O22972   8.182   4.294   0.400
 6957WAT     H122973   8.224   4.278   0.484
 6957WAT     H222974   8.195   4.213   0.351
 6958WAT      O22975   7.998   3.892   1.681
 6958WAT     H122976   7.945   3.843   1.618
 6958WAT     H222977   8.065   3.935   1.627
 6959WAT      O22978   8.888   4.339   1.657
 6959WAT     H122979   8.930   4.354   1.742
 6959WAT     H222980   8.795   4.351   1.674
 6960WAT      O22981   8.935   4.073   1.858
 6960WAT     H122982   8.994   3.997   1.849
 6960WAT     H222983   8.953   4.126   1.780
 6961WAT      O22984   8.047   3.589   1.689
 6961WAT     H122985   8.038   3.527   1.616
 6961WAT     H222986   7.989   3.661   1.666
 6962WAT      O22987   8.324   3.444   1.392
 6962WAT     H122988   8.279   3.447   1.308
 6962WAT     H222989   8.260   3.405   1.452
 6963WAT      O22990   8.364   4.334   1.454
 6963WAT     H122991   8.406   4.418   1.437
 6963WAT     H222992   8.272   4.348   1.431
 6964WAT      O22993   8.598   4.107   1.593
 6964WAT     H122994   8.610   4.048   1.667
 6964WAT     H222995   8.684   4.111   1.551
 6965WAT      O22996   8.832   4.163   1.450
 6965WAT     H122997   8.779   4.215   1.390
 6965WAT     H222998   8.866   4.226   1.513
 6966WAT      O22999   8.149   4.965   1.566
 6966WAT     H123000   8.096   5.037   1.534
 6966WAT     H223001   8.175   4.917   1.487
 6967WAT      O23002   8.275   3.761   1.718
 6967WAT     H123003   8.334   3.731   1.787
 6967WAT     H223004   8.193   3.714   1.734
 6968WAT      O23005   8.757   3.723   1.742
 6968WAT     H123006   8.688   3.657   1.735
 6968WAT     H223007   8.829   3.678   1.786
 6969WAT      O23008   8.820   3.383   0.348
 6969WAT     H123009   8.848   3.298   0.383
 6969WAT     H223010   8.742   3.406   0.399
 6970WAT      O23011   8.435   5.088   1.592
 6970WAT     H123012   8.428   5.178   1.622
 6970WAT     H223013   8.345   5.056   1.589
 6971WAT      O23014   8.490   5.005   0.354
 6971WAT     H123015   8.579   5.038   0.356
 6971WAT     H223016   8.493   4.932   0.291
 6972WAT      O23017   7.854   4.542   0.177
 6972WAT     H123018   7.898   4.596   0.242
 6972WAT     H223019   7.902   4.459   0.178
 6973WAT      O23020   7.575   4.821   0.922
 6973WAT     H123021   7.608   4.734   0.899
 6973WAT     H223022   7.618   4.841   1.005
 6974WAT      O23023   8.035   4.654   0.688
 6974WAT     H123024   8.005   4.642   0.778
 6974WAT     H223025   8.024   4.568   0.647
 6975WAT      O23026   7.624   4.907   1.196
 6975WAT     H123027   7.581   4.925   1.279
 6975WAT     H223028   7.681   4.983   1.182
 6976WAT      O23029   9.188   4.858   1.625
 6976WAT     H123030   9.128   4.864   1.550
 6976WAT     H223031   9.201   4.764   1.638
 6977WAT      O23032   9.257   4.306   0.409
 6977WAT     H123033   9.334   4.363   0.419
 6977WAT     H223034   9.259   4.250   0.486
 6978WAT      O23035   7.607   4.159   0.832
 6978WAT     H123036   7.542   4.132   0.767
 6978WAT     H223037   7.691   4.148   0.787
 6979WAT      O23038   9.358   4.392   0.893
 6979WAT     H123039   9.395   4.313   0.852
 6979WAT     H223040   9.422   4.461   0.875
 6980WAT      O23041   9.056   4.530   1.434
 6980WAT     H123042   8.975   4.573   1.461
 6980WAT     H223043   9.097   4.591   1.373
 6981WAT      O23044   8.902   3.638   0.254
 6981WAT     H123045   8.944   3.619   0.170
 6981WAT     H223046   8.872   3.553   0.285
 6982WAT      O23047   9.252   4.129   0.624
 6982WAT     H123048   9.215   4.053   0.580
 6982WAT     H223049   9.179   4.168   0.672
 6983WAT      O23050   7.711   4.197   1.286
 6983WAT     H123051   7.748   4.188   1.374
 6983WAT     H223052   7.654   4.121   1.276
 6984WAT      O23053   9.191   4.044   1.587
 6984WAT     H123054   9.168   4.021   1.497
 6984WAT     H223055   9.217   4.136   1.583
 6985WAT      O23056   7.666   3.888   1.676
 6985WAT     H123057   7.577   3.885   1.710
 6985WAT     H223058   7.720   3.908   1.753
 6986WAT      O23059   7.529   3.880   0.426
 6986WAT     H123060   7.438   3.906   0.409
 6986WAT     H223061   7.577   3.907   0.348
 6987WAT      O23062   9.180   3.952   0.954
 6987WAT     H123063   9.232   3.903   0.891
 6987WAT     H223064   9.238   3.965   1.028
 6988WAT      O23065   9.198   3.960   1.306
 6988WAT     H123066   9.103   3.957   1.317
 6988WAT     H223067   9.216   4.051   1.282
 6989WAT      O23068   9.129   3.878   0.548
 6989WAT     H123069   9.178   3.854   0.626
 6989WAT     H223070   9.109   3.794   0.506
 6990WAT      O23071   7.717   3.316   1.111
 6990WAT     H123072   7.782   3.261   1.067
 6990WAT     H223073   7.759   3.341   1.193
 6991WAT      O23074   9.272   3.741   0.801
 6991WAT     H123075   9.261   3.726   0.895
 6991WAT     H223076   9.348   3.688   0.777
 6992WAT      O23077   9.368   3.601   0.388
 6992WAT     H123078   9.288   3.595   0.441
 6992WAT     H223079   9.388   3.695   0.387
 6993WAT      O23080   9.062   5.005   0.787
 6993WAT     H123081   9.122   4.973   0.719
 6993WAT     H223082   9.088   4.958   0.866
 6994WAT      O23083   7.692   3.331   1.385
 6994WAT     H123084   7.657   3.377   1.462
 6994WAT     H223085   7.659   3.242   1.394
 6995WAT      O23086   7.853   4.649   1.802
 6995WAT     H123087   7.848   4.611   1.890
 6995WAT     H223088   7.866   4.742   1.816
 6996WAT      O23089   8.223   4.804   1.362
 6996WAT     H123090   8.199   4.831   1.273
 6996WAT     H223091   8.317   4.821   1.368
 6997WAT      O23092   8.443   3.450   1.738
 6997WAT     H123093   8.437   3.510   1.813
 6997WAT     H223094   8.537   3.440   1.723
 6998WAT      O23095   8.707   3.416   1.702
 6998WAT     H123096   8.768   3.448   1.635
 6998WAT     H223097   8.762   3.368   1.764
 6999WAT      O23098   9.349   5.006   1.442
 6999WAT     H123099   9.299   5.046   1.370
 6999WAT     H223100   9.288   4.944   1.482
 7000WAT      O23101   7.759   3.284   1.713
 7000WAT     H123102   7.814   3.266   1.637
 7000WAT     H223103   7.766   3.205   1.767
 7001WAT      O23104   7.837   4.943   1.514
 7001WAT     H123105   7.777   4.930   1.588
 7001WAT     H223106   7.836   4.860   1.467
 7002WAT      O23107   8.781   3.272   1.334
 7002WAT     H123108   8.694   3.306   1.314
 7002WAT     H223109   8.770   3.225   1.417
 7003WAT      O23110   8.872   3.493   1.473
 7003WAT     H123111   8.839   3.412   1.435
 7003WAT     H223112   8.967   3.489   1.460
 7004WAT      O23113   9.117   5.070   1.170
 7004WAT     H123114   9.071   5.145   1.133
 7004WAT     H223115   9.054   4.998   1.164
 7005WAT      O23116   7.800   4.680   1.409
 7005WAT     H123117   7.727   4.618   1.402
 7005WAT     H223118   7.806   4.719   1.322
 7006WAT      O23119   8.160   4.901   1.088
 7006WAT     H123120   8.212   4.840   1.035
 7006WAT     H223121   8.225   4.951   1.137
 7007WAT      O23122   8.434   4.990   1.170
 7007WAT     H123123   8.463   4.965   1.083
 7007WAT     H223124   8.485   4.935   1.229
 7008WAT      O23125   8.556   3.364   1.228
 7008WAT     H123126   8.478   3.412   1.256
 7008WAT     H223127   8.527   3.274   1.217
 7009WAT      O23128   9.011   3.434   1.033
 7009WAT     H123129   9.055   3.429   0.948
 7009WAT     H223130   8.984   3.526   1.040
 7010WAT      O23131   9.198   3.398   0.834
 7010WAT     H123132   9.191   3.303   0.819
 7010WAT     H223133   9.275   3.408   0.888
 7011WAT      O23134   7.628   5.011   0.730
 7011WAT     H123135   7.611   4.948   0.800
 7011WAT     H223136   7.541   5.032   0.695
 7012WAT      O23137   7.690   3.395   0.480
 7012WAT     H123138   7.766   3.406   0.423
 7012WAT     H223139   7.644   3.478   0.476
 7013WAT      O23140   8.344   3.606   0.779
 7013WAT     H123141   8.263   3.569   0.745
 7013WAT     H223142   8.395   3.530   0.810
 7014WAT      O23143   8.795   3.272   0.903
 7014WAT     H123144   8.855   3.330   0.951
 7014WAT     H223145   8.721   3.329   0.881
 7015WAT      O23146   9.109   3.313   0.431
 7015WAT     H123147   9.129   3.403   0.457
 7015WAT     H223148   9.030   3.290   0.480
 7016WAT      O23149   7.789   4.881   0.474
 7016WAT     H123150   7.736   4.919   0.404
 7016WAT     H223151   7.781   4.943   0.547
 7017WAT      O23152   7.928   3.447   0.334
 7017WAT     H123153   7.980   3.369   0.321
 7017WAT     H223154   7.991   3.515   0.358
 7018WAT      O23155   8.147   3.421   0.640
 7018WAT     H123156   8.084   3.351   0.656
 7018WAT     H223157   8.093   3.497   0.618
 7019WAT      O23158   8.441   5.082   1.907
 7019WAT     H123159   8.534   5.059   1.911
 7019WAT     H223160   8.439   5.165   1.859
 7020WAT      O23161   9.264   5.037   0.607
 7020WAT     H123162   9.282   4.968   0.542
 7020WAT     H223163   9.195   5.089   0.567
 7021WAT      O23164   8.159   3.349   1.883
 7021WAT     H123165   8.131   3.399   1.807
 7021WAT     H223166   8.198   3.269   1.847
 7022WAT      O23167   8.049   5.076   0.362
 7022WAT     H123168   8.122   5.047   0.307
 7022WAT     H223169   8.075   5.052   0.451
 7023WAT      O23170   7.965   4.687   0.362
 7023WAT     H123171   7.902   4.734   0.417
 7023WAT     H223172   7.976   4.603   0.406
 7024WAT      O23173   9.098   5.005   1.889
 7024WAT     H123174   9.177   4.956   1.869
 7024WAT     H223175   9.127   5.073   1.950
 7025WAT      O23176   8.710   2.215   6.487
 7025WAT     H123177   8.702   2.123   6.460
 7025WAT     H223178   8.669   2.265   6.417
 7026WAT      O23179   8.523   2.393   6.675
 7026WAT     H123180   8.446   2.345   6.704
 7026WAT     H223181   8.589   2.325   6.658
 7027WAT      O23182   7.925   2.424   6.763
 7027WAT     H123183   7.842   2.398   6.803
 7027WAT     H223184   7.986   2.431   6.837
 7028WAT      O23185   8.925   2.833   6.553
 7028WAT     H123186   8.879   2.756   6.586
 7028WAT     H223187   9.007   2.836   6.604
 7029WAT      O23188   7.923   2.827   6.783
 7029WAT     H123189   7.953   2.738   6.765
 7029WAT     H223190   7.998   2.883   6.760
 7030WAT      O23191   7.766   1.920   6.141
 7030WAT     H123192   7.677   1.954   6.131
 7030WAT     H223193   7.794   1.900   6.052
 7031WAT      O23194   7.562   2.180   6.730
 7031WAT     H123195   7.619   2.103   6.730
 7031WAT     H223196   7.562   2.210   6.639
 7032WAT      O23197   8.548   3.062   6.515
 7032WAT     H123198   8.486   3.107   6.458
 7032WAT     H223199   8.634   3.077   6.475
 7033WAT      O23200   8.468   2.660   6.676
 7033WAT     H123201   8.461   2.566   6.660
 7033WAT     H223202   8.544   2.669   6.733
 7034WAT      O23203   7.687   1.721   6.909
 7034WAT     H123204   7.669   1.631   6.937
 7034WAT     H223205   7.646   1.776   6.976
 7035WAT      O23206   8.571   1.941   6.699
 7035WAT     H123207   8.608   1.854   6.687
 7035WAT     H223208   8.561   1.975   6.610
 7036WAT      O23209   7.984   1.778   6.245
 7036WAT     H123210   7.994   1.868   6.276
 7036WAT     H223211   7.893   1.773   6.216
 7037WAT      O23212   8.949   1.690   6.392
 7037WAT     H123213   9.031   1.641   6.396
 7037WAT     H223214   8.952   1.749   6.467
 7038WAT      O23215   7.748   1.970   6.769
 7038WAT     H123216   7.817   1.997   6.831
 7038WAT     H223217   7.717   1.886   6.803
 7039WAT      O23218   8.168   2.075   6.678
 7039WAT     H123219   8.218   2.125   6.742
 7039WAT     H223220   8.221   1.997   6.661
 7040WAT      O23221   9.378   1.892   7.048
 7040WAT     H123222   9.307   1.931   6.997
 7040WAT     H223223   9.404   1.962   7.109
 7041WAT      O23224   7.996   1.539   7.105
 7041WAT     H123225   7.996   1.591   7.024
 7041WAT     H223226   7.913   1.491   7.102
 7042WAT      O23227   8.635   2.550   6.255
 7042WAT     H123228   8.573   2.597   6.198
 7042WAT     H223229   8.686   2.620   6.296
 7043WAT      O23230   8.121   2.503   6.922
 7043WAT     H123231   8.088   2.566   6.987
 7043WAT     H223232   8.139   2.556   6.845
 7044WAT      O23233   8.972   1.884   6.669
 7044WAT     H123234   8.902   1.913   6.727
 7044WAT     H223235   9.009   1.965   6.633
 7045WAT      O23236   7.964   1.710   6.905
 7045WAT     H123237   7.998   1.795   6.876
 7045WAT     H223238   7.870   1.725   6.917
 7046WAT      O23239   8.042   2.700   7.104
 7046WAT     H123240   8.104   2.767   7.076
 7046WAT     H223241   7.956   2.741   7.095
 7047WAT      O23242   7.572   2.619   5.992
 7047WAT     H123243   7.534   2.668   5.919
 7047WAT     H223244   7.597   2.686   6.055
 7048WAT      O23245   9.134   2.846   6.896
 7048WAT     H123246   9.066   2.913   6.895
 7048WAT     H223247   9.188   2.866   6.819
 7049WAT      O23248   9.279   1.829   6.708
 7049WAT     H123249   9.185   1.832   6.721
 7049WAT     H223250   9.312   1.910   6.747
 7050WAT      O23251   8.332   1.459   6.538
 7050WAT     H123252   8.363   1.403   6.466
 7050WAT     H223253   8.239   1.472   6.520
 7051WAT      O23254   8.888   3.031   6.767
 7051WAT     H123255   8.889   2.990   6.680
 7051WAT     H223256   8.832   3.108   6.757
 7052WAT      O23257   9.017   2.703   6.276
 7052WAT     H123258   9.006   2.609   6.288
 7052WAT     H223259   9.017   2.739   6.365
 7053WAT      O23260   8.827   2.521   6.900
 7053WAT     H123261   8.869   2.500   6.816
 7053WAT     H223262   8.900   2.547   6.957
 7054WAT      O23263   8.571   2.265   6.212
 7054WAT     H123264   8.479   2.259   6.234
 7054WAT     H223265   8.587   2.359   6.200
 7055WAT      O23266   8.570   1.893   5.911
 7055WAT     H123267   8.476   1.909   5.920
 7055WAT     H223268   8.602   1.965   5.857
 7056WAT      O23269   9.222   2.361   6.909
 7056WAT     H123270   9.139   2.368   6.861
 7056WAT     H223271   9.282   2.419   6.862
 7057WAT      O23272   8.974   2.422   6.262
 7057WAT     H123273   8.912   2.388   6.197
 7057WAT     H223274   8.973   2.357   6.333
 7058WAT      O23275   8.919   2.040   7.004
 7058WAT     H123276   8.877   2.122   7.029
 7058WAT     H223277   8.845   1.981   6.984
 7059WAT      O23278   8.132   2.318   6.490
 7059WAT     H123279   8.091   2.247   6.440
 7059WAT     H223280   8.140   2.284   6.579
 7060WAT      O23281   8.179   2.687   6.706
 7060WAT     H123282   8.149   2.626   6.638
 7060WAT     H223283   8.274   2.691   6.695
 7061WAT      O23284   8.003   1.996   6.868
 7061WAT     H123285   8.058   2.007   6.790
 7061WAT     H223286   8.055   2.033   6.939
 7062WAT      O23287   8.988   3.044   7.072
 7062WAT     H123288   8.940   3.125   7.053
 7062WAT     H223289   8.919   2.979   7.088
 7063WAT      O23290   8.088   2.661   7.371
 7063WAT     H123291   7.998   2.683   7.396
 7063WAT     H223292   8.090   2.673   7.276
 7064WAT      O23293   8.792   2.346   5.963
 7064WAT     H123294   8.836   2.262   5.948
 7064WAT     H223295   8.863   2.409   5.971
 7065WAT      O23296   7.971   2.348   7.229
 7065WAT     H123297   7.957   2.435   7.266
 7065WAT     H223298   7.882   2.313   7.214
 7066WAT      O23299   8.603   2.840   6.359
 7066WAT     H123300   8.647   2.914   6.318
 7066WAT     H223301   8.597   2.864   6.452
 7067WAT      O23302   8.150   2.942   7.450
 7067WAT     H123303   8.148   2.982   7.363
 7067WAT     H223304   8.134   2.849   7.433
 7068WAT      O23305   9.150   1.471   5.794
 7068WAT     H123306   9.119   1.480   5.884
 7068WAT     H223307   9.226   1.529   5.789
 7069WAT      O23308   7.802   2.208   6.240
 7069WAT     H123309   7.790   2.280   6.179
 7069WAT     H223310   7.771   2.131   6.192
 7070WAT      O23311   7.566   2.525   6.820
 7070WAT     H123312   7.574   2.538   6.726
 7070WAT     H223313   7.627   2.454   6.840
 7071WAT      O23314   7.690   2.695   6.462
 7071WAT     H123315   7.650   2.709   6.376
 7071WAT     H223316   7.779   2.666   6.441
 7072WAT      O23317   9.286   2.739   7.295
 7072WAT     H123318   9.298   2.715   7.203
 7072WAT     H223319   9.290   2.656   7.342
 7073WAT      O23320   8.672   3.110   7.152
 7073WAT     H123321   8.723   3.101   7.232
 7073WAT     H223322   8.588   3.144   7.181
 7074WAT      O23323   8.870   3.138   6.095
 7074WAT     H123324   8.854   3.109   6.185
 7074WAT     H223325   8.853   3.061   6.041
 7075WAT      O23326   8.117   3.116   6.273
 7075WAT     H123327   8.100   3.025   6.251
 7075WAT     H223328   8.032   3.152   6.297
 7076WAT      O23329   8.840   2.889   5.951
 7076WAT     H123330   8.770   2.889   5.885
 7076WAT     H223331   8.914   2.847   5.908
 7077WAT      O23332   8.796   3.052   6.358
 7077WAT     H123333   8.842   2.974   6.390
 7077WAT     H223334   8.830   3.123   6.413
 7078WAT      O23335   9.271   1.945   7.392
 7078WAT     H123336   9.210   1.995   7.339
 7078WAT     H223337   9.239   1.855   7.386
 7079WAT      O23338   7.571   2.629   7.074
 7079WAT     H123339   7.588   2.582   6.993
 7079WAT     H223340   7.618   2.578   7.141
 7080WAT      O23341   8.049   1.542   6.578
 7080WAT     H123342   8.004   1.620   6.545
 7080WAT     H223343   8.104   1.574   6.649
 7081WAT      O23344   8.477   1.829   7.138
 7081WAT     H123345   8.431   1.849   7.220
 7081WAT     H223346   8.437   1.747   7.108
 7082WAT      O23347   8.977   1.951   7.251
 7082WAT     H123348   8.892   1.921   7.283
 7082WAT     H223349   8.961   1.975   7.160
 7083WAT      O23350   8.687   2.101   7.461
 7083WAT     H123351   8.719   2.017   7.427
 7083WAT     H223352   8.766   2.153   7.476
 7084WAT      O23353   8.360   1.504   6.066
 7084WAT     H123354   8.298   1.504   6.139
 7084WAT     H223355   8.351   1.417   6.026
 7085WAT      O23356   8.252   1.596   6.764
 7085WAT     H123357   8.282   1.687   6.756
 7085WAT     H223358   8.307   1.548   6.702
 7086WAT      O23359   8.028   2.054   6.351
 7086WAT     H123360   8.005   2.033   6.441
 7086WAT     H223361   7.950   2.098   6.316
 7087WAT      O23362   8.751   2.055   6.211
 7087WAT     H123363   8.691   2.127   6.192
 7087WAT     H223364   8.805   2.049   6.132
 7088WAT      O23365   8.272   2.144   7.417
 7088WAT     H123366   8.262   2.050   7.402
 7088WAT     H223367   8.356   2.166   7.378
 7089WAT      O23368   8.611   1.919   6.414
 7089WAT     H123369   8.651   1.950   6.332
 7089WAT     H223370   8.647   1.831   6.425
 7090WAT      O23371   7.785   1.785   7.233
 7090WAT     H123372   7.745   1.870   7.253
 7090WAT     H223373   7.716   1.722   7.252
 7091WAT      O23374   7.515   1.578   6.636
 7091WAT     H123375   7.486   1.635   6.707
 7091WAT     H223376   7.589   1.530   6.672
 7092WAT      O23377   7.534   1.972   5.757
 7092WAT     H123378   7.525   2.066   5.771
 7092WAT     H223379   7.498   1.957   5.669
 7093WAT      O23380   8.670   2.178   6.823
 7093WAT     H123381   8.597   2.228   6.858
 7093WAT     H223382   8.630   2.096   6.793
 7094WAT      O23383   8.314   1.845   6.664
 7094WAT     H123384   8.314   1.801   6.579
 7094WAT     H223385   8.403   1.877   6.675
 7095WAT      O23386   7.899   1.833   6.560
 7095WAT     H123387   7.865   1.881   6.635
 7095WAT     H223388   7.822   1.788   6.524
 7096WAT      O23389   8.320   1.945   5.963
 7096WAT     H123390   8.332   1.941   6.058
 7096WAT     H223391   8.281   2.031   5.947
 7097WAT      O23392   8.716   1.723   6.764
 7097WAT     H123393   8.718   1.768   6.849
 7097WAT     H223394   8.691   1.633   6.786
 7098WAT      O23395   8.221   2.176   5.903
 7098WAT     H123396   8.164   2.131   5.840
 7098WAT     H223397   8.292   2.212   5.849
 7099WAT      O23398   9.059   1.464   7.348
 7099WAT     H123399   9.091   1.391   7.401
 7099WAT     H223400   9.062   1.432   7.258
 7100WAT      O23401   7.729   2.566   7.290
 7100WAT     H123402   7.690   2.502   7.350
 7100WAT     H223403   7.760   2.637   7.347
 7101WAT      O23404   8.344   2.251   6.838
 7101WAT     H123405   8.380   2.204   6.913
 7101WAT     H223406   8.325   2.339   6.873
 7102WAT      O23407   7.630   1.726   6.451
 7102WAT     H123408   7.602   1.689   6.535
 7102WAT     H223409   7.624   1.652   6.390
 7103WAT      O23410   8.123   2.155   7.070
 7103WAT     H123411   8.092   2.243   7.093
 7103WAT     H223412   8.218   2.161   7.074
 7104WAT      O23413   7.976   2.576   6.130
 7104WAT     H123414   7.898   2.522   6.114
 7104WAT     H223415   8.048   2.524   6.096
 7105WAT      O23416   9.051   2.476   6.709
 7105WAT     H123417   9.123   2.525   6.670
 7105WAT     H223418   9.031   2.408   6.645
 7106WAT      O23419   8.597   1.615   6.124
 7106WAT     H123420   8.516   1.565   6.116
 7106WAT     H223421   8.578   1.699   6.082
 7107WAT      O23422   8.590   2.483   7.298
 7107WAT     H123423   8.583   2.391   7.272
 7107WAT     H223424   8.527   2.492   7.369
 7108WAT      O23425   8.869   2.052   5.953
 7108WAT     H123426   8.958   2.083   5.936
 7108WAT     H223427   8.866   1.965   5.914
 7109WAT      O23428   7.980   2.543   6.494
 7109WAT     H123429   8.032   2.462   6.488
 7109WAT     H223430   7.935   2.536   6.578
 7110WAT      O23431   8.469   2.669   6.021
 7110WAT     H123432   8.503   2.744   5.971
 7110WAT     H223433   8.386   2.701   6.057
 7111WAT      O23434   7.728   2.239   7.185
 7111WAT     H123435   7.692   2.306   7.244
 7111WAT     H223436   7.699   2.156   7.222
 7112WAT      O23437   8.048   2.285   7.473
 7112WAT     H123438   8.018   2.300   7.384
 7112WAT     H223439   8.126   2.229   7.464
 7113WAT      O23440   8.583   2.765   7.273
 7113WAT     H123441   8.584   2.672   7.251
 7113WAT     H223442   8.512   2.773   7.337
 7114WAT      O23443   9.096   2.183   5.900
 7114WAT     H123444   9.088   2.226   5.815
 7114WAT     H223445   9.168   2.229   5.943
 7115WAT      O23446   9.204   2.429   7.208
 7115WAT     H123447   9.131   2.488   7.188
 7115WAT     H223448   9.257   2.428   7.128
 7116WAT      O23449   9.199   2.869   6.173
 7116WAT     H123450   9.135   2.803   6.200
 7116WAT     H223451   9.160   2.909   6.095
 7117WAT      O23452   8.757   2.601   6.557
 7117WAT     H123453   8.792   2.542   6.491
 7117WAT     H223454   8.668   2.569   6.575
 7118WAT      O23455   8.365   2.677   6.298
 7118WAT     H123456   8.434   2.732   6.336
 7118WAT     H223457   8.287   2.732   6.302
 7119WAT      O23458   7.579   2.239   5.847
 7119WAT     H123459   7.666   2.267   5.876
 7119WAT     H223460   7.530   2.321   5.836
 7120WAT      O23461   8.296   2.378   6.259
 7120WAT     H123462   8.341   2.459   6.282
 7120WAT     H223463   8.261   2.346   6.343
 7121WAT      O23464   8.526   2.929   6.982
 7121WAT     H123465   8.591   2.950   7.050
 7121WAT     H223466   8.562   2.853   6.937
 7122WAT      O23467   7.886   1.412   6.307
 7122WAT     H123468   7.873   1.411   6.402
 7122WAT     H223469   7.804   1.446   6.272
 7123WAT      O23470   8.653   2.729   6.854
 7123WAT     H123471   8.718   2.659   6.865
 7123WAT     H223472   8.706   2.807   6.836
 7124WAT      O23473   9.038   2.758   5.827
 7124WAT     H123474   9.015   2.686   5.886
 7124WAT     H223475   8.999   2.733   5.743
 7125WAT      O23476   8.831   2.809   7.174
 7125WAT     H123477   8.864   2.868   7.242
 7125WAT     H223478   8.739   2.796   7.197
 7126WAT      O23479   7.616   3.160   5.904
 7126WAT     H123480   7.652   3.220   5.839
 7126WAT     H223481   7.602   3.215   5.981
 7127WAT      O23482   7.586   1.588   7.253
 7127WAT     H123483   7.514   1.608   7.313
 7127WAT     H223484   7.628   1.511   7.290
 7128WAT      O23485   8.996   2.550   5.993
 7128WAT     H123486   8.967   2.596   6.071
 7128WAT     H223487   9.076   2.503   6.019
 7129WAT      O23488   7.615   2.987   7.351
 7129WAT     H123489   7.625   2.893   7.337
 7129WAT     H223490   7.549   3.014   7.287
 7130WAT      O23491   8.218   2.899   5.986
 7130WAT     H123492   8.217   2.972   5.924
 7130WAT     H223493   8.126   2.874   5.995
 7131WAT      O23494   7.778   2.421   6.060
 7131WAT     H123495   7.717   2.495   6.061
 7131WAT     H223496   7.825   2.430   5.978
 7132WAT      O23497   8.735   1.837   7.028
 7132WAT     H123498   8.772   1.755   7.061
 7132WAT     H223499   8.649   1.843   7.069
 7133WAT      O23500   9.072   1.733   6.109
 7133WAT     H123501   9.009   1.743   6.037
 7133WAT     H223502   9.022   1.755   6.188
 7134WAT      O23503   8.516   2.905   5.852
 7134WAT     H123504   8.527   2.885   5.759
 7134WAT     H223505   8.426   2.880   5.872
 7135WAT      O23506   8.269   1.961   6.250
 7135WAT     H123507   8.198   2.008   6.294
 7135WAT     H223508   8.297   1.895   6.314
 7136WAT      O23509   8.431   2.103   7.050
 7136WAT     H123510   8.481   2.150   7.117
 7136WAT     H223511   8.445   2.010   7.071
 7137WAT      O23512   8.672   1.633   6.394
 7137WAT     H123513   8.660   1.635   6.299
 7137WAT     H223514   8.767   1.638   6.406
 7138WAT      O23515   8.381   3.157   6.321
 7138WAT     H123516   8.406   3.153   6.229
 7138WAT     H223517   8.286   3.144   6.321
 7139WAT      O23518   8.089   1.792   5.988
 7139WAT     H123519   8.174   1.835   5.981
 7139WAT     H223520   8.052   1.823   6.070
 7140WAT      O23521   9.152   1.724   7.134
 7140WAT     H123522   9.102   1.799   7.168
 7140WAT     H223523   9.233   1.763   7.103
 7141WAT      O23524   8.981   2.249   6.479
 7141WAT     H123525   8.887   2.250   6.496
 7141WAT     H223526   9.013   2.170   6.524
 7142WAT      O23527   7.979   2.417   5.835
 7142WAT     H123528   8.056   2.406   5.891
 7142WAT     H223529   7.987   2.347   5.770
 7143WAT      O23530   7.848   2.160   5.903
 7143WAT     H123531   7.856   2.066   5.915
 7143WAT     H223532   7.938   2.193   5.914
 7144WAT      O23533   9.181   2.966   6.647
 7144WAT     H123534   9.194   3.048   6.694
 7144WAT     H223535   9.268   2.945   6.612
 7145WAT      O23536   7.929   3.175   6.614
 7145WAT     H123537   8.002   3.120   6.641
 7145WAT     H223538   7.967   3.262   6.600
 7146WAT      O23539   7.617   2.782   6.201
 7146WAT     H123540   7.524   2.806   6.200
 7146WAT     H223541   7.664   2.865   6.189
 7147WAT      O23542   8.240   3.093   5.796
 7147WAT     H123543   8.319   3.121   5.751
 7147WAT     H223544   8.188   3.049   5.728
 7148WAT      O23545   8.856   3.077   7.388
 7148WAT     H123546   8.951   3.069   7.383
 7148WAT     H223547   8.841   3.144   7.456
 7149WAT      O23548   9.145   3.015   5.938
 7149WAT     H123549   9.116   2.974   5.857
 7149WAT     H223550   9.125   3.108   5.926
 7150WAT      O23551   7.601   2.342   7.427
 7150WAT     H123552   7.652   2.284   7.484
 7150WAT     H223553   7.527   2.371   7.481
 7151WAT      O23554   8.291   2.615   5.782
 7151WAT     H123555   8.281   2.553   5.855
 7151WAT     H223556   8.275   2.562   5.704
 7152WAT      O23557   8.306   2.483   7.380
 7152WAT     H123558   8.230   2.540   7.372
 7152WAT     H223559   8.325   2.454   7.291
 7153WAT      O23560   8.615   2.521   5.843
 7153WAT     H123561   8.560   2.565   5.907
 7153WAT     H223562   8.678   2.470   5.895
 7154WAT      O23563   9.021   2.656   7.436
 7154WAT     H123564   9.095   2.690   7.386
 7154WAT     H223565   8.944   2.673   7.381
 7155WAT      O23566   8.182   2.417   6.032
 7155WAT     H123567   8.224   2.400   6.117
 7155WAT     H223568   8.195   2.336   5.983
 7156WAT      O23569   7.998   2.015   7.313
 7156WAT     H123570   7.945   1.966   7.250
 7156WAT     H223571   8.065   2.057   7.260
 7157WAT      O23572   8.433   2.319   5.757
 7157WAT     H123573   8.485   2.248   5.721
 7157WAT     H223574   8.498   2.383   5.787
 7158WAT      O23575   8.888   2.461   7.290
 7158WAT     H123576   8.930   2.477   7.375
 7158WAT     H223577   8.795   2.474   7.306
 7159WAT      O23578   8.935   2.195   7.490
 7159WAT     H123579   8.994   2.120   7.481
 7159WAT     H223580   8.953   2.248   7.412
 7160WAT      O23581   8.047   1.711   7.321
 7160WAT     H123582   8.038   1.649   7.249
 7160WAT     H223583   7.989   1.784   7.298
 7161WAT      O23584   8.324   1.567   7.024
 7161WAT     H123585   8.279   1.569   6.940
 7161WAT     H223586   8.260   1.527   7.084
 7162WAT      O23587   8.364   2.457   7.087
 7162WAT     H123588   8.406   2.541   7.069
 7162WAT     H223589   8.272   2.470   7.064
 7163WAT      O23590   8.598   2.230   7.225
 7163WAT     H123591   8.610   2.170   7.299
 7163WAT     H223592   8.684   2.233   7.183
 7164WAT      O23593   8.832   2.285   7.083
 7164WAT     H123594   8.779   2.337   7.022
 7164WAT     H223595   8.866   2.348   7.146
 7165WAT      O23596   8.072   2.024   5.727
 7165WAT     H123597   8.052   1.938   5.763
 7165WAT     H223598   8.055   2.015   5.633
 7166WAT      O23599   8.149   3.087   7.198
 7166WAT     H123600   8.096   3.160   7.166
 7166WAT     H223601   8.175   3.039   7.119
 7167WAT      O23602   8.275   1.884   7.351
 7167WAT     H123603   8.334   1.853   7.419
 7167WAT     H223604   8.193   1.837   7.366
 7168WAT      O23605   8.757   1.846   7.374
 7168WAT     H123606   8.688   1.779   7.368
 7168WAT     H223607   8.829   1.801   7.419
 7169WAT      O23608   8.820   1.505   5.980
 7169WAT     H123609   8.848   1.421   6.016
 7169WAT     H223610   8.742   1.528   6.031
 7170WAT      O23611   7.952   1.734   5.726
 7170WAT     H123612   7.982   1.735   5.635
 7170WAT     H223613   8.025   1.699   5.776
 7171WAT      O23614   8.435   3.211   7.224
 7171WAT     H123615   8.428   3.301   7.255
 7171WAT     H223616   8.345   3.179   7.221
 7172WAT      O23617   8.273   1.628   5.824
 7172WAT     H123618   8.239   1.561   5.766
 7172WAT     H223619   8.294   1.582   5.906
 7173WAT      O23620   8.490   3.127   5.986
 7173WAT     H123621   8.579   3.161   5.988
 7173WAT     H223622   8.493   3.055   5.924
 7174WAT      O23623   7.854   2.664   5.809
 7174WAT     H123624   7.898   2.719   5.875
 7174WAT     H223625   7.902   2.582   5.810
 7175WAT      O23626   7.575   2.943   6.554
 7175WAT     H123627   7.608   2.857   6.531
 7175WAT     H223628   7.618   2.964   6.637
 7176WAT      O23629   8.035   2.776   6.320
 7176WAT     H123630   8.005   2.764   6.410
 7176WAT     H223631   8.024   2.691   6.280
 7177WAT      O23632   7.624   3.030   6.828
 7177WAT     H123633   7.581   3.048   6.911
 7177WAT     H223634   7.681   3.106   6.814
 7178WAT      O23635   9.188   2.980   7.257
 7178WAT     H123636   9.128   2.986   7.183
 7178WAT     H223637   9.201   2.886   7.270
 7179WAT      O23638   9.312   2.754   5.791
 7179WAT     H123639   9.229   2.761   5.838
 7179WAT     H223640   9.330   2.843   5.760
 7180WAT      O23641   9.257   2.429   6.041
 7180WAT     H123642   9.334   2.486   6.052
 7180WAT     H223643   9.259   2.372   6.118
 7181WAT      O23644   7.607   2.281   6.464
 7181WAT     H123645   7.542   2.254   6.400
 7181WAT     H223646   7.691   2.270   6.419
 7182WAT      O23647   9.358   2.514   6.525
 7182WAT     H123648   9.395   2.436   6.485
 7182WAT     H223649   9.422   2.583   6.508
 7183WAT      O23650   9.056   2.653   7.067
 7183WAT     H123651   8.975   2.696   7.093
 7183WAT     H223652   9.097   2.714   7.005
 7184WAT      O23653   9.263   2.458   5.757
 7184WAT     H123654   9.290   2.549   5.744
 7184WAT     H223655   9.244   2.452   5.850
 7185WAT      O23656   8.902   1.761   5.886
 7185WAT     H123657   8.944   1.742   5.802
 7185WAT     H223658   8.872   1.675   5.917
 7186WAT      O23659   9.252   2.252   6.256
 7186WAT     H123660   9.215   2.175   6.213
 7186WAT     H223661   9.179   2.290   6.305
 7187WAT      O23662   7.711   2.320   6.918
 7187WAT     H123663   7.748   2.311   7.006
 7187WAT     H223664   7.654   2.243   6.908
 7188WAT      O23665   9.191   2.167   7.219
 7188WAT     H123666   9.168   2.144   7.129
 7188WAT     H223667   9.217   2.259   7.215
 7189WAT      O23668   7.666   2.011   7.309
 7189WAT     H123669   7.577   2.008   7.343
 7189WAT     H223670   7.720   2.031   7.385
 7190WAT      O23671   7.529   2.002   6.058
 7190WAT     H123672   7.438   2.029   6.041
 7190WAT     H223673   7.577   2.029   5.980
 7191WAT      O23674   9.180   2.074   6.586
 7191WAT     H123675   9.232   2.025   6.523
 7191WAT     H223676   9.238   2.088   6.661
 7192WAT      O23677   9.198   2.083   6.938
 7192WAT     H123678   9.103   2.079   6.950
 7192WAT     H223679   9.216   2.174   6.915
 7193WAT      O23680   7.783   1.908   5.849
 7193WAT     H123681   7.854   1.866   5.801
 7193WAT     H223682   7.712   1.915   5.786
 7194WAT      O23683   7.748   1.513   5.753
 7194WAT     H123684   7.820   1.567   5.785
 7194WAT     H223685   7.775   1.486   5.666
 7195WAT      O23686   9.129   2.000   6.180
 7195WAT     H123687   9.178   1.977   6.258
 7195WAT     H223688   9.109   1.916   6.138
 7196WAT      O23689   7.717   1.438   6.743
 7196WAT     H123690   7.782   1.383   6.699
 7196WAT     H223691   7.759   1.464   6.826
 7197WAT      O23692   9.272   1.864   6.433
 7197WAT     H123693   9.261   1.848   6.527
 7197WAT     H223694   9.348   1.811   6.409
 7198WAT      O23695   9.106   1.458   7.079
 7198WAT     H123696   9.170   1.519   7.116
 7198WAT     H223697   9.121   1.461   6.985
 7199WAT      O23698   9.361   1.647   5.757
 7199WAT     H123699   9.453   1.634   5.737
 7199WAT     H223700   9.358   1.655   5.853
 7200WAT      O23701   9.368   1.724   6.020
 7200WAT     H123702   9.288   1.717   6.073
 7200WAT     H223703   9.388   1.818   6.019
 7201WAT      O23704   9.062   3.128   6.419
 7201WAT     H123705   9.122   3.096   6.352
 7201WAT     H223706   9.088   3.081   6.499
 7202WAT      O23707   7.692   1.454   7.018
 7202WAT     H123708   7.657   1.500   7.094
 7202WAT     H223709   7.659   1.364   7.026
 7203WAT      O23710   8.223   2.927   6.994
 7203WAT     H123711   8.199   2.953   6.906
 7203WAT     H223712   8.317   2.944   7.000
 7204WAT      O23713   8.443   1.573   7.370
 7204WAT     H123714   8.437   1.632   7.445
 7204WAT     H223715   8.537   1.562   7.355
 7205WAT      O23716   8.707   1.539   7.334
 7205WAT     H123717   8.768   1.571   7.268
 7205WAT     H223718   8.762   1.490   7.396
 7206WAT      O23719   9.349   3.129   7.074
 7206WAT     H123720   9.299   3.168   7.003
 7206WAT     H223721   9.288   3.066   7.114
 7207WAT      O23722   7.759   1.407   7.345
 7207WAT     H123723   7.814   1.389   7.269
 7207WAT     H223724   7.766   1.328   7.399
 7208WAT      O23725   7.837   3.066   7.146
 7208WAT     H123726   7.777   3.053   7.220
 7208WAT     H223727   7.836   2.982   7.100
 7209WAT      O23728   8.781   1.395   6.967
 7209WAT     H123729   8.694   1.428   6.946
 7209WAT     H223730   8.770   1.348   7.049
 7210WAT      O23731   8.872   1.616   7.105
 7210WAT     H123732   8.839   1.534   7.067
 7210WAT     H223733   8.967   1.611   7.093
 7211WAT      O23734   9.117   3.193   6.802
 7211WAT     H123735   9.071   3.268   6.765
 7211WAT     H223736   9.054   3.121   6.796
 7212WAT      O23737   7.800   2.802   7.041
 7212WAT     H123738   7.727   2.740   7.035
 7212WAT     H223739   7.806   2.842   6.954
 7213WAT      O23740   8.160   3.024   6.720
 7213WAT     H123741   8.212   2.963   6.667
 7213WAT     H223742   8.225   3.074   6.769
 7214WAT      O23743   8.434   3.113   6.803
 7214WAT     H123744   8.463   3.087   6.715
 7214WAT     H223745   8.485   3.058   6.862
 7215WAT      O23746   8.556   1.487   6.860
 7215WAT     H123747   8.478   1.534   6.888
 7215WAT     H223748   8.527   1.396   6.850
 7216WAT      O23749   9.011   1.557   6.665
 7216WAT     H123750   9.055   1.551   6.580
 7216WAT     H223751   8.984   1.649   6.672
 7217WAT      O23752   9.198   1.520   6.466
 7217WAT     H123753   9.191   1.426   6.451
 7217WAT     H223754   9.275   1.531   6.521
 7218WAT      O23755   7.628   3.134   6.362
 7218WAT     H123756   7.611   3.071   6.432
 7218WAT     H223757   7.541   3.155   6.327
 7219WAT      O23758   7.690   1.517   6.113
 7219WAT     H123759   7.766   1.528   6.055
 7219WAT     H223760   7.644   1.601   6.108
 7220WAT      O23761   8.344   1.729   6.412
 7220WAT     H123762   8.263   1.691   6.378
 7220WAT     H223763   8.395   1.653   6.442
 7221WAT      O23764   8.795   1.395   6.535
 7221WAT     H123765   8.855   1.452   6.583
 7221WAT     H223766   8.721   1.451   6.513
 7222WAT      O23767   9.109   1.435   6.063
 7222WAT     H123768   9.129   1.525   6.090
 7222WAT     H223769   9.030   1.412   6.112
 7223WAT      O23770   7.789   3.003   6.107
 7223WAT     H123771   7.736   3.041   6.036
 7223WAT     H223772   7.781   3.066   6.179
 7224WAT      O23773   7.928   1.570   5.967
 7224WAT     H123774   7.980   1.491   5.954
 7224WAT     H223775   7.991   1.638   5.990
 7225WAT      O23776   8.147   1.544   6.272
 7225WAT     H123777   8.084   1.473   6.289
 7225WAT     H223778   8.093   1.620   6.250
 7226WAT      O23779   9.264   3.159   6.239
 7226WAT     H123780   9.282   3.091   6.175
 7226WAT     H223781   9.195   3.212   6.200
 7227WAT      O23782   8.049   3.198   5.994
 7227WAT     H123783   8.122   3.170   5.940
 7227WAT     H223784   8.075   3.174   6.083
 7228WAT      O23785   7.965   2.810   5.995
 7228WAT     H123786   7.902   2.857   6.050
 7228WAT     H223787   7.976   2.725   6.038
 7229WAT      O23788   8.710   2.215   4.610
 7229WAT     H123789   8.702   2.123   4.583
 7229WAT     H223790   8.669   2.265   4.539
 7230WAT      O23791   8.523   2.393   4.798
 7230WAT     H123792   8.446   2.345   4.827
 7230WAT     H223793   8.589   2.325   4.780
 7231WAT      O23794   7.925   2.424   4.886
 7231WAT     H123795   7.842   2.398   4.926
 7231WAT     H223796   7.986   2.431   4.959
 7232WAT      O23797   8.925   2.833   4.676
 7232WAT     H123798   8.879   2.756   4.709
 7232WAT     H223799   9.007   2.836   4.726
 7233WAT      O23800   7.923   2.827   4.905
 7233WAT     H123801   7.953   2.738   4.887
 7233WAT     H223802   7.998   2.883   4.882
 7234WAT      O23803   7.766   1.920   4.264
 7234WAT     H123804   7.677   1.954   4.254
 7234WAT     H223805   7.794   1.900   4.175
 7235WAT      O23806   7.562   2.180   4.852
 7235WAT     H123807   7.619   2.103   4.852
 7235WAT     H223808   7.562   2.210   4.762
 7236WAT      O23809   8.548   3.062   4.638
 7236WAT     H123810   8.486   3.107   4.581
 7236WAT     H223811   8.634   3.077   4.598
 7237WAT      O23812   8.468   2.660   4.799
 7237WAT     H123813   8.461   2.566   4.782
 7237WAT     H223814   8.544   2.669   4.856
 7238WAT      O23815   7.687   1.721   5.031
 7238WAT     H123816   7.669   1.631   5.059
 7238WAT     H223817   7.646   1.776   5.099
 7239WAT      O23818   8.571   1.941   4.821
 7239WAT     H123819   8.608   1.854   4.810
 7239WAT     H223820   8.561   1.975   4.732
 7240WAT      O23821   7.984   1.778   4.367
 7240WAT     H123822   7.994   1.868   4.398
 7240WAT     H223823   7.893   1.773   4.338
 7241WAT      O23824   8.949   1.690   4.515
 7241WAT     H123825   9.031   1.641   4.519
 7241WAT     H223826   8.952   1.749   4.590
 7242WAT      O23827   7.748   1.970   4.892
 7242WAT     H123828   7.817   1.997   4.954
 7242WAT     H223829   7.717   1.886   4.925
 7243WAT      O23830   8.168   2.075   4.801
 7243WAT     H123831   8.218   2.125   4.865
 7243WAT     H223832   8.221   1.997   4.783
 7244WAT      O23833   9.378   1.892   5.171
 7244WAT     H123834   9.307   1.931   5.119
 7244WAT     H223835   9.404   1.962   5.231
 7245WAT      O23836   7.996   1.539   5.227
 7245WAT     H123837   7.996   1.591   5.147
 7245WAT     H223838   7.913   1.491   5.225
 7246WAT      O23839   8.635   2.550   4.377
 7246WAT     H123840   8.573   2.597   4.321
 7246WAT     H223841   8.686   2.620   4.419
 7247WAT      O23842   8.121   2.503   5.045
 7247WAT     H123843   8.088   2.566   5.109
 7247WAT     H223844   8.139   2.556   4.967
 7248WAT      O23845   8.972   1.884   4.792
 7248WAT     H123846   8.902   1.913   4.850
 7248WAT     H223847   9.009   1.965   4.756
 7249WAT      O23848   7.964   1.710   5.028
 7249WAT     H123849   7.998   1.795   4.999
 7249WAT     H223850   7.870   1.725   5.040
 7250WAT      O23851   8.042   2.700   5.227
 7250WAT     H123852   8.104   2.767   5.198
 7250WAT     H223853   7.956   2.741   5.217
 7251WAT      O23854   9.134   2.846   5.018
 7251WAT     H123855   9.066   2.913   5.017
 7251WAT     H223856   9.188   2.866   4.942
 7252WAT      O23857   9.279   1.829   4.831
 7252WAT     H123858   9.185   1.832   4.844
 7252WAT     H223859   9.312   1.910   4.869
 7253WAT      O23860   8.332   1.459   4.660
 7253WAT     H123861   8.363   1.403   4.589
 7253WAT     H223862   8.239   1.472   4.642
 7254WAT      O23863   8.888   3.031   4.890
 7254WAT     H123864   8.889   2.990   4.803
 7254WAT     H223865   8.832   3.108   4.879
 7255WAT      O23866   9.017   2.703   4.398
 7255WAT     H123867   9.006   2.609   4.411
 7255WAT     H223868   9.017   2.739   4.487
 7256WAT      O23869   8.827   2.521   5.022
 7256WAT     H123870   8.869   2.500   4.939
 7256WAT     H223871   8.900   2.547   5.079
 7257WAT      O23872   8.571   2.265   4.334
 7257WAT     H123873   8.479   2.259   4.357
 7257WAT     H223874   8.587   2.359   4.323
 7258WAT      O23875   8.570   1.893   4.034
 7258WAT     H123876   8.476   1.909   4.042
 7258WAT     H223877   8.602   1.965   3.979
 7259WAT      O23878   9.222   2.361   5.032
 7259WAT     H123879   9.139   2.368   4.984
 7259WAT     H223880   9.282   2.419   4.985
 7260WAT      O23881   8.974   2.422   4.384
 7260WAT     H123882   8.912   2.388   4.320
 7260WAT     H223883   8.973   2.357   4.455
 7261WAT      O23884   8.919   2.040   5.126
 7261WAT     H123885   8.877   2.122   5.151
 7261WAT     H223886   8.845   1.981   5.107
 7262WAT      O23887   8.132   2.318   4.612
 7262WAT     H123888   8.091   2.247   4.563
 7262WAT     H223889   8.140   2.284   4.701
 7263WAT      O23890   8.179   2.687   4.829
 7263WAT     H123891   8.149   2.626   4.761
 7263WAT     H223892   8.274   2.691   4.818
 7264WAT      O23893   8.003   1.996   4.990
 7264WAT     H123894   8.058   2.007   4.913
 7264WAT     H223895   8.055   2.033   5.062
 7265WAT      O23896   8.988   3.044   5.195
 7265WAT     H123897   8.940   3.125   5.176
 7265WAT     H223898   8.919   2.979   5.210
 7266WAT      O23899   8.088   2.661   5.494
 7266WAT     H123900   7.998   2.683   5.518
 7266WAT     H223901   8.090   2.673   5.399
 7267WAT      O23902   8.792   2.346   4.085
 7267WAT     H123903   8.836   2.262   4.071
 7267WAT     H223904   8.863   2.409   4.094
 7268WAT      O23905   7.971   2.348   5.351
 7268WAT     H123906   7.957   2.435   5.388
 7268WAT     H223907   7.882   2.313   5.337
 7269WAT      O23908   8.603   2.840   4.482
 7269WAT     H123909   8.647   2.914   4.441
 7269WAT     H223910   8.597   2.864   4.574
 7270WAT      O23911   8.150   2.942   5.572
 7270WAT     H123912   8.148   2.982   5.485
 7270WAT     H223913   8.134   2.849   5.556
 7271WAT      O23914   9.150   1.471   3.917
 7271WAT     H123915   9.119   1.480   4.007
 7271WAT     H223916   9.226   1.529   3.912
 7272WAT      O23917   9.346   3.020   5.702
 7272WAT     H123918   9.393   3.068   5.770
 7272WAT     H223919   9.408   3.013   5.629
 7273WAT      O23920   7.566   2.525   4.943
 7273WAT     H123921   7.574   2.538   4.849
 7273WAT     H223922   7.627   2.454   4.962
 7274WAT      O23923   7.690   2.695   4.584
 7274WAT     H123924   7.650   2.709   4.499
 7274WAT     H223925   7.779   2.666   4.564
 7275WAT      O23926   9.286   2.739   5.418
 7275WAT     H123927   9.298   2.715   5.326
 7275WAT     H223928   9.290   2.656   5.465
 7276WAT      O23929   8.672   3.110   5.275
 7276WAT     H123930   8.723   3.101   5.355
 7276WAT     H223931   8.588   3.144   5.304
 7277WAT      O23932   8.870   3.138   4.218
 7277WAT     H123933   8.854   3.109   4.307
 7277WAT     H223934   8.853   3.061   4.164
 7278WAT      O23935   8.117   3.116   4.395
 7278WAT     H123936   8.100   3.025   4.374
 7278WAT     H223937   8.032   3.152   4.419
 7279WAT      O23938   8.840   2.889   4.074
 7279WAT     H123939   8.770   2.889   4.008
 7279WAT     H223940   8.914   2.847   4.031
 7280WAT      O23941   8.796   3.052   4.481
 7280WAT     H123942   8.842   2.974   4.512
 7280WAT     H223943   8.830   3.123   4.535
 7281WAT      O23944   9.271   1.945   5.514
 7281WAT     H123945   9.210   1.995   5.461
 7281WAT     H223946   9.239   1.855   5.509
 7282WAT      O23947   7.571   2.629   5.197
 7282WAT     H123948   7.588   2.582   5.115
 7282WAT     H223949   7.618   2.578   5.263
 7283WAT      O23950   8.049   1.542   4.701
 7283WAT     H123951   8.004   1.620   4.667
 7283WAT     H223952   8.104   1.574   4.771
 7284WAT      O23953   8.477   1.829   5.261
 7284WAT     H123954   8.431   1.849   5.342
 7284WAT     H223955   8.437   1.747   5.231
 7285WAT      O23956   8.977   1.951   5.374
 7285WAT     H123957   8.892   1.921   5.406
 7285WAT     H223958   8.961   1.975   5.283
 7286WAT      O23959   8.687   2.101   5.584
 7286WAT     H123960   8.719   2.017   5.550
 7286WAT     H223961   8.766   2.153   5.599
 7287WAT      O23962   8.360   1.504   4.189
 7287WAT     H123963   8.298   1.504   4.261
 7287WAT     H223964   8.351   1.417   4.149
 7288WAT      O23965   8.252   1.596   4.886
 7288WAT     H123966   8.282   1.687   4.878
 7288WAT     H223967   8.307   1.548   4.825
 7289WAT      O23968   8.028   2.054   4.473
 7289WAT     H123969   8.005   2.033   4.564
 7289WAT     H223970   7.950   2.098   4.439
 7290WAT      O23971   8.751   2.055   4.333
 7290WAT     H123972   8.691   2.127   4.315
 7290WAT     H223973   8.805   2.049   4.255
 7291WAT      O23974   8.272   2.144   5.540
 7291WAT     H123975   8.262   2.050   5.525
 7291WAT     H223976   8.356   2.166   5.500
 7292WAT      O23977   8.611   1.919   4.536
 7292WAT     H123978   8.651   1.950   4.455
 7292WAT     H223979   8.647   1.831   4.548
 7293WAT      O23980   7.785   1.785   5.355
 7293WAT     H123981   7.745   1.870   5.376
 7293WAT     H223982   7.716   1.722   5.374
 7294WAT      O23983   8.442   1.794   5.662
 7294WAT     H123984   8.373   1.774   5.726
 7294WAT     H223985   8.517   1.822   5.716
 7295WAT      O23986   7.515   1.578   4.759
 7295WAT     H123987   7.486   1.635   4.830
 7295WAT     H223988   7.589   1.530   4.795
 7296WAT      O23989   8.670   2.178   4.946
 7296WAT     H123990   8.597   2.228   4.981
 7296WAT     H223991   8.630   2.096   4.916
 7297WAT      O23992   8.314   1.845   4.786
 7297WAT     H123993   8.314   1.801   4.701
 7297WAT     H223994   8.403   1.877   4.797
 7298WAT      O23995   7.899   1.833   4.682
 7298WAT     H123996   7.865   1.881   4.758
 7298WAT     H223997   7.822   1.788   4.646
 7299WAT      O23998   8.320   1.945   4.085
 7299WAT     H123999   8.332   1.941   4.180
 7299WAT     H224000   8.281   2.031   4.070
 7300WAT      O24001   8.716   1.723   4.887
 7300WAT     H124002   8.718   1.768   4.971
 7300WAT     H224003   8.691   1.633   4.908
 7301WAT      O24004   9.059   1.464   5.471
 7301WAT     H124005   9.091   1.391   5.524
 7301WAT     H224006   9.062   1.432   5.381
 7302WAT      O24007   7.729   2.566   5.413
 7302WAT     H124008   7.690   2.502   5.473
 7302WAT     H224009   7.760   2.637   5.470
 7303WAT      O24010   8.344   2.251   4.961
 7303WAT     H124011   8.380   2.204   5.036
 7303WAT     H224012   8.325   2.339   4.995
 7304WAT      O24013   7.630   1.726   4.574
 7304WAT     H124014   7.602   1.689   4.658
 7304WAT     H224015   7.624   1.652   4.513
 7305WAT      O24016   8.123   2.155   5.193
 7305WAT     H124017   8.092   2.243   5.215
 7305WAT     H224018   8.218   2.161   5.196
 7306WAT      O24019   9.051   2.476   4.832
 7306WAT     H124020   9.123   2.525   4.793
 7306WAT     H224021   9.031   2.408   4.767
 7307WAT      O24022   8.597   1.615   4.246
 7307WAT     H124023   8.516   1.565   4.239
 7307WAT     H224024   8.578   1.699   4.204
 7308WAT      O24025   8.590   2.483   5.420
 7308WAT     H124026   8.583   2.391   5.395
 7308WAT     H224027   8.527   2.492   5.492
 7309WAT      O24028   8.869   2.052   4.076
 7309WAT     H124029   8.958   2.083   4.058
 7309WAT     H224030   8.866   1.965   4.037
 7310WAT      O24031   7.980   2.543   4.616
 7310WAT     H124032   8.032   2.462   4.611
 7310WAT     H224033   7.935   2.536   4.700
 7311WAT      O24034   7.728   2.239   5.308
 7311WAT     H124035   7.692   2.306   5.366
 7311WAT     H224036   7.699   2.156   5.345
 7312WAT      O24037   8.048   2.285   5.596
 7312WAT     H124038   8.018   2.300   5.506
 7312WAT     H224039   8.126   2.229   5.587
 7313WAT      O24040   8.583   2.765   5.396
 7313WAT     H124041   8.584   2.672   5.374
 7313WAT     H224042   8.512   2.773   5.459
 7314WAT      O24043   9.096   2.183   4.022
 7314WAT     H124044   9.088   2.226   3.937
 7314WAT     H224045   9.168   2.229   4.066
 7315WAT      O24046   9.204   2.429   5.330
 7315WAT     H124047   9.131   2.488   5.310
 7315WAT     H224048   9.257   2.428   5.250
 7316WAT      O24049   9.199   2.869   4.295
 7316WAT     H124050   9.135   2.803   4.323
 7316WAT     H224051   9.160   2.909   4.218
 7317WAT      O24052   8.757   2.601   4.680
 7317WAT     H124053   8.792   2.542   4.614
 7317WAT     H224054   8.668   2.569   4.697
 7318WAT      O24055   8.526   2.929   5.105
 7318WAT     H124056   8.591   2.950   5.173
 7318WAT     H224057   8.562   2.853   5.060
 7319WAT      O24058   7.886   1.412   4.429
 7319WAT     H124059   7.873   1.411   4.524
 7319WAT     H224060   7.804   1.446   4.394
 7320WAT      O24061   8.653   2.729   4.977
 7320WAT     H124062   8.718   2.659   4.988
 7320WAT     H224063   8.706   2.807   4.959
 7321WAT      O24064   9.038   2.758   3.949
 7321WAT     H124065   9.015   2.686   4.008
 7321WAT     H224066   8.999   2.733   3.865
 7322WAT      O24067   8.831   2.809   5.297
 7322WAT     H124068   8.864   2.868   5.365
 7322WAT     H224069   8.739   2.796   5.320
 7323WAT      O24070   7.586   1.588   5.375
 7323WAT     H124071   7.514   1.608   5.436
 7323WAT     H224072   7.628   1.511   5.412
 7324WAT      O24073   8.996   2.550   4.115
 7324WAT     H124074   8.967   2.596   4.194
 7324WAT     H224075   9.076   2.503   4.142
 7325WAT      O24076   7.615   2.987   5.474
 7325WAT     H124077   7.625   2.893   5.460
 7325WAT     H224078   7.549   3.014   5.409
 7326WAT      O24079   8.414   2.814   5.614
 7326WAT     H124080   8.382   2.742   5.668
 7326WAT     H224081   8.346   2.882   5.621
 7327WAT      O24082   8.735   1.837   5.150
 7327WAT     H124083   8.772   1.755   5.183
 7327WAT     H224084   8.649   1.843   5.192
 7328WAT      O24085   9.072   1.733   4.231
 7328WAT     H124086   9.009   1.743   4.160
 7328WAT     H224087   9.022   1.755   4.310
 7329WAT      O24088   8.269   1.961   4.373
 7329WAT     H124089   8.198   2.008   4.417
 7329WAT     H224090   8.297   1.895   4.436
 7330WAT      O24091   8.431   2.103   5.173
 7330WAT     H124092   8.481   2.150   5.239
 7330WAT     H224093   8.445   2.010   5.193
 7331WAT      O24094   8.672   1.633   4.517
 7331WAT     H124095   8.660   1.635   4.422
 7331WAT     H224096   8.767   1.638   4.529
 7332WAT      O24097   8.381   3.157   4.444
 7332WAT     H124098   8.406   3.153   4.352
 7332WAT     H224099   8.286   3.144   4.443
 7333WAT      O24100   8.089   1.792   4.110
 7333WAT     H124101   8.174   1.835   4.104
 7333WAT     H224102   8.052   1.823   4.193
 7334WAT      O24103   9.152   1.724   5.257
 7334WAT     H124104   9.102   1.799   5.291
 7334WAT     H224105   9.233   1.763   5.225
 7335WAT      O24106   8.981   2.249   4.602
 7335WAT     H124107   8.887   2.250   4.619
 7335WAT     H224108   9.013   2.170   4.646
 7336WAT      O24109   9.181   2.966   4.769
 7336WAT     H124110   9.194   3.048   4.816
 7336WAT     H224111   9.268   2.945   4.734
 7337WAT      O24112   7.929   3.175   4.736
 7337WAT     H124113   8.002   3.120   4.763
 7337WAT     H224114   7.967   3.262   4.722
 7338WAT      O24115   7.829   3.094   5.655
 7338WAT     H124116   7.909   3.126   5.696
 7338WAT     H224117   7.778   3.058   5.727
 7339WAT      O24118   8.713   2.704   5.650
 7339WAT     H124119   8.652   2.707   5.576
 7339WAT     H224120   8.682   2.631   5.704
 7340WAT      O24121   8.856   3.077   5.511
 7340WAT     H124122   8.951   3.069   5.506
 7340WAT     H224123   8.841   3.144   5.578
 7341WAT      O24124   9.145   3.015   4.061
 7341WAT     H124125   9.116   2.974   3.979
 7341WAT     H224126   9.125   3.108   4.049
 7342WAT      O24127   7.601   2.342   5.550
 7342WAT     H124128   7.652   2.284   5.607
 7342WAT     H224129   7.527   2.371   5.603
 7343WAT      O24130   8.306   2.483   5.503
 7343WAT     H124131   8.230   2.540   5.494
 7343WAT     H224132   8.325   2.454   5.414
 7344WAT      O24133   8.615   2.521   3.965
 7344WAT     H124134   8.560   2.565   4.030
 7344WAT     H224135   8.678   2.470   4.018
 7345WAT      O24136   9.021   2.656   5.559
 7345WAT     H124137   9.095   2.690   5.508
 7345WAT     H224138   8.944   2.673   5.503
 7346WAT      O24139   7.804   2.157   5.639
 7346WAT     H124140   7.808   2.127   5.730
 7346WAT     H224141   7.890   2.197   5.623
 7347WAT      O24142   7.998   2.015   5.436
 7347WAT     H124143   7.945   1.966   5.373
 7347WAT     H224144   8.065   2.057   5.382
 7348WAT      O24145   8.888   2.461   5.412
 7348WAT     H124146   8.930   2.477   5.497
 7348WAT     H224147   8.795   2.474   5.428
 7349WAT      O24148   8.935   2.195   5.613
 7349WAT     H124149   8.994   2.120   5.604
 7349WAT     H224150   8.953   2.248   5.535
 7350WAT      O24151   8.047   1.711   5.444
 7350WAT     H124152   8.038   1.649   5.371
 7350WAT     H224153   7.989   1.784   5.421
 7351WAT      O24154   8.324   1.567   5.147
 7351WAT     H124155   8.279   1.569   5.062
 7351WAT     H224156   8.260   1.527   5.207
 7352WAT      O24157   8.364   2.457   5.209
 7352WAT     H124158   8.406   2.541   5.192
 7352WAT     H224159   8.272   2.470   5.186
 7353WAT      O24160   8.598   2.230   5.348
 7353WAT     H124161   8.610   2.170   5.421
 7353WAT     H224162   8.684   2.233   5.306
 7354WAT      O24163   8.832   2.285   5.205
 7354WAT     H124164   8.779   2.337   5.145
 7354WAT     H224165   8.866   2.348   5.268
 7355WAT      O24166   8.149   3.087   5.321
 7355WAT     H124167   8.096   3.160   5.289
 7355WAT     H224168   8.175   3.039   5.242
 7356WAT      O24169   8.275   1.884   5.473
 7356WAT     H124170   8.334   1.853   5.542
 7356WAT     H224171   8.193   1.837   5.489
 7357WAT      O24172   8.757   1.846   5.497
 7357WAT     H124173   8.688   1.779   5.490
 7357WAT     H224174   8.829   1.801   5.541
 7358WAT      O24175   8.820   1.505   4.102
 7358WAT     H124176   8.848   1.421   4.138
 7358WAT     H224177   8.742   1.528   4.154
 7359WAT      O24178   8.435   3.211   5.347
 7359WAT     H124179   8.428   3.301   5.377
 7359WAT     H224180   8.345   3.179   5.344
 7360WAT      O24181   8.273   1.628   3.947
 7360WAT     H124182   8.239   1.561   3.889
 7360WAT     H224183   8.294   1.582   4.028
 7361WAT      O24184   8.490   3.127   4.109
 7361WAT     H124185   8.579   3.161   4.111
 7361WAT     H224186   8.493   3.055   4.046
 7362WAT      O24187   7.575   2.943   4.677
 7362WAT     H124188   7.608   2.857   4.654
 7362WAT     H224189   7.618   2.964   4.760
 7363WAT      O24190   8.035   2.776   4.443
 7363WAT     H124191   8.005   2.764   4.533
 7363WAT     H224192   8.024   2.691   4.402
 7364WAT      O24193   7.624   3.030   4.951
 7364WAT     H124194   7.581   3.048   5.034
 7364WAT     H224195   7.681   3.106   4.937
 7365WAT      O24196   9.188   2.980   5.379
 7365WAT     H124197   9.128   2.986   5.305
 7365WAT     H224198   9.201   2.886   5.392
 7366WAT      O24199   9.312   2.754   3.913
 7366WAT     H124200   9.229   2.761   3.960
 7366WAT     H224201   9.330   2.843   3.883
 7367WAT      O24202   9.257   2.429   4.164
 7367WAT     H124203   9.334   2.486   4.174
 7367WAT     H224204   9.259   2.372   4.241
 7368WAT      O24205   7.607   2.281   4.587
 7368WAT     H124206   7.542   2.254   4.522
 7368WAT     H224207   7.691   2.270   4.542
 7369WAT      O24208   9.358   2.514   4.648
 7369WAT     H124209   9.395   2.436   4.607
 7369WAT     H224210   9.422   2.583   4.630
 7370WAT      O24211   9.056   2.653   5.189
 7370WAT     H124212   8.975   2.696   5.216
 7370WAT     H224213   9.097   2.714   5.128
 7371WAT      O24214   9.263   2.458   3.879
 7371WAT     H124215   9.290   2.549   3.866
 7371WAT     H224216   9.244   2.452   3.973
 7372WAT      O24217   8.902   1.761   4.009
 7372WAT     H124218   8.944   1.742   3.925
 7372WAT     H224219   8.872   1.675   4.040
 7373WAT      O24220   9.252   2.252   4.379
 7373WAT     H124221   9.215   2.175   4.335
 7373WAT     H224222   9.179   2.290   4.427
 7374WAT      O24223   7.711   2.320   5.041
 7374WAT     H124224   7.748   2.311   5.129
 7374WAT     H224225   7.654   2.243   5.031
 7375WAT      O24226   9.191   2.167   5.342
 7375WAT     H124227   9.168   2.144   5.252
 7375WAT     H224228   9.217   2.259   5.337
 7376WAT      O24229   7.666   2.011   5.431
 7376WAT     H124230   7.577   2.008   5.465
 7376WAT     H224231   7.720   2.031   5.508
 7377WAT      O24232   9.035   1.689   5.620
 7377WAT     H124233   9.123   1.690   5.658
 7377WAT     H224234   9.036   1.615   5.559
 7378WAT      O24235   7.529   2.002   4.181
 7378WAT     H124236   7.438   2.029   4.163
 7378WAT     H224237   7.577   2.029   4.103
 7379WAT      O24238   9.180   2.074   4.709
 7379WAT     H124239   9.232   2.025   4.646
 7379WAT     H224240   9.238   2.088   4.783
 7380WAT      O24241   9.198   2.083   5.061
 7380WAT     H124242   9.103   2.079   5.072
 7380WAT     H224243   9.216   2.174   5.037
 7381WAT      O24244   7.748   1.513   3.876
 7381WAT     H124245   7.820   1.567   3.908
 7381WAT     H224246   7.775   1.486   3.788
 7382WAT      O24247   9.129   2.000   4.303
 7382WAT     H124248   9.178   1.977   4.381
 7382WAT     H224249   9.109   1.916   4.261
 7383WAT      O24250   7.717   1.438   4.866
 7383WAT     H124251   7.782   1.383   4.822
 7383WAT     H224252   7.759   1.464   4.948
 7384WAT      O24253   9.272   1.864   4.556
 7384WAT     H124254   9.261   1.848   4.650
 7384WAT     H224255   9.348   1.811   4.532
 7385WAT      O24256   9.106   1.458   5.202
 7385WAT     H124257   9.170   1.519   5.238
 7385WAT     H224258   9.121   1.461   5.107
 7386WAT      O24259   9.361   1.647   3.880
 7386WAT     H124260   9.453   1.634   3.859
 7386WAT     H224261   9.358   1.655   3.975
 7387WAT      O24262   9.368   1.724   4.143
 7387WAT     H124263   9.288   1.717   4.195
 7387WAT     H224264   9.388   1.818   4.141
 7388WAT      O24265   9.062   3.128   4.542
 7388WAT     H124266   9.122   3.096   4.474
 7388WAT     H224267   9.088   3.081   4.621
 7389WAT      O24268   7.692   1.454   5.140
 7389WAT     H124269   7.657   1.500   5.217
 7389WAT     H224270   7.659   1.364   5.149
 7390WAT      O24271   7.853   2.771   5.557
 7390WAT     H124272   7.848   2.734   5.645
 7390WAT     H224273   7.866   2.865   5.571
 7391WAT      O24274   8.223   2.927   5.117
 7391WAT     H124275   8.199   2.953   5.028
 7391WAT     H224276   8.317   2.944   5.122
 7392WAT      O24277   8.443   1.573   5.493
 7392WAT     H124278   8.437   1.632   5.567
 7392WAT     H224279   8.537   1.562   5.478
 7393WAT      O24280   8.707   1.539   5.456
 7393WAT     H124281   8.768   1.571   5.390
 7393WAT     H224282   8.762   1.490   5.518
 7394WAT      O24283   9.349   3.129   5.197
 7394WAT     H124284   9.299   3.168   5.125
 7394WAT     H224285   9.288   3.066   5.236
 7395WAT      O24286   7.759   1.407   5.468
 7395WAT     H124287   7.814   1.389   5.391
 7395WAT     H224288   7.766   1.328   5.521
 7396WAT      O24289   7.837   3.066   5.269
 7396WAT     H124290   7.777   3.053   5.343
 7396WAT     H224291   7.836   2.982   5.222
 7397WAT      O24292   8.781   1.395   5.089
 7397WAT     H124293   8.694   1.428   5.069
 7397WAT     H224294   8.770   1.348   5.172
 7398WAT      O24295   8.872   1.616   5.228
 7398WAT     H124296   8.839   1.534   5.190
 7398WAT     H224297   8.967   1.611   5.215
 7399WAT      O24298   9.117   3.193   4.925
 7399WAT     H124299   9.071   3.268   4.887
 7399WAT     H224300   9.054   3.121   4.919
 7400WAT      O24301   7.800   2.802   5.164
 7400WAT     H124302   7.727   2.740   5.157
 7400WAT     H224303   7.806   2.842   5.077
 7401WAT      O24304   8.160   3.024   4.842
 7401WAT     H124305   8.212   2.963   4.790
 7401WAT     H224306   8.225   3.074   4.892
 7402WAT      O24307   8.434   3.113   4.925
 7402WAT     H124308   8.463   3.087   4.837
 7402WAT     H224309   8.485   3.058   4.984
 7403WAT      O24310   8.556   1.487   4.983
 7403WAT     H124311   8.478   1.534   5.011
 7403WAT     H224312   8.527   1.396   4.972
 7404WAT      O24313   9.011   1.557   4.788
 7404WAT     H124314   9.055   1.551   4.703
 7404WAT     H224315   8.984   1.649   4.795
 7405WAT      O24316   9.198   1.520   4.589
 7405WAT     H124317   9.191   1.426   4.574
 7405WAT     H224318   9.275   1.531   4.643
 7406WAT      O24319   7.628   3.134   4.485
 7406WAT     H124320   7.611   3.071   4.555
 7406WAT     H224321   7.541   3.155   4.450
 7407WAT      O24322   7.690   1.517   4.235
 7407WAT     H124323   7.766   1.528   4.178
 7407WAT     H224324   7.644   1.601   4.231
 7408WAT      O24325   8.344   1.729   4.534
 7408WAT     H124326   8.263   1.691   4.500
 7408WAT     H224327   8.395   1.653   4.564
 7409WAT      O24328   8.795   1.395   4.658
 7409WAT     H124329   8.855   1.452   4.706
 7409WAT     H224330   8.721   1.451   4.636
 7410WAT      O24331   9.109   1.435   4.185
 7410WAT     H124332   9.129   1.525   4.212
 7410WAT     H224333   9.030   1.412   4.235
 7411WAT      O24334   7.928   1.570   4.089
 7411WAT     H124335   7.980   1.491   4.076
 7411WAT     H224336   7.991   1.638   4.113
 7412WAT      O24337   8.147   1.544   4.395
 7412WAT     H124338   8.084   1.473   4.411
 7412WAT     H224339   8.093   1.620   4.373
 7413WAT      O24340   8.441   3.205   5.662
 7413WAT     H124341   8.534   3.181   5.666
 7413WAT     H224342   8.439   3.288   5.614
 7414WAT      O24343   9.264   3.159   4.362
 7414WAT     H124344   9.282   3.091   4.297
 7414WAT     H224345   9.195   3.212   4.322
 7415WAT      O24346   8.159   1.471   5.638
 7415WAT     H124347   8.131   1.522   5.562
 7415WAT     H224348   8.198   1.392   5.602
 7416WAT      O24349   8.049   3.198   4.117
 7416WAT     H124350   8.122   3.170   4.062
 7416WAT     H224351   8.075   3.174   4.206
 7417WAT      O24352   8.820   1.413   5.696
 7417WAT     H124353   8.808   1.445   5.786
 7417WAT     H224354   8.901   1.453   5.666
 7418WAT      O24355   9.098   3.128   5.644
 7418WAT     H124356   9.177   3.078   5.623
 7418WAT     H224357   9.127   3.196   5.705
 7419WAT      O24358   8.571   1.941   2.944
 7419WAT     H124359   8.608   1.854   2.933
 7419WAT     H224360   8.561   1.975   2.855
 7420WAT      O24361   7.984   1.778   2.490
 7420WAT     H124362   7.994   1.868   2.521
 7420WAT     H224363   7.893   1.773   2.461
 7421WAT      O24364   8.949   1.690   2.637
 7421WAT     H124365   9.031   1.641   2.641
 7421WAT     H224366   8.952   1.749   2.712
 7422WAT      O24367   8.168   2.075   2.923
 7422WAT     H124368   8.218   2.125   2.987
 7422WAT     H224369   8.221   1.997   2.906
 7423WAT      O24370   9.378   1.892   3.294
 7423WAT     H124371   9.307   1.931   3.242
 7423WAT     H224372   9.404   1.962   3.354
 7424WAT      O24373   8.972   1.884   2.914
 7424WAT     H124374   8.902   1.913   2.972
 7424WAT     H224375   9.009   1.965   2.878
 7425WAT      O24376   7.964   1.710   3.151
 7425WAT     H124377   7.998   1.795   3.121
 7425WAT     H224378   7.870   1.725   3.162
 7426WAT      O24379   9.279   1.829   2.953
 7426WAT     H124380   9.185   1.832   2.967
 7426WAT     H224381   9.312   1.910   2.992
 7427WAT      O24382   8.332   1.459   2.783
 7427WAT     H124383   8.363   1.403   2.711
 7427WAT     H224384   8.239   1.472   2.765
 7428WAT      O24385   8.827   2.521   3.145
 7428WAT     H124386   8.869   2.500   3.061
 7428WAT     H224387   8.900   2.547   3.202
 7429WAT      O24388   8.570   1.893   2.156
 7429WAT     H124389   8.476   1.909   2.165
 7429WAT     H224390   8.602   1.965   2.102
 7430WAT      O24391   9.222   2.361   3.154
 7430WAT     H124392   9.139   2.368   3.107
 7430WAT     H224393   9.282   2.419   3.107
 7431WAT      O24394   8.919   2.040   3.249
 7431WAT     H124395   8.877   2.122   3.274
 7431WAT     H224396   8.845   1.981   3.229
 7432WAT      O24397   8.988   3.044   3.317
 7432WAT     H124398   8.940   3.125   3.298
 7432WAT     H224399   8.919   2.979   3.333
 7433WAT      O24400   9.150   1.471   2.039
 7433WAT     H124401   9.119   1.480   2.129
 7433WAT     H224402   9.226   1.529   2.034
 7434WAT      O24403   9.346   3.020   3.824
 7434WAT     H124404   9.393   3.068   3.892
 7434WAT     H224405   9.408   3.013   3.752
 7435WAT      O24406   9.286   2.739   3.540
 7435WAT     H124407   9.298   2.715   3.449
 7435WAT     H224408   9.290   2.656   3.588
 7436WAT      O24409   8.672   3.110   3.397
 7436WAT     H124410   8.723   3.101   3.478
 7436WAT     H224411   8.588   3.144   3.427
 7437WAT      O24412   9.271   1.945   3.637
 7437WAT     H124413   9.210   1.995   3.584
 7437WAT     H224414   9.239   1.855   3.631
 7438WAT      O24415   8.049   1.542   2.823
 7438WAT     H124416   8.004   1.620   2.790
 7438WAT     H224417   8.104   1.574   2.894
 7439WAT      O24418   8.477   1.829   3.383
 7439WAT     H124419   8.431   1.849   3.465
 7439WAT     H224420   8.437   1.747   3.353
 7440WAT      O24421   8.977   1.951   3.496
 7440WAT     H124422   8.892   1.921   3.529
 7440WAT     H224423   8.961   1.975   3.405
 7441WAT      O24424   8.687   2.101   3.706
 7441WAT     H124425   8.719   2.017   3.672
 7441WAT     H224426   8.766   2.153   3.721
 7442WAT      O24427   8.360   1.504   2.311
 7442WAT     H124428   8.298   1.504   2.384
 7442WAT     H224429   8.351   1.417   2.272
 7443WAT      O24430   8.252   1.596   3.009
 7443WAT     H124431   8.282   1.687   3.001
 7443WAT     H224432   8.307   1.548   2.948
 7444WAT      O24433   8.751   2.055   2.456
 7444WAT     H124434   8.691   2.127   2.437
 7444WAT     H224435   8.805   2.049   2.378
 7445WAT      O24436   8.611   1.919   2.659
 7445WAT     H124437   8.651   1.950   2.578
 7445WAT     H224438   8.647   1.831   2.670
 7446WAT      O24439   8.442   1.794   3.785
 7446WAT     H124440   8.373   1.774   3.848
 7446WAT     H224441   8.517   1.822   3.838
 7447WAT      O24442   7.515   1.578   2.881
 7447WAT     H124443   7.486   1.635   2.952
 7447WAT     H224444   7.589   1.530   2.917
 7448WAT      O24445   8.670   2.178   3.068
 7448WAT     H124446   8.597   2.228   3.103
 7448WAT     H224447   8.630   2.096   3.038
 7449WAT      O24448   8.314   1.845   2.909
 7449WAT     H124449   8.314   1.801   2.824
 7449WAT     H224450   8.403   1.877   2.920
 7450WAT      O24451   7.899   1.833   2.805
 7450WAT     H124452   7.865   1.881   2.881
 7450WAT     H224453   7.822   1.788   2.769
 7451WAT      O24454   8.716   1.723   3.010
 7451WAT     H124455   8.718   1.768   3.094
 7451WAT     H224456   8.691   1.633   3.031
 7452WAT      O24457   9.059   1.464   3.593
 7452WAT     H124458   9.091   1.391   3.646
 7452WAT     H224459   9.062   1.432   3.503
 7453WAT      O24460   8.344   2.251   3.084
 7453WAT     H124461   8.380   2.204   3.158
 7453WAT     H224462   8.325   2.339   3.118
 7454WAT      O24463   7.630   1.726   2.697
 7454WAT     H124464   7.602   1.689   2.780
 7454WAT     H224465   7.624   1.652   2.635
 7455WAT      O24466   8.597   1.615   2.369
 7455WAT     H124467   8.516   1.565   2.361
 7455WAT     H224468   8.578   1.699   2.327
 7456WAT      O24469   8.590   2.483   3.543
 7456WAT     H124470   8.583   2.391   3.518
 7456WAT     H224471   8.527   2.492   3.614
 7457WAT      O24472   8.869   2.052   2.198
 7457WAT     H124473   8.958   2.083   2.181
 7457WAT     H224474   8.866   1.965   2.159
 7458WAT      O24475   8.583   2.765   3.518
 7458WAT     H124476   8.584   2.672   3.496
 7458WAT     H224477   8.512   2.773   3.582
 7459WAT      O24478   9.096   2.183   2.145
 7459WAT     H124479   9.088   2.226   2.060
 7459WAT     H224480   9.168   2.229   2.188
 7460WAT      O24481   9.204   2.429   3.453
 7460WAT     H124482   9.131   2.488   3.433
 7460WAT     H224483   9.257   2.428   3.373
 7461WAT      O24484   8.296   2.378   2.505
 7461WAT     H124485   8.341   2.459   2.527
 7461WAT     H224486   8.261   2.346   2.588
 7462WAT      O24487   7.886   1.412   2.552
 7462WAT     H124488   7.873   1.411   2.647
 7462WAT     H224489   7.804   1.446   2.517
 7463WAT      O24490   8.831   2.809   3.420
 7463WAT     H124491   8.864   2.868   3.487
 7463WAT     H224492   8.739   2.796   3.443
 7464WAT      O24493   8.735   1.837   3.273
 7464WAT     H124494   8.772   1.755   3.306
 7464WAT     H224495   8.649   1.843   3.314
 7465WAT      O24496   9.072   1.733   2.354
 7465WAT     H124497   9.009   1.743   2.282
 7465WAT     H224498   9.022   1.755   2.433
 7466WAT      O24499   8.269   1.961   2.495
 7466WAT     H124500   8.198   2.008   2.539
 7466WAT     H224501   8.297   1.895   2.559
 7467WAT      O24502   8.431   2.103   3.295
 7467WAT     H124503   8.481   2.150   3.362
 7467WAT     H224504   8.445   2.010   3.316
 7468WAT      O24505   8.672   1.633   2.639
 7468WAT     H124506   8.660   1.635   2.544
 7468WAT     H224507   8.767   1.638   2.651
 7469WAT      O24508   9.152   1.724   3.380
 7469WAT     H124509   9.102   1.799   3.413
 7469WAT     H224510   9.233   1.763   3.348
 7470WAT      O24511   8.981   2.249   2.724
 7470WAT     H124512   8.887   2.250   2.742
 7470WAT     H224513   9.013   2.170   2.769
 7471WAT      O24514   8.713   2.704   3.772
 7471WAT     H124515   8.652   2.707   3.698
 7471WAT     H224516   8.682   2.631   3.826
 7472WAT      O24517   8.856   3.077   3.634
 7472WAT     H124518   8.951   3.069   3.629
 7472WAT     H224519   8.841   3.144   3.701
 7473WAT      O24520   9.021   2.656   3.681
 7473WAT     H124521   9.095   2.690   3.631
 7473WAT     H224522   8.944   2.673   3.626
 7474WAT      O24523   8.433   2.319   2.002
 7474WAT     H124524   8.485   2.248   1.966
 7474WAT     H224525   8.498   2.383   2.032
 7475WAT      O24526   8.888   2.461   3.535
 7475WAT     H124527   8.930   2.477   3.620
 7475WAT     H224528   8.795   2.474   3.551
 7476WAT      O24529   8.935   2.195   3.735
 7476WAT     H124530   8.994   2.120   3.726
 7476WAT     H224531   8.953   2.248   3.657
 7477WAT      O24532   8.047   1.711   3.566
 7477WAT     H124533   8.038   1.649   3.494
 7477WAT     H224534   7.989   1.784   3.544
 7478WAT      O24535   8.324   1.567   3.270
 7478WAT     H124536   8.279   1.569   3.185
 7478WAT     H224537   8.260   1.527   3.329
 7479WAT      O24538   8.364   2.457   3.332
 7479WAT     H124539   8.406   2.541   3.314
 7479WAT     H224540   8.272   2.470   3.309
 7480WAT      O24541   8.598   2.230   3.470
 7480WAT     H124542   8.610   2.170   3.544
 7480WAT     H224543   8.684   2.233   3.428
 7481WAT      O24544   8.832   2.285   3.328
 7481WAT     H124545   8.779   2.337   3.267
 7481WAT     H224546   8.866   2.348   3.391
 7482WAT      O24547   8.149   3.087   3.443
 7482WAT     H124548   8.096   3.160   3.411
 7482WAT     H224549   8.175   3.039   3.364
 7483WAT      O24550   8.275   1.884   3.596
 7483WAT     H124551   8.334   1.853   3.665
 7483WAT     H224552   8.193   1.837   3.611
 7484WAT      O24553   8.757   1.846   3.619
 7484WAT     H124554   8.688   1.779   3.613
 7484WAT     H224555   8.829   1.801   3.664
 7485WAT      O24556   8.820   1.505   2.225
 7485WAT     H124557   8.848   1.421   2.261
 7485WAT     H224558   8.742   1.528   2.276
 7486WAT      O24559   7.952   1.734   1.971
 7486WAT     H124560   7.982   1.735   1.880
 7486WAT     H224561   8.025   1.699   2.021
 7487WAT      O24562   8.435   3.211   3.469
 7487WAT     H124563   8.428   3.301   3.500
 7487WAT     H224564   8.345   3.179   3.466
 7488WAT      O24565   8.273   1.628   2.070
 7488WAT     H124566   8.239   1.561   2.012
 7488WAT     H224567   8.294   1.582   2.151
 7489WAT      O24568   7.854   2.664   2.054
 7489WAT     H124569   7.898   2.719   2.120
 7489WAT     H224570   7.902   2.582   2.055
 7490WAT      O24571   9.188   2.980   3.502
 7490WAT     H124572   9.128   2.986   3.428
 7490WAT     H224573   9.201   2.886   3.515
 7491WAT      O24574   9.257   2.429   2.286
 7491WAT     H124575   9.334   2.486   2.297
 7491WAT     H224576   9.259   2.372   2.363
 7492WAT      O24577   9.056   2.653   3.312
 7492WAT     H124578   8.975   2.696   3.338
 7492WAT     H224579   9.097   2.714   3.251
 7493WAT      O24580   8.902   1.761   2.131
 7493WAT     H124581   8.944   1.742   2.047
 7493WAT     H224582   8.872   1.675   2.162
 7494WAT      O24583   9.252   2.252   2.501
 7494WAT     H124584   9.215   2.175   2.458
 7494WAT     H224585   9.179   2.290   2.550
 7495WAT      O24586   9.191   2.167   3.465
 7495WAT     H124587   9.168   2.144   3.374
 7495WAT     H224588   9.217   2.259   3.460
 7496WAT      O24589   9.035   1.689   3.742
 7496WAT     H124590   9.123   1.690   3.781
 7496WAT     H224591   9.036   1.615   3.681
 7497WAT      O24592   9.180   2.074   2.831
 7497WAT     H124593   9.232   2.025   2.768
 7497WAT     H224594   9.238   2.088   2.906
 7498WAT      O24595   9.198   2.083   3.183
 7498WAT     H124596   9.103   2.079   3.195
 7498WAT     H224597   9.216   2.174   3.160
 7499WAT      O24598   7.748   1.513   1.998
 7499WAT     H124599   7.820   1.567   2.030
 7499WAT     H224600   7.775   1.486   1.911
 7500WAT      O24601   9.129   2.000   2.425
 7500WAT     H124602   9.178   1.977   2.504
 7500WAT     H224603   9.109   1.916   2.383
 7501WAT      O24604   9.272   1.864   2.678
 7501WAT     H124605   9.261   1.848   2.772
 7501WAT     H224606   9.348   1.811   2.654
 7502WAT      O24607   9.106   1.458   3.324
 7502WAT     H124608   9.170   1.519   3.361
 7502WAT     H224609   9.121   1.461   3.230
 7503WAT      O24610   9.361   1.647   2.003
 7503WAT     H124611   9.453   1.634   1.982
 7503WAT     H224612   9.358   1.655   2.098
 7504WAT      O24613   9.368   1.724   2.265
 7504WAT     H124614   9.288   1.717   2.318
 7504WAT     H224615   9.388   1.818   2.264
 7505WAT      O24616   8.443   1.573   3.615
 7505WAT     H124617   8.437   1.632   3.690
 7505WAT     H224618   8.537   1.562   3.601
 7506WAT      O24619   8.707   1.539   3.579
 7506WAT     H124620   8.768   1.571   3.513
 7506WAT     H224621   8.762   1.490   3.641
 7507WAT      O24622   9.349   3.129   3.320
 7507WAT     H124623   9.299   3.168   3.248
 7507WAT     H224624   9.288   3.066   3.359
 7508WAT      O24625   8.781   1.395   3.212
 7508WAT     H124626   8.694   1.428   3.191
 7508WAT     H224627   8.770   1.348   3.294
 7509WAT      O24628   8.872   1.616   3.350
 7509WAT     H124629   8.839   1.534   3.312
 7509WAT     H224630   8.967   1.611   3.338
 7510WAT      O24631   9.117   3.193   3.047
 7510WAT     H124632   9.071   3.268   3.010
 7510WAT     H224633   9.054   3.121   3.042
 7511WAT      O24634   8.556   1.487   3.106
 7511WAT     H124635   8.478   1.534   3.134
 7511WAT     H224636   8.527   1.396   3.095
 7512WAT      O24637   9.011   1.557   2.910
 7512WAT     H124638   9.055   1.551   2.825
 7512WAT     H224639   8.984   1.649   2.917
 7513WAT      O24640   9.198   1.520   2.711
 7513WAT     H124641   9.191   1.426   2.697
 7513WAT     H224642   9.275   1.531   2.766
 7514WAT      O24643   8.344   1.729   2.657
 7514WAT     H124644   8.263   1.691   2.623
 7514WAT     H224645   8.395   1.653   2.687
 7515WAT      O24646   8.795   1.395   2.781
 7515WAT     H124647   8.855   1.452   2.828
 7515WAT     H224648   8.721   1.451   2.758
 7516WAT      O24649   9.109   1.435   2.308
 7516WAT     H124650   9.129   1.525   2.335
 7516WAT     H224651   9.030   1.412   2.357
 7517WAT      O24652   7.928   1.570   2.212
 7517WAT     H124653   7.980   1.491   2.199
 7517WAT     H224654   7.991   1.638   2.235
 7518WAT      O24655   8.147   1.544   2.517
 7518WAT     H124656   8.084   1.473   2.534
 7518WAT     H224657   8.093   1.620   2.496
 7519WAT      O24658   8.441   3.205   3.784
 7519WAT     H124659   8.534   3.181   3.789
 7519WAT     H224660   8.439   3.288   3.736
 7520WAT      O24661   8.159   1.471   3.761
 7520WAT     H124662   8.131   1.522   3.684
 7520WAT     H224663   8.198   1.392   3.724
 7521WAT      O24664   7.965   2.810   2.240
 7521WAT     H124665   7.902   2.857   2.295
 7521WAT     H224666   7.976   2.725   2.283
 7522WAT      O24667   8.820   1.413   3.819
 7522WAT     H124668   8.808   1.445   3.908
 7522WAT     H224669   8.901   1.453   3.789
 7523WAT      O24670   9.098   3.128   3.767
 7523WAT     H124671   9.177   3.078   3.746
 7523WAT     H224672   9.127   3.196   3.827
 7524WAT      O24673   8.710   2.215   0.855
 7524WAT     H124674   8.702   2.123   0.828
 7524WAT     H224675   8.669   2.265   0.784
 7525WAT      O24676   8.523   2.393   1.043
 7525WAT     H124677   8.446   2.345   1.072
 7525WAT     H224678   8.589   2.325   1.026
 7526WAT      O24679   7.925   2.424   1.131
 7526WAT     H124680   7.842   2.398   1.171
 7526WAT     H224681   7.986   2.431   1.204
 7527WAT      O24682   8.925   2.833   0.921
 7527WAT     H124683   8.879   2.756   0.954
 7527WAT     H224684   9.007   2.836   0.972
 7528WAT      O24685   7.923   2.827   1.150
 7528WAT     H124686   7.953   2.738   1.132
 7528WAT     H224687   7.998   2.883   1.128
 7529WAT      O24688   7.766   1.920   0.509
 7529WAT     H124689   7.677   1.954   0.499
 7529WAT     H224690   7.794   1.900   0.420
 7530WAT      O24691   7.562   2.180   1.098
 7530WAT     H124692   7.619   2.103   1.098
 7530WAT     H224693   7.562   2.210   1.007
 7531WAT      O24694   8.548   3.062   0.883
 7531WAT     H124695   8.486   3.107   0.826
 7531WAT     H224696   8.634   3.077   0.843
 7532WAT      O24697   8.468   2.660   1.044
 7532WAT     H124698   8.461   2.566   1.028
 7532WAT     H224699   8.544   2.669   1.101
 7533WAT      O24700   7.687   1.721   1.276
 7533WAT     H124701   7.669   1.631   1.304
 7533WAT     H224702   7.646   1.776   1.344
 7534WAT      O24703   8.571   1.941   1.066
 7534WAT     H124704   8.608   1.854   1.055
 7534WAT     H224705   8.561   1.975   0.977
 7535WAT      O24706   7.984   1.778   0.613
 7535WAT     H124707   7.994   1.868   0.643
 7535WAT     H224708   7.893   1.773   0.584
 7536WAT      O24709   8.949   1.690   0.760
 7536WAT     H124710   9.031   1.641   0.764
 7536WAT     H224711   8.952   1.749   0.835
 7537WAT      O24712   7.748   1.970   1.137
 7537WAT     H124713   7.817   1.997   1.199
 7537WAT     H224714   7.717   1.886   1.170
 7538WAT      O24715   8.168   2.075   1.046
 7538WAT     H124716   8.218   2.125   1.110
 7538WAT     H224717   8.221   1.997   1.028
 7539WAT      O24718   9.378   1.892   1.416
 7539WAT     H124719   9.307   1.931   1.364
 7539WAT     H224720   9.404   1.962   1.476
 7540WAT      O24721   7.996   1.539   1.472
 7540WAT     H124722   7.996   1.591   1.392
 7540WAT     H224723   7.913   1.491   1.470
 7541WAT      O24724   8.635   2.550   0.622
 7541WAT     H124725   8.573   2.597   0.566
 7541WAT     H224726   8.686   2.620   0.664
 7542WAT      O24727   8.121   2.503   1.290
 7542WAT     H124728   8.088   2.566   1.354
 7542WAT     H224729   8.139   2.556   1.212
 7543WAT      O24730   8.972   1.884   1.037
 7543WAT     H124731   8.902   1.913   1.095
 7543WAT     H224732   9.009   1.965   1.001
 7544WAT      O24733   7.964   1.710   1.273
 7544WAT     H124734   7.998   1.795   1.244
 7544WAT     H224735   7.870   1.725   1.285
 7545WAT      O24736   8.042   2.700   1.472
 7545WAT     H124737   8.104   2.767   1.444
 7545WAT     H224738   7.956   2.741   1.463
 7546WAT      O24739   7.572   2.619   0.360
 7546WAT     H124740   7.534   2.668   0.287
 7546WAT     H224741   7.597   2.686   0.423
 7547WAT      O24742   9.134   2.846   1.263
 7547WAT     H124743   9.066   2.913   1.262
 7547WAT     H224744   9.188   2.866   1.187
 7548WAT      O24745   9.279   1.829   1.076
 7548WAT     H124746   9.185   1.832   1.089
 7548WAT     H224747   9.312   1.910   1.115
 7549WAT      O24748   8.332   1.459   0.906
 7549WAT     H124749   8.363   1.403   0.834
 7549WAT     H224750   8.239   1.472   0.887
 7550WAT      O24751   8.888   3.031   1.135
 7550WAT     H124752   8.889   2.990   1.048
 7550WAT     H224753   8.832   3.108   1.124
 7551WAT      O24754   9.017   2.703   0.644
 7551WAT     H124755   9.006   2.609   0.656
 7551WAT     H224756   9.017   2.739   0.732
 7552WAT      O24757   8.827   2.521   1.267
 7552WAT     H124758   8.869   2.500   1.184
 7552WAT     H224759   8.900   2.547   1.325
 7553WAT      O24760   8.571   2.265   0.579
 7553WAT     H124761   8.479   2.259   0.602
 7553WAT     H224762   8.587   2.359   0.568
 7554WAT      O24763   8.570   1.893   0.279
 7554WAT     H124764   8.476   1.909   0.287
 7554WAT     H224765   8.602   1.965   0.224
 7555WAT      O24766   9.222   2.361   1.277
 7555WAT     H124767   9.139   2.368   1.229
 7555WAT     H224768   9.282   2.419   1.230
 7556WAT      O24769   8.974   2.422   0.630
 7556WAT     H124770   8.912   2.388   0.565
 7556WAT     H224771   8.973   2.357   0.700
 7557WAT      O24772   8.919   2.040   1.371
 7557WAT     H124773   8.877   2.122   1.397
 7557WAT     H224774   8.845   1.981   1.352
 7558WAT      O24775   8.132   2.318   0.857
 7558WAT     H124776   8.091   2.247   0.808
 7558WAT     H224777   8.140   2.284   0.946
 7559WAT      O24778   8.179   2.687   1.074
 7559WAT     H124779   8.149   2.626   1.006
 7559WAT     H224780   8.274   2.691   1.063
 7560WAT      O24781   8.003   1.996   1.235
 7560WAT     H124782   8.058   2.007   1.158
 7560WAT     H224783   8.055   2.033   1.307
 7561WAT      O24784   8.088   2.661   1.739
 7561WAT     H124785   7.998   2.683   1.764
 7561WAT     H224786   8.090   2.673   1.644
 7562WAT      O24787   8.792   2.346   0.330
 7562WAT     H124788   8.836   2.262   0.316
 7562WAT     H224789   8.863   2.409   0.339
 7563WAT      O24790   7.971   2.348   1.596
 7563WAT     H124791   7.957   2.435   1.633
 7563WAT     H224792   7.882   2.313   1.582
 7564WAT      O24793   8.603   2.840   0.727
 7564WAT     H124794   8.647   2.914   0.686
 7564WAT     H224795   8.597   2.864   0.819
 7565WAT      O24796   8.150   2.942   1.817
 7565WAT     H124797   8.148   2.982   1.731
 7565WAT     H224798   8.134   2.849   1.801
 7566WAT      O24799   7.802   2.208   0.607
 7566WAT     H124800   7.790   2.280   0.546
 7566WAT     H224801   7.771   2.131   0.560
 7567WAT      O24802   7.566   2.525   1.188
 7567WAT     H124803   7.574   2.538   1.094
 7567WAT     H224804   7.627   2.454   1.207
 7568WAT      O24805   7.690   2.695   0.829
 7568WAT     H124806   7.650   2.709   0.744
 7568WAT     H224807   7.779   2.666   0.809
 7569WAT      O24808   8.672   3.110   1.520
 7569WAT     H124809   8.723   3.101   1.600
 7569WAT     H224810   8.588   3.144   1.549
 7570WAT      O24811   8.870   3.138   0.463
 7570WAT     H124812   8.854   3.109   0.553
 7570WAT     H224813   8.853   3.061   0.409
 7571WAT      O24814   8.117   3.116   0.640
 7571WAT     H124815   8.100   3.025   0.619
 7571WAT     H224816   8.032   3.152   0.664
 7572WAT      O24817   8.840   2.889   0.319
 7572WAT     H124818   8.770   2.889   0.253
 7572WAT     H224819   8.914   2.847   0.276
 7573WAT      O24820   8.796   3.052   0.726
 7573WAT     H124821   8.842   2.974   0.758
 7573WAT     H224822   8.830   3.123   0.781
 7574WAT      O24823   9.271   1.945   1.759
 7574WAT     H124824   9.210   1.995   1.707
 7574WAT     H224825   9.239   1.855   1.754
 7575WAT      O24826   7.571   2.629   1.442
 7575WAT     H124827   7.588   2.582   1.360
 7575WAT     H224828   7.618   2.578   1.509
 7576WAT      O24829   8.049   1.542   0.946
 7576WAT     H124830   8.004   1.620   0.913
 7576WAT     H224831   8.104   1.574   1.016
 7577WAT      O24832   8.477   1.829   1.506
 7577WAT     H124833   8.431   1.849   1.587
 7577WAT     H224834   8.437   1.747   1.476
 7578WAT      O24835   8.977   1.951   1.619
 7578WAT     H124836   8.892   1.921   1.651
 7578WAT     H224837   8.961   1.975   1.528
 7579WAT      O24838   8.687   2.101   1.829
 7579WAT     H124839   8.719   2.017   1.795
 7579WAT     H224840   8.766   2.153   1.844
 7580WAT      O24841   8.360   1.504   0.434
 7580WAT     H124842   8.298   1.504   0.506
 7580WAT     H224843   8.351   1.417   0.394
 7581WAT      O24844   8.252   1.596   1.132
 7581WAT     H124845   8.282   1.687   1.124
 7581WAT     H224846   8.307   1.548   1.070
 7582WAT      O24847   8.028   2.054   0.719
 7582WAT     H124848   8.005   2.033   0.809
 7582WAT     H224849   7.950   2.098   0.684
 7583WAT      O24850   8.751   2.055   0.578
 7583WAT     H124851   8.691   2.127   0.560
 7583WAT     H224852   8.805   2.049   0.500
 7584WAT      O24853   8.272   2.144   1.785
 7584WAT     H124854   8.262   2.050   1.770
 7584WAT     H224855   8.356   2.166   1.746
 7585WAT      O24856   8.611   1.919   0.781
 7585WAT     H124857   8.651   1.950   0.700
 7585WAT     H224858   8.647   1.831   0.793
 7586WAT      O24859   7.785   1.785   1.600
 7586WAT     H124860   7.745   1.870   1.621
 7586WAT     H224861   7.716   1.722   1.620
 7587WAT      O24862   8.442   1.794   1.907
 7587WAT     H124863   8.373   1.774   1.971
 7587WAT     H224864   8.517   1.822   1.961
 7588WAT      O24865   7.515   1.578   1.004
 7588WAT     H124866   7.486   1.635   1.075
 7588WAT     H224867   7.589   1.530   1.040
 7589WAT      O24868   8.670   2.178   1.191
 7589WAT     H124869   8.597   2.228   1.226
 7589WAT     H224870   8.630   2.096   1.161
 7590WAT      O24871   8.314   1.845   1.031
 7590WAT     H124872   8.314   1.801   0.947
 7590WAT     H224873   8.403   1.877   1.042
 7591WAT      O24874   7.899   1.833   0.927
 7591WAT     H124875   7.865   1.881   1.003
 7591WAT     H224876   7.822   1.788   0.891
 7592WAT      O24877   8.320   1.945   0.331
 7592WAT     H124878   8.332   1.941   0.425
 7592WAT     H224879   8.281   2.031   0.315
 7593WAT      O24880   8.716   1.723   1.132
 7593WAT     H124881   8.718   1.768   1.217
 7593WAT     H224882   8.691   1.633   1.154
 7594WAT      O24883   8.221   2.176   0.270
 7594WAT     H124884   8.164   2.131   0.208
 7594WAT     H224885   8.292   2.212   0.217
 7595WAT      O24886   9.059   1.464   1.716
 7595WAT     H124887   9.091   1.391   1.769
 7595WAT     H224888   9.062   1.432   1.626
 7596WAT      O24889   7.729   2.566   1.658
 7596WAT     H124890   7.690   2.502   1.718
 7596WAT     H224891   7.760   2.637   1.715
 7597WAT      O24892   8.344   2.251   1.206
 7597WAT     H124893   8.380   2.204   1.281
 7597WAT     H224894   8.325   2.339   1.240
 7598WAT      O24895   7.630   1.726   0.819
 7598WAT     H124896   7.602   1.689   0.903
 7598WAT     H224897   7.624   1.652   0.758
 7599WAT      O24898   8.123   2.155   1.438
 7599WAT     H124899   8.092   2.243   1.460
 7599WAT     H224900   8.218   2.161   1.442
 7600WAT      O24901   7.976   2.576   0.498
 7600WAT     H124902   7.898   2.522   0.482
 7600WAT     H224903   8.048   2.524   0.464
 7601WAT      O24904   9.051   2.476   1.077
 7601WAT     H124905   9.123   2.525   1.038
 7601WAT     H224906   9.031   2.408   1.012
 7602WAT      O24907   8.597   1.615   0.491
 7602WAT     H124908   8.516   1.565   0.484
 7602WAT     H224909   8.578   1.699   0.450
 7603WAT      O24910   8.590   2.483   1.666
 7603WAT     H124911   8.583   2.391   1.640
 7603WAT     H224912   8.527   2.492   1.737
 7604WAT      O24913   8.869   2.052   0.321
 7604WAT     H124914   8.958   2.083   0.303
 7604WAT     H224915   8.866   1.965   0.282
 7605WAT      O24916   7.980   2.543   0.861
 7605WAT     H124917   8.032   2.462   0.856
 7605WAT     H224918   7.935   2.536   0.946
 7606WAT      O24919   8.469   2.669   0.389
 7606WAT     H124920   8.503   2.744   0.339
 7606WAT     H224921   8.386   2.701   0.425
 7607WAT      O24922   7.728   2.239   1.553
 7607WAT     H124923   7.692   2.306   1.611
 7607WAT     H224924   7.699   2.156   1.590
 7608WAT      O24925   9.096   2.183   0.268
 7608WAT     H124926   9.088   2.226   0.183
 7608WAT     H224927   9.168   2.229   0.311
 7609WAT      O24928   9.204   2.429   1.575
 7609WAT     H124929   9.131   2.488   1.556
 7609WAT     H224930   9.257   2.428   1.495
 7610WAT      O24931   9.199   2.869   0.540
 7610WAT     H124932   9.135   2.803   0.568
 7610WAT     H224933   9.160   2.909   0.463
 7611WAT      O24934   8.757   2.601   0.925
 7611WAT     H124935   8.792   2.542   0.859
 7611WAT     H224936   8.668   2.569   0.942
 7612WAT      O24937   8.365   2.677   0.666
 7612WAT     H124938   8.434   2.732   0.704
 7612WAT     H224939   8.287   2.732   0.669
 7613WAT      O24940   7.579   2.239   0.215
 7613WAT     H124941   7.666   2.267   0.243
 7613WAT     H224942   7.530   2.321   0.204
 7614WAT      O24943   8.296   2.378   0.627
 7614WAT     H124944   8.341   2.459   0.650
 7614WAT     H224945   8.261   2.346   0.710
 7615WAT      O24946   8.526   2.929   1.350
 7615WAT     H124947   8.591   2.950   1.418
 7615WAT     H224948   8.562   2.853   1.305
 7616WAT      O24949   7.886   1.412   0.674
 7616WAT     H124950   7.873   1.411   0.769
 7616WAT     H224951   7.804   1.446   0.639
 7617WAT      O24952   8.653   2.729   1.222
 7617WAT     H124953   8.718   2.659   1.233
 7617WAT     H224954   8.706   2.807   1.204
 7618WAT      O24955   7.616   3.160   0.272
 7618WAT     H124956   7.652   3.220   0.206
 7618WAT     H224957   7.602   3.215   0.349
 7619WAT      O24958   7.586   1.588   1.620
 7619WAT     H124959   7.514   1.608   1.681
 7619WAT     H224960   7.628   1.511   1.658
 7620WAT      O24961   8.996   2.550   0.360
 7620WAT     H124962   8.967   2.596   0.439
 7620WAT     H224963   9.076   2.503   0.387
 7621WAT      O24964   7.615   2.987   1.719
 7621WAT     H124965   7.625   2.893   1.705
 7621WAT     H224966   7.549   3.014   1.654
 7622WAT      O24967   8.218   2.899   0.353
 7622WAT     H124968   8.217   2.972   0.292
 7622WAT     H224969   8.126   2.874   0.363
 7623WAT      O24970   7.778   2.421   0.428
 7623WAT     H124971   7.717   2.495   0.429
 7623WAT     H224972   7.825   2.430   0.345
 7624WAT      O24973   8.735   1.837   1.395
 7624WAT     H124974   8.772   1.755   1.428
 7624WAT     H224975   8.649   1.843   1.437
 7625WAT      O24976   9.072   1.733   0.476
 7625WAT     H124977   9.009   1.743   0.405
 7625WAT     H224978   9.022   1.755   0.555
 7626WAT      O24979   8.269   1.961   0.618
 7626WAT     H124980   8.198   2.008   0.662
 7626WAT     H224981   8.297   1.895   0.681
 7627WAT      O24982   8.431   2.103   1.418
 7627WAT     H124983   8.481   2.150   1.484
 7627WAT     H224984   8.445   2.010   1.439
 7628WAT      O24985   8.672   1.633   0.762
 7628WAT     H124986   8.660   1.635   0.667
 7628WAT     H224987   8.767   1.638   0.774
 7629WAT      O24988   8.381   3.157   0.689
 7629WAT     H124989   8.406   3.153   0.597
 7629WAT     H224990   8.286   3.144   0.688
 7630WAT      O24991   8.089   1.792   0.355
 7630WAT     H124992   8.174   1.835   0.349
 7630WAT     H224993   8.052   1.823   0.438
 7631WAT      O24994   9.152   1.724   1.502
 7631WAT     H124995   9.102   1.799   1.536
 7631WAT     H224996   9.233   1.763   1.470
 7632WAT      O24997   8.981   2.249   0.847
 7632WAT     H124998   8.887   2.250   0.864
 7632WAT     H224999   9.013   2.170   0.891
 7633WAT      O25000   7.848   2.160   0.271
 7633WAT     H125001   7.856   2.066   0.282
 7633WAT     H225002   7.938   2.193   0.282
 7634WAT      O25003   9.181   2.966   1.014
 7634WAT     H125004   9.194   3.048   1.061
 7634WAT     H225005   9.268   2.945   0.979
 7635WAT      O25006   7.929   3.175   0.981
 7635WAT     H125007   8.002   3.120   1.009
 7635WAT     H225008   7.967   3.262   0.967
 7636WAT      O25009   7.617   2.782   0.569
 7636WAT     H125010   7.524   2.806   0.568
 7636WAT     H225011   7.664   2.865   0.557
 7637WAT      O25012   7.829   3.094   1.900
 7637WAT     H125013   7.909   3.126   1.942
 7637WAT     H225014   7.778   3.058   1.972
 7638WAT      O25015   9.145   3.015   0.306
 7638WAT     H125016   9.116   2.974   0.225
 7638WAT     H225017   9.125   3.108   0.294
 7639WAT      O25018   8.306   2.483   1.748
 7639WAT     H125019   8.230   2.540   1.740
 7639WAT     H225020   8.325   2.454   1.659
 7640WAT      O25021   8.615   2.521   0.211
 7640WAT     H125022   8.560   2.565   0.275
 7640WAT     H225023   8.678   2.470   0.263
 7641WAT      O25024   8.182   2.417   0.400
 7641WAT     H125025   8.224   2.400   0.484
 7641WAT     H225026   8.195   2.336   0.351
 7642WAT      O25027   7.998   2.015   1.681
 7642WAT     H125028   7.945   1.966   1.618
 7642WAT     H225029   8.065   2.057   1.627
 7643WAT      O25030   8.888   2.461   1.657
 7643WAT     H125031   8.930   2.477   1.742
 7643WAT     H225032   8.795   2.474   1.674
 7644WAT      O25033   8.935   2.195   1.858
 7644WAT     H125034   8.994   2.120   1.849
 7644WAT     H225035   8.953   2.248   1.780
 7645WAT      O25036   8.047   1.711   1.689
 7645WAT     H125037   8.038   1.649   1.616
 7645WAT     H225038   7.989   1.784   1.666
 7646WAT      O25039   8.324   1.567   1.392
 7646WAT     H125040   8.279   1.569   1.308
 7646WAT     H225041   8.260   1.527   1.452
 7647WAT      O25042   8.364   2.457   1.454
 7647WAT     H125043   8.406   2.541   1.437
 7647WAT     H225044   8.272   2.470   1.431
 7648WAT      O25045   8.598   2.230   1.593
 7648WAT     H125046   8.610   2.170   1.667
 7648WAT     H225047   8.684   2.233   1.551
 7649WAT      O25048   8.832   2.285   1.450
 7649WAT     H125049   8.779   2.337   1.390
 7649WAT     H225050   8.866   2.348   1.513
 7650WAT      O25051   8.149   3.087   1.566
 7650WAT     H125052   8.096   3.160   1.534
 7650WAT     H225053   8.175   3.039   1.487
 7651WAT      O25054   8.275   1.884   1.718
 7651WAT     H125055   8.334   1.853   1.787
 7651WAT     H225056   8.193   1.837   1.734
 7652WAT      O25057   8.757   1.846   1.742
 7652WAT     H125058   8.688   1.779   1.735
 7652WAT     H225059   8.829   1.801   1.786
 7653WAT      O25060   8.820   1.505   0.348
 7653WAT     H125061   8.848   1.421   0.383
 7653WAT     H225062   8.742   1.528   0.399
 7654WAT      O25063   8.435   3.211   1.592
 7654WAT     H125064   8.428   3.301   1.622
 7654WAT     H225065   8.345   3.179   1.589
 7655WAT      O25066   8.490   3.127   0.354
 7655WAT     H125067   8.579   3.161   0.356
 7655WAT     H225068   8.493   3.055   0.291
 7656WAT      O25069   7.854   2.664   0.177
 7656WAT     H125070   7.898   2.719   0.242
 7656WAT     H225071   7.902   2.582   0.178
 7657WAT      O25072   7.575   2.943   0.922
 7657WAT     H125073   7.608   2.857   0.899
 7657WAT     H225074   7.618   2.964   1.005
 7658WAT      O25075   8.035   2.776   0.688
 7658WAT     H125076   8.005   2.764   0.778
 7658WAT     H225077   8.024   2.691   0.647
 7659WAT      O25078   7.624   3.030   1.196
 7659WAT     H125079   7.581   3.048   1.279
 7659WAT     H225080   7.681   3.106   1.182
 7660WAT      O25081   9.257   2.429   0.409
 7660WAT     H125082   9.334   2.486   0.419
 7660WAT     H225083   9.259   2.372   0.486
 7661WAT      O25084   7.607   2.281   0.832
 7661WAT     H125085   7.542   2.254   0.767
 7661WAT     H225086   7.691   2.270   0.787
 7662WAT      O25087   9.358   2.514   0.893
 7662WAT     H125088   9.395   2.436   0.852
 7662WAT     H225089   9.422   2.583   0.875
 7663WAT      O25090   9.056   2.653   1.434
 7663WAT     H125091   8.975   2.696   1.461
 7663WAT     H225092   9.097   2.714   1.373
 7664WAT      O25093   8.902   1.761   0.254
 7664WAT     H125094   8.944   1.742   0.170
 7664WAT     H225095   8.872   1.675   0.285
 7665WAT      O25096   9.252   2.252   0.624
 7665WAT     H125097   9.215   2.175   0.580
 7665WAT     H225098   9.179   2.290   0.672
 7666WAT      O25099   7.711   2.320   1.286
 7666WAT     H125100   7.748   2.311   1.374
 7666WAT     H225101   7.654   2.243   1.276
 7667WAT      O25102   9.191   2.167   1.587
 7667WAT     H125103   9.168   2.144   1.497
 7667WAT     H225104   9.217   2.259   1.583
 7668WAT      O25105   9.035   1.689   1.865
 7668WAT     H125106   9.123   1.690   1.903
 7668WAT     H225107   9.036   1.615   1.804
 7669WAT      O25108   7.529   2.002   0.426
 7669WAT     H125109   7.438   2.029   0.409
 7669WAT     H225110   7.577   2.029   0.348
 7670WAT      O25111   9.180   2.074   0.954
 7670WAT     H125112   9.232   2.025   0.891
 7670WAT     H225113   9.238   2.088   1.028
 7671WAT      O25114   9.198   2.083   1.306
 7671WAT     H125115   9.103   2.079   1.317
 7671WAT     H225116   9.216   2.174   1.282
 7672WAT      O25117   9.129   2.000   0.548
 7672WAT     H125118   9.178   1.977   0.626
 7672WAT     H225119   9.109   1.916   0.506
 7673WAT      O25120   7.717   1.438   1.111
 7673WAT     H125121   7.782   1.383   1.067
 7673WAT     H225122   7.759   1.464   1.193
 7674WAT      O25123   9.272   1.864   0.801
 7674WAT     H125124   9.261   1.848   0.895
 7674WAT     H225125   9.348   1.811   0.777
 7675WAT      O25126   9.106   1.458   1.447
 7675WAT     H125127   9.170   1.519   1.483
 7675WAT     H225128   9.121   1.461   1.352
 7676WAT      O25129   9.368   1.724   0.388
 7676WAT     H125130   9.288   1.717   0.441
 7676WAT     H225131   9.388   1.818   0.387
 7677WAT      O25132   9.062   3.128   0.787
 7677WAT     H125133   9.122   3.096   0.719
 7677WAT     H225134   9.088   3.081   0.866
 7678WAT      O25135   7.692   1.454   1.385
 7678WAT     H125136   7.657   1.500   1.462
 7678WAT     H225137   7.659   1.364   1.394
 7679WAT      O25138   7.853   2.771   1.802
 7679WAT     H125139   7.848   2.734   1.890
 7679WAT     H225140   7.866   2.865   1.816
 7680WAT      O25141   8.223   2.927   1.362
 7680WAT     H125142   8.199   2.953   1.273
 7680WAT     H225143   8.317   2.944   1.368
 7681WAT      O25144   8.443   1.573   1.738
 7681WAT     H125145   8.437   1.632   1.813
 7681WAT     H225146   8.537   1.562   1.723
 7682WAT      O25147   8.707   1.539   1.702
 7682WAT     H125148   8.768   1.571   1.635
 7682WAT     H225149   8.762   1.490   1.764
 7683WAT      O25150   7.759   1.407   1.713
 7683WAT     H125151   7.814   1.389   1.637
 7683WAT     H225152   7.766   1.328   1.767
 7684WAT      O25153   7.837   3.066   1.514
 7684WAT     H125154   7.777   3.053   1.588
 7684WAT     H225155   7.836   2.982   1.467
 7685WAT      O25156   8.781   1.395   1.334
 7685WAT     H125157   8.694   1.428   1.314
 7685WAT     H225158   8.770   1.348   1.417
 7686WAT      O25159   8.872   1.616   1.473
 7686WAT     H125160   8.839   1.534   1.435
 7686WAT     H225161   8.967   1.611   1.460
 7687WAT      O25162   9.117   3.193   1.170
 7687WAT     H125163   9.071   3.268   1.133
 7687WAT     H225164   9.054   3.121   1.164
 7688WAT      O25165   7.800   2.802   1.409
 7688WAT     H125166   7.727   2.740   1.402
 7688WAT     H225167   7.806   2.842   1.322
 7689WAT      O25168   8.160   3.024   1.088
 7689WAT     H125169   8.212   2.963   1.035
 7689WAT     H225170   8.225   3.074   1.137
 7690WAT      O25171   8.434   3.113   1.170
 7690WAT     H125172   8.463   3.087   1.083
 7690WAT     H225173   8.485   3.058   1.229
 7691WAT      O25174   8.556   1.487   1.228
 7691WAT     H125175   8.478   1.534   1.256
 7691WAT     H225176   8.527   1.396   1.217
 7692WAT      O25177   9.011   1.557   1.033
 7692WAT     H125178   9.055   1.551   0.948
 7692WAT     H225179   8.984   1.649   1.040
 7693WAT      O25180   9.198   1.520   0.834
 7693WAT     H125181   9.191   1.426   0.819
 7693WAT     H225182   9.275   1.531   0.888
 7694WAT      O25183   7.628   3.134   0.730
 7694WAT     H125184   7.611   3.071   0.800
 7694WAT     H225185   7.541   3.155   0.695
 7695WAT      O25186   7.690   1.517   0.480
 7695WAT     H125187   7.766   1.528   0.423
 7695WAT     H225188   7.644   1.601   0.476
 7696WAT      O25189   8.344   1.729   0.779
 7696WAT     H125190   8.263   1.691   0.745
 7696WAT     H225191   8.395   1.653   0.810
 7697WAT      O25192   8.795   1.395   0.903
 7697WAT     H125193   8.855   1.452   0.951
 7697WAT     H225194   8.721   1.451   0.881
 7698WAT      O25195   9.109   1.435   0.431
 7698WAT     H125196   9.129   1.525   0.457
 7698WAT     H225197   9.030   1.412   0.480
 7699WAT      O25198   7.789   3.003   0.474
 7699WAT     H125199   7.736   3.041   0.404
 7699WAT     H225200   7.781   3.066   0.547
 7700WAT      O25201   7.928   1.570   0.334
 7700WAT     H125202   7.980   1.491   0.321
 7700WAT     H225203   7.991   1.638   0.358
 7701WAT      O25204   8.147   1.544   0.640
 7701WAT     H125205   8.084   1.473   0.656
 7701WAT     H225206   8.093   1.620   0.618
 7702WAT      O25207   9.264   3.159   0.607
 7702WAT     H125208   9.282   3.091   0.542
 7702WAT     H225209   9.195   3.212   0.567
 7703WAT      O25210   8.159   1.471   1.883
 7703WAT     H125211   8.131   1.522   1.807
 7703WAT     H225212   8.198   1.392   1.847
 7704WAT      O25213   8.049   3.198   0.362
 7704WAT     H125214   8.122   3.170   0.307
 7704WAT     H225215   8.075   3.174   0.451
 7705WAT      O25216   7.965   2.810   0.362
 7705WAT     H125217   7.902   2.857   0.417
 7705WAT     H225218   7.976   2.725   0.406
 7706WAT      O25219   8.820   1.413   1.941
 7706WAT     H125220   8.808   1.445   2.031
 7706WAT     H225221   8.901   1.453   1.911
 7707WAT      O25222   8.710   0.337   6.487
 7707WAT     H125223   8.702   0.246   6.460
 7707WAT     H225224   8.669   0.387   6.417
 7708WAT      O25225   8.523   0.515   6.675
 7708WAT     H125226   8.446   0.467   6.704
 7708WAT     H225227   8.589   0.447   6.658
 7709WAT      O25228   7.925   0.546   6.763
 7709WAT     H125229   7.842   0.521   6.803
 7709WAT     H225230   7.986   0.554   6.837
 7710WAT      O25231   8.925   0.956   6.553
 7710WAT     H125232   8.879   0.879   6.586
 7710WAT     H225233   9.007   0.959   6.604
 7711WAT      O25234   7.923   0.950   6.783
 7711WAT     H125235   7.953   0.861   6.765
 7711WAT     H225236   7.998   1.006   6.760
 7712WAT      O25237   7.562   0.303   6.730
 7712WAT     H125238   7.619   0.226   6.730
 7712WAT     H225239   7.562   0.332   6.639
 7713WAT      O25240   8.548   1.184   6.515
 7713WAT     H125241   8.486   1.230   6.458
 7713WAT     H225242   8.634   1.200   6.475
 7714WAT      O25243   8.468   0.783   6.676
 7714WAT     H125244   8.461   0.689   6.660
 7714WAT     H225245   8.544   0.792   6.733
 7715WAT      O25246   8.635   0.673   6.255
 7715WAT     H125247   8.573   0.719   6.198
 7715WAT     H225248   8.686   0.742   6.296
 7716WAT      O25249   8.121   0.626   6.922
 7716WAT     H125250   8.088   0.688   6.987
 7716WAT     H225251   8.139   0.678   6.845
 7717WAT      O25252   8.042   0.822   7.104
 7717WAT     H125253   8.104   0.890   7.076
 7717WAT     H225254   7.956   0.863   7.095
 7718WAT      O25255   7.572   0.741   5.992
 7718WAT     H125256   7.534   0.790   5.919
 7718WAT     H225257   7.597   0.809   6.055
 7719WAT      O25258   9.134   0.969   6.896
 7719WAT     H125259   9.066   1.036   6.895
 7719WAT     H225260   9.188   0.989   6.819
 7720WAT      O25261   8.888   1.153   6.767
 7720WAT     H125262   8.889   1.113   6.680
 7720WAT     H225263   8.832   1.231   6.757
 7721WAT      O25264   9.017   0.825   6.276
 7721WAT     H125265   9.006   0.731   6.288
 7721WAT     H225266   9.017   0.862   6.365
 7722WAT      O25267   8.827   0.644   6.900
 7722WAT     H125268   8.869   0.622   6.816
 7722WAT     H225269   8.900   0.669   6.957
 7723WAT      O25270   8.571   0.388   6.212
 7723WAT     H125271   8.479   0.381   6.234
 7723WAT     H225272   8.587   0.482   6.200
 7724WAT      O25273   9.222   0.483   6.909
 7724WAT     H125274   9.139   0.490   6.861
 7724WAT     H225275   9.282   0.542   6.862
 7725WAT      O25276   8.974   0.544   6.262
 7725WAT     H125277   8.912   0.510   6.197
 7725WAT     H225278   8.973   0.480   6.333
 7726WAT      O25279   8.132   0.441   6.490
 7726WAT     H125280   8.091   0.369   6.440
 7726WAT     H225281   8.140   0.406   6.579
 7727WAT      O25282   8.179   0.809   6.706
 7727WAT     H125283   8.149   0.749   6.638
 7727WAT     H225284   8.274   0.813   6.695
 7728WAT      O25285   8.988   1.167   7.072
 7728WAT     H125286   8.940   1.247   7.053
 7728WAT     H225287   8.919   1.101   7.088
 7729WAT      O25288   8.088   0.783   7.371
 7729WAT     H125289   7.998   0.806   7.396
 7729WAT     H225290   8.090   0.796   7.276
 7730WAT      O25291   8.792   0.468   5.963
 7730WAT     H125292   8.836   0.384   5.948
 7730WAT     H225293   8.863   0.531   5.971
 7731WAT      O25294   7.971   0.470   7.229
 7731WAT     H125295   7.957   0.558   7.266
 7731WAT     H225296   7.882   0.436   7.214
 7732WAT      O25297   8.603   0.962   6.359
 7732WAT     H125298   8.647   1.036   6.318
 7732WAT     H225299   8.597   0.986   6.452
 7733WAT      O25300   8.150   1.065   7.450
 7733WAT     H125301   8.148   1.105   7.363
 7733WAT     H225302   8.134   0.972   7.433
 7734WAT      O25303   7.802   0.330   6.240
 7734WAT     H125304   7.790   0.403   6.179
 7734WAT     H225305   7.771   0.253   6.192
 7735WAT      O25306   7.566   0.647   6.820
 7735WAT     H125307   7.574   0.661   6.726
 7735WAT     H225308   7.627   0.576   6.840
 7736WAT      O25309   7.690   0.817   6.462
 7736WAT     H125310   7.650   0.831   6.376
 7736WAT     H225311   7.779   0.789   6.441
 7737WAT      O25312   9.286   0.862   7.295
 7737WAT     H125313   9.298   0.838   7.203
 7737WAT     H225314   9.290   0.779   7.342
 7738WAT      O25315   8.672   1.232   7.152
 7738WAT     H125316   8.723   1.223   7.232
 7738WAT     H225317   8.588   1.267   7.181
 7739WAT      O25318   8.870   1.261   6.095
 7739WAT     H125319   8.854   1.232   6.185
 7739WAT     H225320   8.853   1.183   6.041
 7740WAT      O25321   8.117   1.239   6.273
 7740WAT     H125322   8.100   1.147   6.251
 7740WAT     H225323   8.032   1.275   6.297
 7741WAT      O25324   8.840   1.012   5.951
 7741WAT     H125325   8.770   1.011   5.885
 7741WAT     H225326   8.914   0.969   5.908
 7742WAT      O25327   8.796   1.174   6.358
 7742WAT     H125328   8.842   1.096   6.390
 7742WAT     H225329   8.830   1.245   6.413
 7743WAT      O25330   7.571   0.751   7.074
 7743WAT     H125331   7.588   0.704   6.993
 7743WAT     H225332   7.618   0.701   7.141
 7744WAT      O25333   8.687   0.223   7.461
 7744WAT     H125334   8.719   0.140   7.427
 7744WAT     H225335   8.766   0.276   7.476
 7745WAT      O25336   8.028   0.177   6.351
 7745WAT     H125337   8.005   0.155   6.441
 7745WAT     H225338   7.950   0.220   6.316
 7746WAT      O25339   8.751   0.177   6.211
 7746WAT     H125340   8.691   0.250   6.192
 7746WAT     H225341   8.805   0.171   6.132
 7747WAT      O25342   8.272   0.267   7.417
 7747WAT     H125343   8.262   0.173   7.402
 7747WAT     H225344   8.356   0.289   7.378
 7748WAT      O25345   8.670   0.300   6.823
 7748WAT     H125346   8.597   0.351   6.858
 7748WAT     H225347   8.630   0.218   6.793
 7749WAT      O25348   8.221   0.299   5.903
 7749WAT     H125349   8.164   0.254   5.840
 7749WAT     H225350   8.292   0.335   5.849
 7750WAT      O25351   7.729   0.689   7.290
 7750WAT     H125352   7.690   0.625   7.350
 7750WAT     H225353   7.760   0.759   7.347
 7751WAT      O25354   8.344   0.374   6.838
 7751WAT     H125355   8.380   0.326   6.913
 7751WAT     H225356   8.325   0.461   6.873
 7752WAT      O25357   8.123   0.278   7.070
 7752WAT     H125358   8.092   0.366   7.093
 7752WAT     H225359   8.218   0.284   7.074
 7753WAT      O25360   7.976   0.698   6.130
 7753WAT     H125361   7.898   0.644   6.114
 7753WAT     H225362   8.048   0.646   6.096
 7754WAT      O25363   9.051   0.598   6.709
 7754WAT     H125364   9.123   0.648   6.670
 7754WAT     H225365   9.031   0.530   6.645
 7755WAT      O25366   8.590   0.605   7.298
 7755WAT     H125367   8.583   0.513   7.272
 7755WAT     H225368   8.527   0.615   7.369
 7756WAT      O25369   7.980   0.665   6.494
 7756WAT     H125370   8.032   0.585   6.488
 7756WAT     H225371   7.935   0.659   6.578
 7757WAT      O25372   8.469   0.792   6.021
 7757WAT     H125373   8.503   0.866   5.971
 7757WAT     H225374   8.386   0.823   6.057
 7758WAT      O25375   7.728   0.362   7.185
 7758WAT     H125376   7.692   0.428   7.244
 7758WAT     H225377   7.699   0.279   7.222
 7759WAT      O25378   8.048   0.408   7.473
 7759WAT     H125379   8.018   0.422   7.384
 7759WAT     H225380   8.126   0.352   7.464
 7760WAT      O25381   8.583   0.887   7.273
 7760WAT     H125382   8.584   0.794   7.251
 7760WAT     H225383   8.512   0.896   7.337
 7761WAT      O25384   9.096   0.306   5.900
 7761WAT     H125385   9.088   0.349   5.815
 7761WAT     H225386   9.168   0.352   5.943
 7762WAT      O25387   9.204   0.551   7.208
 7762WAT     H125388   9.131   0.611   7.188
 7762WAT     H225389   9.257   0.551   7.128
 7763WAT      O25390   9.199   0.991   6.173
 7763WAT     H125391   9.135   0.926   6.200
 7763WAT     H225392   9.160   1.032   6.095
 7764WAT      O25393   8.757   0.724   6.557
 7764WAT     H125394   8.792   0.664   6.491
 7764WAT     H225395   8.668   0.691   6.575
 7765WAT      O25396   8.365   0.800   6.298
 7765WAT     H125397   8.434   0.855   6.336
 7765WAT     H225398   8.287   0.854   6.302
 7766WAT      O25399   7.579   0.362   5.847
 7766WAT     H125400   7.666   0.390   5.876
 7766WAT     H225401   7.530   0.443   5.836
 7767WAT      O25402   8.296   0.500   6.259
 7767WAT     H125403   8.341   0.582   6.282
 7767WAT     H225404   8.261   0.469   6.343
 7768WAT      O25405   8.526   1.052   6.982
 7768WAT     H125406   8.591   1.072   7.050
 7768WAT     H225407   8.562   0.975   6.937
 7769WAT      O25408   8.653   0.852   6.854
 7769WAT     H125409   8.718   0.782   6.865
 7769WAT     H225410   8.706   0.930   6.836
 7770WAT      O25411   9.038   0.880   5.827
 7770WAT     H125412   9.015   0.809   5.886
 7770WAT     H225413   8.999   0.855   5.743
 7771WAT      O25414   8.831   0.932   7.174
 7771WAT     H125415   8.864   0.990   7.242
 7771WAT     H225416   8.739   0.919   7.197
 7772WAT      O25417   7.616   1.283   5.904
 7772WAT     H125418   7.652   1.343   5.839
 7772WAT     H225419   7.602   1.338   5.981
 7773WAT      O25420   8.996   0.672   5.993
 7773WAT     H125421   8.967   0.718   6.071
 7773WAT     H225422   9.076   0.626   6.019
 7774WAT      O25423   7.615   1.110   7.351
 7774WAT     H125424   7.625   1.016   7.337
 7774WAT     H225425   7.549   1.136   7.287
 7775WAT      O25426   8.218   1.021   5.986
 7775WAT     H125427   8.217   1.095   5.924
 7775WAT     H225428   8.126   0.997   5.995
 7776WAT      O25429   7.778   0.543   6.060
 7776WAT     H125430   7.717   0.617   6.061
 7776WAT     H225431   7.825   0.552   5.978
 7777WAT      O25432   8.516   1.028   5.852
 7777WAT     H125433   8.527   1.007   5.759
 7777WAT     H225434   8.426   1.002   5.872
 7778WAT      O25435   8.431   0.225   7.050
 7778WAT     H125436   8.481   0.273   7.117
 7778WAT     H225437   8.445   0.133   7.071
 7779WAT      O25438   8.381   1.279   6.321
 7779WAT     H125439   8.406   1.276   6.229
 7779WAT     H225440   8.286   1.267   6.321
 7780WAT      O25441   8.981   0.371   6.479
 7780WAT     H125442   8.887   0.373   6.496
 7780WAT     H225443   9.013   0.293   6.524
 7781WAT      O25444   7.979   0.540   5.835
 7781WAT     H125445   8.056   0.528   5.891
 7781WAT     H225446   7.987   0.470   5.770
 7782WAT      O25447   7.848   0.283   5.903
 7782WAT     H125448   7.856   0.188   5.915
 7782WAT     H225449   7.938   0.316   5.914
 7783WAT      O25450   9.181   1.088   6.647
 7783WAT     H125451   9.194   1.171   6.694
 7783WAT     H225452   9.268   1.067   6.612
 7784WAT      O25453   7.929   1.298   6.614
 7784WAT     H125454   8.002   1.243   6.641
 7784WAT     H225455   7.967   1.384   6.600
 7785WAT      O25456   7.617   0.905   6.201
 7785WAT     H125457   7.524   0.929   6.200
 7785WAT     H225458   7.664   0.987   6.189
 7786WAT      O25459   8.240   1.215   5.796
 7786WAT     H125460   8.319   1.244   5.751
 7786WAT     H225461   8.188   1.172   5.728
 7787WAT      O25462   8.856   1.200   7.388
 7787WAT     H125463   8.951   1.191   7.383
 7787WAT     H225464   8.841   1.266   7.456
 7788WAT      O25465   9.145   1.138   5.938
 7788WAT     H125466   9.116   1.096   5.857
 7788WAT     H225467   9.125   1.231   5.926
 7789WAT      O25468   7.601   0.465   7.427
 7789WAT     H125469   7.652   0.407   7.484
 7789WAT     H225470   7.527   0.493   7.481
 7790WAT      O25471   8.291   0.737   5.782
 7790WAT     H125472   8.281   0.676   5.855
 7790WAT     H225473   8.275   0.685   5.704
 7791WAT      O25474   8.306   0.606   7.380
 7791WAT     H125475   8.230   0.663   7.372
 7791WAT     H225476   8.325   0.576   7.291
 7792WAT      O25477   8.615   0.643   5.843
 7792WAT     H125478   8.560   0.688   5.907
 7792WAT     H225479   8.678   0.593   5.895
 7793WAT      O25480   9.021   0.779   7.436
 7793WAT     H125481   9.095   0.813   7.386
 7793WAT     H225482   8.944   0.796   7.381
 7794WAT      O25483   8.182   0.539   6.032
 7794WAT     H125484   8.224   0.523   6.117
 7794WAT     H225485   8.195   0.458   5.983
 7795WAT      O25486   8.433   0.442   5.757
 7795WAT     H125487   8.485   0.370   5.721
 7795WAT     H225488   8.498   0.505   5.787
 7796WAT      O25489   8.888   0.584   7.290
 7796WAT     H125490   8.930   0.599   7.375
 7796WAT     H225491   8.795   0.596   7.306
 7797WAT      O25492   8.935   0.318   7.490
 7797WAT     H125493   8.994   0.242   7.481
 7797WAT     H225494   8.953   0.371   7.412
 7798WAT      O25495   8.364   0.579   7.087
 7798WAT     H125496   8.406   0.663   7.069
 7798WAT     H225497   8.272   0.593   7.064
 7799WAT      O25498   8.598   0.352   7.225
 7799WAT     H125499   8.610   0.293   7.299
 7799WAT     H225500   8.684   0.356   7.183
 7800WAT      O25501   8.832   0.408   7.083
 7800WAT     H125502   8.779   0.460   7.022
 7800WAT     H225503   8.866   0.471   7.146
 7801WAT      O25504   8.149   1.210   7.198
 7801WAT     H125505   8.096   1.282   7.166
 7801WAT     H225506   8.175   1.162   7.119
 7802WAT      O25507   8.435   1.333   7.224
 7802WAT     H125508   8.428   1.423   7.255
 7802WAT     H225509   8.345   1.301   7.221
 7803WAT      O25510   8.490   1.250   5.986
 7803WAT     H125511   8.579   1.284   5.988
 7803WAT     H225512   8.493   1.178   5.924
 7804WAT      O25513   7.854   0.787   5.809
 7804WAT     H125514   7.898   0.841   5.875
 7804WAT     H225515   7.902   0.704   5.810
 7805WAT      O25516   7.575   1.066   6.554
 7805WAT     H125517   7.608   0.979   6.531
 7805WAT     H225518   7.618   1.086   6.637
 7806WAT      O25519   8.035   0.899   6.320
 7806WAT     H125520   8.005   0.887   6.410
 7806WAT     H225521   8.024   0.813   6.280
 7807WAT      O25522   7.624   1.153   6.828
 7807WAT     H125523   7.581   1.171   6.911
 7807WAT     H225524   7.681   1.228   6.814
 7808WAT      O25525   9.188   1.103   7.257
 7808WAT     H125526   9.128   1.109   7.183
 7808WAT     H225527   9.201   1.009   7.270
 7809WAT      O25528   9.312   0.877   5.791
 7809WAT     H125529   9.229   0.884   5.838
 7809WAT     H225530   9.330   0.966   5.760
 7810WAT      O25531   9.257   0.551   6.041
 7810WAT     H125532   9.334   0.608   6.052
 7810WAT     H225533   9.259   0.495   6.118
 7811WAT      O25534   7.607   0.404   6.464
 7811WAT     H125535   7.542   0.377   6.400
 7811WAT     H225536   7.691   0.393   6.419
 7812WAT      O25537   9.358   0.637   6.525
 7812WAT     H125538   9.395   0.559   6.485
 7812WAT     H225539   9.422   0.706   6.508
 7813WAT      O25540   9.056   0.775   7.067
 7813WAT     H125541   8.975   0.818   7.093
 7813WAT     H225542   9.097   0.836   7.005
 7814WAT      O25543   9.263   0.581   5.757
 7814WAT     H125544   9.290   0.672   5.744
 7814WAT     H225545   9.244   0.574   5.850
 7815WAT      O25546   9.252   0.374   6.256
 7815WAT     H125547   9.215   0.298   6.213
 7815WAT     H225548   9.179   0.413   6.305
 7816WAT      O25549   7.711   0.442   6.918
 7816WAT     H125550   7.748   0.434   7.006
 7816WAT     H225551   7.654   0.366   6.908
 7817WAT      O25552   9.191   0.289   7.219
 7817WAT     H125553   9.168   0.266   7.129
 7817WAT     H225554   9.217   0.381   7.215
 7818WAT      O25555   9.180   0.197   6.586
 7818WAT     H125556   9.232   0.148   6.523
 7818WAT     H225557   9.238   0.211   6.661
 7819WAT      O25558   9.198   0.205   6.938
 7819WAT     H125559   9.103   0.202   6.950
 7819WAT     H225560   9.216   0.296   6.915
 7820WAT      O25561   9.062   1.250   6.419
 7820WAT     H125562   9.122   1.218   6.352
 7820WAT     H225563   9.088   1.203   6.499
 7821WAT      O25564   8.223   1.049   6.994
 7821WAT     H125565   8.199   1.076   6.906
 7821WAT     H225566   8.317   1.066   7.000
 7822WAT      O25567   9.349   1.251   7.074
 7822WAT     H125568   9.299   1.291   7.003
 7822WAT     H225569   9.288   1.189   7.114
 7823WAT      O25570   7.837   1.188   7.146
 7823WAT     H125571   7.777   1.175   7.220
 7823WAT     H225572   7.836   1.105   7.100
 7824WAT      O25573   9.117   1.315   6.802
 7824WAT     H125574   9.071   1.391   6.765
 7824WAT     H225575   9.054   1.243   6.796
 7825WAT      O25576   7.800   0.925   7.041
 7825WAT     H125577   7.727   0.863   7.035
 7825WAT     H225578   7.806   0.964   6.954
 7826WAT      O25579   8.160   1.146   6.720
 7826WAT     H125580   8.212   1.085   6.667
 7826WAT     H225581   8.225   1.197   6.769
 7827WAT      O25582   8.434   1.235   6.803
 7827WAT     H125583   8.463   1.210   6.715
 7827WAT     H225584   8.485   1.180   6.862
 7828WAT      O25585   7.628   1.257   6.362
 7828WAT     H125586   7.611   1.193   6.432
 7828WAT     H225587   7.541   1.277   6.327
 7829WAT      O25588   7.789   1.126   6.107
 7829WAT     H125589   7.736   1.164   6.036
 7829WAT     H225590   7.781   1.188   6.179
 7830WAT      O25591   9.264   1.282   6.239
 7830WAT     H125592   9.282   1.213   6.175
 7830WAT     H225593   9.195   1.334   6.200
 7831WAT      O25594   8.049   1.321   5.994
 7831WAT     H125595   8.122   1.292   5.940
 7831WAT     H225596   8.075   1.297   6.083
 7832WAT      O25597   7.965   0.932   5.995
 7832WAT     H125598   7.902   0.979   6.050
 7832WAT     H225599   7.976   0.848   6.038
 7833WAT      O25600   8.710   0.337   4.610
 7833WAT     H125601   8.702   0.246   4.583
 7833WAT     H225602   8.669   0.387   4.539
 7834WAT      O25603   8.523   0.515   4.798
 7834WAT     H125604   8.446   0.467   4.827
 7834WAT     H225605   8.589   0.447   4.780
 7835WAT      O25606   7.925   0.546   4.886
 7835WAT     H125607   7.842   0.521   4.926
 7835WAT     H225608   7.986   0.554   4.959
 7836WAT      O25609   8.925   0.956   4.676
 7836WAT     H125610   8.879   0.879   4.709
 7836WAT     H225611   9.007   0.959   4.726
 7837WAT      O25612   7.923   0.950   4.905
 7837WAT     H125613   7.953   0.861   4.887
 7837WAT     H225614   7.998   1.006   4.882
 7838WAT      O25615   7.562   0.303   4.852
 7838WAT     H125616   7.619   0.226   4.852
 7838WAT     H225617   7.562   0.332   4.762
 7839WAT      O25618   8.548   1.184   4.638
 7839WAT     H125619   8.486   1.230   4.581
 7839WAT     H225620   8.634   1.200   4.598
 7840WAT      O25621   8.468   0.783   4.799
 7840WAT     H125622   8.461   0.689   4.782
 7840WAT     H225623   8.544   0.792   4.856
 7841WAT      O25624   8.635   0.673   4.377
 7841WAT     H125625   8.573   0.719   4.321
 7841WAT     H225626   8.686   0.742   4.419
 7842WAT      O25627   8.121   0.626   5.045
 7842WAT     H125628   8.088   0.688   5.109
 7842WAT     H225629   8.139   0.678   4.967
 7843WAT      O25630   8.042   0.822   5.227
 7843WAT     H125631   8.104   0.890   5.198
 7843WAT     H225632   7.956   0.863   5.217
 7844WAT      O25633   7.572   0.741   4.115
 7844WAT     H125634   7.534   0.790   4.041
 7844WAT     H225635   7.597   0.809   4.178
 7845WAT      O25636   9.134   0.969   5.018
 7845WAT     H125637   9.066   1.036   5.017
 7845WAT     H225638   9.188   0.989   4.942
 7846WAT      O25639   8.888   1.153   4.890
 7846WAT     H125640   8.889   1.113   4.803
 7846WAT     H225641   8.832   1.231   4.879
 7847WAT      O25642   9.017   0.825   4.398
 7847WAT     H125643   9.006   0.731   4.411
 7847WAT     H225644   9.017   0.862   4.487
 7848WAT      O25645   8.827   0.644   5.022
 7848WAT     H125646   8.869   0.622   4.939
 7848WAT     H225647   8.900   0.669   5.079
 7849WAT      O25648   8.571   0.388   4.334
 7849WAT     H125649   8.479   0.381   4.357
 7849WAT     H225650   8.587   0.482   4.323
 7850WAT      O25651   9.222   0.483   5.032
 7850WAT     H125652   9.139   0.490   4.984
 7850WAT     H225653   9.282   0.542   4.985
 7851WAT      O25654   8.974   0.544   4.384
 7851WAT     H125655   8.912   0.510   4.320
 7851WAT     H225656   8.973   0.480   4.455
 7852WAT      O25657   8.132   0.441   4.612
 7852WAT     H125658   8.091   0.369   4.563
 7852WAT     H225659   8.140   0.406   4.701
 7853WAT      O25660   8.179   0.809   4.829
 7853WAT     H125661   8.149   0.749   4.761
 7853WAT     H225662   8.274   0.813   4.818
 7854WAT      O25663   8.988   1.167   5.195
 7854WAT     H125664   8.940   1.247   5.176
 7854WAT     H225665   8.919   1.101   5.210
 7855WAT      O25666   8.088   0.783   5.494
 7855WAT     H125667   7.998   0.806   5.518
 7855WAT     H225668   8.090   0.796   5.399
 7856WAT      O25669   8.792   0.468   4.085
 7856WAT     H125670   8.836   0.384   4.071
 7856WAT     H225671   8.863   0.531   4.094
 7857WAT      O25672   7.971   0.470   5.351
 7857WAT     H125673   7.957   0.558   5.388
 7857WAT     H225674   7.882   0.436   5.337
 7858WAT      O25675   8.603   0.962   4.482
 7858WAT     H125676   8.647   1.036   4.441
 7858WAT     H225677   8.597   0.986   4.574
 7859WAT      O25678   8.150   1.065   5.572
 7859WAT     H125679   8.148   1.105   5.485
 7859WAT     H225680   8.134   0.972   5.556
 7860WAT      O25681   7.802   0.330   4.362
 7860WAT     H125682   7.790   0.403   4.301
 7860WAT     H225683   7.771   0.253   4.315
 7861WAT      O25684   9.346   1.143   5.702
 7861WAT     H125685   9.393   1.191   5.770
 7861WAT     H225686   9.408   1.136   5.629
 7862WAT      O25687   7.566   0.647   4.943
 7862WAT     H125688   7.574   0.661   4.849
 7862WAT     H225689   7.627   0.576   4.962
 7863WAT      O25690   7.690   0.817   4.584
 7863WAT     H125691   7.650   0.831   4.499
 7863WAT     H225692   7.779   0.789   4.564
 7864WAT      O25693   9.286   0.862   5.418
 7864WAT     H125694   9.298   0.838   5.326
 7864WAT     H225695   9.290   0.779   5.465
 7865WAT      O25696   8.672   1.232   5.275
 7865WAT     H125697   8.723   1.223   5.355
 7865WAT     H225698   8.588   1.267   5.304
 7866WAT      O25699   8.870   1.261   4.218
 7866WAT     H125700   8.854   1.232   4.307
 7866WAT     H225701   8.853   1.183   4.164
 7867WAT      O25702   8.117   1.239   4.395
 7867WAT     H125703   8.100   1.147   4.374
 7867WAT     H225704   8.032   1.275   4.419
 7868WAT      O25705   8.840   1.012   4.074
 7868WAT     H125706   8.770   1.011   4.008
 7868WAT     H225707   8.914   0.969   4.031
 7869WAT      O25708   8.796   1.174   4.481
 7869WAT     H125709   8.842   1.096   4.512
 7869WAT     H225710   8.830   1.245   4.535
 7870WAT      O25711   7.571   0.751   5.197
 7870WAT     H125712   7.588   0.704   5.115
 7870WAT     H225713   7.618   0.701   5.263
 7871WAT      O25714   8.687   0.223   5.584
 7871WAT     H125715   8.719   0.140   5.550
 7871WAT     H225716   8.766   0.276   5.599
 7872WAT      O25717   8.028   0.177   4.473
 7872WAT     H125718   8.005   0.155   4.564
 7872WAT     H225719   7.950   0.220   4.439
 7873WAT      O25720   8.751   0.177   4.333
 7873WAT     H125721   8.691   0.250   4.315
 7873WAT     H225722   8.805   0.171   4.255
 7874WAT      O25723   8.272   0.267   5.540
 7874WAT     H125724   8.262   0.173   5.525
 7874WAT     H225725   8.356   0.289   5.500
 7875WAT      O25726   8.670   0.300   4.946
 7875WAT     H125727   8.597   0.351   4.981
 7875WAT     H225728   8.630   0.218   4.916
 7876WAT      O25729   8.221   0.299   4.025
 7876WAT     H125730   8.164   0.254   3.963
 7876WAT     H225731   8.292   0.335   3.972
 7877WAT      O25732   7.729   0.689   5.413
 7877WAT     H125733   7.690   0.625   5.473
 7877WAT     H225734   7.760   0.759   5.470
 7878WAT      O25735   8.344   0.374   4.961
 7878WAT     H125736   8.380   0.326   5.036
 7878WAT     H225737   8.325   0.461   4.995
 7879WAT      O25738   8.123   0.278   5.193
 7879WAT     H125739   8.092   0.366   5.215
 7879WAT     H225740   8.218   0.284   5.196
 7880WAT      O25741   7.976   0.698   4.253
 7880WAT     H125742   7.898   0.644   4.237
 7880WAT     H225743   8.048   0.646   4.219
 7881WAT      O25744   9.051   0.598   4.832
 7881WAT     H125745   9.123   0.648   4.793
 7881WAT     H225746   9.031   0.530   4.767
 7882WAT      O25747   8.590   0.605   5.420
 7882WAT     H125748   8.583   0.513   5.395
 7882WAT     H225749   8.527   0.615   5.492
 7883WAT      O25750   7.980   0.665   4.616
 7883WAT     H125751   8.032   0.585   4.611
 7883WAT     H225752   7.935   0.659   4.700
 7884WAT      O25753   8.469   0.792   4.144
 7884WAT     H125754   8.503   0.866   4.094
 7884WAT     H225755   8.386   0.823   4.180
 7885WAT      O25756   7.728   0.362   5.308
 7885WAT     H125757   7.692   0.428   5.366
 7885WAT     H225758   7.699   0.279   5.345
 7886WAT      O25759   8.048   0.408   5.596
 7886WAT     H125760   8.018   0.422   5.506
 7886WAT     H225761   8.126   0.352   5.587
 7887WAT      O25762   8.583   0.887   5.396
 7887WAT     H125763   8.584   0.794   5.374
 7887WAT     H225764   8.512   0.896   5.459
 7888WAT      O25765   9.096   0.306   4.022
 7888WAT     H125766   9.088   0.349   3.937
 7888WAT     H225767   9.168   0.352   4.066
 7889WAT      O25768   9.204   0.551   5.330
 7889WAT     H125769   9.131   0.611   5.310
 7889WAT     H225770   9.257   0.551   5.250
 7890WAT      O25771   9.199   0.991   4.295
 7890WAT     H125772   9.135   0.926   4.323
 7890WAT     H225773   9.160   1.032   4.218
 7891WAT      O25774   8.757   0.724   4.680
 7891WAT     H125775   8.792   0.664   4.614
 7891WAT     H225776   8.668   0.691   4.697
 7892WAT      O25777   8.365   0.800   4.421
 7892WAT     H125778   8.434   0.855   4.459
 7892WAT     H225779   8.287   0.854   4.424
 7893WAT      O25780   7.579   0.362   3.970
 7893WAT     H125781   7.666   0.390   3.998
 7893WAT     H225782   7.530   0.443   3.958
 7894WAT      O25783   8.296   0.500   4.382
 7894WAT     H125784   8.341   0.582   4.405
 7894WAT     H225785   8.261   0.469   4.465
 7895WAT      O25786   8.526   1.052   5.105
 7895WAT     H125787   8.591   1.072   5.173
 7895WAT     H225788   8.562   0.975   5.060
 7896WAT      O25789   8.653   0.852   4.977
 7896WAT     H125790   8.718   0.782   4.988
 7896WAT     H225791   8.706   0.930   4.959
 7897WAT      O25792   9.038   0.880   3.949
 7897WAT     H125793   9.015   0.809   4.008
 7897WAT     H225794   8.999   0.855   3.865
 7898WAT      O25795   8.831   0.932   5.297
 7898WAT     H125796   8.864   0.990   5.365
 7898WAT     H225797   8.739   0.919   5.320
 7899WAT      O25798   7.616   1.283   4.027
 7899WAT     H125799   7.652   1.343   3.961
 7899WAT     H225800   7.602   1.338   4.104
 7900WAT      O25801   8.996   0.672   4.115
 7900WAT     H125802   8.967   0.718   4.194
 7900WAT     H225803   9.076   0.626   4.142
 7901WAT      O25804   7.615   1.110   5.474
 7901WAT     H125805   7.625   1.016   5.460
 7901WAT     H225806   7.549   1.136   5.409
 7902WAT      O25807   8.414   0.937   5.614
 7902WAT     H125808   8.382   0.865   5.668
 7902WAT     H225809   8.346   1.004   5.621
 7903WAT      O25810   8.218   1.021   4.108
 7903WAT     H125811   8.217   1.095   4.047
 7903WAT     H225812   8.126   0.997   4.118
 7904WAT      O25813   7.778   0.543   4.183
 7904WAT     H125814   7.717   0.617   4.184
 7904WAT     H225815   7.825   0.552   4.100
 7905WAT      O25816   8.516   1.028   3.975
 7905WAT     H125817   8.527   1.007   3.882
 7905WAT     H225818   8.426   1.002   3.995
 7906WAT      O25819   8.431   0.225   5.173
 7906WAT     H125820   8.481   0.273   5.239
 7906WAT     H225821   8.445   0.133   5.193
 7907WAT      O25822   8.381   1.279   4.444
 7907WAT     H125823   8.406   1.276   4.352
 7907WAT     H225824   8.286   1.267   4.443
 7908WAT      O25825   8.981   0.371   4.602
 7908WAT     H125826   8.887   0.373   4.619
 7908WAT     H225827   9.013   0.293   4.646
 7909WAT      O25828   7.979   0.540   3.958
 7909WAT     H125829   8.056   0.528   4.014
 7909WAT     H225830   7.987   0.470   3.892
 7910WAT      O25831   7.848   0.283   4.026
 7910WAT     H125832   7.856   0.188   4.037
 7910WAT     H225833   7.938   0.316   4.037
 7911WAT      O25834   9.181   1.088   4.769
 7911WAT     H125835   9.194   1.171   4.816
 7911WAT     H225836   9.268   1.067   4.734
 7912WAT      O25837   7.929   1.298   4.736
 7912WAT     H125838   8.002   1.243   4.763
 7912WAT     H225839   7.967   1.384   4.722
 7913WAT      O25840   7.617   0.905   4.324
 7913WAT     H125841   7.524   0.929   4.323
 7913WAT     H225842   7.664   0.987   4.312
 7914WAT      O25843   7.829   1.216   5.655
 7914WAT     H125844   7.909   1.248   5.696
 7914WAT     H225845   7.778   1.180   5.727
 7915WAT      O25846   8.240   1.215   3.919
 7915WAT     H125847   8.319   1.244   3.873
 7915WAT     H225848   8.188   1.172   3.851
 7916WAT      O25849   8.713   0.827   5.650
 7916WAT     H125850   8.652   0.829   5.576
 7916WAT     H225851   8.682   0.754   5.704
 7917WAT      O25852   8.856   1.200   5.511
 7917WAT     H125853   8.951   1.191   5.506
 7917WAT     H225854   8.841   1.266   5.578
 7918WAT      O25855   9.145   1.138   4.061
 7918WAT     H125856   9.116   1.096   3.979
 7918WAT     H225857   9.125   1.231   4.049
 7919WAT      O25858   7.601   0.465   5.550
 7919WAT     H125859   7.652   0.407   5.607
 7919WAT     H225860   7.527   0.493   5.603
 7920WAT      O25861   8.291   0.737   3.905
 7920WAT     H125862   8.281   0.676   3.978
 7920WAT     H225863   8.275   0.685   3.827
 7921WAT      O25864   8.306   0.606   5.503
 7921WAT     H125865   8.230   0.663   5.494
 7921WAT     H225866   8.325   0.576   5.414
 7922WAT      O25867   8.615   0.643   3.965
 7922WAT     H125868   8.560   0.688   4.030
 7922WAT     H225869   8.678   0.593   4.018
 7923WAT      O25870   9.021   0.779   5.559
 7923WAT     H125871   9.095   0.813   5.508
 7923WAT     H225872   8.944   0.796   5.503
 7924WAT      O25873   7.804   0.279   5.639
 7924WAT     H125874   7.808   0.249   5.730
 7924WAT     H225875   7.890   0.319   5.623
 7925WAT      O25876   8.182   0.539   4.155
 7925WAT     H125877   8.224   0.523   4.239
 7925WAT     H225878   8.195   0.458   4.106
 7926WAT      O25879   8.433   0.442   3.880
 7926WAT     H125880   8.485   0.370   3.843
 7926WAT     H225881   8.498   0.505   3.910
 7927WAT      O25882   8.888   0.584   5.412
 7927WAT     H125883   8.930   0.599   5.497
 7927WAT     H225884   8.795   0.596   5.428
 7928WAT      O25885   8.935   0.318   5.613
 7928WAT     H125886   8.994   0.242   5.604
 7928WAT     H225887   8.953   0.371   5.535
 7929WAT      O25888   8.364   0.579   5.209
 7929WAT     H125889   8.406   0.663   5.192
 7929WAT     H225890   8.272   0.593   5.186
 7930WAT      O25891   8.598   0.352   5.348
 7930WAT     H125892   8.610   0.293   5.421
 7930WAT     H225893   8.684   0.356   5.306
 7931WAT      O25894   8.832   0.408   5.205
 7931WAT     H125895   8.779   0.460   5.145
 7931WAT     H225896   8.866   0.471   5.268
 7932WAT      O25897   8.149   1.210   5.321
 7932WAT     H125898   8.096   1.282   5.289
 7932WAT     H225899   8.175   1.162   5.242
 7933WAT      O25900   8.435   1.333   5.347
 7933WAT     H125901   8.428   1.423   5.377
 7933WAT     H225902   8.345   1.301   5.344
 7934WAT      O25903   8.490   1.250   4.109
 7934WAT     H125904   8.579   1.284   4.111
 7934WAT     H225905   8.493   1.178   4.046
 7935WAT      O25906   7.854   0.787   3.932
 7935WAT     H125907   7.898   0.841   3.997
 7935WAT     H225908   7.902   0.704   3.933
 7936WAT      O25909   7.575   1.066   4.677
 7936WAT     H125910   7.608   0.979   4.654
 7936WAT     H225911   7.618   1.086   4.760
 7937WAT      O25912   8.035   0.899   4.443
 7937WAT     H125913   8.005   0.887   4.533
 7937WAT     H225914   8.024   0.813   4.402
 7938WAT      O25915   7.624   1.153   4.951
 7938WAT     H125916   7.581   1.171   5.034
 7938WAT     H225917   7.681   1.228   4.937
 7939WAT      O25918   9.188   1.103   5.379
 7939WAT     H125919   9.128   1.109   5.305
 7939WAT     H225920   9.201   1.009   5.392
 7940WAT      O25921   9.312   0.877   3.913
 7940WAT     H125922   9.229   0.884   3.960
 7940WAT     H225923   9.330   0.966   3.883
 7941WAT      O25924   9.257   0.551   4.164
 7941WAT     H125925   9.334   0.608   4.174
 7941WAT     H225926   9.259   0.495   4.241
 7942WAT      O25927   7.607   0.404   4.587
 7942WAT     H125928   7.542   0.377   4.522
 7942WAT     H225929   7.691   0.393   4.542
 7943WAT      O25930   9.358   0.637   4.648
 7943WAT     H125931   9.395   0.559   4.607
 7943WAT     H225932   9.422   0.706   4.630
 7944WAT      O25933   9.056   0.775   5.189
 7944WAT     H125934   8.975   0.818   5.216
 7944WAT     H225935   9.097   0.836   5.128
 7945WAT      O25936   9.263   0.581   3.879
 7945WAT     H125937   9.290   0.672   3.866
 7945WAT     H225938   9.244   0.574   3.973
 7946WAT      O25939   9.252   0.374   4.379
 7946WAT     H125940   9.215   0.298   4.335
 7946WAT     H225941   9.179   0.413   4.427
 7947WAT      O25942   7.711   0.442   5.041
 7947WAT     H125943   7.748   0.434   5.129
 7947WAT     H225944   7.654   0.366   5.031
 7948WAT      O25945   9.191   0.289   5.342
 7948WAT     H125946   9.168   0.266   5.252
 7948WAT     H225947   9.217   0.381   5.337
 7949WAT      O25948   9.180   0.197   4.709
 7949WAT     H125949   9.232   0.148   4.646
 7949WAT     H225950   9.238   0.211   4.783
 7950WAT      O25951   9.198   0.205   5.061
 7950WAT     H125952   9.103   0.202   5.072
 7950WAT     H225953   9.216   0.296   5.037
 7951WAT      O25954   9.062   1.250   4.542
 7951WAT     H125955   9.122   1.218   4.474
 7951WAT     H225956   9.088   1.203   4.621
 7952WAT      O25957   7.853   0.894   5.557
 7952WAT     H125958   7.848   0.857   5.645
 7952WAT     H225959   7.866   0.987   5.571
 7953WAT      O25960   8.223   1.049   5.117
 7953WAT     H125961   8.199   1.076   5.028
 7953WAT     H225962   8.317   1.066   5.122
 7954WAT      O25963   9.349   1.251   5.197
 7954WAT     H125964   9.299   1.291   5.125
 7954WAT     H225965   9.288   1.189   5.236
 7955WAT      O25966   7.837   1.188   5.269
 7955WAT     H125967   7.777   1.175   5.343
 7955WAT     H225968   7.836   1.105   5.222
 7956WAT      O25969   9.117   1.315   4.925
 7956WAT     H125970   9.071   1.391   4.887
 7956WAT     H225971   9.054   1.243   4.919
 7957WAT      O25972   7.800   0.925   5.164
 7957WAT     H125973   7.727   0.863   5.157
 7957WAT     H225974   7.806   0.964   5.077
 7958WAT      O25975   8.160   1.146   4.842
 7958WAT     H125976   8.212   1.085   4.790
 7958WAT     H225977   8.225   1.197   4.892
 7959WAT      O25978   8.434   1.235   4.925
 7959WAT     H125979   8.463   1.210   4.837
 7959WAT     H225980   8.485   1.180   4.984
 7960WAT      O25981   7.628   1.257   4.485
 7960WAT     H125982   7.611   1.193   4.555
 7960WAT     H225983   7.541   1.277   4.450
 7961WAT      O25984   7.789   1.126   4.229
 7961WAT     H125985   7.736   1.164   4.159
 7961WAT     H225986   7.781   1.188   4.301
 7962WAT      O25987   8.441   1.328   5.662
 7962WAT     H125988   8.534   1.304   5.666
 7962WAT     H225989   8.439   1.410   5.614
 7963WAT      O25990   9.264   1.282   4.362
 7963WAT     H125991   9.282   1.213   4.297
 7963WAT     H225992   9.195   1.334   4.322
 7964WAT      O25993   8.049   1.321   4.117
 7964WAT     H125994   8.122   1.292   4.062
 7964WAT     H225995   8.075   1.297   4.206
 7965WAT      O25996   7.965   0.932   4.117
 7965WAT     H125997   7.902   0.979   4.172
 7965WAT     H225998   7.976   0.848   4.161
 7966WAT      O25999   9.098   1.250   5.644
 7966WAT     H126000   9.177   1.201   5.623
 7966WAT     H226001   9.127   1.318   5.705
 7967WAT      O26002   8.710   0.337   2.732
 7967WAT     H126003   8.702   0.246   2.705
 7967WAT     H226004   8.669   0.387   2.662
 7968WAT      O26005   8.523   0.515   2.920
 7968WAT     H126006   8.446   0.467   2.949
 7968WAT     H226007   8.589   0.447   2.903
 7969WAT      O26008   7.925   0.546   3.008
 7969WAT     H126009   7.842   0.521   3.048
 7969WAT     H226010   7.986   0.554   3.082
 7970WAT      O26011   8.925   0.956   2.798
 7970WAT     H126012   8.879   0.879   2.831
 7970WAT     H226013   9.007   0.959   2.849
 7971WAT      O26014   7.923   0.950   3.028
 7971WAT     H126015   7.953   0.861   3.010
 7971WAT     H226016   7.998   1.006   3.005
 7972WAT      O26017   7.562   0.303   2.975
 7972WAT     H126018   7.619   0.226   2.975
 7972WAT     H226019   7.562   0.332   2.884
 7973WAT      O26020   8.548   1.184   2.760
 7973WAT     H126021   8.486   1.230   2.703
 7973WAT     H226022   8.634   1.200   2.720
 7974WAT      O26023   8.468   0.783   2.921
 7974WAT     H126024   8.461   0.689   2.905
 7974WAT     H226025   8.544   0.792   2.978
 7975WAT      O26026   8.635   0.673   2.500
 7975WAT     H126027   8.573   0.719   2.443
 7975WAT     H226028   8.686   0.742   2.541
 7976WAT      O26029   8.121   0.626   3.168
 7976WAT     H126030   8.088   0.688   3.232
 7976WAT     H226031   8.139   0.678   3.090
 7977WAT      O26032   8.042   0.822   3.349
 7977WAT     H126033   8.104   0.890   3.321
 7977WAT     H226034   7.956   0.863   3.340
 7978WAT      O26035   7.572   0.741   2.237
 7978WAT     H126036   7.534   0.790   2.164
 7978WAT     H226037   7.597   0.809   2.300
 7979WAT      O26038   9.134   0.969   3.141
 7979WAT     H126039   9.066   1.036   3.140
 7979WAT     H226040   9.188   0.989   3.064
 7980WAT      O26041   8.888   1.153   3.012
 7980WAT     H126042   8.889   1.113   2.925
 7980WAT     H226043   8.832   1.231   3.002
 7981WAT      O26044   9.017   0.825   2.521
 7981WAT     H126045   9.006   0.731   2.534
 7981WAT     H226046   9.017   0.862   2.610
 7982WAT      O26047   8.827   0.644   3.145
 7982WAT     H126048   8.869   0.622   3.061
 7982WAT     H226049   8.900   0.669   3.202
 7983WAT      O26050   8.571   0.388   2.457
 7983WAT     H126051   8.479   0.381   2.480
 7983WAT     H226052   8.587   0.482   2.445
 7984WAT      O26053   9.222   0.483   3.154
 7984WAT     H126054   9.139   0.490   3.107
 7984WAT     H226055   9.282   0.542   3.107
 7985WAT      O26056   8.974   0.544   2.507
 7985WAT     H126057   8.912   0.510   2.442
 7985WAT     H226058   8.973   0.480   2.578
 7986WAT      O26059   8.132   0.441   2.735
 7986WAT     H126060   8.091   0.369   2.685
 7986WAT     H226061   8.140   0.406   2.824
 7987WAT      O26062   8.179   0.809   2.951
 7987WAT     H126063   8.149   0.749   2.883
 7987WAT     H226064   8.274   0.813   2.940
 7988WAT      O26065   8.988   1.167   3.317
 7988WAT     H126066   8.940   1.247   3.298
 7988WAT     H226067   8.919   1.101   3.333
 7989WAT      O26068   8.088   0.783   3.616
 7989WAT     H126069   7.998   0.806   3.641
 7989WAT     H226070   8.090   0.796   3.521
 7990WAT      O26071   8.792   0.468   2.208
 7990WAT     H126072   8.836   0.384   2.193
 7990WAT     H226073   8.863   0.531   2.216
 7991WAT      O26074   7.971   0.470   3.474
 7991WAT     H126075   7.957   0.558   3.511
 7991WAT     H226076   7.882   0.436   3.459
 7992WAT      O26077   8.603   0.962   2.605
 7992WAT     H126078   8.647   1.036   2.563
 7992WAT     H226079   8.597   0.986   2.697
 7993WAT      O26080   8.150   1.065   3.695
 7993WAT     H126081   8.148   1.105   3.608
 7993WAT     H226082   8.134   0.972   3.678
 7994WAT      O26083   7.802   0.330   2.485
 7994WAT     H126084   7.790   0.403   2.424
 7994WAT     H226085   7.771   0.253   2.437
 7995WAT      O26086   9.346   1.143   3.824
 7995WAT     H126087   9.393   1.191   3.892
 7995WAT     H226088   9.408   1.136   3.752
 7996WAT      O26089   7.566   0.647   3.066
 7996WAT     H126090   7.574   0.661   2.971
 7996WAT     H226091   7.627   0.576   3.085
 7997WAT      O26092   7.690   0.817   2.707
 7997WAT     H126093   7.650   0.831   2.621
 7997WAT     H226094   7.779   0.789   2.686
 7998WAT      O26095   9.286   0.862   3.540
 7998WAT     H126096   9.298   0.838   3.449
 7998WAT     H226097   9.290   0.779   3.588
 7999WAT      O26098   8.672   1.232   3.397
 7999WAT     H126099   8.723   1.223   3.478
 7999WAT     H226100   8.588   1.267   3.427
 8000WAT      O26101   8.870   1.261   2.340
 8000WAT     H126102   8.854   1.232   2.430
 8000WAT     H226103   8.853   1.183   2.287
 8001WAT      O26104   8.117   1.239   2.518
 8001WAT     H126105   8.100   1.147   2.497
 8001WAT     H226106   8.032   1.275   2.542
 8002WAT      O26107   8.840   1.012   2.196
 8002WAT     H126108   8.770   1.011   2.130
 8002WAT     H226109   8.914   0.969   2.153
 8003WAT      O26110   8.796   1.174   2.604
 8003WAT     H126111   8.842   1.096   2.635
 8003WAT     H226112   8.830   1.245   2.658
 8004WAT      O26113   7.571   0.751   3.320
 8004WAT     H126114   7.588   0.704   3.238
 8004WAT     H226115   7.618   0.701   3.386
 8005WAT      O26116   8.687   0.223   3.706
 8005WAT     H126117   8.719   0.140   3.672
 8005WAT     H226118   8.766   0.276   3.721
 8006WAT      O26119   8.028   0.177   2.596
 8006WAT     H126120   8.005   0.155   2.686
 8006WAT     H226121   7.950   0.220   2.561
 8007WAT      O26122   8.751   0.177   2.456
 8007WAT     H126123   8.691   0.250   2.437
 8007WAT     H226124   8.805   0.171   2.378
 8008WAT      O26125   8.272   0.267   3.663
 8008WAT     H126126   8.262   0.173   3.648
 8008WAT     H226127   8.356   0.289   3.623
 8009WAT      O26128   8.670   0.300   3.068
 8009WAT     H126129   8.597   0.351   3.103
 8009WAT     H226130   8.630   0.218   3.038
 8010WAT      O26131   8.221   0.299   2.148
 8010WAT     H126132   8.164   0.254   2.085
 8010WAT     H226133   8.292   0.335   2.094
 8011WAT      O26134   7.729   0.689   3.535
 8011WAT     H126135   7.690   0.625   3.595
 8011WAT     H226136   7.760   0.759   3.592
 8012WAT      O26137   8.344   0.374   3.084
 8012WAT     H126138   8.380   0.326   3.158
 8012WAT     H226139   8.325   0.461   3.118
 8013WAT      O26140   8.123   0.278   3.315
 8013WAT     H126141   8.092   0.366   3.338
 8013WAT     H226142   8.218   0.284   3.319
 8014WAT      O26143   7.976   0.698   2.375
 8014WAT     H126144   7.898   0.644   2.359
 8014WAT     H226145   8.048   0.646   2.341
 8015WAT      O26146   9.051   0.598   2.954
 8015WAT     H126147   9.123   0.648   2.915
 8015WAT     H226148   9.031   0.530   2.890
 8016WAT      O26149   8.590   0.605   3.543
 8016WAT     H126150   8.583   0.513   3.518
 8016WAT     H226151   8.527   0.615   3.614
 8017WAT      O26152   7.980   0.665   2.739
 8017WAT     H126153   8.032   0.585   2.733
 8017WAT     H226154   7.935   0.659   2.823
 8018WAT      O26155   8.469   0.792   2.266
 8018WAT     H126156   8.503   0.866   2.217
 8018WAT     H226157   8.386   0.823   2.302
 8019WAT      O26158   7.728   0.362   3.430
 8019WAT     H126159   7.692   0.428   3.489
 8019WAT     H226160   7.699   0.279   3.467
 8020WAT      O26161   8.048   0.408   3.719
 8020WAT     H126162   8.018   0.422   3.629
 8020WAT     H226163   8.126   0.352   3.709
 8021WAT      O26164   8.583   0.887   3.518
 8021WAT     H126165   8.584   0.794   3.496
 8021WAT     H226166   8.512   0.896   3.582
 8022WAT      O26167   9.096   0.306   2.145
 8022WAT     H126168   9.088   0.349   2.060
 8022WAT     H226169   9.168   0.352   2.188
 8023WAT      O26170   9.204   0.551   3.453
 8023WAT     H126171   9.131   0.611   3.433
 8023WAT     H226172   9.257   0.551   3.373
 8024WAT      O26173   9.199   0.991   2.418
 8024WAT     H126174   9.135   0.926   2.445
 8024WAT     H226175   9.160   1.032   2.340
 8025WAT      O26176   8.757   0.724   2.803
 8025WAT     H126177   8.792   0.664   2.737
 8025WAT     H226178   8.668   0.691   2.820
 8026WAT      O26179   8.365   0.800   2.543
 8026WAT     H126180   8.434   0.855   2.581
 8026WAT     H226181   8.287   0.854   2.547
 8027WAT      O26182   7.579   0.362   2.092
 8027WAT     H126183   7.666   0.390   2.121
 8027WAT     H226184   7.530   0.443   2.081
 8028WAT      O26185   8.296   0.500   2.505
 8028WAT     H126186   8.341   0.582   2.527
 8028WAT     H226187   8.261   0.469   2.588
 8029WAT      O26188   8.526   1.052   3.227
 8029WAT     H126189   8.591   1.072   3.295
 8029WAT     H226190   8.562   0.975   3.182
 8030WAT      O26191   8.653   0.852   3.099
 8030WAT     H126192   8.718   0.782   3.111
 8030WAT     H226193   8.706   0.930   3.081
 8031WAT      O26194   9.038   0.880   2.072
 8031WAT     H126195   9.015   0.809   2.131
 8031WAT     H226196   8.999   0.855   1.988
 8032WAT      O26197   8.831   0.932   3.420
 8032WAT     H126198   8.864   0.990   3.487
 8032WAT     H226199   8.739   0.919   3.443
 8033WAT      O26200   7.616   1.283   2.149
 8033WAT     H126201   7.652   1.343   2.084
 8033WAT     H226202   7.602   1.338   2.226
 8034WAT      O26203   8.996   0.672   2.238
 8034WAT     H126204   8.967   0.718   2.317
 8034WAT     H226205   9.076   0.626   2.265
 8035WAT      O26206   7.615   1.110   3.597
 8035WAT     H126207   7.625   1.016   3.582
 8035WAT     H226208   7.549   1.136   3.532
 8036WAT      O26209   8.414   0.937   3.736
 8036WAT     H126210   8.382   0.865   3.791
 8036WAT     H226211   8.346   1.004   3.744
 8037WAT      O26212   8.218   1.021   2.231
 8037WAT     H126213   8.217   1.095   2.169
 8037WAT     H226214   8.126   0.997   2.240
 8038WAT      O26215   7.778   0.543   2.305
 8038WAT     H126216   7.717   0.617   2.306
 8038WAT     H226217   7.825   0.552   2.223
 8039WAT      O26218   8.516   1.028   2.097
 8039WAT     H126219   8.527   1.007   2.004
 8039WAT     H226220   8.426   1.002   2.118
 8040WAT      O26221   8.431   0.225   3.295
 8040WAT     H126222   8.481   0.273   3.362
 8040WAT     H226223   8.445   0.133   3.316
 8041WAT      O26224   8.381   1.279   2.567
 8041WAT     H126225   8.406   1.276   2.474
 8041WAT     H226226   8.286   1.267   2.566
 8042WAT      O26227   8.981   0.371   2.724
 8042WAT     H126228   8.887   0.373   2.742
 8042WAT     H226229   9.013   0.293   2.769
 8043WAT      O26230   7.979   0.540   2.080
 8043WAT     H126231   8.056   0.528   2.136
 8043WAT     H226232   7.987   0.470   2.015
 8044WAT      O26233   7.848   0.283   2.149
 8044WAT     H126234   7.856   0.188   2.160
 8044WAT     H226235   7.938   0.316   2.159
 8045WAT      O26236   9.181   1.088   2.892
 8045WAT     H126237   9.194   1.171   2.939
 8045WAT     H226238   9.268   1.067   2.857
 8046WAT      O26239   7.929   1.298   2.859
 8046WAT     H126240   8.002   1.243   2.886
 8046WAT     H226241   7.967   1.384   2.845
 8047WAT      O26242   7.617   0.905   2.446
 8047WAT     H126243   7.524   0.929   2.445
 8047WAT     H226244   7.664   0.987   2.434
 8048WAT      O26245   7.829   1.216   3.778
 8048WAT     H126246   7.909   1.248   3.819
 8048WAT     H226247   7.778   1.180   3.850
 8049WAT      O26248   8.240   1.215   2.041
 8049WAT     H126249   8.319   1.244   1.996
 8049WAT     H226250   8.188   1.172   1.973
 8050WAT      O26251   8.713   0.827   3.772
 8050WAT     H126252   8.652   0.829   3.698
 8050WAT     H226253   8.682   0.754   3.826
 8051WAT      O26254   8.856   1.200   3.634
 8051WAT     H126255   8.951   1.191   3.629
 8051WAT     H226256   8.841   1.266   3.701
 8052WAT      O26257   9.145   1.138   2.183
 8052WAT     H126258   9.116   1.096   2.102
 8052WAT     H226259   9.125   1.231   2.171
 8053WAT      O26260   7.601   0.465   3.672
 8053WAT     H126261   7.652   0.407   3.729
 8053WAT     H226262   7.527   0.493   3.726
 8054WAT      O26263   8.291   0.737   2.028
 8054WAT     H126264   8.281   0.676   2.100
 8054WAT     H226265   8.275   0.685   1.949
 8055WAT      O26266   8.306   0.606   3.625
 8055WAT     H126267   8.230   0.663   3.617
 8055WAT     H226268   8.325   0.576   3.536
 8056WAT      O26269   8.615   0.643   2.088
 8056WAT     H126270   8.560   0.688   2.152
 8056WAT     H226271   8.678   0.593   2.140
 8057WAT      O26272   9.021   0.779   3.681
 8057WAT     H126273   9.095   0.813   3.631
 8057WAT     H226274   8.944   0.796   3.626
 8058WAT      O26275   7.804   0.279   3.762
 8058WAT     H126276   7.808   0.249   3.852
 8058WAT     H226277   7.890   0.319   3.746
 8059WAT      O26278   8.182   0.539   2.278
 8059WAT     H126279   8.224   0.523   2.362
 8059WAT     H226280   8.195   0.458   2.228
 8060WAT      O26281   8.433   0.442   2.002
 8060WAT     H126282   8.485   0.370   1.966
 8060WAT     H226283   8.498   0.505   2.032
 8061WAT      O26284   8.888   0.584   3.535
 8061WAT     H126285   8.930   0.599   3.620
 8061WAT     H226286   8.795   0.596   3.551
 8062WAT      O26287   8.935   0.318   3.735
 8062WAT     H126288   8.994   0.242   3.726
 8062WAT     H226289   8.953   0.371   3.657
 8063WAT      O26290   8.364   0.579   3.332
 8063WAT     H126291   8.406   0.663   3.314
 8063WAT     H226292   8.272   0.593   3.309
 8064WAT      O26293   8.598   0.352   3.470
 8064WAT     H126294   8.610   0.293   3.544
 8064WAT     H226295   8.684   0.356   3.428
 8065WAT      O26296   8.832   0.408   3.328
 8065WAT     H126297   8.779   0.460   3.267
 8065WAT     H226298   8.866   0.471   3.391
 8066WAT      O26299   8.149   1.210   3.443
 8066WAT     H126300   8.096   1.282   3.411
 8066WAT     H226301   8.175   1.162   3.364
 8067WAT      O26302   8.435   1.333   3.469
 8067WAT     H126303   8.428   1.423   3.500
 8067WAT     H226304   8.345   1.301   3.466
 8068WAT      O26305   8.490   1.250   2.231
 8068WAT     H126306   8.579   1.284   2.234
 8068WAT     H226307   8.493   1.178   2.169
 8069WAT      O26308   7.854   0.787   2.054
 8069WAT     H126309   7.898   0.841   2.120
 8069WAT     H226310   7.902   0.704   2.055
 8070WAT      O26311   7.575   1.066   2.799
 8070WAT     H126312   7.608   0.979   2.776
 8070WAT     H226313   7.618   1.086   2.883
 8071WAT      O26314   8.035   0.899   2.565
 8071WAT     H126315   8.005   0.887   2.656
 8071WAT     H226316   8.024   0.813   2.525
 8072WAT      O26317   7.624   1.153   3.073
 8072WAT     H126318   7.581   1.171   3.157
 8072WAT     H226319   7.681   1.228   3.059
 8073WAT      O26320   9.188   1.103   3.502
 8073WAT     H126321   9.128   1.109   3.428
 8073WAT     H226322   9.201   1.009   3.515
 8074WAT      O26323   9.312   0.877   2.036
 8074WAT     H126324   9.229   0.884   2.083
 8074WAT     H226325   9.330   0.966   2.005
 8075WAT      O26326   9.257   0.551   2.286
 8075WAT     H126327   9.334   0.608   2.297
 8075WAT     H226328   9.259   0.495   2.363
 8076WAT      O26329   7.607   0.404   2.709
 8076WAT     H126330   7.542   0.377   2.645
 8076WAT     H226331   7.691   0.393   2.664
 8077WAT      O26332   9.358   0.637   2.771
 8077WAT     H126333   9.395   0.559   2.730
 8077WAT     H226334   9.422   0.706   2.753
 8078WAT      O26335   9.056   0.775   3.312
 8078WAT     H126336   8.975   0.818   3.338
 8078WAT     H226337   9.097   0.836   3.251
 8079WAT      O26338   9.263   0.581   2.002
 8079WAT     H126339   9.290   0.672   1.989
 8079WAT     H226340   9.244   0.574   2.095
 8080WAT      O26341   9.252   0.374   2.501
 8080WAT     H126342   9.215   0.298   2.458
 8080WAT     H226343   9.179   0.413   2.550
 8081WAT      O26344   7.711   0.442   3.163
 8081WAT     H126345   7.748   0.434   3.251
 8081WAT     H226346   7.654   0.366   3.153
 8082WAT      O26347   9.191   0.289   3.465
 8082WAT     H126348   9.168   0.266   3.374
 8082WAT     H226349   9.217   0.381   3.460
 8083WAT      O26350   9.180   0.197   2.831
 8083WAT     H126351   9.232   0.148   2.768
 8083WAT     H226352   9.238   0.211   2.906
 8084WAT      O26353   9.198   0.205   3.183
 8084WAT     H126354   9.103   0.202   3.195
 8084WAT     H226355   9.216   0.296   3.160
 8085WAT      O26356   9.062   1.250   2.665
 8085WAT     H126357   9.122   1.218   2.597
 8085WAT     H226358   9.088   1.203   2.744
 8086WAT      O26359   7.853   0.894   3.679
 8086WAT     H126360   7.848   0.857   3.768
 8086WAT     H226361   7.866   0.987   3.693
 8087WAT      O26362   8.223   1.049   3.240
 8087WAT     H126363   8.199   1.076   3.151
 8087WAT     H226364   8.317   1.066   3.245
 8088WAT      O26365   9.349   1.251   3.320
 8088WAT     H126366   9.299   1.291   3.248
 8088WAT     H226367   9.288   1.189   3.359
 8089WAT      O26368   7.837   1.188   3.391
 8089WAT     H126369   7.777   1.175   3.465
 8089WAT     H226370   7.836   1.105   3.345
 8090WAT      O26371   9.117   1.315   3.047
 8090WAT     H126372   9.071   1.391   3.010
 8090WAT     H226373   9.054   1.243   3.042
 8091WAT      O26374   7.800   0.925   3.286
 8091WAT     H126375   7.727   0.863   3.280
 8091WAT     H226376   7.806   0.964   3.199
 8092WAT      O26377   8.160   1.146   2.965
 8092WAT     H126378   8.212   1.085   2.912
 8092WAT     H226379   8.225   1.197   3.014
 8093WAT      O26380   8.434   1.235   3.048
 8093WAT     H126381   8.463   1.210   2.960
 8093WAT     H226382   8.485   1.180   3.107
 8094WAT      O26383   7.628   1.257   2.607
 8094WAT     H126384   7.611   1.193   2.677
 8094WAT     H226385   7.541   1.277   2.572
 8095WAT      O26386   7.789   1.126   2.352
 8095WAT     H126387   7.736   1.164   2.282
 8095WAT     H226388   7.781   1.188   2.424
 8096WAT      O26389   8.441   1.328   3.784
 8096WAT     H126390   8.534   1.304   3.789
 8096WAT     H226391   8.439   1.410   3.736
 8097WAT      O26392   9.264   1.282   2.484
 8097WAT     H126393   9.282   1.213   2.420
 8097WAT     H226394   9.195   1.334   2.445
 8098WAT      O26395   8.049   1.321   2.239
 8098WAT     H126396   8.122   1.292   2.185
 8098WAT     H226397   8.075   1.297   2.328
 8099WAT      O26398   7.965   0.932   2.240
 8099WAT     H126399   7.902   0.979   2.295
 8099WAT     H226400   7.976   0.848   2.283
 8100WAT      O26401   9.098   1.250   3.767
 8100WAT     H126402   9.177   1.201   3.746
 8100WAT     H226403   9.127   1.318   3.827
 8101WAT      O26404   8.710   0.337   0.855
 8101WAT     H126405   8.702   0.246   0.828
 8101WAT     H226406   8.669   0.387   0.784
 8102WAT      O26407   8.523   0.515   1.043
 8102WAT     H126408   8.446   0.467   1.072
 8102WAT     H226409   8.589   0.447   1.026
 8103WAT      O26410   7.925   0.546   1.131
 8103WAT     H126411   7.842   0.521   1.171
 8103WAT     H226412   7.986   0.554   1.204
 8104WAT      O26413   8.925   0.956   0.921
 8104WAT     H126414   8.879   0.879   0.954
 8104WAT     H226415   9.007   0.959   0.972
 8105WAT      O26416   7.923   0.950   1.150
 8105WAT     H126417   7.953   0.861   1.132
 8105WAT     H226418   7.998   1.006   1.128
 8106WAT      O26419   7.562   0.303   1.098
 8106WAT     H126420   7.619   0.226   1.098
 8106WAT     H226421   7.562   0.332   1.007
 8107WAT      O26422   8.548   1.184   0.883
 8107WAT     H126423   8.486   1.230   0.826
 8107WAT     H226424   8.634   1.200   0.843
 8108WAT      O26425   8.468   0.783   1.044
 8108WAT     H126426   8.461   0.689   1.028
 8108WAT     H226427   8.544   0.792   1.101
 8109WAT      O26428   8.635   0.673   0.622
 8109WAT     H126429   8.573   0.719   0.566
 8109WAT     H226430   8.686   0.742   0.664
 8110WAT      O26431   8.121   0.626   1.290
 8110WAT     H126432   8.088   0.688   1.354
 8110WAT     H226433   8.139   0.678   1.212
 8111WAT      O26434   8.042   0.822   1.472
 8111WAT     H126435   8.104   0.890   1.444
 8111WAT     H226436   7.956   0.863   1.463
 8112WAT      O26437   7.572   0.741   0.360
 8112WAT     H126438   7.534   0.790   0.287
 8112WAT     H226439   7.597   0.809   0.423
 8113WAT      O26440   9.134   0.969   1.263
 8113WAT     H126441   9.066   1.036   1.262
 8113WAT     H226442   9.188   0.989   1.187
 8114WAT      O26443   8.888   1.153   1.135
 8114WAT     H126444   8.889   1.113   1.048
 8114WAT     H226445   8.832   1.231   1.124
 8115WAT      O26446   9.017   0.825   0.644
 8115WAT     H126447   9.006   0.731   0.656
 8115WAT     H226448   9.017   0.862   0.732
 8116WAT      O26449   8.827   0.644   1.267
 8116WAT     H126450   8.869   0.622   1.184
 8116WAT     H226451   8.900   0.669   1.325
 8117WAT      O26452   8.571   0.388   0.579
 8117WAT     H126453   8.479   0.381   0.602
 8117WAT     H226454   8.587   0.482   0.568
 8118WAT      O26455   9.222   0.483   1.277
 8118WAT     H126456   9.139   0.490   1.229
 8118WAT     H226457   9.282   0.542   1.230
 8119WAT      O26458   8.974   0.544   0.630
 8119WAT     H126459   8.912   0.510   0.565
 8119WAT     H226460   8.973   0.480   0.700
 8120WAT      O26461   8.132   0.441   0.857
 8120WAT     H126462   8.091   0.369   0.808
 8120WAT     H226463   8.140   0.406   0.946
 8121WAT      O26464   8.179   0.809   1.074
 8121WAT     H126465   8.149   0.749   1.006
 8121WAT     H226466   8.274   0.813   1.063
 8122WAT      O26467   8.988   1.167   1.440
 8122WAT     H126468   8.940   1.247   1.421
 8122WAT     H226469   8.919   1.101   1.455
 8123WAT      O26470   8.088   0.783   1.739
 8123WAT     H126471   7.998   0.806   1.764
 8123WAT     H226472   8.090   0.796   1.644
 8124WAT      O26473   8.792   0.468   0.330
 8124WAT     H126474   8.836   0.384   0.316
 8124WAT     H226475   8.863   0.531   0.339
 8125WAT      O26476   7.971   0.470   1.596
 8125WAT     H126477   7.957   0.558   1.633
 8125WAT     H226478   7.882   0.436   1.582
 8126WAT      O26479   8.603   0.962   0.727
 8126WAT     H126480   8.647   1.036   0.686
 8126WAT     H226481   8.597   0.986   0.819
 8127WAT      O26482   8.150   1.065   1.817
 8127WAT     H126483   8.148   1.105   1.731
 8127WAT     H226484   8.134   0.972   1.801
 8128WAT      O26485   7.802   0.330   0.607
 8128WAT     H126486   7.790   0.403   0.546
 8128WAT     H226487   7.771   0.253   0.560
 8129WAT      O26488   9.346   1.143   1.947
 8129WAT     H126489   9.393   1.191   2.015
 8129WAT     H226490   9.408   1.136   1.874
 8130WAT      O26491   7.566   0.647   1.188
 8130WAT     H126492   7.574   0.661   1.094
 8130WAT     H226493   7.627   0.576   1.207
 8131WAT      O26494   7.690   0.817   0.829
 8131WAT     H126495   7.650   0.831   0.744
 8131WAT     H226496   7.779   0.789   0.809
 8132WAT      O26497   9.286   0.862   1.663
 8132WAT     H126498   9.298   0.838   1.571
 8132WAT     H226499   9.290   0.779   1.710
 8133WAT      O26500   8.672   1.232   1.520
 8133WAT     H126501   8.723   1.223   1.600
 8133WAT     H226502   8.588   1.267   1.549
 8134WAT      O26503   8.870   1.261   0.463
 8134WAT     H126504   8.854   1.232   0.553
 8134WAT     H226505   8.853   1.183   0.409
 8135WAT      O26506   8.117   1.239   0.640
 8135WAT     H126507   8.100   1.147   0.619
 8135WAT     H226508   8.032   1.275   0.664
 8136WAT      O26509   8.840   1.012   0.319
 8136WAT     H126510   8.770   1.011   0.253
 8136WAT     H226511   8.914   0.969   0.276
 8137WAT      O26512   8.796   1.174   0.726
 8137WAT     H126513   8.842   1.096   0.758
 8137WAT     H226514   8.830   1.245   0.781
 8138WAT      O26515   7.571   0.751   1.442
 8138WAT     H126516   7.588   0.704   1.360
 8138WAT     H226517   7.618   0.701   1.509
 8139WAT      O26518   8.687   0.223   1.829
 8139WAT     H126519   8.719   0.140   1.795
 8139WAT     H226520   8.766   0.276   1.844
 8140WAT      O26521   8.028   0.177   0.719
 8140WAT     H126522   8.005   0.155   0.809
 8140WAT     H226523   7.950   0.220   0.684
 8141WAT      O26524   8.751   0.177   0.578
 8141WAT     H126525   8.691   0.250   0.560
 8141WAT     H226526   8.805   0.171   0.500
 8142WAT      O26527   8.272   0.267   1.785
 8142WAT     H126528   8.262   0.173   1.770
 8142WAT     H226529   8.356   0.289   1.746
 8143WAT      O26530   8.670   0.300   1.191
 8143WAT     H126531   8.597   0.351   1.226
 8143WAT     H226532   8.630   0.218   1.161
 8144WAT      O26533   8.221   0.299   0.270
 8144WAT     H126534   8.164   0.254   0.208
 8144WAT     H226535   8.292   0.335   0.217
 8145WAT      O26536   7.729   0.689   1.658
 8145WAT     H126537   7.690   0.625   1.718
 8145WAT     H226538   7.760   0.759   1.715
 8146WAT      O26539   8.344   0.374   1.206
 8146WAT     H126540   8.380   0.326   1.281
 8146WAT     H226541   8.325   0.461   1.240
 8147WAT      O26542   8.123   0.278   1.438
 8147WAT     H126543   8.092   0.366   1.460
 8147WAT     H226544   8.218   0.284   1.442
 8148WAT      O26545   7.976   0.698   0.498
 8148WAT     H126546   7.898   0.644   0.482
 8148WAT     H226547   8.048   0.646   0.464
 8149WAT      O26548   9.051   0.598   1.077
 8149WAT     H126549   9.123   0.648   1.038
 8149WAT     H226550   9.031   0.530   1.012
 8150WAT      O26551   8.590   0.605   1.666
 8150WAT     H126552   8.583   0.513   1.640
 8150WAT     H226553   8.527   0.615   1.737
 8151WAT      O26554   7.980   0.665   0.861
 8151WAT     H126555   8.032   0.585   0.856
 8151WAT     H226556   7.935   0.659   0.946
 8152WAT      O26557   8.469   0.792   0.389
 8152WAT     H126558   8.503   0.866   0.339
 8152WAT     H226559   8.386   0.823   0.425
 8153WAT      O26560   7.728   0.362   1.553
 8153WAT     H126561   7.692   0.428   1.611
 8153WAT     H226562   7.699   0.279   1.590
 8154WAT      O26563   8.048   0.408   1.841
 8154WAT     H126564   8.018   0.422   1.751
 8154WAT     H226565   8.126   0.352   1.832
 8155WAT      O26566   8.583   0.887   1.641
 8155WAT     H126567   8.584   0.794   1.619
 8155WAT     H226568   8.512   0.896   1.705
 8156WAT      O26569   9.096   0.306   0.268
 8156WAT     H126570   9.088   0.349   0.183
 8156WAT     H226571   9.168   0.352   0.311
 8157WAT      O26572   9.204   0.551   1.575
 8157WAT     H126573   9.131   0.611   1.556
 8157WAT     H226574   9.257   0.551   1.495
 8158WAT      O26575   9.199   0.991   0.540
 8158WAT     H126576   9.135   0.926   0.568
 8158WAT     H226577   9.160   1.032   0.463
 8159WAT      O26578   8.757   0.724   0.925
 8159WAT     H126579   8.792   0.664   0.859
 8159WAT     H226580   8.668   0.691   0.942
 8160WAT      O26581   8.365   0.800   0.666
 8160WAT     H126582   8.434   0.855   0.704
 8160WAT     H226583   8.287   0.854   0.669
 8161WAT      O26584   7.579   0.362   0.215
 8161WAT     H126585   7.666   0.390   0.243
 8161WAT     H226586   7.530   0.443   0.204
 8162WAT      O26587   8.296   0.500   0.627
 8162WAT     H126588   8.341   0.582   0.650
 8162WAT     H226589   8.261   0.469   0.710
 8163WAT      O26590   8.526   1.052   1.350
 8163WAT     H126591   8.591   1.072   1.418
 8163WAT     H226592   8.562   0.975   1.305
 8164WAT      O26593   8.653   0.852   1.222
 8164WAT     H126594   8.718   0.782   1.233
 8164WAT     H226595   8.706   0.930   1.204
 8165WAT      O26596   8.831   0.932   1.542
 8165WAT     H126597   8.864   0.990   1.610
 8165WAT     H226598   8.739   0.919   1.565
 8166WAT      O26599   7.616   1.283   0.272
 8166WAT     H126600   7.652   1.343   0.206
 8166WAT     H226601   7.602   1.338   0.349
 8167WAT      O26602   8.996   0.672   0.360
 8167WAT     H126603   8.967   0.718   0.439
 8167WAT     H226604   9.076   0.626   0.387
 8168WAT      O26605   7.615   1.110   1.719
 8168WAT     H126606   7.625   1.016   1.705
 8168WAT     H226607   7.549   1.136   1.654
 8169WAT      O26608   8.414   0.937   1.859
 8169WAT     H126609   8.382   0.865   1.914
 8169WAT     H226610   8.346   1.004   1.866
 8170WAT      O26611   8.218   1.021   0.353
 8170WAT     H126612   8.217   1.095   0.292
 8170WAT     H226613   8.126   0.997   0.363
 8171WAT      O26614   7.778   0.543   0.428
 8171WAT     H126615   7.717   0.617   0.429
 8171WAT     H226616   7.825   0.552   0.345
 8172WAT      O26617   8.431   0.225   1.418
 8172WAT     H126618   8.481   0.273   1.484
 8172WAT     H226619   8.445   0.133   1.439
 8173WAT      O26620   8.381   1.279   0.689
 8173WAT     H126621   8.406   1.276   0.597
 8173WAT     H226622   8.286   1.267   0.688
 8174WAT      O26623   8.981   0.371   0.847
 8174WAT     H126624   8.887   0.373   0.864
 8174WAT     H226625   9.013   0.293   0.891
 8175WAT      O26626   7.848   0.283   0.271
 8175WAT     H126627   7.856   0.188   0.282
 8175WAT     H226628   7.938   0.316   0.282
 8176WAT      O26629   9.181   1.088   1.014
 8176WAT     H126630   9.194   1.171   1.061
 8176WAT     H226631   9.268   1.067   0.979
 8177WAT      O26632   7.929   1.298   0.981
 8177WAT     H126633   8.002   1.243   1.009
 8177WAT     H226634   7.967   1.384   0.967
 8178WAT      O26635   7.617   0.905   0.569
 8178WAT     H126636   7.524   0.929   0.568
 8178WAT     H226637   7.664   0.987   0.557
 8179WAT      O26638   7.829   1.216   1.900
 8179WAT     H126639   7.909   1.248   1.942
 8179WAT     H226640   7.778   1.180   1.972
 8180WAT      O26641   8.713   0.827   1.895
 8180WAT     H126642   8.652   0.829   1.821
 8180WAT     H226643   8.682   0.754   1.949
 8181WAT      O26644   8.856   1.200   1.756
 8181WAT     H126645   8.951   1.191   1.751
 8181WAT     H226646   8.841   1.266   1.823
 8182WAT      O26647   9.145   1.138   0.306
 8182WAT     H126648   9.116   1.096   0.225
 8182WAT     H226649   9.125   1.231   0.294
 8183WAT      O26650   7.601   0.465   1.795
 8183WAT     H126651   7.652   0.407   1.852
 8183WAT     H226652   7.527   0.493   1.848
 8184WAT      O26653   8.306   0.606   1.748
 8184WAT     H126654   8.230   0.663   1.740
 8184WAT     H226655   8.325   0.576   1.659
 8185WAT      O26656   8.615   0.643   0.211
 8185WAT     H126657   8.560   0.688   0.275
 8185WAT     H226658   8.678   0.593   0.263
 8186WAT      O26659   9.021   0.779   1.804
 8186WAT     H126660   9.095   0.813   1.753
 8186WAT     H226661   8.944   0.796   1.748
 8187WAT      O26662   7.804   0.279   1.884
 8187WAT     H126663   7.808   0.249   1.975
 8187WAT     H226664   7.890   0.319   1.868
 8188WAT      O26665   8.182   0.539   0.400
 8188WAT     H126666   8.224   0.523   0.484
 8188WAT     H226667   8.195   0.458   0.351
 8189WAT      O26668   8.888   0.584   1.657
 8189WAT     H126669   8.930   0.599   1.742
 8189WAT     H226670   8.795   0.596   1.674
 8190WAT      O26671   8.935   0.318   1.858
 8190WAT     H126672   8.994   0.242   1.849
 8190WAT     H226673   8.953   0.371   1.780
 8191WAT      O26674   8.364   0.579   1.454
 8191WAT     H126675   8.406   0.663   1.437
 8191WAT     H226676   8.272   0.593   1.431
 8192WAT      O26677   8.598   0.352   1.593
 8192WAT     H126678   8.610   0.293   1.667
 8192WAT     H226679   8.684   0.356   1.551
 8193WAT      O26680   8.832   0.408   1.450
 8193WAT     H126681   8.779   0.460   1.390
 8193WAT     H226682   8.866   0.471   1.513
 8194WAT      O26683   8.149   1.210   1.566
 8194WAT     H126684   8.096   1.282   1.534
 8194WAT     H226685   8.175   1.162   1.487
 8195WAT      O26686   8.435   1.333   1.592
 8195WAT     H126687   8.428   1.423   1.622
 8195WAT     H226688   8.345   1.301   1.589
 8196WAT      O26689   8.490   1.250   0.354
 8196WAT     H126690   8.579   1.284   0.356
 8196WAT     H226691   8.493   1.178   0.291
 8197WAT      O26692   7.854   0.787   0.177
 8197WAT     H126693   7.898   0.841   0.242
 8197WAT     H226694   7.902   0.704   0.178
 8198WAT      O26695   7.575   1.066   0.922
 8198WAT     H126696   7.608   0.979   0.899
 8198WAT     H226697   7.618   1.086   1.005
 8199WAT      O26698   8.035   0.899   0.688
 8199WAT     H126699   8.005   0.887   0.778
 8199WAT     H226700   8.024   0.813   0.647
 8200WAT      O26701   7.624   1.153   1.196
 8200WAT     H126702   7.581   1.171   1.279
 8200WAT     H226703   7.681   1.228   1.182
 8201WAT      O26704   9.188   1.103   1.625
 8201WAT     H126705   9.128   1.109   1.550
 8201WAT     H226706   9.201   1.009   1.638
 8202WAT      O26707   9.257   0.551   0.409
 8202WAT     H126708   9.334   0.608   0.419
 8202WAT     H226709   9.259   0.495   0.486
 8203WAT      O26710   7.607   0.404   0.832
 8203WAT     H126711   7.542   0.377   0.767
 8203WAT     H226712   7.691   0.393   0.787
 8204WAT      O26713   9.358   0.637   0.893
 8204WAT     H126714   9.395   0.559   0.852
 8204WAT     H226715   9.422   0.706   0.875
 8205WAT      O26716   9.056   0.775   1.434
 8205WAT     H126717   8.975   0.818   1.461
 8205WAT     H226718   9.097   0.836   1.373
 8206WAT      O26719   9.252   0.374   0.624
 8206WAT     H126720   9.215   0.298   0.580
 8206WAT     H226721   9.179   0.413   0.672
 8207WAT      O26722   7.711   0.442   1.286
 8207WAT     H126723   7.748   0.434   1.374
 8207WAT     H226724   7.654   0.366   1.276
 8208WAT      O26725   9.191   0.289   1.587
 8208WAT     H126726   9.168   0.266   1.497
 8208WAT     H226727   9.217   0.381   1.583
 8209WAT      O26728   9.180   0.197   0.954
 8209WAT     H126729   9.232   0.148   0.891
 8209WAT     H226730   9.238   0.211   1.028
 8210WAT      O26731   9.198   0.205   1.306
 8210WAT     H126732   9.103   0.202   1.317
 8210WAT     H226733   9.216   0.296   1.282
 8211WAT      O26734   9.062   1.250   0.787
 8211WAT     H126735   9.122   1.218   0.719
 8211WAT     H226736   9.088   1.203   0.866
 8212WAT      O26737   7.853   0.894   1.802
 8212WAT     H126738   7.848   0.857   1.890
 8212WAT     H226739   7.866   0.987   1.816
 8213WAT      O26740   8.223   1.049   1.362
 8213WAT     H126741   8.199   1.076   1.273
 8213WAT     H226742   8.317   1.066   1.368
 8214WAT      O26743   9.349   1.251   1.442
 8214WAT     H126744   9.299   1.291   1.370
 8214WAT     H226745   9.288   1.189   1.482
 8215WAT      O26746   7.837   1.188   1.514
 8215WAT     H126747   7.777   1.175   1.588
 8215WAT     H226748   7.836   1.105   1.467
 8216WAT      O26749   9.117   1.315   1.170
 8216WAT     H126750   9.071   1.391   1.133
 8216WAT     H226751   9.054   1.243   1.164
 8217WAT      O26752   7.800   0.925   1.409
 8217WAT     H126753   7.727   0.863   1.402
 8217WAT     H226754   7.806   0.964   1.322
 8218WAT      O26755   8.160   1.146   1.088
 8218WAT     H126756   8.212   1.085   1.035
 8218WAT     H226757   8.225   1.197   1.137
 8219WAT      O26758   8.434   1.235   1.170
 8219WAT     H126759   8.463   1.210   1.083
 8219WAT     H226760   8.485   1.180   1.229
 8220WAT      O26761   7.628   1.257   0.730
 8220WAT     H126762   7.611   1.193   0.800
 8220WAT     H226763   7.541   1.277   0.695
 8221WAT      O26764   7.789   1.126   0.474
 8221WAT     H126765   7.736   1.164   0.404
 8221WAT     H226766   7.781   1.188   0.547
 8222WAT      O26767   8.441   1.328   1.907
 8222WAT     H126768   8.534   1.304   1.911
 8222WAT     H226769   8.439   1.410   1.859
 8223WAT      O26770   9.264   1.282   0.607
 8223WAT     H126771   9.282   1.213   0.542
 8223WAT     H226772   9.195   1.334   0.567
 8224WAT      O26773   8.049   1.321   0.362
 8224WAT     H126774   8.122   1.292   0.307
 8224WAT     H226775   8.075   1.297   0.451
 8225WAT      O26776   7.965   0.932   0.362
 8225WAT     H126777   7.902   0.979   0.417
 8225WAT     H226778   7.976   0.848   0.406
 8226WAT      O26779   9.098   1.250   1.889
 8226WAT     H126780   9.177   1.201   1.869
 8226WAT     H226781   9.127   1.318   1.950
 8227WAT      O26782   6.833   9.725   6.487
 8227WAT     H126783   6.825   9.633   6.460
 8227WAT     H226784   6.791   9.774   6.417
 8228WAT      O26785   6.646   9.902   6.675
 8228WAT     H126786   6.568   9.854   6.704
 8228WAT     H226787   6.711   9.834   6.658
 8229WAT      O26788   6.048   9.934   6.763
 8229WAT     H126789   5.964   9.908   6.803
 8229WAT     H226790   6.108   9.941   6.837
 8230WAT      O26791   5.889   9.430   6.141
 8230WAT     H126792   5.800   9.464   6.131
 8230WAT     H226793   5.917   9.410   6.052
 8231WAT      O26794   5.685   9.690   6.730
 8231WAT     H126795   5.742   9.613   6.730
 8231WAT     H226796   5.685   9.720   6.639
 8232WAT      O26797   5.809   9.231   6.909
 8232WAT     H126798   5.791   9.141   6.937
 8232WAT     H226799   5.769   9.285   6.976
 8233WAT      O26800   6.693   9.451   6.699
 8233WAT     H126801   6.731   9.363   6.687
 8233WAT     H226802   6.683   9.484   6.610
 8234WAT      O26803   6.106   9.288   6.245
 8234WAT     H126804   6.117   9.378   6.276
 8234WAT     H226805   6.015   9.283   6.216
 8235WAT      O26806   7.071   9.200   6.392
 8235WAT     H126807   7.153   9.151   6.396
 8235WAT     H226808   7.075   9.259   6.467
 8236WAT      O26809   5.871   9.480   6.769
 8236WAT     H126810   5.939   9.507   6.831
 8236WAT     H226811   5.839   9.396   6.803
 8237WAT      O26812   6.290   9.585   6.678
 8237WAT     H126813   6.341   9.635   6.742
 8237WAT     H226814   6.343   9.507   6.661
 8238WAT      O26815   7.500   9.402   7.048
 8238WAT     H126816   7.430   9.441   6.997
 8238WAT     H226817   7.527   9.471   7.109
 8239WAT      O26818   6.119   9.049   7.105
 8239WAT     H126819   6.119   9.101   7.024
 8239WAT     H226820   6.036   9.001   7.102
 8240WAT      O26821   6.244  10.013   6.922
 8240WAT     H126822   6.210  10.075   6.987
 8240WAT     H226823   6.261  10.065   6.845
 8241WAT      O26824   7.095   9.394   6.669
 8241WAT     H126825   7.025   9.423   6.727
 8241WAT     H226826   7.131   9.475   6.633
 8242WAT      O26827   6.087   9.220   6.905
 8242WAT     H126828   6.121   9.304   6.876
 8242WAT     H226829   5.993   9.235   6.917
 8243WAT      O26830   7.402   9.339   6.708
 8243WAT     H126831   7.307   9.342   6.721
 8243WAT     H226832   7.434   9.420   6.747
 8244WAT      O26833   6.455   8.969   6.538
 8244WAT     H126834   6.486   8.913   6.466
 8244WAT     H226835   6.362   8.982   6.520
 8245WAT      O26836   6.950  10.031   6.900
 8245WAT     H126837   6.992  10.009   6.816
 8245WAT     H226838   7.022  10.056   6.957
 8246WAT      O26839   6.694   9.775   6.212
 8246WAT     H126840   6.601   9.769   6.234
 8246WAT     H226841   6.709   9.869   6.200
 8247WAT      O26842   6.693   9.402   5.911
 8247WAT     H126843   6.599   9.419   5.920
 8247WAT     H226844   6.724   9.474   5.857
 8248WAT      O26845   7.345   9.871   6.909
 8248WAT     H126846   7.262   9.878   6.861
 8248WAT     H226847   7.404   9.929   6.862
 8249WAT      O26848   7.097   9.931   6.262
 8249WAT     H126849   7.035   9.898   6.197
 8249WAT     H226850   7.095   9.867   6.333
 8250WAT      O26851   7.041   9.549   7.004
 8250WAT     H126852   7.000   9.632   7.029
 8250WAT     H226853   6.968   9.491   6.984
 8251WAT      O26854   6.254   9.828   6.490
 8251WAT     H126855   6.214   9.757   6.440
 8251WAT     H226856   6.263   9.793   6.579
 8252WAT      O26857   6.126   9.505   6.868
 8252WAT     H126858   6.181   9.516   6.790
 8252WAT     H226859   6.177   9.543   6.939
 8253WAT      O26860   6.914   9.855   5.963
 8253WAT     H126861   6.958   9.772   5.948
 8253WAT     H226862   6.986   9.919   5.971
 8254WAT      O26863   6.093   9.857   7.229
 8254WAT     H126864   6.079   9.945   7.266
 8254WAT     H226865   6.005   9.823   7.214
 8255WAT      O26866   7.273   8.981   5.794
 8255WAT     H126867   7.241   8.990   5.884
 8255WAT     H226868   7.349   9.039   5.789
 8256WAT      O26869   5.924   9.717   6.240
 8256WAT     H126870   5.912   9.790   6.179
 8256WAT     H226871   5.893   9.640   6.192
 8257WAT      O26872   5.688  10.034   6.820
 8257WAT     H126873   5.696  10.048   6.726
 8257WAT     H226874   5.750   9.964   6.840
 8258WAT      O26875   7.394   9.454   7.392
 8258WAT     H126876   7.332   9.505   7.339
 8258WAT     H226877   7.362   9.364   7.386
 8259WAT      O26878   6.171   9.052   6.578
 8259WAT     H126879   6.127   9.130   6.545
 8259WAT     H226880   6.227   9.084   6.649
 8260WAT      O26881   6.600   9.338   7.138
 8260WAT     H126882   6.554   9.359   7.220
 8260WAT     H226883   6.560   9.257   7.108
 8261WAT      O26884   7.100   9.460   7.251
 8261WAT     H126885   7.015   9.431   7.283
 8261WAT     H226886   7.084   9.485   7.160
 8262WAT      O26887   6.809   9.610   7.461
 8262WAT     H126888   6.842   9.527   7.427
 8262WAT     H226889   6.888   9.663   7.476
 8263WAT      O26890   6.483   9.014   6.066
 8263WAT     H126891   6.420   9.013   6.139
 8263WAT     H226892   6.474   8.927   6.026
 8264WAT      O26893   6.375   9.106   6.764
 8264WAT     H126894   6.405   9.197   6.756
 8264WAT     H226895   6.430   9.057   6.702
 8265WAT      O26896   6.150   9.564   6.351
 8265WAT     H126897   6.128   9.542   6.441
 8265WAT     H226898   6.072   9.607   6.316
 8266WAT      O26899   6.873   9.565   6.211
 8266WAT     H126900   6.813   9.637   6.192
 8266WAT     H226901   6.928   9.558   6.132
 8267WAT      O26902   6.394   9.654   7.417
 8267WAT     H126903   6.385   9.560   7.402
 8267WAT     H226904   6.479   9.676   7.378
 8268WAT      O26905   6.734   9.428   6.414
 8268WAT     H126906   6.773   9.460   6.332
 8268WAT     H226907   6.770   9.340   6.425
 8269WAT      O26908   5.907   9.295   7.233
 8269WAT     H126909   5.868   9.380   7.253
 8269WAT     H226910   5.839   9.231   7.252
 8270WAT      O26911   5.638   9.087   6.636
 8270WAT     H126912   5.609   9.144   6.707
 8270WAT     H226913   5.712   9.039   6.672
 8271WAT      O26914   5.656   9.481   5.757
 8271WAT     H126915   5.648   9.576   5.771
 8271WAT     H226916   5.621   9.467   5.669
 8272WAT      O26917   6.792   9.687   6.823
 8272WAT     H126918   6.719   9.738   6.858
 8272WAT     H226919   6.753   9.606   6.793
 8273WAT      O26920   6.436   9.355   6.664
 8273WAT     H126921   6.437   9.311   6.579
 8273WAT     H226922   6.526   9.387   6.675
 8274WAT      O26923   6.021   9.343   6.560
 8274WAT     H126924   5.987   9.391   6.635
 8274WAT     H226925   5.945   9.298   6.524
 8275WAT      O26926   6.442   9.455   5.963
 8275WAT     H126927   6.455   9.451   6.058
 8275WAT     H226928   6.404   9.541   5.947
 8276WAT      O26929   6.839   9.233   6.764
 8276WAT     H126930   6.840   9.278   6.849
 8276WAT     H226931   6.814   9.143   6.786
 8277WAT      O26932   6.344   9.686   5.903
 8277WAT     H126933   6.287   9.641   5.840
 8277WAT     H226934   6.414   9.722   5.849
 8278WAT      O26935   7.181   8.974   7.348
 8278WAT     H126936   7.214   8.901   7.401
 8278WAT     H226937   7.185   8.942   7.258
 8279WAT      O26938   6.466   9.761   6.838
 8279WAT     H126939   6.503   9.713   6.913
 8279WAT     H226940   6.447   9.848   6.873
 8280WAT      O26941   5.753   9.235   6.451
 8280WAT     H126942   5.724   9.199   6.535
 8280WAT     H226943   5.746   9.162   6.390
 8281WAT      O26944   6.245   9.665   7.070
 8281WAT     H126945   6.215   9.753   7.093
 8281WAT     H226946   6.341   9.671   7.074
 8282WAT      O26947   6.098  10.086   6.130
 8282WAT     H126948   6.021  10.032   6.114
 8282WAT     H226949   6.171  10.034   6.096
 8283WAT      O26950   7.174   9.985   6.709
 8283WAT     H126951   7.246  10.035   6.670
 8283WAT     H226952   7.154   9.917   6.645
 8284WAT      O26953   6.720   9.125   6.124
 8284WAT     H126954   6.639   9.075   6.116
 8284WAT     H226955   6.701   9.209   6.082
 8285WAT      O26956   6.712   9.992   7.298
 8285WAT     H126957   6.706   9.900   7.272
 8285WAT     H226958   6.649  10.002   7.369
 8286WAT      O26959   6.992   9.562   5.953
 8286WAT     H126960   7.080   9.593   5.936
 8286WAT     H226961   6.989   9.475   5.914
 8287WAT      O26962   6.102  10.052   6.494
 8287WAT     H126963   6.154   9.972   6.488
 8287WAT     H226964   6.057  10.046   6.578
 8288WAT      O26965   5.851   9.749   7.185
 8288WAT     H126966   5.815   9.816   7.244
 8288WAT     H226967   5.821   9.666   7.222
 8289WAT      O26968   6.171   9.795   7.473
 8289WAT     H126969   6.141   9.809   7.384
 8289WAT     H226970   6.248   9.739   7.464
 8290WAT      O26971   7.219   9.693   5.900
 8290WAT     H126972   7.210   9.736   5.815
 8290WAT     H226973   7.291   9.739   5.943
 8291WAT      O26974   7.326   9.939   7.208
 8291WAT     H126975   7.254   9.998   7.188
 8291WAT     H226976   7.379   9.938   7.128
 8292WAT      O26977   5.702   9.749   5.847
 8292WAT     H126978   5.789   9.777   5.876
 8292WAT     H226979   5.653   9.830   5.836
 8293WAT      O26980   6.418   9.888   6.259
 8293WAT     H126981   6.464   9.969   6.282
 8293WAT     H226982   6.383   9.856   6.343
 8294WAT      O26983   6.008   8.922   6.307
 8294WAT     H126984   5.996   8.921   6.402
 8294WAT     H226985   5.926   8.956   6.272
 8295WAT      O26986   5.708   9.098   7.253
 8295WAT     H126987   5.637   9.118   7.313
 8295WAT     H226988   5.750   9.020   7.290
 8296WAT      O26989   5.900   9.931   6.060
 8296WAT     H126990   5.840  10.005   6.061
 8296WAT     H226991   5.948   9.940   5.978
 8297WAT      O26992   6.858   9.347   7.028
 8297WAT     H126993   6.895   9.265   7.061
 8297WAT     H226994   6.772   9.353   7.069
 8298WAT      O26995   7.194   9.243   6.109
 8298WAT     H126996   7.132   9.253   6.037
 8298WAT     H226997   7.145   9.265   6.188
 8299WAT      O26998   6.391   9.471   6.250
 8299WAT     H126999   6.320   9.517   6.294
 8299WAT     H227000   6.420   9.405   6.314
 8300WAT      O27001   6.554   9.613   7.050
 8300WAT     H127002   6.604   9.660   7.117
 8300WAT     H227003   6.568   9.520   7.071
 8301WAT      O27004   6.794   9.143   6.394
 8301WAT     H127005   6.782   9.145   6.299
 8301WAT     H227006   6.889   9.148   6.406
 8302WAT      O27007   6.212   9.301   5.988
 8302WAT     H127008   6.296   9.345   5.981
 8302WAT     H227009   6.175   9.333   6.070
 8303WAT      O27010   7.274   9.234   7.134
 8303WAT     H127011   7.224   9.308   7.168
 8303WAT     H227012   7.356   9.273   7.103
 8304WAT      O27013   7.104   9.759   6.479
 8304WAT     H127014   7.010   9.760   6.496
 8304WAT     H227015   7.135   9.680   6.524
 8305WAT      O27016   6.102   9.927   5.835
 8305WAT     H127017   6.178   9.916   5.891
 8305WAT     H227018   6.109   9.857   5.770
 8306WAT      O27019   5.971   9.670   5.903
 8306WAT     H127020   5.979   9.575   5.915
 8306WAT     H227021   6.060   9.703   5.914
 8307WAT      O27022   5.724   9.852   7.427
 8307WAT     H127023   5.774   9.794   7.484
 8307WAT     H227024   5.650   9.881   7.481
 8308WAT      O27025   6.429   9.993   7.380
 8308WAT     H127026   6.353  10.050   7.372
 8308WAT     H227027   6.447   9.964   7.291
 8309WAT      O27028   6.738  10.031   5.843
 8309WAT     H127029   6.683  10.075   5.907
 8309WAT     H227030   6.800   9.980   5.895
 8310WAT      O27031   6.305   9.926   6.032
 8310WAT     H127032   6.347   9.910   6.117
 8310WAT     H227033   6.317   9.845   5.983
 8311WAT      O27034   6.121   9.524   7.313
 8311WAT     H127035   6.068   9.475   7.250
 8311WAT     H227036   6.188   9.567   7.260
 8312WAT      O27037   6.556   9.829   5.757
 8312WAT     H127038   6.608   9.757   5.721
 8312WAT     H227039   6.621   9.893   5.787
 8313WAT      O27040   7.011   9.971   7.290
 8313WAT     H127041   7.052   9.987   7.375
 8313WAT     H227042   6.917   9.984   7.306
 8314WAT      O27043   7.058   9.705   7.490
 8314WAT     H127044   7.116   9.630   7.481
 8314WAT     H227045   7.076   9.758   7.412
 8315WAT      O27046   6.170   9.221   7.321
 8315WAT     H127047   6.160   9.159   7.249
 8315WAT     H227048   6.112   9.294   7.298
 8316WAT      O27049   6.446   9.077   7.024
 8316WAT     H127050   6.401   9.079   6.940
 8316WAT     H227051   6.383   9.037   7.084
 8317WAT      O27052   6.487   9.966   7.087
 8317WAT     H127053   6.529  10.051   7.069
 8317WAT     H227054   6.395   9.980   7.064
 8318WAT      O27055   6.721   9.739   7.225
 8318WAT     H127056   6.732   9.680   7.299
 8318WAT     H227057   6.806   9.743   7.183
 8319WAT      O27058   6.954   9.795   7.083
 8319WAT     H127059   6.902   9.847   7.022
 8319WAT     H227060   6.989   9.858   7.146
 8320WAT      O27061   6.194   9.534   5.727
 8320WAT     H127062   6.174   9.447   5.763
 8320WAT     H227063   6.177   9.525   5.633
 8321WAT      O27064   6.397   9.394   7.351
 8321WAT     H127065   6.456   9.363   7.419
 8321WAT     H227066   6.315   9.346   7.366
 8322WAT      O27067   6.879   9.355   7.374
 8322WAT     H127068   6.810   9.289   7.368
 8322WAT     H227069   6.951   9.311   7.419
 8323WAT      O27070   6.942   9.015   5.980
 8323WAT     H127071   6.970   8.931   6.016
 8323WAT     H227072   6.865   9.038   6.031
 8324WAT      O27073   6.074   9.244   5.726
 8324WAT     H127074   6.104   9.244   5.635
 8324WAT     H227075   6.148   9.209   5.776
 8325WAT      O27076   6.396   9.138   5.824
 8325WAT     H127077   6.361   9.070   5.766
 8325WAT     H227078   6.416   9.092   5.906
 8326WAT      O27079   7.380   9.939   6.041
 8326WAT     H127080   7.456   9.996   6.052
 8326WAT     H227081   7.382   9.882   6.118
 8327WAT      O27082   5.730   9.791   6.464
 8327WAT     H127083   5.665   9.764   6.400
 8327WAT     H227084   5.814   9.780   6.419
 8328WAT      O27085   7.385   9.968   5.757
 8328WAT     H127086   7.413  10.059   5.744
 8328WAT     H227087   7.366   9.962   5.850
 8329WAT      O27088   7.025   9.270   5.886
 8329WAT     H127089   7.067   9.252   5.802
 8329WAT     H227090   6.994   9.185   5.917
 8330WAT      O27091   7.375   9.762   6.256
 8330WAT     H127092   7.337   9.685   6.213
 8330WAT     H227093   7.302   9.800   6.305
 8331WAT      O27094   5.834   9.830   6.918
 8331WAT     H127095   5.871   9.821   7.006
 8331WAT     H227096   5.777   9.753   6.908
 8332WAT      O27097   7.314   9.676   7.219
 8332WAT     H127098   7.291   9.653   7.129
 8332WAT     H227099   7.340   9.768   7.215
 8333WAT      O27100   5.789   9.521   7.309
 8333WAT     H127101   5.699   9.517   7.343
 8333WAT     H227102   5.843   9.540   7.385
 8334WAT      O27103   5.651   9.512   6.058
 8334WAT     H127104   5.561   9.538   6.041
 8334WAT     H227105   5.700   9.539   5.980
 8335WAT      O27106   7.302   9.584   6.586
 8335WAT     H127107   7.355   9.535   6.523
 8335WAT     H227108   7.361   9.598   6.661
 8336WAT      O27109   7.320   9.593   6.938
 8336WAT     H127110   7.225   9.589   6.950
 8336WAT     H227111   7.338   9.684   6.915
 8337WAT      O27112   5.906   9.418   5.849
 8337WAT     H127113   5.977   9.375   5.801
 8337WAT     H227114   5.834   9.424   5.786
 8338WAT      O27115   5.870   9.023   5.753
 8338WAT     H127116   5.943   9.077   5.785
 8338WAT     H227117   5.898   8.996   5.666
 8339WAT      O27118   7.251   9.510   6.180
 8339WAT     H127119   7.301   9.487   6.258
 8339WAT     H227120   7.231   9.426   6.138
 8340WAT      O27121   5.839   8.948   6.743
 8340WAT     H127122   5.904   8.893   6.699
 8340WAT     H227123   5.881   8.974   6.826
 8341WAT      O27124   7.394   9.374   6.433
 8341WAT     H127125   7.383   9.358   6.527
 8341WAT     H227126   7.470   9.321   6.409
 8342WAT      O27127   7.229   8.967   7.079
 8342WAT     H127128   7.293   9.029   7.116
 8342WAT     H227129   7.244   8.971   6.985
 8343WAT      O27130   7.483   9.157   5.757
 8343WAT     H127131   7.576   9.143   5.737
 8343WAT     H227132   7.481   9.165   5.853
 8344WAT      O27133   7.490   9.234   6.020
 8344WAT     H127134   7.411   9.227   6.073
 8344WAT     H227135   7.511   9.327   6.019
 8345WAT      O27136   5.815   8.964   7.018
 8345WAT     H127137   5.780   9.009   7.094
 8345WAT     H227138   5.782   8.874   7.026
 8346WAT      O27139   6.566   9.083   7.370
 8346WAT     H127140   6.560   9.142   7.445
 8346WAT     H227141   6.660   9.072   7.355
 8347WAT      O27142   6.830   9.048   7.334
 8347WAT     H127143   6.891   9.080   7.268
 8347WAT     H227144   6.884   9.000   7.396
 8348WAT      O27145   5.882   8.916   7.345
 8348WAT     H127146   5.937   8.898   7.269
 8348WAT     H227147   5.888   8.837   7.399
 8349WAT      O27148   6.904   8.905   6.967
 8349WAT     H127149   6.816   8.938   6.946
 8349WAT     H227150   6.893   8.858   7.049
 8350WAT      O27151   6.994   9.125   7.105
 8350WAT     H127152   6.962   9.044   7.067
 8350WAT     H227153   7.089   9.121   7.093
 8351WAT      O27154   6.678   8.996   6.860
 8351WAT     H127155   6.600   9.044   6.888
 8351WAT     H227156   6.649   8.906   6.850
 8352WAT      O27157   7.134   9.067   6.665
 8352WAT     H127158   7.178   9.061   6.580
 8352WAT     H227159   7.107   9.158   6.672
 8353WAT      O27160   7.320   9.030   6.466
 8353WAT     H127161   7.314   8.935   6.451
 8353WAT     H227162   7.398   9.041   6.521
 8354WAT      O27163   5.813   9.027   6.113
 8354WAT     H127164   5.889   9.038   6.055
 8354WAT     H227165   5.767   9.111   6.108
 8355WAT      O27166   6.467   9.238   6.412
 8355WAT     H127167   6.386   9.201   6.378
 8355WAT     H227168   6.517   9.163   6.442
 8356WAT      O27169   6.917   8.905   6.535
 8356WAT     H127170   6.978   8.962   6.583
 8356WAT     H227171   6.843   8.961   6.513
 8357WAT      O27172   7.232   8.945   6.063
 8357WAT     H127173   7.251   9.035   6.090
 8357WAT     H227174   7.153   8.922   6.112
 8358WAT      O27175   6.050   9.080   5.967
 8358WAT     H127176   6.103   9.001   5.954
 8358WAT     H227177   6.113   9.147   5.990
 8359WAT      O27178   6.270   9.053   6.272
 8359WAT     H127179   6.207   8.983   6.289
 8359WAT     H227180   6.216   9.129   6.250
 8360WAT      O27181   6.833   9.725   4.610
 8360WAT     H127182   6.825   9.633   4.583
 8360WAT     H227183   6.791   9.774   4.539
 8361WAT      O27184   6.646   9.902   4.798
 8361WAT     H127185   6.568   9.854   4.827
 8361WAT     H227186   6.711   9.834   4.780
 8362WAT      O27187   6.048   9.934   4.886
 8362WAT     H127188   5.964   9.908   4.926
 8362WAT     H227189   6.108   9.941   4.959
 8363WAT      O27190   5.889   9.430   4.264
 8363WAT     H127191   5.800   9.464   4.254
 8363WAT     H227192   5.917   9.410   4.175
 8364WAT      O27193   5.685   9.690   4.852
 8364WAT     H127194   5.742   9.613   4.852
 8364WAT     H227195   5.685   9.720   4.762
 8365WAT      O27196   5.809   9.231   5.031
 8365WAT     H127197   5.791   9.141   5.059
 8365WAT     H227198   5.769   9.285   5.099
 8366WAT      O27199   6.693   9.451   4.821
 8366WAT     H127200   6.731   9.363   4.810
 8366WAT     H227201   6.683   9.484   4.732
 8367WAT      O27202   6.106   9.288   4.367
 8367WAT     H127203   6.117   9.378   4.398
 8367WAT     H227204   6.015   9.283   4.338
 8368WAT      O27205   7.071   9.200   4.515
 8368WAT     H127206   7.153   9.151   4.519
 8368WAT     H227207   7.075   9.259   4.590
 8369WAT      O27208   5.871   9.480   4.892
 8369WAT     H127209   5.939   9.507   4.954
 8369WAT     H227210   5.839   9.396   4.925
 8370WAT      O27211   6.290   9.585   4.801
 8370WAT     H127212   6.341   9.635   4.865
 8370WAT     H227213   6.343   9.507   4.783
 8371WAT      O27214   7.500   9.402   5.171
 8371WAT     H127215   7.430   9.441   5.119
 8371WAT     H227216   7.527   9.471   5.231
 8372WAT      O27217   6.119   9.049   5.227
 8372WAT     H127218   6.119   9.101   5.147
 8372WAT     H227219   6.036   9.001   5.225
 8373WAT      O27220   6.244  10.013   5.045
 8373WAT     H127221   6.210  10.075   5.109
 8373WAT     H227222   6.261  10.065   4.967
 8374WAT      O27223   7.095   9.394   4.792
 8374WAT     H127224   7.025   9.423   4.850
 8374WAT     H227225   7.131   9.475   4.756
 8375WAT      O27226   6.087   9.220   5.028
 8375WAT     H127227   6.121   9.304   4.999
 8375WAT     H227228   5.993   9.235   5.040
 8376WAT      O27229   7.402   9.339   4.831
 8376WAT     H127230   7.307   9.342   4.844
 8376WAT     H227231   7.434   9.420   4.869
 8377WAT      O27232   6.455   8.969   4.660
 8377WAT     H127233   6.486   8.913   4.589
 8377WAT     H227234   6.362   8.982   4.642
 8378WAT      O27235   6.950  10.031   5.022
 8378WAT     H127236   6.992  10.009   4.939
 8378WAT     H227237   7.022  10.056   5.079
 8379WAT      O27238   6.694   9.775   4.334
 8379WAT     H127239   6.601   9.769   4.357
 8379WAT     H227240   6.709   9.869   4.323
 8380WAT      O27241   6.693   9.402   4.034
 8380WAT     H127242   6.599   9.419   4.042
 8380WAT     H227243   6.724   9.474   3.979
 8381WAT      O27244   7.345   9.871   5.032
 8381WAT     H127245   7.262   9.878   4.984
 8381WAT     H227246   7.404   9.929   4.985
 8382WAT      O27247   7.097   9.931   4.384
 8382WAT     H127248   7.035   9.898   4.320
 8382WAT     H227249   7.095   9.867   4.455
 8383WAT      O27250   7.041   9.549   5.126
 8383WAT     H127251   7.000   9.632   5.151
 8383WAT     H227252   6.968   9.491   5.107
 8384WAT      O27253   6.254   9.828   4.612
 8384WAT     H127254   6.214   9.757   4.563
 8384WAT     H227255   6.263   9.793   4.701
 8385WAT      O27256   6.126   9.505   4.990
 8385WAT     H127257   6.181   9.516   4.913
 8385WAT     H227258   6.177   9.543   5.062
 8386WAT      O27259   6.914   9.855   4.085
 8386WAT     H127260   6.958   9.772   4.071
 8386WAT     H227261   6.986   9.919   4.094
 8387WAT      O27262   6.093   9.857   5.351
 8387WAT     H127263   6.079   9.945   5.388
 8387WAT     H227264   6.005   9.823   5.337
 8388WAT      O27265   7.273   8.981   3.917
 8388WAT     H127266   7.241   8.990   4.007
 8388WAT     H227267   7.349   9.039   3.912
 8389WAT      O27268   5.924   9.717   4.362
 8389WAT     H127269   5.912   9.790   4.301
 8389WAT     H227270   5.893   9.640   4.315
 8390WAT      O27271   5.688  10.034   4.943
 8390WAT     H127272   5.696  10.048   4.849
 8390WAT     H227273   5.750   9.964   4.962
 8391WAT      O27274   7.394   9.454   5.514
 8391WAT     H127275   7.332   9.505   5.461
 8391WAT     H227276   7.362   9.364   5.509
 8392WAT      O27277   6.171   9.052   4.701
 8392WAT     H127278   6.127   9.130   4.667
 8392WAT     H227279   6.227   9.084   4.771
 8393WAT      O27280   6.600   9.338   5.261
 8393WAT     H127281   6.554   9.359   5.342
 8393WAT     H227282   6.560   9.257   5.231
 8394WAT      O27283   7.100   9.460   5.374
 8394WAT     H127284   7.015   9.431   5.406
 8394WAT     H227285   7.084   9.485   5.283
 8395WAT      O27286   6.809   9.610   5.584
 8395WAT     H127287   6.842   9.527   5.550
 8395WAT     H227288   6.888   9.663   5.599
 8396WAT      O27289   6.483   9.014   4.189
 8396WAT     H127290   6.420   9.013   4.261
 8396WAT     H227291   6.474   8.927   4.149
 8397WAT      O27292   6.375   9.106   4.886
 8397WAT     H127293   6.405   9.197   4.878
 8397WAT     H227294   6.430   9.057   4.825
 8398WAT      O27295   6.150   9.564   4.473
 8398WAT     H127296   6.128   9.542   4.564
 8398WAT     H227297   6.072   9.607   4.439
 8399WAT      O27298   6.873   9.565   4.333
 8399WAT     H127299   6.813   9.637   4.315
 8399WAT     H227300   6.928   9.558   4.255
 8400WAT      O27301   6.394   9.654   5.540
 8400WAT     H127302   6.385   9.560   5.525
 8400WAT     H227303   6.479   9.676   5.500
 8401WAT      O27304   6.734   9.428   4.536
 8401WAT     H127305   6.773   9.460   4.455
 8401WAT     H227306   6.770   9.340   4.548
 8402WAT      O27307   5.907   9.295   5.355
 8402WAT     H127308   5.868   9.380   5.376
 8402WAT     H227309   5.839   9.231   5.374
 8403WAT      O27310   6.565   9.303   5.662
 8403WAT     H127311   6.496   9.284   5.726
 8403WAT     H227312   6.639   9.332   5.716
 8404WAT      O27313   5.638   9.087   4.759
 8404WAT     H127314   5.609   9.144   4.830
 8404WAT     H227315   5.712   9.039   4.795
 8405WAT      O27316   5.656   9.481   3.880
 8405WAT     H127317   5.648   9.576   3.894
 8405WAT     H227318   5.621   9.467   3.792
 8406WAT      O27319   6.792   9.687   4.946
 8406WAT     H127320   6.719   9.738   4.981
 8406WAT     H227321   6.753   9.606   4.916
 8407WAT      O27322   6.436   9.355   4.786
 8407WAT     H127323   6.437   9.311   4.701
 8407WAT     H227324   6.526   9.387   4.797
 8408WAT      O27325   6.021   9.343   4.682
 8408WAT     H127326   5.987   9.391   4.758
 8408WAT     H227327   5.945   9.298   4.646
 8409WAT      O27328   6.442   9.455   4.085
 8409WAT     H127329   6.455   9.451   4.180
 8409WAT     H227330   6.404   9.541   4.070
 8410WAT      O27331   6.839   9.233   4.887
 8410WAT     H127332   6.840   9.278   4.971
 8410WAT     H227333   6.814   9.143   4.908
 8411WAT      O27334   6.344   9.686   4.025
 8411WAT     H127335   6.287   9.641   3.963
 8411WAT     H227336   6.414   9.722   3.972
 8412WAT      O27337   7.181   8.974   5.471
 8412WAT     H127338   7.214   8.901   5.524
 8412WAT     H227339   7.185   8.942   5.381
 8413WAT      O27340   6.466   9.761   4.961
 8413WAT     H127341   6.503   9.713   5.036
 8413WAT     H227342   6.447   9.848   4.995
 8414WAT      O27343   5.753   9.235   4.574
 8414WAT     H127344   5.724   9.199   4.658
 8414WAT     H227345   5.746   9.162   4.513
 8415WAT      O27346   6.245   9.665   5.193
 8415WAT     H127347   6.215   9.753   5.215
 8415WAT     H227348   6.341   9.671   5.196
 8416WAT      O27349   6.098  10.086   4.253
 8416WAT     H127350   6.021  10.032   4.237
 8416WAT     H227351   6.171  10.034   4.219
 8417WAT      O27352   7.174   9.985   4.832
 8417WAT     H127353   7.246  10.035   4.793
 8417WAT     H227354   7.154   9.917   4.767
 8418WAT      O27355   6.720   9.125   4.246
 8418WAT     H127356   6.639   9.075   4.239
 8418WAT     H227357   6.701   9.209   4.204
 8419WAT      O27358   6.712   9.992   5.420
 8419WAT     H127359   6.706   9.900   5.395
 8419WAT     H227360   6.649  10.002   5.492
 8420WAT      O27361   6.992   9.562   4.076
 8420WAT     H127362   7.080   9.593   4.058
 8420WAT     H227363   6.989   9.475   4.037
 8421WAT      O27364   6.102  10.052   4.616
 8421WAT     H127365   6.154   9.972   4.611
 8421WAT     H227366   6.057  10.046   4.700
 8422WAT      O27367   5.851   9.749   5.308
 8422WAT     H127368   5.815   9.816   5.366
 8422WAT     H227369   5.821   9.666   5.345
 8423WAT      O27370   6.171   9.795   5.596
 8423WAT     H127371   6.141   9.809   5.506
 8423WAT     H227372   6.248   9.739   5.587
 8424WAT      O27373   7.219   9.693   4.022
 8424WAT     H127374   7.210   9.736   3.937
 8424WAT     H227375   7.291   9.739   4.066
 8425WAT      O27376   7.326   9.939   5.330
 8425WAT     H127377   7.254   9.998   5.310
 8425WAT     H227378   7.379   9.938   5.250
 8426WAT      O27379   5.702   9.749   3.970
 8426WAT     H127380   5.789   9.777   3.998
 8426WAT     H227381   5.653   9.830   3.958
 8427WAT      O27382   6.418   9.888   4.382
 8427WAT     H127383   6.464   9.969   4.405
 8427WAT     H227384   6.383   9.856   4.465
 8428WAT      O27385   6.008   8.922   4.429
 8428WAT     H127386   5.996   8.921   4.524
 8428WAT     H227387   5.926   8.956   4.394
 8429WAT      O27388   5.708   9.098   5.375
 8429WAT     H127389   5.637   9.118   5.436
 8429WAT     H227390   5.750   9.020   5.412
 8430WAT      O27391   5.900   9.931   4.183
 8430WAT     H127392   5.840  10.005   4.184
 8430WAT     H227393   5.948   9.940   4.100
 8431WAT      O27394   6.858   9.347   5.150
 8431WAT     H127395   6.895   9.265   5.183
 8431WAT     H227396   6.772   9.353   5.192
 8432WAT      O27397   7.194   9.243   4.231
 8432WAT     H127398   7.132   9.253   4.160
 8432WAT     H227399   7.145   9.265   4.310
 8433WAT      O27400   6.391   9.471   4.373
 8433WAT     H127401   6.320   9.517   4.417
 8433WAT     H227402   6.420   9.405   4.436
 8434WAT      O27403   6.554   9.613   5.173
 8434WAT     H127404   6.604   9.660   5.239
 8434WAT     H227405   6.568   9.520   5.193
 8435WAT      O27406   6.794   9.143   4.517
 8435WAT     H127407   6.782   9.145   4.422
 8435WAT     H227408   6.889   9.148   4.529
 8436WAT      O27409   6.212   9.301   4.110
 8436WAT     H127410   6.296   9.345   4.104
 8436WAT     H227411   6.175   9.333   4.193
 8437WAT      O27412   7.274   9.234   5.257
 8437WAT     H127413   7.224   9.308   5.291
 8437WAT     H227414   7.356   9.273   5.225
 8438WAT      O27415   7.104   9.759   4.602
 8438WAT     H127416   7.010   9.760   4.619
 8438WAT     H227417   7.135   9.680   4.646
 8439WAT      O27418   6.102   9.927   3.958
 8439WAT     H127419   6.178   9.916   4.014
 8439WAT     H227420   6.109   9.857   3.892
 8440WAT      O27421   5.971   9.670   4.026
 8440WAT     H127422   5.979   9.575   4.037
 8440WAT     H227423   6.060   9.703   4.037
 8441WAT      O27424   5.724   9.852   5.550
 8441WAT     H127425   5.774   9.794   5.607
 8441WAT     H227426   5.650   9.881   5.603
 8442WAT      O27427   6.429   9.993   5.503
 8442WAT     H127428   6.353  10.050   5.494
 8442WAT     H227429   6.447   9.964   5.414
 8443WAT      O27430   6.738  10.031   3.965
 8443WAT     H127431   6.683  10.075   4.030
 8443WAT     H227432   6.800   9.980   4.018
 8444WAT      O27433   5.927   9.666   5.639
 8444WAT     H127434   5.931   9.637   5.730
 8444WAT     H227435   6.012   9.707   5.623
 8445WAT      O27436   6.305   9.926   4.155
 8445WAT     H127437   6.347   9.910   4.239
 8445WAT     H227438   6.317   9.845   4.106
 8446WAT      O27439   6.121   9.524   5.436
 8446WAT     H127440   6.068   9.475   5.373
 8446WAT     H227441   6.188   9.567   5.382
 8447WAT      O27442   6.556   9.829   3.880
 8447WAT     H127443   6.608   9.757   3.843
 8447WAT     H227444   6.621   9.893   3.910
 8448WAT      O27445   7.011   9.971   5.412
 8448WAT     H127446   7.052   9.987   5.497
 8448WAT     H227447   6.917   9.984   5.428
 8449WAT      O27448   7.058   9.705   5.613
 8449WAT     H127449   7.116   9.630   5.604
 8449WAT     H227450   7.076   9.758   5.535
 8450WAT      O27451   6.170   9.221   5.444
 8450WAT     H127452   6.160   9.159   5.371
 8450WAT     H227453   6.112   9.294   5.421
 8451WAT      O27454   6.446   9.077   5.147
 8451WAT     H127455   6.401   9.079   5.062
 8451WAT     H227456   6.383   9.037   5.207
 8452WAT      O27457   6.487   9.966   5.209
 8452WAT     H127458   6.529  10.051   5.192
 8452WAT     H227459   6.395   9.980   5.186
 8453WAT      O27460   6.721   9.739   5.348
 8453WAT     H127461   6.732   9.680   5.421
 8453WAT     H227462   6.806   9.743   5.306
 8454WAT      O27463   6.954   9.795   5.205
 8454WAT     H127464   6.902   9.847   5.145
 8454WAT     H227465   6.989   9.858   5.268
 8455WAT      O27466   6.194   9.534   3.850
 8455WAT     H127467   6.174   9.447   3.886
 8455WAT     H227468   6.177   9.525   3.756
 8456WAT      O27469   6.397   9.394   5.473
 8456WAT     H127470   6.456   9.363   5.542
 8456WAT     H227471   6.315   9.346   5.489
 8457WAT      O27472   6.879   9.355   5.497
 8457WAT     H127473   6.810   9.289   5.490
 8457WAT     H227474   6.951   9.311   5.541
 8458WAT      O27475   6.942   9.015   4.102
 8458WAT     H127476   6.970   8.931   4.138
 8458WAT     H227477   6.865   9.038   4.154
 8459WAT      O27478   6.074   9.244   3.848
 8459WAT     H127479   6.104   9.244   3.758
 8459WAT     H227480   6.148   9.209   3.898
 8460WAT      O27481   6.396   9.138   3.947
 8460WAT     H127482   6.361   9.070   3.889
 8460WAT     H227483   6.416   9.092   4.028
 8461WAT      O27484   7.380   9.939   4.164
 8461WAT     H127485   7.456   9.996   4.174
 8461WAT     H227486   7.382   9.882   4.241
 8462WAT      O27487   5.730   9.791   4.587
 8462WAT     H127488   5.665   9.764   4.522
 8462WAT     H227489   5.814   9.780   4.542
 8463WAT      O27490   7.385   9.968   3.879
 8463WAT     H127491   7.413  10.059   3.866
 8463WAT     H227492   7.366   9.962   3.973
 8464WAT      O27493   7.025   9.270   4.009
 8464WAT     H127494   7.067   9.252   3.925
 8464WAT     H227495   6.994   9.185   4.040
 8465WAT      O27496   7.375   9.762   4.379
 8465WAT     H127497   7.337   9.685   4.335
 8465WAT     H227498   7.302   9.800   4.427
 8466WAT      O27499   5.834   9.830   5.041
 8466WAT     H127500   5.871   9.821   5.129
 8466WAT     H227501   5.777   9.753   5.031
 8467WAT      O27502   7.314   9.676   5.342
 8467WAT     H127503   7.291   9.653   5.252
 8467WAT     H227504   7.340   9.768   5.337
 8468WAT      O27505   5.789   9.521   5.431
 8468WAT     H127506   5.699   9.517   5.465
 8468WAT     H227507   5.843   9.540   5.508
 8469WAT      O27508   7.158   9.199   5.620
 8469WAT     H127509   7.245   9.200   5.658
 8469WAT     H227510   7.159   9.125   5.559
 8470WAT      O27511   5.651   9.512   4.181
 8470WAT     H127512   5.561   9.538   4.163
 8470WAT     H227513   5.700   9.539   4.103
 8471WAT      O27514   7.302   9.584   4.709
 8471WAT     H127515   7.355   9.535   4.646
 8471WAT     H227516   7.361   9.598   4.783
 8472WAT      O27517   7.320   9.593   5.061
 8472WAT     H127518   7.225   9.589   5.072
 8472WAT     H227519   7.338   9.684   5.037
 8473WAT      O27520   5.906   9.418   3.972
 8473WAT     H127521   5.977   9.375   3.923
 8473WAT     H227522   5.834   9.424   3.909
 8474WAT      O27523   5.870   9.023   3.876
 8474WAT     H127524   5.943   9.077   3.908
 8474WAT     H227525   5.898   8.996   3.788
 8475WAT      O27526   7.251   9.510   4.303
 8475WAT     H127527   7.301   9.487   4.381
 8475WAT     H227528   7.231   9.426   4.261
 8476WAT      O27529   5.839   8.948   4.866
 8476WAT     H127530   5.904   8.893   4.822
 8476WAT     H227531   5.881   8.974   4.948
 8477WAT      O27532   7.394   9.374   4.556
 8477WAT     H127533   7.383   9.358   4.650
 8477WAT     H227534   7.470   9.321   4.532
 8478WAT      O27535   7.229   8.967   5.202
 8478WAT     H127536   7.293   9.029   5.238
 8478WAT     H227537   7.244   8.971   5.107
 8479WAT      O27538   7.483   9.157   3.880
 8479WAT     H127539   7.576   9.143   3.859
 8479WAT     H227540   7.481   9.165   3.975
 8480WAT      O27541   7.490   9.234   4.143
 8480WAT     H127542   7.411   9.227   4.195
 8480WAT     H227543   7.511   9.327   4.141
 8481WAT      O27544   5.815   8.964   5.140
 8481WAT     H127545   5.780   9.009   5.217
 8481WAT     H227546   5.782   8.874   5.149
 8482WAT      O27547   6.566   9.083   5.493
 8482WAT     H127548   6.560   9.142   5.567
 8482WAT     H227549   6.660   9.072   5.478
 8483WAT      O27550   6.830   9.048   5.456
 8483WAT     H127551   6.891   9.080   5.390
 8483WAT     H227552   6.884   9.000   5.518
 8484WAT      O27553   5.882   8.916   5.468
 8484WAT     H127554   5.937   8.898   5.391
 8484WAT     H227555   5.888   8.837   5.521
 8485WAT      O27556   6.904   8.905   5.089
 8485WAT     H127557   6.816   8.938   5.069
 8485WAT     H227558   6.893   8.858   5.172
 8486WAT      O27559   6.994   9.125   5.228
 8486WAT     H127560   6.962   9.044   5.190
 8486WAT     H227561   7.089   9.121   5.215
 8487WAT      O27562   6.678   8.996   4.983
 8487WAT     H127563   6.600   9.044   5.011
 8487WAT     H227564   6.649   8.906   4.972
 8488WAT      O27565   7.134   9.067   4.788
 8488WAT     H127566   7.178   9.061   4.703
 8488WAT     H227567   7.107   9.158   4.795
 8489WAT      O27568   7.320   9.030   4.589
 8489WAT     H127569   7.314   8.935   4.574
 8489WAT     H227570   7.398   9.041   4.643
 8490WAT      O27571   5.813   9.027   4.235
 8490WAT     H127572   5.889   9.038   4.178
 8490WAT     H227573   5.767   9.111   4.231
 8491WAT      O27574   6.467   9.238   4.534
 8491WAT     H127575   6.386   9.201   4.500
 8491WAT     H227576   6.517   9.163   4.564
 8492WAT      O27577   6.917   8.905   4.658
 8492WAT     H127578   6.978   8.962   4.706
 8492WAT     H227579   6.843   8.961   4.636
 8493WAT      O27580   7.232   8.945   4.185
 8493WAT     H127581   7.251   9.035   4.212
 8493WAT     H227582   7.153   8.922   4.235
 8494WAT      O27583   6.050   9.080   4.089
 8494WAT     H127584   6.103   9.001   4.076
 8494WAT     H227585   6.113   9.147   4.113
 8495WAT      O27586   6.270   9.053   4.395
 8495WAT     H127587   6.207   8.983   4.411
 8495WAT     H227588   6.216   9.129   4.373
 8496WAT      O27589   6.282   8.981   5.638
 8496WAT     H127590   6.254   9.032   5.562
 8496WAT     H227591   6.320   8.901   5.602
 8497WAT      O27592   6.942   8.923   5.696
 8497WAT     H127593   6.931   8.955   5.786
 8497WAT     H227594   7.024   8.963   5.666
 8498WAT      O27595   6.833   9.725   2.732
 8498WAT     H127596   6.825   9.633   2.705
 8498WAT     H227597   6.791   9.774   2.662
 8499WAT      O27598   6.646   9.902   2.920
 8499WAT     H127599   6.568   9.854   2.949
 8499WAT     H227600   6.711   9.834   2.903
 8500WAT      O27601   6.048   9.934   3.008
 8500WAT     H127602   5.964   9.908   3.048
 8500WAT     H227603   6.108   9.941   3.082
 8501WAT      O27604   5.889   9.430   2.387
 8501WAT     H127605   5.800   9.464   2.376
 8501WAT     H227606   5.917   9.410   2.297
 8502WAT      O27607   5.685   9.690   2.975
 8502WAT     H127608   5.742   9.613   2.975
 8502WAT     H227609   5.685   9.720   2.884
 8503WAT      O27610   5.809   9.231   3.154
 8503WAT     H127611   5.791   9.141   3.182
 8503WAT     H227612   5.769   9.285   3.221
 8504WAT      O27613   6.693   9.451   2.944
 8504WAT     H127614   6.731   9.363   2.933
 8504WAT     H227615   6.683   9.484   2.855
 8505WAT      O27616   6.106   9.288   2.490
 8505WAT     H127617   6.117   9.378   2.521
 8505WAT     H227618   6.015   9.283   2.461
 8506WAT      O27619   7.071   9.200   2.637
 8506WAT     H127620   7.153   9.151   2.641
 8506WAT     H227621   7.075   9.259   2.712
 8507WAT      O27622   5.871   9.480   3.015
 8507WAT     H127623   5.939   9.507   3.076
 8507WAT     H227624   5.839   9.396   3.048
 8508WAT      O27625   6.290   9.585   2.923
 8508WAT     H127626   6.341   9.635   2.987
 8508WAT     H227627   6.343   9.507   2.906
 8509WAT      O27628   7.500   9.402   3.294
 8509WAT     H127629   7.430   9.441   3.242
 8509WAT     H227630   7.527   9.471   3.354
 8510WAT      O27631   6.119   9.049   3.350
 8510WAT     H127632   6.119   9.101   3.269
 8510WAT     H227633   6.036   9.001   3.348
 8511WAT      O27634   6.244  10.013   3.168
 8511WAT     H127635   6.210  10.075   3.232
 8511WAT     H227636   6.261  10.065   3.090
 8512WAT      O27637   7.095   9.394   2.914
 8512WAT     H127638   7.025   9.423   2.972
 8512WAT     H227639   7.131   9.475   2.878
 8513WAT      O27640   6.087   9.220   3.151
 8513WAT     H127641   6.121   9.304   3.121
 8513WAT     H227642   5.993   9.235   3.162
 8514WAT      O27643   7.402   9.339   2.953
 8514WAT     H127644   7.307   9.342   2.967
 8514WAT     H227645   7.434   9.420   2.992
 8515WAT      O27646   6.455   8.969   2.783
 8515WAT     H127647   6.486   8.913   2.711
 8515WAT     H227648   6.362   8.982   2.765
 8516WAT      O27649   6.950  10.031   3.145
 8516WAT     H127650   6.992  10.009   3.061
 8516WAT     H227651   7.022  10.056   3.202
 8517WAT      O27652   6.694   9.775   2.457
 8517WAT     H127653   6.601   9.769   2.480
 8517WAT     H227654   6.709   9.869   2.445
 8518WAT      O27655   6.693   9.402   2.156
 8518WAT     H127656   6.599   9.419   2.165
 8518WAT     H227657   6.724   9.474   2.102
 8519WAT      O27658   7.345   9.871   3.154
 8519WAT     H127659   7.262   9.878   3.107
 8519WAT     H227660   7.404   9.929   3.107
 8520WAT      O27661   7.097   9.931   2.507
 8520WAT     H127662   7.035   9.898   2.442
 8520WAT     H227663   7.095   9.867   2.578
 8521WAT      O27664   7.041   9.549   3.249
 8521WAT     H127665   7.000   9.632   3.274
 8521WAT     H227666   6.968   9.491   3.229
 8522WAT      O27667   6.254   9.828   2.735
 8522WAT     H127668   6.214   9.757   2.685
 8522WAT     H227669   6.263   9.793   2.824
 8523WAT      O27670   6.126   9.505   3.113
 8523WAT     H127671   6.181   9.516   3.035
 8523WAT     H227672   6.177   9.543   3.184
 8524WAT      O27673   6.914   9.855   2.208
 8524WAT     H127674   6.958   9.772   2.193
 8524WAT     H227675   6.986   9.919   2.216
 8525WAT      O27676   6.093   9.857   3.474
 8525WAT     H127677   6.079   9.945   3.511
 8525WAT     H227678   6.005   9.823   3.459
 8526WAT      O27679   7.273   8.981   2.039
 8526WAT     H127680   7.241   8.990   2.129
 8526WAT     H227681   7.349   9.039   2.034
 8527WAT      O27682   5.924   9.717   2.485
 8527WAT     H127683   5.912   9.790   2.424
 8527WAT     H227684   5.893   9.640   2.437
 8528WAT      O27685   5.688  10.034   3.066
 8528WAT     H127686   5.696  10.048   2.971
 8528WAT     H227687   5.750   9.964   3.085
 8529WAT      O27688   7.394   9.454   3.637
 8529WAT     H127689   7.332   9.505   3.584
 8529WAT     H227690   7.362   9.364   3.631
 8530WAT      O27691   6.171   9.052   2.823
 8530WAT     H127692   6.127   9.130   2.790
 8530WAT     H227693   6.227   9.084   2.894
 8531WAT      O27694   6.600   9.338   3.383
 8531WAT     H127695   6.554   9.359   3.465
 8531WAT     H227696   6.560   9.257   3.353
 8532WAT      O27697   7.100   9.460   3.496
 8532WAT     H127698   7.015   9.431   3.529
 8532WAT     H227699   7.084   9.485   3.405
 8533WAT      O27700   6.809   9.610   3.706
 8533WAT     H127701   6.842   9.527   3.672
 8533WAT     H227702   6.888   9.663   3.721
 8534WAT      O27703   6.483   9.014   2.311
 8534WAT     H127704   6.420   9.013   2.384
 8534WAT     H227705   6.474   8.927   2.272
 8535WAT      O27706   6.375   9.106   3.009
 8535WAT     H127707   6.405   9.197   3.001
 8535WAT     H227708   6.430   9.057   2.948
 8536WAT      O27709   6.150   9.564   2.596
 8536WAT     H127710   6.128   9.542   2.686
 8536WAT     H227711   6.072   9.607   2.561
 8537WAT      O27712   6.873   9.565   2.456
 8537WAT     H127713   6.813   9.637   2.437
 8537WAT     H227714   6.928   9.558   2.378
 8538WAT      O27715   6.394   9.654   3.663
 8538WAT     H127716   6.385   9.560   3.648
 8538WAT     H227717   6.479   9.676   3.623
 8539WAT      O27718   6.734   9.428   2.659
 8539WAT     H127719   6.773   9.460   2.578
 8539WAT     H227720   6.770   9.340   2.670
 8540WAT      O27721   5.907   9.295   3.478
 8540WAT     H127722   5.868   9.380   3.499
 8540WAT     H227723   5.839   9.231   3.497
 8541WAT      O27724   6.565   9.303   3.785
 8541WAT     H127725   6.496   9.284   3.848
 8541WAT     H227726   6.639   9.332   3.838
 8542WAT      O27727   5.638   9.087   2.881
 8542WAT     H127728   5.609   9.144   2.952
 8542WAT     H227729   5.712   9.039   2.917
 8543WAT      O27730   5.656   9.481   2.002
 8543WAT     H127731   5.648   9.576   2.016
 8543WAT     H227732   5.621   9.467   1.914
 8544WAT      O27733   6.792   9.687   3.068
 8544WAT     H127734   6.719   9.738   3.103
 8544WAT     H227735   6.753   9.606   3.038
 8545WAT      O27736   6.436   9.355   2.909
 8545WAT     H127737   6.437   9.311   2.824
 8545WAT     H227738   6.526   9.387   2.920
 8546WAT      O27739   6.021   9.343   2.805
 8546WAT     H127740   5.987   9.391   2.881
 8546WAT     H227741   5.945   9.298   2.769
 8547WAT      O27742   6.442   9.455   2.208
 8547WAT     H127743   6.455   9.451   2.303
 8547WAT     H227744   6.404   9.541   2.192
 8548WAT      O27745   6.839   9.233   3.010
 8548WAT     H127746   6.840   9.278   3.094
 8548WAT     H227747   6.814   9.143   3.031
 8549WAT      O27748   6.344   9.686   2.148
 8549WAT     H127749   6.287   9.641   2.085
 8549WAT     H227750   6.414   9.722   2.094
 8550WAT      O27751   7.181   8.974   3.593
 8550WAT     H127752   7.214   8.901   3.646
 8550WAT     H227753   7.185   8.942   3.503
 8551WAT      O27754   6.466   9.761   3.084
 8551WAT     H127755   6.503   9.713   3.158
 8551WAT     H227756   6.447   9.848   3.118
 8552WAT      O27757   5.753   9.235   2.697
 8552WAT     H127758   5.724   9.199   2.780
 8552WAT     H227759   5.746   9.162   2.635
 8553WAT      O27760   6.245   9.665   3.315
 8553WAT     H127761   6.215   9.753   3.338
 8553WAT     H227762   6.341   9.671   3.319
 8554WAT      O27763   6.098  10.086   2.375
 8554WAT     H127764   6.021  10.032   2.359
 8554WAT     H227765   6.171  10.034   2.341
 8555WAT      O27766   7.174   9.985   2.954
 8555WAT     H127767   7.246  10.035   2.915
 8555WAT     H227768   7.154   9.917   2.890
 8556WAT      O27769   6.720   9.125   2.369
 8556WAT     H127770   6.639   9.075   2.361
 8556WAT     H227771   6.701   9.209   2.327
 8557WAT      O27772   6.712   9.992   3.543
 8557WAT     H127773   6.706   9.900   3.518
 8557WAT     H227774   6.649  10.002   3.614
 8558WAT      O27775   6.992   9.562   2.198
 8558WAT     H127776   7.080   9.593   2.181
 8558WAT     H227777   6.989   9.475   2.159
 8559WAT      O27778   6.102  10.052   2.739
 8559WAT     H127779   6.154   9.972   2.733
 8559WAT     H227780   6.057  10.046   2.823
 8560WAT      O27781   5.851   9.749   3.430
 8560WAT     H127782   5.815   9.816   3.489
 8560WAT     H227783   5.821   9.666   3.467
 8561WAT      O27784   6.171   9.795   3.719
 8561WAT     H127785   6.141   9.809   3.629
 8561WAT     H227786   6.248   9.739   3.709
 8562WAT      O27787   7.219   9.693   2.145
 8562WAT     H127788   7.210   9.736   2.060
 8562WAT     H227789   7.291   9.739   2.188
 8563WAT      O27790   7.326   9.939   3.453
 8563WAT     H127791   7.254   9.998   3.433
 8563WAT     H227792   7.379   9.938   3.373
 8564WAT      O27793   5.702   9.749   2.092
 8564WAT     H127794   5.789   9.777   2.121
 8564WAT     H227795   5.653   9.830   2.081
 8565WAT      O27796   6.418   9.888   2.505
 8565WAT     H127797   6.464   9.969   2.527
 8565WAT     H227798   6.383   9.856   2.588
 8566WAT      O27799   6.008   8.922   2.552
 8566WAT     H127800   5.996   8.921   2.647
 8566WAT     H227801   5.926   8.956   2.517
 8567WAT      O27802   5.708   9.098   3.498
 8567WAT     H127803   5.637   9.118   3.558
 8567WAT     H227804   5.750   9.020   3.535
 8568WAT      O27805   5.900   9.931   2.305
 8568WAT     H127806   5.840  10.005   2.306
 8568WAT     H227807   5.948   9.940   2.223
 8569WAT      O27808   6.858   9.347   3.273
 8569WAT     H127809   6.895   9.265   3.306
 8569WAT     H227810   6.772   9.353   3.314
 8570WAT      O27811   7.194   9.243   2.354
 8570WAT     H127812   7.132   9.253   2.282
 8570WAT     H227813   7.145   9.265   2.433
 8571WAT      O27814   6.391   9.471   2.495
 8571WAT     H127815   6.320   9.517   2.539
 8571WAT     H227816   6.420   9.405   2.559
 8572WAT      O27817   6.554   9.613   3.295
 8572WAT     H127818   6.604   9.660   3.362
 8572WAT     H227819   6.568   9.520   3.316
 8573WAT      O27820   6.794   9.143   2.639
 8573WAT     H127821   6.782   9.145   2.544
 8573WAT     H227822   6.889   9.148   2.651
 8574WAT      O27823   6.212   9.301   2.233
 8574WAT     H127824   6.296   9.345   2.226
 8574WAT     H227825   6.175   9.333   2.316
 8575WAT      O27826   7.274   9.234   3.380
 8575WAT     H127827   7.224   9.308   3.413
 8575WAT     H227828   7.356   9.273   3.348
 8576WAT      O27829   7.104   9.759   2.724
 8576WAT     H127830   7.010   9.760   2.742
 8576WAT     H227831   7.135   9.680   2.769
 8577WAT      O27832   6.102   9.927   2.080
 8577WAT     H127833   6.178   9.916   2.136
 8577WAT     H227834   6.109   9.857   2.015
 8578WAT      O27835   5.971   9.670   2.149
 8578WAT     H127836   5.979   9.575   2.160
 8578WAT     H227837   6.060   9.703   2.159
 8579WAT      O27838   5.724   9.852   3.672
 8579WAT     H127839   5.774   9.794   3.729
 8579WAT     H227840   5.650   9.881   3.726
 8580WAT      O27841   6.429   9.993   3.625
 8580WAT     H127842   6.353  10.050   3.617
 8580WAT     H227843   6.447   9.964   3.536
 8581WAT      O27844   6.738  10.031   2.088
 8581WAT     H127845   6.683  10.075   2.152
 8581WAT     H227846   6.800   9.980   2.140
 8582WAT      O27847   5.927   9.666   3.762
 8582WAT     H127848   5.931   9.637   3.852
 8582WAT     H227849   6.012   9.707   3.746
 8583WAT      O27850   6.305   9.926   2.278
 8583WAT     H127851   6.347   9.910   2.362
 8583WAT     H227852   6.317   9.845   2.228
 8584WAT      O27853   6.121   9.524   3.558
 8584WAT     H127854   6.068   9.475   3.496
 8584WAT     H227855   6.188   9.567   3.505
 8585WAT      O27856   6.556   9.829   2.002
 8585WAT     H127857   6.608   9.757   1.966
 8585WAT     H227858   6.621   9.893   2.032
 8586WAT      O27859   7.011   9.971   3.535
 8586WAT     H127860   7.052   9.987   3.620
 8586WAT     H227861   6.917   9.984   3.551
 8587WAT      O27862   7.058   9.705   3.735
 8587WAT     H127863   7.116   9.630   3.726
 8587WAT     H227864   7.076   9.758   3.657
 8588WAT      O27865   6.170   9.221   3.566
 8588WAT     H127866   6.160   9.159   3.494
 8588WAT     H227867   6.112   9.294   3.544
 8589WAT      O27868   6.446   9.077   3.270
 8589WAT     H127869   6.401   9.079   3.185
 8589WAT     H227870   6.383   9.037   3.329
 8590WAT      O27871   6.487   9.966   3.332
 8590WAT     H127872   6.529  10.051   3.314
 8590WAT     H227873   6.395   9.980   3.309
 8591WAT      O27874   6.721   9.739   3.470
 8591WAT     H127875   6.732   9.680   3.544
 8591WAT     H227876   6.806   9.743   3.428
 8592WAT      O27877   6.954   9.795   3.328
 8592WAT     H127878   6.902   9.847   3.267
 8592WAT     H227879   6.989   9.858   3.391
 8593WAT      O27880   6.194   9.534   1.972
 8593WAT     H127881   6.174   9.447   2.008
 8593WAT     H227882   6.177   9.525   1.878
 8594WAT      O27883   6.397   9.394   3.596
 8594WAT     H127884   6.456   9.363   3.665
 8594WAT     H227885   6.315   9.346   3.611
 8595WAT      O27886   6.879   9.355   3.619
 8595WAT     H127887   6.810   9.289   3.613
 8595WAT     H227888   6.951   9.311   3.664
 8596WAT      O27889   6.942   9.015   2.225
 8596WAT     H127890   6.970   8.931   2.261
 8596WAT     H227891   6.865   9.038   2.276
 8597WAT      O27892   6.074   9.244   1.971
 8597WAT     H127893   6.104   9.244   1.880
 8597WAT     H227894   6.148   9.209   2.021
 8598WAT      O27895   6.396   9.138   2.070
 8598WAT     H127896   6.361   9.070   2.012
 8598WAT     H227897   6.416   9.092   2.151
 8599WAT      O27898   7.380   9.939   2.286
 8599WAT     H127899   7.456   9.996   2.297
 8599WAT     H227900   7.382   9.882   2.363
 8600WAT      O27901   5.730   9.791   2.709
 8600WAT     H127902   5.665   9.764   2.645
 8600WAT     H227903   5.814   9.780   2.664
 8601WAT      O27904   7.385   9.968   2.002
 8601WAT     H127905   7.413  10.059   1.989
 8601WAT     H227906   7.366   9.962   2.095
 8602WAT      O27907   7.025   9.270   2.131
 8602WAT     H127908   7.067   9.252   2.047
 8602WAT     H227909   6.994   9.185   2.162
 8603WAT      O27910   7.375   9.762   2.501
 8603WAT     H127911   7.337   9.685   2.458
 8603WAT     H227912   7.302   9.800   2.550
 8604WAT      O27913   5.834   9.830   3.163
 8604WAT     H127914   5.871   9.821   3.251
 8604WAT     H227915   5.777   9.753   3.153
 8605WAT      O27916   7.314   9.676   3.465
 8605WAT     H127917   7.291   9.653   3.374
 8605WAT     H227918   7.340   9.768   3.460
 8606WAT      O27919   5.789   9.521   3.554
 8606WAT     H127920   5.699   9.517   3.588
 8606WAT     H227921   5.843   9.540   3.630
 8607WAT      O27922   7.158   9.199   3.742
 8607WAT     H127923   7.245   9.200   3.781
 8607WAT     H227924   7.159   9.125   3.681
 8608WAT      O27925   5.651   9.512   2.303
 8608WAT     H127926   5.561   9.538   2.286
 8608WAT     H227927   5.700   9.539   2.225
 8609WAT      O27928   7.302   9.584   2.831
 8609WAT     H127929   7.355   9.535   2.768
 8609WAT     H227930   7.361   9.598   2.906
 8610WAT      O27931   7.320   9.593   3.183
 8610WAT     H127932   7.225   9.589   3.195
 8610WAT     H227933   7.338   9.684   3.160
 8611WAT      O27934   5.906   9.418   2.094
 8611WAT     H127935   5.977   9.375   2.046
 8611WAT     H227936   5.834   9.424   2.031
 8612WAT      O27937   5.870   9.023   1.998
 8612WAT     H127938   5.943   9.077   2.030
 8612WAT     H227939   5.898   8.996   1.911
 8613WAT      O27940   7.251   9.510   2.425
 8613WAT     H127941   7.301   9.487   2.504
 8613WAT     H227942   7.231   9.426   2.383
 8614WAT      O27943   5.839   8.948   2.989
 8614WAT     H127944   5.904   8.893   2.945
 8614WAT     H227945   5.881   8.974   3.071
 8615WAT      O27946   7.394   9.374   2.678
 8615WAT     H127947   7.383   9.358   2.772
 8615WAT     H227948   7.470   9.321   2.654
 8616WAT      O27949   7.229   8.967   3.324
 8616WAT     H127950   7.293   9.029   3.361
 8616WAT     H227951   7.244   8.971   3.230
 8617WAT      O27952   7.483   9.157   2.003
 8617WAT     H127953   7.576   9.143   1.982
 8617WAT     H227954   7.481   9.165   2.098
 8618WAT      O27955   7.490   9.234   2.265
 8618WAT     H127956   7.411   9.227   2.318
 8618WAT     H227957   7.511   9.327   2.264
 8619WAT      O27958   5.815   8.964   3.263
 8619WAT     H127959   5.780   9.009   3.339
 8619WAT     H227960   5.782   8.874   3.271
 8620WAT      O27961   6.566   9.083   3.615
 8620WAT     H127962   6.560   9.142   3.690
 8620WAT     H227963   6.660   9.072   3.601
 8621WAT      O27964   6.830   9.048   3.579
 8621WAT     H127965   6.891   9.080   3.513
 8621WAT     H227966   6.884   9.000   3.641
 8622WAT      O27967   5.882   8.916   3.590
 8622WAT     H127968   5.937   8.898   3.514
 8622WAT     H227969   5.888   8.837   3.644
 8623WAT      O27970   6.904   8.905   3.212
 8623WAT     H127971   6.816   8.938   3.191
 8623WAT     H227972   6.893   8.858   3.294
 8624WAT      O27973   6.994   9.125   3.350
 8624WAT     H127974   6.962   9.044   3.312
 8624WAT     H227975   7.089   9.121   3.338
 8625WAT      O27976   6.678   8.996   3.106
 8625WAT     H127977   6.600   9.044   3.134
 8625WAT     H227978   6.649   8.906   3.095
 8626WAT      O27979   7.134   9.067   2.910
 8626WAT     H127980   7.178   9.061   2.825
 8626WAT     H227981   7.107   9.158   2.917
 8627WAT      O27982   7.320   9.030   2.711
 8627WAT     H127983   7.314   8.935   2.697
 8627WAT     H227984   7.398   9.041   2.766
 8628WAT      O27985   5.813   9.027   2.358
 8628WAT     H127986   5.889   9.038   2.300
 8628WAT     H227987   5.767   9.111   2.353
 8629WAT      O27988   6.467   9.238   2.657
 8629WAT     H127989   6.386   9.201   2.623
 8629WAT     H227990   6.517   9.163   2.687
 8630WAT      O27991   6.917   8.905   2.781
 8630WAT     H127992   6.978   8.962   2.828
 8630WAT     H227993   6.843   8.961   2.758
 8631WAT      O27994   7.232   8.945   2.308
 8631WAT     H127995   7.251   9.035   2.335
 8631WAT     H227996   7.153   8.922   2.357
 8632WAT      O27997   6.050   9.080   2.212
 8632WAT     H127998   6.103   9.001   2.199
 8632WAT     H227999   6.113   9.147   2.235
 8633WAT      O28000   6.270   9.053   2.517
 8633WAT     H128001   6.207   8.983   2.534
 8633WAT     H228002   6.216   9.129   2.496
 8634WAT      O28003   6.282   8.981   3.761
 8634WAT     H128004   6.254   9.032   3.684
 8634WAT     H228005   6.320   8.901   3.724
 8635WAT      O28006   6.942   8.923   3.819
 8635WAT     H128007   6.931   8.955   3.908
 8635WAT     H228008   7.024   8.963   3.789
 8636WAT      O28009   6.833   9.725   0.855
 8636WAT     H128010   6.825   9.633   0.828
 8636WAT     H228011   6.791   9.774   0.784
 8637WAT      O28012   6.646   9.902   1.043
 8637WAT     H128013   6.568   9.854   1.072
 8637WAT     H228014   6.711   9.834   1.026
 8638WAT      O28015   6.048   9.934   1.131
 8638WAT     H128016   5.964   9.908   1.171
 8638WAT     H228017   6.108   9.941   1.204
 8639WAT      O28018   5.889   9.430   0.509
 8639WAT     H128019   5.800   9.464   0.499
 8639WAT     H228020   5.917   9.410   0.420
 8640WAT      O28021   5.685   9.690   1.098
 8640WAT     H128022   5.742   9.613   1.098
 8640WAT     H228023   5.685   9.720   1.007
 8641WAT      O28024   5.809   9.231   1.276
 8641WAT     H128025   5.791   9.141   1.304
 8641WAT     H228026   5.769   9.285   1.344
 8642WAT      O28027   6.693   9.451   1.066
 8642WAT     H128028   6.731   9.363   1.055
 8642WAT     H228029   6.683   9.484   0.977
 8643WAT      O28030   6.106   9.288   0.613
 8643WAT     H128031   6.117   9.378   0.643
 8643WAT     H228032   6.015   9.283   0.584
 8644WAT      O28033   7.071   9.200   0.760
 8644WAT     H128034   7.153   9.151   0.764
 8644WAT     H228035   7.075   9.259   0.835
 8645WAT      O28036   5.871   9.480   1.137
 8645WAT     H128037   5.939   9.507   1.199
 8645WAT     H228038   5.839   9.396   1.170
 8646WAT      O28039   6.290   9.585   1.046
 8646WAT     H128040   6.341   9.635   1.110
 8646WAT     H228041   6.343   9.507   1.028
 8647WAT      O28042   7.500   9.402   1.416
 8647WAT     H128043   7.430   9.441   1.364
 8647WAT     H228044   7.527   9.471   1.476
 8648WAT      O28045   6.119   9.049   1.472
 8648WAT     H128046   6.119   9.101   1.392
 8648WAT     H228047   6.036   9.001   1.470
 8649WAT      O28048   6.244  10.013   1.290
 8649WAT     H128049   6.210  10.075   1.354
 8649WAT     H228050   6.261  10.065   1.212
 8650WAT      O28051   7.095   9.394   1.037
 8650WAT     H128052   7.025   9.423   1.095
 8650WAT     H228053   7.131   9.475   1.001
 8651WAT      O28054   6.087   9.220   1.273
 8651WAT     H128055   6.121   9.304   1.244
 8651WAT     H228056   5.993   9.235   1.285
 8652WAT      O28057   7.402   9.339   1.076
 8652WAT     H128058   7.307   9.342   1.089
 8652WAT     H228059   7.434   9.420   1.115
 8653WAT      O28060   6.455   8.969   0.906
 8653WAT     H128061   6.486   8.913   0.834
 8653WAT     H228062   6.362   8.982   0.887
 8654WAT      O28063   6.950  10.031   1.267
 8654WAT     H128064   6.992  10.009   1.184
 8654WAT     H228065   7.022  10.056   1.325
 8655WAT      O28066   6.694   9.775   0.579
 8655WAT     H128067   6.601   9.769   0.602
 8655WAT     H228068   6.709   9.869   0.568
 8656WAT      O28069   6.693   9.402   0.279
 8656WAT     H128070   6.599   9.419   0.287
 8656WAT     H228071   6.724   9.474   0.224
 8657WAT      O28072   7.345   9.871   1.277
 8657WAT     H128073   7.262   9.878   1.229
 8657WAT     H228074   7.404   9.929   1.230
 8658WAT      O28075   7.097   9.931   0.630
 8658WAT     H128076   7.035   9.898   0.565
 8658WAT     H228077   7.095   9.867   0.700
 8659WAT      O28078   7.041   9.549   1.371
 8659WAT     H128079   7.000   9.632   1.397
 8659WAT     H228080   6.968   9.491   1.352
 8660WAT      O28081   6.254   9.828   0.857
 8660WAT     H128082   6.214   9.757   0.808
 8660WAT     H228083   6.263   9.793   0.946
 8661WAT      O28084   6.126   9.505   1.235
 8661WAT     H128085   6.181   9.516   1.158
 8661WAT     H228086   6.177   9.543   1.307
 8662WAT      O28087   6.914   9.855   0.330
 8662WAT     H128088   6.958   9.772   0.316
 8662WAT     H228089   6.986   9.919   0.339
 8663WAT      O28090   6.093   9.857   1.596
 8663WAT     H128091   6.079   9.945   1.633
 8663WAT     H228092   6.005   9.823   1.582
 8664WAT      O28093   5.924   9.717   0.607
 8664WAT     H128094   5.912   9.790   0.546
 8664WAT     H228095   5.893   9.640   0.560
 8665WAT      O28096   5.688  10.034   1.188
 8665WAT     H128097   5.696  10.048   1.094
 8665WAT     H228098   5.750   9.964   1.207
 8666WAT      O28099   7.394   9.454   1.759
 8666WAT     H128100   7.332   9.505   1.707
 8666WAT     H228101   7.362   9.364   1.754
 8667WAT      O28102   6.171   9.052   0.946
 8667WAT     H128103   6.127   9.130   0.913
 8667WAT     H228104   6.227   9.084   1.016
 8668WAT      O28105   6.600   9.338   1.506
 8668WAT     H128106   6.554   9.359   1.587
 8668WAT     H228107   6.560   9.257   1.476
 8669WAT      O28108   7.100   9.460   1.619
 8669WAT     H128109   7.015   9.431   1.651
 8669WAT     H228110   7.084   9.485   1.528
 8670WAT      O28111   6.809   9.610   1.829
 8670WAT     H128112   6.842   9.527   1.795
 8670WAT     H228113   6.888   9.663   1.844
 8671WAT      O28114   6.483   9.014   0.434
 8671WAT     H128115   6.420   9.013   0.506
 8671WAT     H228116   6.474   8.927   0.394
 8672WAT      O28117   6.375   9.106   1.132
 8672WAT     H128118   6.405   9.197   1.124
 8672WAT     H228119   6.430   9.057   1.070
 8673WAT      O28120   6.150   9.564   0.719
 8673WAT     H128121   6.128   9.542   0.809
 8673WAT     H228122   6.072   9.607   0.684
 8674WAT      O28123   6.873   9.565   0.578
 8674WAT     H128124   6.813   9.637   0.560
 8674WAT     H228125   6.928   9.558   0.500
 8675WAT      O28126   6.394   9.654   1.785
 8675WAT     H128127   6.385   9.560   1.770
 8675WAT     H228128   6.479   9.676   1.746
 8676WAT      O28129   6.734   9.428   0.781
 8676WAT     H128130   6.773   9.460   0.700
 8676WAT     H228131   6.770   9.340   0.793
 8677WAT      O28132   5.907   9.295   1.600
 8677WAT     H128133   5.868   9.380   1.621
 8677WAT     H228134   5.839   9.231   1.620
 8678WAT      O28135   6.565   9.303   1.907
 8678WAT     H128136   6.496   9.284   1.971
 8678WAT     H228137   6.639   9.332   1.961
 8679WAT      O28138   5.638   9.087   1.004
 8679WAT     H128139   5.609   9.144   1.075
 8679WAT     H228140   5.712   9.039   1.040
 8680WAT      O28141   6.792   9.687   1.191
 8680WAT     H128142   6.719   9.738   1.226
 8680WAT     H228143   6.753   9.606   1.161
 8681WAT      O28144   6.436   9.355   1.031
 8681WAT     H128145   6.437   9.311   0.947
 8681WAT     H228146   6.526   9.387   1.042
 8682WAT      O28147   6.021   9.343   0.927
 8682WAT     H128148   5.987   9.391   1.003
 8682WAT     H228149   5.945   9.298   0.891
 8683WAT      O28150   6.442   9.455   0.331
 8683WAT     H128151   6.455   9.451   0.425
 8683WAT     H228152   6.404   9.541   0.315
 8684WAT      O28153   6.839   9.233   1.132
 8684WAT     H128154   6.840   9.278   1.217
 8684WAT     H228155   6.814   9.143   1.154
 8685WAT      O28156   6.344   9.686   0.270
 8685WAT     H128157   6.287   9.641   0.208
 8685WAT     H228158   6.414   9.722   0.217
 8686WAT      O28159   7.181   8.974   1.716
 8686WAT     H128160   7.214   8.901   1.769
 8686WAT     H228161   7.185   8.942   1.626
 8687WAT      O28162   6.466   9.761   1.206
 8687WAT     H128163   6.503   9.713   1.281
 8687WAT     H228164   6.447   9.848   1.240
 8688WAT      O28165   5.753   9.235   0.819
 8688WAT     H128166   5.724   9.199   0.903
 8688WAT     H228167   5.746   9.162   0.758
 8689WAT      O28168   6.245   9.665   1.438
 8689WAT     H128169   6.215   9.753   1.460
 8689WAT     H228170   6.341   9.671   1.442
 8690WAT      O28171   6.098  10.086   0.498
 8690WAT     H128172   6.021  10.032   0.482
 8690WAT     H228173   6.171  10.034   0.464
 8691WAT      O28174   7.174   9.985   1.077
 8691WAT     H128175   7.246  10.035   1.038
 8691WAT     H228176   7.154   9.917   1.012
 8692WAT      O28177   6.720   9.125   0.491
 8692WAT     H128178   6.639   9.075   0.484
 8692WAT     H228179   6.701   9.209   0.450
 8693WAT      O28180   6.712   9.992   1.666
 8693WAT     H128181   6.706   9.900   1.640
 8693WAT     H228182   6.649  10.002   1.737
 8694WAT      O28183   6.992   9.562   0.321
 8694WAT     H128184   7.080   9.593   0.303
 8694WAT     H228185   6.989   9.475   0.282
 8695WAT      O28186   6.102  10.052   0.861
 8695WAT     H128187   6.154   9.972   0.856
 8695WAT     H228188   6.057  10.046   0.946
 8696WAT      O28189   5.851   9.749   1.553
 8696WAT     H128190   5.815   9.816   1.611
 8696WAT     H228191   5.821   9.666   1.590
 8697WAT      O28192   6.171   9.795   1.841
 8697WAT     H128193   6.141   9.809   1.751
 8697WAT     H228194   6.248   9.739   1.832
 8698WAT      O28195   7.219   9.693   0.268
 8698WAT     H128196   7.210   9.736   0.183
 8698WAT     H228197   7.291   9.739   0.311
 8699WAT      O28198   7.326   9.939   1.575
 8699WAT     H128199   7.254   9.998   1.556
 8699WAT     H228200   7.379   9.938   1.495
 8700WAT      O28201   5.702   9.749   0.215
 8700WAT     H128202   5.789   9.777   0.243
 8700WAT     H228203   5.653   9.830   0.204
 8701WAT      O28204   6.418   9.888   0.627
 8701WAT     H128205   6.464   9.969   0.650
 8701WAT     H228206   6.383   9.856   0.710
 8702WAT      O28207   6.008   8.922   0.674
 8702WAT     H128208   5.996   8.921   0.769
 8702WAT     H228209   5.926   8.956   0.639
 8703WAT      O28210   5.708   9.098   1.620
 8703WAT     H128211   5.637   9.118   1.681
 8703WAT     H228212   5.750   9.020   1.658
 8704WAT      O28213   5.900   9.931   0.428
 8704WAT     H128214   5.840  10.005   0.429
 8704WAT     H228215   5.948   9.940   0.345
 8705WAT      O28216   6.858   9.347   1.395
 8705WAT     H128217   6.895   9.265   1.428
 8705WAT     H228218   6.772   9.353   1.437
 8706WAT      O28219   7.194   9.243   0.476
 8706WAT     H128220   7.132   9.253   0.405
 8706WAT     H228221   7.145   9.265   0.555
 8707WAT      O28222   6.391   9.471   0.618
 8707WAT     H128223   6.320   9.517   0.662
 8707WAT     H228224   6.420   9.405   0.681
 8708WAT      O28225   6.554   9.613   1.418
 8708WAT     H128226   6.604   9.660   1.484
 8708WAT     H228227   6.568   9.520   1.439
 8709WAT      O28228   6.794   9.143   0.762
 8709WAT     H128229   6.782   9.145   0.667
 8709WAT     H228230   6.889   9.148   0.774
 8710WAT      O28231   6.212   9.301   0.355
 8710WAT     H128232   6.296   9.345   0.349
 8710WAT     H228233   6.175   9.333   0.438
 8711WAT      O28234   7.274   9.234   1.502
 8711WAT     H128235   7.224   9.308   1.536
 8711WAT     H228236   7.356   9.273   1.470
 8712WAT      O28237   7.104   9.759   0.847
 8712WAT     H128238   7.010   9.760   0.864
 8712WAT     H228239   7.135   9.680   0.891
 8713WAT      O28240   5.971   9.670   0.271
 8713WAT     H128241   5.979   9.575   0.282
 8713WAT     H228242   6.060   9.703   0.282
 8714WAT      O28243   5.724   9.852   1.795
 8714WAT     H128244   5.774   9.794   1.852
 8714WAT     H228245   5.650   9.881   1.848
 8715WAT      O28246   6.429   9.993   1.748
 8715WAT     H128247   6.353  10.050   1.740
 8715WAT     H228248   6.447   9.964   1.659
 8716WAT      O28249   6.738  10.031   0.211
 8716WAT     H128250   6.683  10.075   0.275
 8716WAT     H228251   6.800   9.980   0.263
 8717WAT      O28252   5.927   9.666   1.884
 8717WAT     H128253   5.931   9.637   1.975
 8717WAT     H228254   6.012   9.707   1.868
 8718WAT      O28255   6.305   9.926   0.400
 8718WAT     H128256   6.347   9.910   0.484
 8718WAT     H228257   6.317   9.845   0.351
 8719WAT      O28258   6.121   9.524   1.681
 8719WAT     H128259   6.068   9.475   1.618
 8719WAT     H228260   6.188   9.567   1.627
 8720WAT      O28261   7.011   9.971   1.657
 8720WAT     H128262   7.052   9.987   1.742
 8720WAT     H228263   6.917   9.984   1.674
 8721WAT      O28264   7.058   9.705   1.858
 8721WAT     H128265   7.116   9.630   1.849
 8721WAT     H228266   7.076   9.758   1.780
 8722WAT      O28267   6.170   9.221   1.689
 8722WAT     H128268   6.160   9.159   1.616
 8722WAT     H228269   6.112   9.294   1.666
 8723WAT      O28270   6.446   9.077   1.392
 8723WAT     H128271   6.401   9.079   1.308
 8723WAT     H228272   6.383   9.037   1.452
 8724WAT      O28273   6.487   9.966   1.454
 8724WAT     H128274   6.529  10.051   1.437
 8724WAT     H228275   6.395   9.980   1.431
 8725WAT      O28276   6.721   9.739   1.593
 8725WAT     H128277   6.732   9.680   1.667
 8725WAT     H228278   6.806   9.743   1.551
 8726WAT      O28279   6.954   9.795   1.450
 8726WAT     H128280   6.902   9.847   1.390
 8726WAT     H228281   6.989   9.858   1.513
 8727WAT      O28282   6.397   9.394   1.718
 8727WAT     H128283   6.456   9.363   1.787
 8727WAT     H228284   6.315   9.346   1.734
 8728WAT      O28285   6.879   9.355   1.742
 8728WAT     H128286   6.810   9.289   1.735
 8728WAT     H228287   6.951   9.311   1.786
 8729WAT      O28288   6.942   9.015   0.348
 8729WAT     H128289   6.970   8.931   0.383
 8729WAT     H228290   6.865   9.038   0.399
 8730WAT      O28291   7.380   9.939   0.409
 8730WAT     H128292   7.456   9.996   0.419
 8730WAT     H228293   7.382   9.882   0.486
 8731WAT      O28294   5.730   9.791   0.832
 8731WAT     H128295   5.665   9.764   0.767
 8731WAT     H228296   5.814   9.780   0.787
 8732WAT      O28297   7.025   9.270   0.254
 8732WAT     H128298   7.067   9.252   0.170
 8732WAT     H228299   6.994   9.185   0.285
 8733WAT      O28300   7.375   9.762   0.624
 8733WAT     H128301   7.337   9.685   0.580
 8733WAT     H228302   7.302   9.800   0.672
 8734WAT      O28303   5.834   9.830   1.286
 8734WAT     H128304   5.871   9.821   1.374
 8734WAT     H228305   5.777   9.753   1.276
 8735WAT      O28306   7.314   9.676   1.587
 8735WAT     H128307   7.291   9.653   1.497
 8735WAT     H228308   7.340   9.768   1.583
 8736WAT      O28309   5.789   9.521   1.676
 8736WAT     H128310   5.699   9.517   1.710
 8736WAT     H228311   5.843   9.540   1.753
 8737WAT      O28312   7.158   9.199   1.865
 8737WAT     H128313   7.245   9.200   1.903
 8737WAT     H228314   7.159   9.125   1.804
 8738WAT      O28315   5.651   9.512   0.426
 8738WAT     H128316   5.561   9.538   0.409
 8738WAT     H228317   5.700   9.539   0.348
 8739WAT      O28318   7.302   9.584   0.954
 8739WAT     H128319   7.355   9.535   0.891
 8739WAT     H228320   7.361   9.598   1.028
 8740WAT      O28321   7.320   9.593   1.306
 8740WAT     H128322   7.225   9.589   1.317
 8740WAT     H228323   7.338   9.684   1.282
 8741WAT      O28324   7.251   9.510   0.548
 8741WAT     H128325   7.301   9.487   0.626
 8741WAT     H228326   7.231   9.426   0.506
 8742WAT      O28327   5.839   8.948   1.111
 8742WAT     H128328   5.904   8.893   1.067
 8742WAT     H228329   5.881   8.974   1.193
 8743WAT      O28330   7.394   9.374   0.801
 8743WAT     H128331   7.383   9.358   0.895
 8743WAT     H228332   7.470   9.321   0.777
 8744WAT      O28333   7.229   8.967   1.447
 8744WAT     H128334   7.293   9.029   1.483
 8744WAT     H228335   7.244   8.971   1.352
 8745WAT      O28336   7.490   9.234   0.388
 8745WAT     H128337   7.411   9.227   0.441
 8745WAT     H228338   7.511   9.327   0.387
 8746WAT      O28339   5.815   8.964   1.385
 8746WAT     H128340   5.780   9.009   1.462
 8746WAT     H228341   5.782   8.874   1.394
 8747WAT      O28342   6.566   9.083   1.738
 8747WAT     H128343   6.560   9.142   1.813
 8747WAT     H228344   6.660   9.072   1.723
 8748WAT      O28345   6.830   9.048   1.702
 8748WAT     H128346   6.891   9.080   1.635
 8748WAT     H228347   6.884   9.000   1.764
 8749WAT      O28348   5.882   8.916   1.713
 8749WAT     H128349   5.937   8.898   1.637
 8749WAT     H228350   5.888   8.837   1.767
 8750WAT      O28351   6.904   8.905   1.334
 8750WAT     H128352   6.816   8.938   1.314
 8750WAT     H228353   6.893   8.858   1.417
 8751WAT      O28354   6.994   9.125   1.473
 8751WAT     H128355   6.962   9.044   1.435
 8751WAT     H228356   7.089   9.121   1.460
 8752WAT      O28357   6.678   8.996   1.228
 8752WAT     H128358   6.600   9.044   1.256
 8752WAT     H228359   6.649   8.906   1.217
 8753WAT      O28360   7.134   9.067   1.033
 8753WAT     H128361   7.178   9.061   0.948
 8753WAT     H228362   7.107   9.158   1.040
 8754WAT      O28363   7.320   9.030   0.834
 8754WAT     H128364   7.314   8.935   0.819
 8754WAT     H228365   7.398   9.041   0.888
 8755WAT      O28366   5.813   9.027   0.480
 8755WAT     H128367   5.889   9.038   0.423
 8755WAT     H228368   5.767   9.111   0.476
 8756WAT      O28369   6.467   9.238   0.779
 8756WAT     H128370   6.386   9.201   0.745
 8756WAT     H228371   6.517   9.163   0.810
 8757WAT      O28372   6.917   8.905   0.903
 8757WAT     H128373   6.978   8.962   0.951
 8757WAT     H228374   6.843   8.961   0.881
 8758WAT      O28375   7.232   8.945   0.431
 8758WAT     H128376   7.251   9.035   0.457
 8758WAT     H228377   7.153   8.922   0.480
 8759WAT      O28378   6.050   9.080   0.334
 8759WAT     H128379   6.103   9.001   0.321
 8759WAT     H228380   6.113   9.147   0.358
 8760WAT      O28381   6.270   9.053   0.640
 8760WAT     H128382   6.207   8.983   0.656
 8760WAT     H228383   6.216   9.129   0.618
 8761WAT      O28384   6.282   8.981   1.883
 8761WAT     H128385   6.254   9.032   1.807
 8761WAT     H228386   6.320   8.901   1.847
 8762WAT      O28387   6.942   8.923   1.941
 8762WAT     H128388   6.931   8.955   2.031
 8762WAT     H228389   7.024   8.963   1.911
 8763WAT      O28390   6.833   7.847   6.487
 8763WAT     H128391   6.825   7.756   6.460
 8763WAT     H228392   6.791   7.897   6.417
 8764WAT      O28393   6.646   8.025   6.675
 8764WAT     H128394   6.568   7.977   6.704
 8764WAT     H228395   6.711   7.957   6.658
 8765WAT      O28396   6.048   8.056   6.763
 8765WAT     H128397   5.964   8.031   6.803
 8765WAT     H228398   6.108   8.063   6.837
 8766WAT      O28399   7.048   8.466   6.553
 8766WAT     H128400   7.002   8.388   6.586
 8766WAT     H228401   7.129   8.468   6.604
 8767WAT      O28402   6.046   8.460   6.783
 8767WAT     H128403   6.076   8.371   6.765
 8767WAT     H228404   6.120   8.515   6.760
 8768WAT      O28405   5.889   7.552   6.141
 8768WAT     H128406   5.800   7.586   6.131
 8768WAT     H228407   5.917   7.532   6.052
 8769WAT      O28408   5.685   7.812   6.730
 8769WAT     H128409   5.742   7.735   6.730
 8769WAT     H228410   5.685   7.842   6.639
 8770WAT      O28411   6.671   8.694   6.515
 8770WAT     H128412   6.609   8.740   6.458
 8770WAT     H228413   6.756   8.710   6.475
 8771WAT      O28414   6.590   8.293   6.676
 8771WAT     H128415   6.583   8.198   6.660
 8771WAT     H228416   6.666   8.302   6.733
 8772WAT      O28417   5.809   7.353   6.909
 8772WAT     H128418   5.791   7.263   6.937
 8772WAT     H228419   5.769   7.408   6.976
 8773WAT      O28420   6.693   7.573   6.699
 8773WAT     H128421   6.731   7.486   6.687
 8773WAT     H228422   6.683   7.607   6.610
 8774WAT      O28423   6.106   7.411   6.245
 8774WAT     H128424   6.117   7.501   6.276
 8774WAT     H228425   6.015   7.406   6.216
 8775WAT      O28426   7.071   7.323   6.392
 8775WAT     H128427   7.153   7.274   6.396
 8775WAT     H228428   7.075   7.382   6.467
 8776WAT      O28429   5.871   7.603   6.769
 8776WAT     H128430   5.939   7.629   6.831
 8776WAT     H228431   5.839   7.519   6.803
 8777WAT      O28432   6.290   7.707   6.678
 8777WAT     H128433   6.341   7.757   6.742
 8777WAT     H228434   6.343   7.630   6.661
 8778WAT      O28435   7.500   7.524   7.048
 8778WAT     H128436   7.430   7.563   6.997
 8778WAT     H228437   7.527   7.594   7.109
 8779WAT      O28438   6.119   7.171   7.105
 8779WAT     H128439   6.119   7.223   7.024
 8779WAT     H228440   6.036   7.124   7.102
 8780WAT      O28441   6.757   8.183   6.255
 8780WAT     H128442   6.695   8.229   6.198
 8780WAT     H228443   6.809   8.252   6.296
 8781WAT      O28444   6.244   8.135   6.922
 8781WAT     H128445   6.210   8.198   6.987
 8781WAT     H228446   6.261   8.188   6.845
 8782WAT      O28447   7.095   7.517   6.669
 8782WAT     H128448   7.025   7.546   6.727
 8782WAT     H228449   7.131   7.598   6.633
 8783WAT      O28450   6.087   7.342   6.905
 8783WAT     H128451   6.121   7.427   6.876
 8783WAT     H228452   5.993   7.357   6.917
 8784WAT      O28453   6.165   8.332   7.104
 8784WAT     H128454   6.227   8.400   7.076
 8784WAT     H228455   6.079   8.373   7.095
 8785WAT      O28456   5.694   8.251   5.992
 8785WAT     H128457   5.656   8.300   5.919
 8785WAT     H228458   5.720   8.318   6.055
 8786WAT      O28459   7.257   8.479   6.896
 8786WAT     H128460   7.188   8.546   6.895
 8786WAT     H228461   7.311   8.498   6.819
 8787WAT      O28462   7.402   7.461   6.708
 8787WAT     H128463   7.307   7.465   6.721
 8787WAT     H228464   7.434   7.543   6.747
 8788WAT      O28465   6.455   7.091   6.538
 8788WAT     H128466   6.486   7.036   6.466
 8788WAT     H228467   6.362   7.105   6.520
 8789WAT      O28468   7.010   8.663   6.767
 8789WAT     H128469   7.011   8.623   6.680
 8789WAT     H228470   6.955   8.740   6.757
 8790WAT      O28471   7.140   8.335   6.276
 8790WAT     H128472   7.129   8.241   6.288
 8790WAT     H228473   7.139   8.371   6.365
 8791WAT      O28474   6.950   8.153   6.900
 8791WAT     H128475   6.992   8.132   6.816
 8791WAT     H228476   7.022   8.179   6.957
 8792WAT      O28477   6.694   7.898   6.212
 8792WAT     H128478   6.601   7.891   6.234
 8792WAT     H228479   6.709   7.992   6.200
 8793WAT      O28480   6.693   7.525   5.911
 8793WAT     H128481   6.599   7.541   5.920
 8793WAT     H228482   6.724   7.597   5.857
 8794WAT      O28483   7.345   7.993   6.909
 8794WAT     H128484   7.262   8.000   6.861
 8794WAT     H228485   7.404   8.052   6.862
 8795WAT      O28486   7.097   8.054   6.262
 8795WAT     H128487   7.035   8.020   6.197
 8795WAT     H228488   7.095   7.990   6.333
 8796WAT      O28489   7.041   7.672   7.004
 8796WAT     H128490   7.000   7.754   7.029
 8796WAT     H228491   6.968   7.613   6.984
 8797WAT      O28492   6.254   7.950   6.490
 8797WAT     H128493   6.214   7.879   6.440
 8797WAT     H228494   6.263   7.916   6.579
 8798WAT      O28495   6.301   8.319   6.706
 8798WAT     H128496   6.272   8.259   6.638
 8798WAT     H228497   6.396   8.323   6.695
 8799WAT      O28498   6.126   7.628   6.868
 8799WAT     H128499   6.181   7.639   6.790
 8799WAT     H228500   6.177   7.665   6.939
 8800WAT      O28501   7.110   8.676   7.072
 8800WAT     H128502   7.062   8.757   7.053
 8800WAT     H228503   7.042   8.611   7.088
 8801WAT      O28504   6.210   8.293   7.371
 8801WAT     H128505   6.121   8.315   7.396
 8801WAT     H228506   6.213   8.305   7.276
 8802WAT      O28507   6.914   7.978   5.963
 8802WAT     H128508   6.958   7.894   5.948
 8802WAT     H228509   6.986   8.041   5.971
 8803WAT      O28510   6.093   7.980   7.229
 8803WAT     H128511   6.079   8.067   7.266
 8803WAT     H228512   6.005   7.946   7.214
 8804WAT      O28513   6.725   8.472   6.359
 8804WAT     H128514   6.769   8.546   6.318
 8804WAT     H228515   6.719   8.496   6.452
 8805WAT      O28516   6.273   8.574   7.450
 8805WAT     H128517   6.270   8.615   7.363
 8805WAT     H228518   6.257   8.481   7.433
 8806WAT      O28519   7.273   7.103   5.794
 8806WAT     H128520   7.241   7.113   5.884
 8806WAT     H228521   7.349   7.161   5.789
 8807WAT      O28522   5.924   7.840   6.240
 8807WAT     H128523   5.912   7.913   6.179
 8807WAT     H228524   5.893   7.763   6.192
 8808WAT      O28525   5.688   8.157   6.820
 8808WAT     H128526   5.696   8.171   6.726
 8808WAT     H228527   5.750   8.086   6.840
 8809WAT      O28528   5.813   8.327   6.462
 8809WAT     H128529   5.772   8.341   6.376
 8809WAT     H228530   5.902   8.299   6.441
 8810WAT      O28531   7.408   8.372   7.295
 8810WAT     H128532   7.421   8.348   7.203
 8810WAT     H228533   7.413   8.289   7.342
 8811WAT      O28534   6.795   8.742   7.152
 8811WAT     H128535   6.846   8.733   7.232
 8811WAT     H228536   6.710   8.777   7.181
 8812WAT      O28537   6.992   8.771   6.095
 8812WAT     H128538   6.976   8.742   6.185
 8812WAT     H228539   6.976   8.693   6.041
 8813WAT      O28540   6.240   8.748   6.273
 8813WAT     H128541   6.222   8.657   6.251
 8813WAT     H228542   6.155   8.784   6.297
 8814WAT      O28543   6.962   8.521   5.951
 8814WAT     H128544   6.893   8.521   5.885
 8814WAT     H228545   7.037   8.479   5.908
 8815WAT      O28546   6.919   8.684   6.358
 8815WAT     H128547   6.964   8.606   6.390
 8815WAT     H228548   6.953   8.755   6.413
 8816WAT      O28549   7.394   7.577   7.392
 8816WAT     H128550   7.332   7.628   7.339
 8816WAT     H228551   7.362   7.487   7.386
 8817WAT      O28552   5.694   8.261   7.074
 8817WAT     H128553   5.710   8.214   6.993
 8817WAT     H228554   5.740   8.210   7.141
 8818WAT      O28555   6.171   7.174   6.578
 8818WAT     H128556   6.127   7.252   6.545
 8818WAT     H228557   6.227   7.207   6.649
 8819WAT      O28558   6.600   7.461   7.138
 8819WAT     H128559   6.554   7.482   7.220
 8819WAT     H228560   6.560   7.380   7.108
 8820WAT      O28561   7.100   7.583   7.251
 8820WAT     H128562   7.015   7.553   7.283
 8820WAT     H228563   7.084   7.607   7.160
 8821WAT      O28564   6.809   7.733   7.461
 8821WAT     H128565   6.842   7.650   7.427
 8821WAT     H228566   6.888   7.785   7.476
 8822WAT      O28567   6.483   7.136   6.066
 8822WAT     H128568   6.420   7.136   6.139
 8822WAT     H228569   6.474   7.050   6.026
 8823WAT      O28570   6.375   7.229   6.764
 8823WAT     H128571   6.405   7.319   6.756
 8823WAT     H228572   6.430   7.180   6.702
 8824WAT      O28573   6.150   7.687   6.351
 8824WAT     H128574   6.128   7.665   6.441
 8824WAT     H228575   6.072   7.730   6.316
 8825WAT      O28576   6.873   7.687   6.211
 8825WAT     H128577   6.813   7.760   6.192
 8825WAT     H228578   6.928   7.681   6.132
 8826WAT      O28579   6.394   7.776   7.417
 8826WAT     H128580   6.385   7.682   7.402
 8826WAT     H228581   6.479   7.799   7.378
 8827WAT      O28582   6.734   7.551   6.414
 8827WAT     H128583   6.773   7.583   6.332
 8827WAT     H228584   6.770   7.463   6.425
 8828WAT      O28585   5.907   7.418   7.233
 8828WAT     H128586   5.868   7.502   7.253
 8828WAT     H228587   5.839   7.354   7.252
 8829WAT      O28588   5.638   7.210   6.636
 8829WAT     H128589   5.609   7.267   6.707
 8829WAT     H228590   5.712   7.162   6.672
 8830WAT      O28591   5.656   7.604   5.757
 8830WAT     H128592   5.648   7.698   5.771
 8830WAT     H228593   5.621   7.590   5.669
 8831WAT      O28594   6.792   7.810   6.823
 8831WAT     H128595   6.719   7.861   6.858
 8831WAT     H228596   6.753   7.728   6.793
 8832WAT      O28597   6.436   7.477   6.664
 8832WAT     H128598   6.437   7.433   6.579
 8832WAT     H228599   6.526   7.510   6.675
 8833WAT      O28600   6.021   7.466   6.560
 8833WAT     H128601   5.987   7.513   6.635
 8833WAT     H228602   5.945   7.420   6.524
 8834WAT      O28603   6.442   7.578   5.963
 8834WAT     H128604   6.455   7.573   6.058
 8834WAT     H228605   6.404   7.664   5.947
 8835WAT      O28606   6.839   7.355   6.764
 8835WAT     H128607   6.840   7.400   6.849
 8835WAT     H228608   6.814   7.265   6.786
 8836WAT      O28609   6.344   7.809   5.903
 8836WAT     H128610   6.287   7.764   5.840
 8836WAT     H228611   6.414   7.844   5.849
 8837WAT      O28612   7.181   7.097   7.348
 8837WAT     H128613   7.214   7.023   7.401
 8837WAT     H228614   7.185   7.065   7.258
 8838WAT      O28615   5.851   8.199   7.290
 8838WAT     H128616   5.813   8.135   7.350
 8838WAT     H228617   5.882   8.269   7.347
 8839WAT      O28618   6.466   7.883   6.838
 8839WAT     H128619   6.503   7.836   6.913
 8839WAT     H228620   6.447   7.971   6.873
 8840WAT      O28621   5.753   7.358   6.451
 8840WAT     H128622   5.724   7.321   6.535
 8840WAT     H228623   5.746   7.285   6.390
 8841WAT      O28624   6.245   7.788   7.070
 8841WAT     H128625   6.215   7.875   7.093
 8841WAT     H228626   6.341   7.794   7.074
 8842WAT      O28627   6.098   8.208   6.130
 8842WAT     H128628   6.021   8.154   6.114
 8842WAT     H228629   6.171   8.156   6.096
 8843WAT      O28630   7.174   8.108   6.709
 8843WAT     H128631   7.246   8.157   6.670
 8843WAT     H228632   7.154   8.040   6.645
 8844WAT      O28633   6.720   7.247   6.124
 8844WAT     H128634   6.639   7.197   6.116
 8844WAT     H228635   6.701   7.331   6.082
 8845WAT      O28636   6.712   8.115   7.298
 8845WAT     H128637   6.706   8.023   7.272
 8845WAT     H228638   6.649   8.125   7.369
 8846WAT      O28639   6.992   7.684   5.953
 8846WAT     H128640   7.080   7.716   5.936
 8846WAT     H228641   6.989   7.597   5.914
 8847WAT      O28642   6.102   8.175   6.494
 8847WAT     H128643   6.154   8.095   6.488
 8847WAT     H228644   6.057   8.169   6.578
 8848WAT      O28645   6.591   8.302   6.021
 8848WAT     H128646   6.625   8.376   5.971
 8848WAT     H228647   6.508   8.333   6.057
 8849WAT      O28648   5.851   7.872   7.185
 8849WAT     H128649   5.815   7.938   7.244
 8849WAT     H228650   5.821   7.788   7.222
 8850WAT      O28651   6.171   7.917   7.473
 8850WAT     H128652   6.141   7.932   7.384
 8850WAT     H228653   6.248   7.861   7.464
 8851WAT      O28654   6.705   8.397   7.273
 8851WAT     H128655   6.707   8.304   7.251
 8851WAT     H228656   6.635   8.406   7.337
 8852WAT      O28657   7.219   7.816   5.900
 8852WAT     H128658   7.210   7.859   5.815
 8852WAT     H228659   7.291   7.861   5.943
 8853WAT      O28660   7.326   8.061   7.208
 8853WAT     H128661   7.254   8.120   7.188
 8853WAT     H228662   7.379   8.060   7.128
 8854WAT      O28663   7.322   8.501   6.173
 8854WAT     H128664   7.257   8.435   6.200
 8854WAT     H228665   7.283   8.541   6.095
 8855WAT      O28666   6.879   8.234   6.557
 8855WAT     H128667   6.915   8.174   6.491
 8855WAT     H228668   6.791   8.201   6.575
 8856WAT      O28669   6.488   8.310   6.298
 8856WAT     H128670   6.557   8.364   6.336
 8856WAT     H228671   6.409   8.364   6.302
 8857WAT      O28672   5.702   7.871   5.847
 8857WAT     H128673   5.789   7.900   5.876
 8857WAT     H228674   5.653   7.953   5.836
 8858WAT      O28675   6.418   8.010   6.259
 8858WAT     H128676   6.464   8.091   6.282
 8858WAT     H228677   6.383   7.978   6.343
 8859WAT      O28678   6.649   8.561   6.982
 8859WAT     H128679   6.713   8.582   7.050
 8859WAT     H228680   6.685   8.485   6.937
 8860WAT      O28681   6.008   7.045   6.307
 8860WAT     H128682   5.996   7.044   6.402
 8860WAT     H228683   5.926   7.078   6.272
 8861WAT      O28684   6.776   8.362   6.854
 8861WAT     H128685   6.840   8.292   6.865
 8861WAT     H228686   6.828   8.440   6.836
 8862WAT      O28687   7.161   8.390   5.827
 8862WAT     H128688   7.138   8.318   5.886
 8862WAT     H228689   7.121   8.365   5.743
 8863WAT      O28690   6.953   8.442   7.174
 8863WAT     H128691   6.987   8.500   7.242
 8863WAT     H228692   6.861   8.428   7.197
 8864WAT      O28693   5.739   8.793   5.904
 8864WAT     H128694   5.775   8.853   5.839
 8864WAT     H228695   5.725   8.847   5.981
 8865WAT      O28696   5.708   7.221   7.253
 8865WAT     H128697   5.637   7.240   7.313
 8865WAT     H228698   5.750   7.143   7.290
 8866WAT      O28699   7.119   8.182   5.993
 8866WAT     H128700   7.090   8.228   6.071
 8866WAT     H228701   7.198   8.136   6.019
 8867WAT      O28702   5.737   8.619   7.351
 8867WAT     H128703   5.748   8.525   7.337
 8867WAT     H228704   5.672   8.646   7.287
 8868WAT      O28705   6.340   8.531   5.986
 8868WAT     H128706   6.339   8.604   5.924
 8868WAT     H228707   6.248   8.506   5.995
 8869WAT      O28708   5.900   8.053   6.060
 8869WAT     H128709   5.840   8.127   6.061
 8869WAT     H228710   5.948   8.062   5.978
 8870WAT      O28711   6.858   7.470   7.028
 8870WAT     H128712   6.895   7.388   7.061
 8870WAT     H228713   6.772   7.476   7.069
 8871WAT      O28714   7.194   7.365   6.109
 8871WAT     H128715   7.132   7.376   6.037
 8871WAT     H228716   7.145   7.387   6.188
 8872WAT      O28717   6.639   8.537   5.852
 8872WAT     H128718   6.649   8.517   5.759
 8872WAT     H228719   6.549   8.512   5.872
 8873WAT      O28720   6.391   7.593   6.250
 8873WAT     H128721   6.320   7.640   6.294
 8873WAT     H228722   6.420   7.527   6.314
 8874WAT      O28723   6.554   7.735   7.050
 8874WAT     H128724   6.604   7.783   7.117
 8874WAT     H228725   6.568   7.643   7.071
 8875WAT      O28726   6.794   7.266   6.394
 8875WAT     H128727   6.782   7.268   6.299
 8875WAT     H228728   6.889   7.270   6.406
 8876WAT      O28729   6.503   8.789   6.321
 8876WAT     H128730   6.529   8.785   6.229
 8876WAT     H228731   6.408   8.777   6.321
 8877WAT      O28732   6.212   7.424   5.988
 8877WAT     H128733   6.296   7.468   5.981
 8877WAT     H228734   6.175   7.455   6.070
 8878WAT      O28735   7.274   7.357   7.134
 8878WAT     H128736   7.224   7.431   7.168
 8878WAT     H228737   7.356   7.396   7.103
 8879WAT      O28738   7.104   7.881   6.479
 8879WAT     H128739   7.010   7.883   6.496
 8879WAT     H228740   7.135   7.802   6.524
 8880WAT      O28741   6.102   8.049   5.835
 8880WAT     H128742   6.178   8.038   5.891
 8880WAT     H228743   6.109   7.980   5.770
 8881WAT      O28744   5.971   7.793   5.903
 8881WAT     H128745   5.979   7.698   5.915
 8881WAT     H228746   6.060   7.826   5.914
 8882WAT      O28747   7.304   8.598   6.647
 8882WAT     H128748   7.316   8.681   6.694
 8882WAT     H228749   7.391   8.577   6.612
 8883WAT      O28750   6.051   8.808   6.614
 8883WAT     H128751   6.125   8.753   6.641
 8883WAT     H228752   6.090   8.894   6.600
 8884WAT      O28753   5.740   8.414   6.201
 8884WAT     H128754   5.647   8.438   6.200
 8884WAT     H228755   5.786   8.497   6.189
 8885WAT      O28756   6.362   8.725   5.796
 8885WAT     H128757   6.441   8.754   5.751
 8885WAT     H228758   6.310   8.682   5.728
 8886WAT      O28759   6.978   8.710   7.388
 8886WAT     H128760   7.074   8.701   7.383
 8886WAT     H228761   6.964   8.776   7.456
 8887WAT      O28762   7.267   8.648   5.938
 8887WAT     H128763   7.239   8.606   5.857
 8887WAT     H228764   7.248   8.740   5.926
 8888WAT      O28765   5.724   7.975   7.427
 8888WAT     H128766   5.774   7.917   7.484
 8888WAT     H228767   5.650   8.003   7.481
 8889WAT      O28768   6.414   8.247   5.782
 8889WAT     H128769   6.403   8.185   5.855
 8889WAT     H228770   6.397   8.195   5.704
 8890WAT      O28771   6.429   8.115   7.380
 8890WAT     H128772   6.353   8.172   7.372
 8890WAT     H228773   6.447   8.086   7.291
 8891WAT      O28774   6.738   8.153   5.843
 8891WAT     H128775   6.683   8.198   5.907
 8891WAT     H228776   6.800   8.103   5.895
 8892WAT      O28777   7.143   8.288   7.436
 8892WAT     H128778   7.217   8.322   7.386
 8892WAT     H228779   7.067   8.305   7.381
 8893WAT      O28780   6.305   8.049   6.032
 8893WAT     H128781   6.347   8.032   6.117
 8893WAT     H228782   6.317   7.968   5.983
 8894WAT      O28783   6.121   7.647   7.313
 8894WAT     H128784   6.068   7.598   7.250
 8894WAT     H228785   6.188   7.690   7.260
 8895WAT      O28786   6.556   7.951   5.757
 8895WAT     H128787   6.608   7.880   5.721
 8895WAT     H228788   6.621   8.015   5.787
 8896WAT      O28789   7.011   8.094   7.290
 8896WAT     H128790   7.052   8.109   7.375
 8896WAT     H228791   6.917   8.106   7.306
 8897WAT      O28792   7.058   7.828   7.490
 8897WAT     H128793   7.116   7.752   7.481
 8897WAT     H228794   7.076   7.881   7.412
 8898WAT      O28795   6.170   7.344   7.321
 8898WAT     H128796   6.160   7.282   7.249
 8898WAT     H228797   6.112   7.416   7.298
 8899WAT      O28798   6.446   7.199   7.024
 8899WAT     H128799   6.401   7.202   6.940
 8899WAT     H228800   6.383   7.159   7.084
 8900WAT      O28801   6.487   8.089   7.087
 8900WAT     H128802   6.529   8.173   7.069
 8900WAT     H228803   6.395   8.103   7.064
 8901WAT      O28804   6.721   7.862   7.225
 8901WAT     H128805   6.732   7.802   7.299
 8901WAT     H228806   6.806   7.866   7.183
 8902WAT      O28807   6.954   7.917   7.083
 8902WAT     H128808   6.902   7.970   7.022
 8902WAT     H228809   6.989   7.981   7.146
 8903WAT      O28810   6.194   7.656   5.727
 8903WAT     H128811   6.174   7.570   5.763
 8903WAT     H228812   6.177   7.648   5.633
 8904WAT      O28813   6.272   8.719   7.198
 8904WAT     H128814   6.218   8.792   7.166
 8904WAT     H228815   6.297   8.672   7.119
 8905WAT      O28816   6.397   7.516   7.351
 8905WAT     H128817   6.456   7.485   7.419
 8905WAT     H228818   6.315   7.469   7.366
 8906WAT      O28819   6.879   7.478   7.374
 8906WAT     H128820   6.810   7.412   7.368
 8906WAT     H228821   6.951   7.433   7.419
 8907WAT      O28822   6.942   7.137   5.980
 8907WAT     H128823   6.970   7.053   6.016
 8907WAT     H228824   6.865   7.161   6.031
 8908WAT      O28825   6.074   7.366   5.726
 8908WAT     H128826   6.104   7.367   5.635
 8908WAT     H228827   6.148   7.331   5.776
 8909WAT      O28828   6.558   8.843   7.224
 8909WAT     H128829   6.550   8.933   7.255
 8909WAT     H228830   6.467   8.811   7.221
 8910WAT      O28831   6.396   7.261   5.824
 8910WAT     H128832   6.361   7.193   5.766
 8910WAT     H228833   6.416   7.215   5.906
 8911WAT      O28834   6.612   8.759   5.986
 8911WAT     H128835   6.702   8.793   5.988
 8911WAT     H228836   6.616   8.687   5.924
 8912WAT      O28837   5.976   8.297   5.809
 8912WAT     H128838   6.020   8.351   5.875
 8912WAT     H228839   6.025   8.214   5.810
 8913WAT      O28840   5.698   8.576   6.554
 8913WAT     H128841   5.731   8.489   6.531
 8913WAT     H228842   5.741   8.596   6.637
 8914WAT      O28843   6.157   8.409   6.320
 8914WAT     H128844   6.127   8.396   6.410
 8914WAT     H228845   6.147   8.323   6.280
 8915WAT      O28846   5.747   8.662   6.828
 8915WAT     H128847   5.703   8.680   6.911
 8915WAT     H228848   5.804   8.738   6.814
 8916WAT      O28849   7.310   8.613   7.257
 8916WAT     H128850   7.250   8.618   7.183
 8916WAT     H228851   7.323   8.519   7.270
 8917WAT      O28852   7.434   8.387   5.791
 8917WAT     H128853   7.351   8.393   5.838
 8917WAT     H228854   7.452   8.476   5.760
 8918WAT      O28855   7.380   8.061   6.041
 8918WAT     H128856   7.456   8.118   6.052
 8918WAT     H228857   7.382   8.004   6.118
 8919WAT      O28858   5.730   7.914   6.464
 8919WAT     H128859   5.665   7.887   6.400
 8919WAT     H228860   5.814   7.903   6.419
 8920WAT      O28861   7.481   8.147   6.525
 8920WAT     H128862   7.518   8.068   6.485
 8920WAT     H228863   7.545   8.216   6.508
 8921WAT      O28864   7.179   8.285   7.067
 8921WAT     H128865   7.098   8.328   7.093
 8921WAT     H228866   7.220   8.346   7.005
 8922WAT      O28867   7.385   8.091   5.757
 8922WAT     H128868   7.413   8.181   5.744
 8922WAT     H228869   7.366   8.084   5.850
 8923WAT      O28870   7.025   7.393   5.886
 8923WAT     H128871   7.067   7.374   5.802
 8923WAT     H228872   6.994   7.308   5.917
 8924WAT      O28873   7.375   7.884   6.256
 8924WAT     H128874   7.337   7.807   6.213
 8924WAT     H228875   7.302   7.922   6.305
 8925WAT      O28876   5.834   7.952   6.918
 8925WAT     H128877   5.871   7.943   7.006
 8925WAT     H228878   5.777   7.876   6.908
 8926WAT      O28879   7.314   7.799   7.219
 8926WAT     H128880   7.291   7.776   7.129
 8926WAT     H228881   7.340   7.891   7.215
 8927WAT      O28882   5.789   7.643   7.309
 8927WAT     H128883   5.699   7.640   7.343
 8927WAT     H228884   5.843   7.663   7.385
 8928WAT      O28885   5.651   7.635   6.058
 8928WAT     H128886   5.561   7.661   6.041
 8928WAT     H228887   5.700   7.662   5.980
 8929WAT      O28888   7.302   7.707   6.586
 8929WAT     H128889   7.355   7.657   6.523
 8929WAT     H228890   7.361   7.720   6.661
 8930WAT      O28891   7.320   7.715   6.938
 8930WAT     H128892   7.225   7.712   6.950
 8930WAT     H228893   7.338   7.806   6.915
 8931WAT      O28894   5.906   7.540   5.849
 8931WAT     H128895   5.977   7.498   5.801
 8931WAT     H228896   5.834   7.547   5.786
 8932WAT      O28897   5.870   7.146   5.753
 8932WAT     H128898   5.943   7.200   5.785
 8932WAT     H228899   5.898   7.118   5.666
 8933WAT      O28900   7.251   7.633   6.180
 8933WAT     H128901   7.301   7.609   6.258
 8933WAT     H228902   7.231   7.549   6.138
 8934WAT      O28903   5.839   7.071   6.743
 8934WAT     H128904   5.904   7.016   6.699
 8934WAT     H228905   5.881   7.096   6.826
 8935WAT      O28906   7.394   7.496   6.433
 8935WAT     H128907   7.383   7.481   6.527
 8935WAT     H228908   7.470   7.443   6.409
 8936WAT      O28909   7.229   7.090   7.079
 8936WAT     H128910   7.293   7.151   7.116
 8936WAT     H228911   7.244   7.094   6.985
 8937WAT      O28912   7.483   7.279   5.757
 8937WAT     H128913   7.576   7.266   5.737
 8937WAT     H228914   7.481   7.287   5.853
 8938WAT      O28915   7.490   7.356   6.020
 8938WAT     H128916   7.411   7.350   6.073
 8938WAT     H228917   7.511   7.450   6.019
 8939WAT      O28918   7.185   8.760   6.419
 8939WAT     H128919   7.244   8.728   6.352
 8939WAT     H228920   7.210   8.713   6.499
 8940WAT      O28921   5.815   7.086   7.018
 8940WAT     H128922   5.780   7.132   7.094
 8940WAT     H228923   5.782   6.997   7.026
 8941WAT      O28924   6.345   8.559   6.994
 8941WAT     H128925   6.321   8.586   6.906
 8941WAT     H228926   6.439   8.576   7.000
 8942WAT      O28927   6.566   7.205   7.370
 8942WAT     H128928   6.560   7.265   7.445
 8942WAT     H228929   6.660   7.195   7.355
 8943WAT      O28930   6.830   7.171   7.334
 8943WAT     H128931   6.891   7.203   7.268
 8943WAT     H228932   6.884   7.123   7.396
 8944WAT      O28933   7.471   8.761   7.074
 8944WAT     H128934   7.422   8.801   7.003
 8944WAT     H228935   7.411   8.698   7.114
 8945WAT      O28936   5.882   7.039   7.345
 8945WAT     H128937   5.937   7.021   7.269
 8945WAT     H228938   5.888   6.960   7.399
 8946WAT      O28939   5.959   8.698   7.146
 8946WAT     H128940   5.900   8.685   7.220
 8946WAT     H228941   5.958   8.614   7.100
 8947WAT      O28942   6.904   7.027   6.967
 8947WAT     H128943   6.816   7.061   6.946
 8947WAT     H228944   6.893   6.980   7.049
 8948WAT      O28945   6.994   7.248   7.105
 8948WAT     H128946   6.962   7.167   7.067
 8948WAT     H228947   7.089   7.244   7.093
 8949WAT      O28948   7.240   8.825   6.802
 8949WAT     H128949   7.194   8.900   6.765
 8949WAT     H228950   7.177   8.753   6.796
 8950WAT      O28951   5.922   8.435   7.041
 8950WAT     H128952   5.850   8.373   7.035
 8950WAT     H228953   5.928   8.474   6.954
 8951WAT      O28954   6.283   8.656   6.720
 8951WAT     H128955   6.334   8.595   6.667
 8951WAT     H228956   6.348   8.706   6.769
 8952WAT      O28957   6.557   8.745   6.803
 8952WAT     H128958   6.585   8.720   6.715
 8952WAT     H228959   6.608   8.690   6.862
 8953WAT      O28960   6.678   7.119   6.860
 8953WAT     H128961   6.600   7.166   6.888
 8953WAT     H228962   6.649   7.029   6.850
 8954WAT      O28963   7.134   7.189   6.665
 8954WAT     H128964   7.178   7.184   6.580
 8954WAT     H228965   7.107   7.281   6.672
 8955WAT      O28966   7.320   7.152   6.466
 8955WAT     H128967   7.314   7.058   6.451
 8955WAT     H228968   7.398   7.163   6.521
 8956WAT      O28969   5.751   8.766   6.362
 8956WAT     H128970   5.734   8.703   6.432
 8956WAT     H228971   5.664   8.787   6.327
 8957WAT      O28972   5.813   7.150   6.113
 8957WAT     H128973   5.889   7.161   6.055
 8957WAT     H228974   5.767   7.233   6.108
 8958WAT      O28975   6.467   7.361   6.412
 8958WAT     H128976   6.386   7.323   6.378
 8958WAT     H228977   6.517   7.285   6.442
 8959WAT      O28978   6.917   7.027   6.535
 8959WAT     H128979   6.978   7.085   6.583
 8959WAT     H228980   6.843   7.084   6.513
 8960WAT      O28981   7.232   7.068   6.063
 8960WAT     H128982   7.251   7.157   6.090
 8960WAT     H228983   7.153   7.044   6.112
 8961WAT      O28984   5.911   8.636   6.107
 8961WAT     H128985   5.859   8.674   6.036
 8961WAT     H228986   5.904   8.698   6.179
 8962WAT      O28987   6.050   7.202   5.967
 8962WAT     H128988   6.103   7.123   5.954
 8962WAT     H228989   6.113   7.270   5.990
 8963WAT      O28990   6.270   7.176   6.272
 8963WAT     H128991   6.207   7.106   6.289
 8963WAT     H228992   6.216   7.252   6.250
 8964WAT      O28993   7.387   8.792   6.239
 8964WAT     H128994   7.404   8.723   6.175
 8964WAT     H228995   7.317   8.844   6.200
 8965WAT      O28996   6.171   8.831   5.994
 8965WAT     H128997   6.244   8.802   5.940
 8965WAT     H228998   6.197   8.807   6.083
 8966WAT      O28999   6.087   8.442   5.995
 8966WAT     H129000   6.024   8.489   6.050
 8966WAT     H229001   6.099   8.358   6.038
 8967WAT      O29002   6.833   7.847   4.610
 8967WAT     H129003   6.825   7.756   4.583
 8967WAT     H229004   6.791   7.897   4.539
 8968WAT      O29005   6.646   8.025   4.798
 8968WAT     H129006   6.568   7.977   4.827
 8968WAT     H229007   6.711   7.957   4.780
 8969WAT      O29008   6.048   8.056   4.886
 8969WAT     H129009   5.964   8.031   4.926
 8969WAT     H229010   6.108   8.063   4.959
 8970WAT      O29011   7.048   8.466   4.676
 8970WAT     H129012   7.002   8.388   4.709
 8970WAT     H229013   7.129   8.468   4.726
 8971WAT      O29014   6.046   8.460   4.905
 8971WAT     H129015   6.076   8.371   4.887
 8971WAT     H229016   6.120   8.515   4.882
 8972WAT      O29017   5.889   7.552   4.264
 8972WAT     H129018   5.800   7.586   4.254
 8972WAT     H229019   5.917   7.532   4.175
 8973WAT      O29020   5.685   7.812   4.852
 8973WAT     H129021   5.742   7.735   4.852
 8973WAT     H229022   5.685   7.842   4.762
 8974WAT      O29023   6.671   8.694   4.638
 8974WAT     H129024   6.609   8.740   4.581
 8974WAT     H229025   6.756   8.710   4.598
 8975WAT      O29026   6.590   8.293   4.799
 8975WAT     H129027   6.583   8.198   4.782
 8975WAT     H229028   6.666   8.302   4.856
 8976WAT      O29029   5.809   7.353   5.031
 8976WAT     H129030   5.791   7.263   5.059
 8976WAT     H229031   5.769   7.408   5.099
 8977WAT      O29032   6.693   7.573   4.821
 8977WAT     H129033   6.731   7.486   4.810
 8977WAT     H229034   6.683   7.607   4.732
 8978WAT      O29035   6.106   7.411   4.367
 8978WAT     H129036   6.117   7.501   4.398
 8978WAT     H229037   6.015   7.406   4.338
 8979WAT      O29038   7.071   7.323   4.515
 8979WAT     H129039   7.153   7.274   4.519
 8979WAT     H229040   7.075   7.382   4.590
 8980WAT      O29041   5.871   7.603   4.892
 8980WAT     H129042   5.939   7.629   4.954
 8980WAT     H229043   5.839   7.519   4.925
 8981WAT      O29044   6.290   7.707   4.801
 8981WAT     H129045   6.341   7.757   4.865
 8981WAT     H229046   6.343   7.630   4.783
 8982WAT      O29047   7.500   7.524   5.171
 8982WAT     H129048   7.430   7.563   5.119
 8982WAT     H229049   7.527   7.594   5.231
 8983WAT      O29050   6.119   7.171   5.227
 8983WAT     H129051   6.119   7.223   5.147
 8983WAT     H229052   6.036   7.124   5.225
 8984WAT      O29053   6.757   8.183   4.377
 8984WAT     H129054   6.695   8.229   4.321
 8984WAT     H229055   6.809   8.252   4.419
 8985WAT      O29056   6.244   8.135   5.045
 8985WAT     H129057   6.210   8.198   5.109
 8985WAT     H229058   6.261   8.188   4.967
 8986WAT      O29059   7.095   7.517   4.792
 8986WAT     H129060   7.025   7.546   4.850
 8986WAT     H229061   7.131   7.598   4.756
 8987WAT      O29062   6.087   7.342   5.028
 8987WAT     H129063   6.121   7.427   4.999
 8987WAT     H229064   5.993   7.357   5.040
 8988WAT      O29065   6.165   8.332   5.227
 8988WAT     H129066   6.227   8.400   5.198
 8988WAT     H229067   6.079   8.373   5.217
 8989WAT      O29068   5.694   8.251   4.115
 8989WAT     H129069   5.656   8.300   4.041
 8989WAT     H229070   5.720   8.318   4.178
 8990WAT      O29071   7.257   8.479   5.018
 8990WAT     H129072   7.188   8.546   5.017
 8990WAT     H229073   7.311   8.498   4.942
 8991WAT      O29074   7.402   7.461   4.831
 8991WAT     H129075   7.307   7.465   4.844
 8991WAT     H229076   7.434   7.543   4.869
 8992WAT      O29077   6.455   7.091   4.660
 8992WAT     H129078   6.486   7.036   4.589
 8992WAT     H229079   6.362   7.105   4.642
 8993WAT      O29080   7.010   8.663   4.890
 8993WAT     H129081   7.011   8.623   4.803
 8993WAT     H229082   6.955   8.740   4.879
 8994WAT      O29083   7.140   8.335   4.398
 8994WAT     H129084   7.129   8.241   4.411
 8994WAT     H229085   7.139   8.371   4.487
 8995WAT      O29086   6.950   8.153   5.022
 8995WAT     H129087   6.992   8.132   4.939
 8995WAT     H229088   7.022   8.179   5.079
 8996WAT      O29089   6.694   7.898   4.334
 8996WAT     H129090   6.601   7.891   4.357
 8996WAT     H229091   6.709   7.992   4.323
 8997WAT      O29092   6.693   7.525   4.034
 8997WAT     H129093   6.599   7.541   4.042
 8997WAT     H229094   6.724   7.597   3.979
 8998WAT      O29095   7.345   7.993   5.032
 8998WAT     H129096   7.262   8.000   4.984
 8998WAT     H229097   7.404   8.052   4.985
 8999WAT      O29098   7.097   8.054   4.384
 8999WAT     H129099   7.035   8.020   4.320
 8999WAT     H229100   7.095   7.990   4.455
 9000WAT      O29101   7.041   7.672   5.126
 9000WAT     H129102   7.000   7.754   5.151
 9000WAT     H229103   6.968   7.613   5.107
 9001WAT      O29104   6.254   7.950   4.612
 9001WAT     H129105   6.214   7.879   4.563
 9001WAT     H229106   6.263   7.916   4.701
 9002WAT      O29107   6.301   8.319   4.829
 9002WAT     H129108   6.272   8.259   4.761
 9002WAT     H229109   6.396   8.323   4.818
 9003WAT      O29110   6.126   7.628   4.990
 9003WAT     H129111   6.181   7.639   4.913
 9003WAT     H229112   6.177   7.665   5.062
 9004WAT      O29113   7.110   8.676   5.195
 9004WAT     H129114   7.062   8.757   5.176
 9004WAT     H229115   7.042   8.611   5.210
 9005WAT      O29116   6.210   8.293   5.494
 9005WAT     H129117   6.121   8.315   5.518
 9005WAT     H229118   6.213   8.305   5.399
 9006WAT      O29119   6.914   7.978   4.085
 9006WAT     H129120   6.958   7.894   4.071
 9006WAT     H229121   6.986   8.041   4.094
 9007WAT      O29122   6.093   7.980   5.351
 9007WAT     H129123   6.079   8.067   5.388
 9007WAT     H229124   6.005   7.946   5.337
 9008WAT      O29125   6.725   8.472   4.482
 9008WAT     H129126   6.769   8.546   4.441
 9008WAT     H229127   6.719   8.496   4.574
 9009WAT      O29128   6.273   8.574   5.572
 9009WAT     H129129   6.270   8.615   5.485
 9009WAT     H229130   6.257   8.481   5.556
 9010WAT      O29131   7.273   7.103   3.917
 9010WAT     H129132   7.241   7.113   4.007
 9010WAT     H229133   7.349   7.161   3.912
 9011WAT      O29134   5.924   7.840   4.362
 9011WAT     H129135   5.912   7.913   4.301
 9011WAT     H229136   5.893   7.763   4.315
 9012WAT      O29137   7.468   8.653   5.702
 9012WAT     H129138   7.516   8.700   5.770
 9012WAT     H229139   7.530   8.646   5.629
 9013WAT      O29140   5.688   8.157   4.943
 9013WAT     H129141   5.696   8.171   4.849
 9013WAT     H229142   5.750   8.086   4.962
 9014WAT      O29143   5.813   8.327   4.584
 9014WAT     H129144   5.772   8.341   4.499
 9014WAT     H229145   5.902   8.299   4.564
 9015WAT      O29146   7.408   8.372   5.418
 9015WAT     H129147   7.421   8.348   5.326
 9015WAT     H229148   7.413   8.289   5.465
 9016WAT      O29149   6.795   8.742   5.275
 9016WAT     H129150   6.846   8.733   5.355
 9016WAT     H229151   6.710   8.777   5.304
 9017WAT      O29152   6.992   8.771   4.218
 9017WAT     H129153   6.976   8.742   4.307
 9017WAT     H229154   6.976   8.693   4.164
 9018WAT      O29155   6.240   8.748   4.395
 9018WAT     H129156   6.222   8.657   4.374
 9018WAT     H229157   6.155   8.784   4.419
 9019WAT      O29158   6.962   8.521   4.074
 9019WAT     H129159   6.893   8.521   4.008
 9019WAT     H229160   7.037   8.479   4.031
 9020WAT      O29161   6.919   8.684   4.481
 9020WAT     H129162   6.964   8.606   4.512
 9020WAT     H229163   6.953   8.755   4.535
 9021WAT      O29164   7.394   7.577   5.514
 9021WAT     H129165   7.332   7.628   5.461
 9021WAT     H229166   7.362   7.487   5.509
 9022WAT      O29167   5.694   8.261   5.197
 9022WAT     H129168   5.710   8.214   5.115
 9022WAT     H229169   5.740   8.210   5.263
 9023WAT      O29170   6.171   7.174   4.701
 9023WAT     H129171   6.127   7.252   4.667
 9023WAT     H229172   6.227   7.207   4.771
 9024WAT      O29173   6.600   7.461   5.261
 9024WAT     H129174   6.554   7.482   5.342
 9024WAT     H229175   6.560   7.380   5.231
 9025WAT      O29176   7.100   7.583   5.374
 9025WAT     H129177   7.015   7.553   5.406
 9025WAT     H229178   7.084   7.607   5.283
 9026WAT      O29179   6.809   7.733   5.584
 9026WAT     H129180   6.842   7.650   5.550
 9026WAT     H229181   6.888   7.785   5.599
 9027WAT      O29182   6.483   7.136   4.189
 9027WAT     H129183   6.420   7.136   4.261
 9027WAT     H229184   6.474   7.050   4.149
 9028WAT      O29185   6.375   7.229   4.886
 9028WAT     H129186   6.405   7.319   4.878
 9028WAT     H229187   6.430   7.180   4.825
 9029WAT      O29188   6.150   7.687   4.473
 9029WAT     H129189   6.128   7.665   4.564
 9029WAT     H229190   6.072   7.730   4.439
 9030WAT      O29191   6.873   7.687   4.333
 9030WAT     H129192   6.813   7.760   4.315
 9030WAT     H229193   6.928   7.681   4.255
 9031WAT      O29194   6.394   7.776   5.540
 9031WAT     H129195   6.385   7.682   5.525
 9031WAT     H229196   6.479   7.799   5.500
 9032WAT      O29197   6.734   7.551   4.536
 9032WAT     H129198   6.773   7.583   4.455
 9032WAT     H229199   6.770   7.463   4.548
 9033WAT      O29200   5.907   7.418   5.355
 9033WAT     H129201   5.868   7.502   5.376
 9033WAT     H229202   5.839   7.354   5.374
 9034WAT      O29203   6.565   7.426   5.662
 9034WAT     H129204   6.496   7.407   5.726
 9034WAT     H229205   6.639   7.454   5.716
 9035WAT      O29206   5.638   7.210   4.759
 9035WAT     H129207   5.609   7.267   4.830
 9035WAT     H229208   5.712   7.162   4.795
 9036WAT      O29209   5.656   7.604   3.880
 9036WAT     H129210   5.648   7.698   3.894
 9036WAT     H229211   5.621   7.590   3.792
 9037WAT      O29212   6.792   7.810   4.946
 9037WAT     H129213   6.719   7.861   4.981
 9037WAT     H229214   6.753   7.728   4.916
 9038WAT      O29215   6.436   7.477   4.786
 9038WAT     H129216   6.437   7.433   4.701
 9038WAT     H229217   6.526   7.510   4.797
 9039WAT      O29218   6.021   7.466   4.682
 9039WAT     H129219   5.987   7.513   4.758
 9039WAT     H229220   5.945   7.420   4.646
 9040WAT      O29221   6.442   7.578   4.085
 9040WAT     H129222   6.455   7.573   4.180
 9040WAT     H229223   6.404   7.664   4.070
 9041WAT      O29224   6.839   7.355   4.887
 9041WAT     H129225   6.840   7.400   4.971
 9041WAT     H229226   6.814   7.265   4.908
 9042WAT      O29227   6.344   7.809   4.025
 9042WAT     H129228   6.287   7.764   3.963
 9042WAT     H229229   6.414   7.844   3.972
 9043WAT      O29230   7.181   7.097   5.471
 9043WAT     H129231   7.214   7.023   5.524
 9043WAT     H229232   7.185   7.065   5.381
 9044WAT      O29233   5.851   8.199   5.413
 9044WAT     H129234   5.813   8.135   5.473
 9044WAT     H229235   5.882   8.269   5.470
 9045WAT      O29236   6.466   7.883   4.961
 9045WAT     H129237   6.503   7.836   5.036
 9045WAT     H229238   6.447   7.971   4.995
 9046WAT      O29239   5.753   7.358   4.574
 9046WAT     H129240   5.724   7.321   4.658
 9046WAT     H229241   5.746   7.285   4.513
 9047WAT      O29242   6.245   7.788   5.193
 9047WAT     H129243   6.215   7.875   5.215
 9047WAT     H229244   6.341   7.794   5.196
 9048WAT      O29245   6.098   8.208   4.253
 9048WAT     H129246   6.021   8.154   4.237
 9048WAT     H229247   6.171   8.156   4.219
 9049WAT      O29248   7.174   8.108   4.832
 9049WAT     H129249   7.246   8.157   4.793
 9049WAT     H229250   7.154   8.040   4.767
 9050WAT      O29251   6.720   7.247   4.246
 9050WAT     H129252   6.639   7.197   4.239
 9050WAT     H229253   6.701   7.331   4.204
 9051WAT      O29254   6.712   8.115   5.420
 9051WAT     H129255   6.706   8.023   5.395
 9051WAT     H229256   6.649   8.125   5.492
 9052WAT      O29257   6.992   7.684   4.076
 9052WAT     H129258   7.080   7.716   4.058
 9052WAT     H229259   6.989   7.597   4.037
 9053WAT      O29260   6.102   8.175   4.616
 9053WAT     H129261   6.154   8.095   4.611
 9053WAT     H229262   6.057   8.169   4.700
 9054WAT      O29263   6.591   8.302   4.144
 9054WAT     H129264   6.625   8.376   4.094
 9054WAT     H229265   6.508   8.333   4.180
 9055WAT      O29266   5.851   7.872   5.308
 9055WAT     H129267   5.815   7.938   5.366
 9055WAT     H229268   5.821   7.788   5.345
 9056WAT      O29269   6.171   7.917   5.596
 9056WAT     H129270   6.141   7.932   5.506
 9056WAT     H229271   6.248   7.861   5.587
 9057WAT      O29272   6.705   8.397   5.396
 9057WAT     H129273   6.707   8.304   5.374
 9057WAT     H229274   6.635   8.406   5.459
 9058WAT      O29275   7.219   7.816   4.022
 9058WAT     H129276   7.210   7.859   3.937
 9058WAT     H229277   7.291   7.861   4.066
 9059WAT      O29278   7.326   8.061   5.330
 9059WAT     H129279   7.254   8.120   5.310
 9059WAT     H229280   7.379   8.060   5.250
 9060WAT      O29281   7.322   8.501   4.295
 9060WAT     H129282   7.257   8.435   4.323
 9060WAT     H229283   7.283   8.541   4.218
 9061WAT      O29284   6.879   8.234   4.680
 9061WAT     H129285   6.915   8.174   4.614
 9061WAT     H229286   6.791   8.201   4.697
 9062WAT      O29287   6.488   8.310   4.421
 9062WAT     H129288   6.557   8.364   4.459
 9062WAT     H229289   6.409   8.364   4.424
 9063WAT      O29290   5.702   7.871   3.970
 9063WAT     H129291   5.789   7.900   3.998
 9063WAT     H229292   5.653   7.953   3.958
 9064WAT      O29293   6.418   8.010   4.382
 9064WAT     H129294   6.464   8.091   4.405
 9064WAT     H229295   6.383   7.978   4.465
 9065WAT      O29296   6.649   8.561   5.105
 9065WAT     H129297   6.713   8.582   5.173
 9065WAT     H229298   6.685   8.485   5.060
 9066WAT      O29299   6.008   7.045   4.429
 9066WAT     H129300   5.996   7.044   4.524
 9066WAT     H229301   5.926   7.078   4.394
 9067WAT      O29302   6.776   8.362   4.977
 9067WAT     H129303   6.840   8.292   4.988
 9067WAT     H229304   6.828   8.440   4.959
 9068WAT      O29305   7.161   8.390   3.949
 9068WAT     H129306   7.138   8.318   4.008
 9068WAT     H229307   7.121   8.365   3.865
 9069WAT      O29308   6.953   8.442   5.297
 9069WAT     H129309   6.987   8.500   5.365
 9069WAT     H229310   6.861   8.428   5.320
 9070WAT      O29311   5.739   8.793   4.027
 9070WAT     H129312   5.775   8.853   3.961
 9070WAT     H229313   5.725   8.847   4.104
 9071WAT      O29314   5.708   7.221   5.375
 9071WAT     H129315   5.637   7.240   5.436
 9071WAT     H229316   5.750   7.143   5.412
 9072WAT      O29317   7.119   8.182   4.115
 9072WAT     H129318   7.090   8.228   4.194
 9072WAT     H229319   7.198   8.136   4.142
 9073WAT      O29320   5.737   8.619   5.474
 9073WAT     H129321   5.748   8.525   5.460
 9073WAT     H229322   5.672   8.646   5.409
 9074WAT      O29323   6.536   8.446   5.614
 9074WAT     H129324   6.504   8.375   5.668
 9074WAT     H229325   6.469   8.514   5.621
 9075WAT      O29326   6.340   8.531   4.108
 9075WAT     H129327   6.339   8.604   4.047
 9075WAT     H229328   6.248   8.506   4.118
 9076WAT      O29329   5.900   8.053   4.183
 9076WAT     H129330   5.840   8.127   4.184
 9076WAT     H229331   5.948   8.062   4.100
 9077WAT      O29332   6.858   7.470   5.150
 9077WAT     H129333   6.895   7.388   5.183
 9077WAT     H229334   6.772   7.476   5.192
 9078WAT      O29335   7.194   7.365   4.231
 9078WAT     H129336   7.132   7.376   4.160
 9078WAT     H229337   7.145   7.387   4.310
 9079WAT      O29338   6.639   8.537   3.975
 9079WAT     H129339   6.649   8.517   3.882
 9079WAT     H229340   6.549   8.512   3.995
 9080WAT      O29341   6.391   7.593   4.373
 9080WAT     H129342   6.320   7.640   4.417
 9080WAT     H229343   6.420   7.527   4.436
 9081WAT      O29344   6.554   7.735   5.173
 9081WAT     H129345   6.604   7.783   5.239
 9081WAT     H229346   6.568   7.643   5.193
 9082WAT      O29347   6.794   7.266   4.517
 9082WAT     H129348   6.782   7.268   4.422
 9082WAT     H229349   6.889   7.270   4.529
 9083WAT      O29350   6.503   8.789   4.444
 9083WAT     H129351   6.529   8.785   4.352
 9083WAT     H229352   6.408   8.777   4.443
 9084WAT      O29353   6.212   7.424   4.110
 9084WAT     H129354   6.296   7.468   4.104
 9084WAT     H229355   6.175   7.455   4.193
 9085WAT      O29356   7.274   7.357   5.257
 9085WAT     H129357   7.224   7.431   5.291
 9085WAT     H229358   7.356   7.396   5.225
 9086WAT      O29359   7.104   7.881   4.602
 9086WAT     H129360   7.010   7.883   4.619
 9086WAT     H229361   7.135   7.802   4.646
 9087WAT      O29362   6.102   8.049   3.958
 9087WAT     H129363   6.178   8.038   4.014
 9087WAT     H229364   6.109   7.980   3.892
 9088WAT      O29365   5.971   7.793   4.026
 9088WAT     H129366   5.979   7.698   4.037
 9088WAT     H229367   6.060   7.826   4.037
 9089WAT      O29368   7.304   8.598   4.769
 9089WAT     H129369   7.316   8.681   4.816
 9089WAT     H229370   7.391   8.577   4.734
 9090WAT      O29371   6.051   8.808   4.736
 9090WAT     H129372   6.125   8.753   4.763
 9090WAT     H229373   6.090   8.894   4.722
 9091WAT      O29374   5.740   8.414   4.324
 9091WAT     H129375   5.647   8.438   4.323
 9091WAT     H229376   5.786   8.497   4.312
 9092WAT      O29377   5.952   8.726   5.655
 9092WAT     H129378   6.032   8.758   5.696
 9092WAT     H229379   5.900   8.690   5.727
 9093WAT      O29380   6.362   8.725   3.919
 9093WAT     H129381   6.441   8.754   3.873
 9093WAT     H229382   6.310   8.682   3.851
 9094WAT      O29383   6.835   8.337   5.650
 9094WAT     H129384   6.775   8.339   5.576
 9094WAT     H229385   6.805   8.264   5.704
 9095WAT      O29386   6.978   8.710   5.511
 9095WAT     H129387   7.074   8.701   5.506
 9095WAT     H229388   6.964   8.776   5.578
 9096WAT      O29389   7.267   8.648   4.061
 9096WAT     H129390   7.239   8.606   3.979
 9096WAT     H229391   7.248   8.740   4.049
 9097WAT      O29392   5.724   7.975   5.550
 9097WAT     H129393   5.774   7.917   5.607
 9097WAT     H229394   5.650   8.003   5.603
 9098WAT      O29395   6.414   8.247   3.905
 9098WAT     H129396   6.403   8.185   3.978
 9098WAT     H229397   6.397   8.195   3.827
 9099WAT      O29398   6.429   8.115   5.503
 9099WAT     H129399   6.353   8.172   5.494
 9099WAT     H229400   6.447   8.086   5.414
 9100WAT      O29401   6.738   8.153   3.965
 9100WAT     H129402   6.683   8.198   4.030
 9100WAT     H229403   6.800   8.103   4.018
 9101WAT      O29404   7.143   8.288   5.559
 9101WAT     H129405   7.217   8.322   5.508
 9101WAT     H229406   7.067   8.305   5.503
 9102WAT      O29407   5.927   7.789   5.639
 9102WAT     H129408   5.931   7.759   5.730
 9102WAT     H229409   6.012   7.829   5.623
 9103WAT      O29410   6.305   8.049   4.155
 9103WAT     H129411   6.347   8.032   4.239
 9103WAT     H229412   6.317   7.968   4.106
 9104WAT      O29413   6.121   7.647   5.436
 9104WAT     H129414   6.068   7.598   5.373
 9104WAT     H229415   6.188   7.690   5.382
 9105WAT      O29416   6.556   7.951   3.880
 9105WAT     H129417   6.608   7.880   3.843
 9105WAT     H229418   6.621   8.015   3.910
 9106WAT      O29419   7.011   8.094   5.412
 9106WAT     H129420   7.052   8.109   5.497
 9106WAT     H229421   6.917   8.106   5.428
 9107WAT      O29422   7.058   7.828   5.613
 9107WAT     H129423   7.116   7.752   5.604
 9107WAT     H229424   7.076   7.881   5.535
 9108WAT      O29425   6.170   7.344   5.444
 9108WAT     H129426   6.160   7.282   5.371
 9108WAT     H229427   6.112   7.416   5.421
 9109WAT      O29428   6.446   7.199   5.147
 9109WAT     H129429   6.401   7.202   5.062
 9109WAT     H229430   6.383   7.159   5.207
 9110WAT      O29431   6.487   8.089   5.209
 9110WAT     H129432   6.529   8.173   5.192
 9110WAT     H229433   6.395   8.103   5.186
 9111WAT      O29434   6.721   7.862   5.348
 9111WAT     H129435   6.732   7.802   5.421
 9111WAT     H229436   6.806   7.866   5.306
 9112WAT      O29437   6.954   7.917   5.205
 9112WAT     H129438   6.902   7.970   5.145
 9112WAT     H229439   6.989   7.981   5.268
 9113WAT      O29440   6.194   7.656   3.850
 9113WAT     H129441   6.174   7.570   3.886
 9113WAT     H229442   6.177   7.648   3.756
 9114WAT      O29443   6.272   8.719   5.321
 9114WAT     H129444   6.218   8.792   5.289
 9114WAT     H229445   6.297   8.672   5.242
 9115WAT      O29446   6.397   7.516   5.473
 9115WAT     H129447   6.456   7.485   5.542
 9115WAT     H229448   6.315   7.469   5.489
 9116WAT      O29449   6.879   7.478   5.497
 9116WAT     H129450   6.810   7.412   5.490
 9116WAT     H229451   6.951   7.433   5.541
 9117WAT      O29452   6.942   7.137   4.102
 9117WAT     H129453   6.970   7.053   4.138
 9117WAT     H229454   6.865   7.161   4.154
 9118WAT      O29455   6.074   7.366   3.848
 9118WAT     H129456   6.104   7.367   3.758
 9118WAT     H229457   6.148   7.331   3.898
 9119WAT      O29458   6.558   8.843   5.347
 9119WAT     H129459   6.550   8.933   5.377
 9119WAT     H229460   6.467   8.811   5.344
 9120WAT      O29461   6.396   7.261   3.947
 9120WAT     H129462   6.361   7.193   3.889
 9120WAT     H229463   6.416   7.215   4.028
 9121WAT      O29464   6.612   8.759   4.109
 9121WAT     H129465   6.702   8.793   4.111
 9121WAT     H229466   6.616   8.687   4.046
 9122WAT      O29467   5.976   8.297   3.932
 9122WAT     H129468   6.020   8.351   3.997
 9122WAT     H229469   6.025   8.214   3.933
 9123WAT      O29470   5.698   8.576   4.677
 9123WAT     H129471   5.731   8.489   4.654
 9123WAT     H229472   5.741   8.596   4.760
 9124WAT      O29473   6.157   8.409   4.443
 9124WAT     H129474   6.127   8.396   4.533
 9124WAT     H229475   6.147   8.323   4.402
 9125WAT      O29476   5.747   8.662   4.951
 9125WAT     H129477   5.703   8.680   5.034
 9125WAT     H229478   5.804   8.738   4.937
 9126WAT      O29479   7.310   8.613   5.379
 9126WAT     H129480   7.250   8.618   5.305
 9126WAT     H229481   7.323   8.519   5.392
 9127WAT      O29482   7.434   8.387   3.913
 9127WAT     H129483   7.351   8.393   3.960
 9127WAT     H229484   7.452   8.476   3.883
 9128WAT      O29485   7.380   8.061   4.164
 9128WAT     H129486   7.456   8.118   4.174
 9128WAT     H229487   7.382   8.004   4.241
 9129WAT      O29488   5.730   7.914   4.587
 9129WAT     H129489   5.665   7.887   4.522
 9129WAT     H229490   5.814   7.903   4.542
 9130WAT      O29491   7.481   8.147   4.648
 9130WAT     H129492   7.518   8.068   4.607
 9130WAT     H229493   7.545   8.216   4.630
 9131WAT      O29494   7.179   8.285   5.189
 9131WAT     H129495   7.098   8.328   5.216
 9131WAT     H229496   7.220   8.346   5.128
 9132WAT      O29497   7.385   8.091   3.879
 9132WAT     H129498   7.413   8.181   3.866
 9132WAT     H229499   7.366   8.084   3.973
 9133WAT      O29500   7.025   7.393   4.009
 9133WAT     H129501   7.067   7.374   3.925
 9133WAT     H229502   6.994   7.308   4.040
 9134WAT      O29503   7.375   7.884   4.379
 9134WAT     H129504   7.337   7.807   4.335
 9134WAT     H229505   7.302   7.922   4.427
 9135WAT      O29506   5.834   7.952   5.041
 9135WAT     H129507   5.871   7.943   5.129
 9135WAT     H229508   5.777   7.876   5.031
 9136WAT      O29509   7.314   7.799   5.342
 9136WAT     H129510   7.291   7.776   5.252
 9136WAT     H229511   7.340   7.891   5.337
 9137WAT      O29512   5.789   7.643   5.431
 9137WAT     H129513   5.699   7.640   5.465
 9137WAT     H229514   5.843   7.663   5.508
 9138WAT      O29515   7.158   7.321   5.620
 9138WAT     H129516   7.245   7.322   5.658
 9138WAT     H229517   7.159   7.248   5.559
 9139WAT      O29518   5.651   7.635   4.181
 9139WAT     H129519   5.561   7.661   4.163
 9139WAT     H229520   5.700   7.662   4.103
 9140WAT      O29521   7.302   7.707   4.709
 9140WAT     H129522   7.355   7.657   4.646
 9140WAT     H229523   7.361   7.720   4.783
 9141WAT      O29524   7.320   7.715   5.061
 9141WAT     H129525   7.225   7.712   5.072
 9141WAT     H229526   7.338   7.806   5.037
 9142WAT      O29527   5.906   7.540   3.972
 9142WAT     H129528   5.977   7.498   3.923
 9142WAT     H229529   5.834   7.547   3.909
 9143WAT      O29530   5.870   7.146   3.876
 9143WAT     H129531   5.943   7.200   3.908
 9143WAT     H229532   5.898   7.118   3.788
 9144WAT      O29533   7.251   7.633   4.303
 9144WAT     H129534   7.301   7.609   4.381
 9144WAT     H229535   7.231   7.549   4.261
 9145WAT      O29536   5.839   7.071   4.866
 9145WAT     H129537   5.904   7.016   4.822
 9145WAT     H229538   5.881   7.096   4.948
 9146WAT      O29539   7.394   7.496   4.556
 9146WAT     H129540   7.383   7.481   4.650
 9146WAT     H229541   7.470   7.443   4.532
 9147WAT      O29542   7.229   7.090   5.202
 9147WAT     H129543   7.293   7.151   5.238
 9147WAT     H229544   7.244   7.094   5.107
 9148WAT      O29545   7.483   7.279   3.880
 9148WAT     H129546   7.576   7.266   3.859
 9148WAT     H229547   7.481   7.287   3.975
 9149WAT      O29548   7.490   7.356   4.143
 9149WAT     H129549   7.411   7.350   4.195
 9149WAT     H229550   7.511   7.450   4.141
 9150WAT      O29551   7.185   8.760   4.542
 9150WAT     H129552   7.244   8.728   4.474
 9150WAT     H229553   7.210   8.713   4.621
 9151WAT      O29554   5.815   7.086   5.140
 9151WAT     H129555   5.780   7.132   5.217
 9151WAT     H229556   5.782   6.997   5.149
 9152WAT      O29557   5.975   8.403   5.557
 9152WAT     H129558   5.971   8.366   5.645
 9152WAT     H229559   5.988   8.497   5.571
 9153WAT      O29560   6.345   8.559   5.117
 9153WAT     H129561   6.321   8.586   5.028
 9153WAT     H229562   6.439   8.576   5.122
 9154WAT      O29563   6.566   7.205   5.493
 9154WAT     H129564   6.560   7.265   5.567
 9154WAT     H229565   6.660   7.195   5.478
 9155WAT      O29566   6.830   7.171   5.456
 9155WAT     H129567   6.891   7.203   5.390
 9155WAT     H229568   6.884   7.123   5.518
 9156WAT      O29569   7.471   8.761   5.197
 9156WAT     H129570   7.422   8.801   5.125
 9156WAT     H229571   7.411   8.698   5.236
 9157WAT      O29572   5.882   7.039   5.468
 9157WAT     H129573   5.937   7.021   5.391
 9157WAT     H229574   5.888   6.960   5.521
 9158WAT      O29575   5.959   8.698   5.269
 9158WAT     H129576   5.900   8.685   5.343
 9158WAT     H229577   5.958   8.614   5.222
 9159WAT      O29578   6.904   7.027   5.089
 9159WAT     H129579   6.816   7.061   5.069
 9159WAT     H229580   6.893   6.980   5.172
 9160WAT      O29581   6.994   7.248   5.228
 9160WAT     H129582   6.962   7.167   5.190
 9160WAT     H229583   7.089   7.244   5.215
 9161WAT      O29584   7.240   8.825   4.925
 9161WAT     H129585   7.194   8.900   4.887
 9161WAT     H229586   7.177   8.753   4.919
 9162WAT      O29587   5.922   8.435   5.164
 9162WAT     H129588   5.850   8.373   5.157
 9162WAT     H229589   5.928   8.474   5.077
 9163WAT      O29590   6.283   8.656   4.842
 9163WAT     H129591   6.334   8.595   4.790
 9163WAT     H229592   6.348   8.706   4.892
 9164WAT      O29593   6.557   8.745   4.925
 9164WAT     H129594   6.585   8.720   4.837
 9164WAT     H229595   6.608   8.690   4.984
 9165WAT      O29596   6.678   7.119   4.983
 9165WAT     H129597   6.600   7.166   5.011
 9165WAT     H229598   6.649   7.029   4.972
 9166WAT      O29599   7.134   7.189   4.788
 9166WAT     H129600   7.178   7.184   4.703
 9166WAT     H229601   7.107   7.281   4.795
 9167WAT      O29602   7.320   7.152   4.589
 9167WAT     H129603   7.314   7.058   4.574
 9167WAT     H229604   7.398   7.163   4.643
 9168WAT      O29605   5.751   8.766   4.485
 9168WAT     H129606   5.734   8.703   4.555
 9168WAT     H229607   5.664   8.787   4.450
 9169WAT      O29608   5.813   7.150   4.235
 9169WAT     H129609   5.889   7.161   4.178
 9169WAT     H229610   5.767   7.233   4.231
 9170WAT      O29611   6.467   7.361   4.534
 9170WAT     H129612   6.386   7.323   4.500
 9170WAT     H229613   6.517   7.285   4.564
 9171WAT      O29614   6.917   7.027   4.658
 9171WAT     H129615   6.978   7.085   4.706
 9171WAT     H229616   6.843   7.084   4.636
 9172WAT      O29617   7.232   7.068   4.185
 9172WAT     H129618   7.251   7.157   4.212
 9172WAT     H229619   7.153   7.044   4.235
 9173WAT      O29620   5.911   8.636   4.229
 9173WAT     H129621   5.859   8.674   4.159
 9173WAT     H229622   5.904   8.698   4.301
 9174WAT      O29623   6.050   7.202   4.089
 9174WAT     H129624   6.103   7.123   4.076
 9174WAT     H229625   6.113   7.270   4.113
 9175WAT      O29626   6.270   7.176   4.395
 9175WAT     H129627   6.207   7.106   4.411
 9175WAT     H229628   6.216   7.252   4.373
 9176WAT      O29629   6.563   8.837   5.662
 9176WAT     H129630   6.656   8.814   5.666
 9176WAT     H229631   6.562   8.920   5.614
 9177WAT      O29632   7.387   8.792   4.362
 9177WAT     H129633   7.404   8.723   4.297
 9177WAT     H229634   7.317   8.844   4.322
 9178WAT      O29635   6.282   7.104   5.638
 9178WAT     H129636   6.254   7.154   5.562
 9178WAT     H229637   6.320   7.024   5.602
 9179WAT      O29638   6.171   8.831   4.117
 9179WAT     H129639   6.244   8.802   4.062
 9179WAT     H229640   6.197   8.807   4.206
 9180WAT      O29641   6.087   8.442   4.117
 9180WAT     H129642   6.024   8.489   4.172
 9180WAT     H229643   6.099   8.358   4.161
 9181WAT      O29644   6.942   7.045   5.696
 9181WAT     H129645   6.931   7.077   5.786
 9181WAT     H229646   7.024   7.085   5.666
 9182WAT      O29647   7.220   8.760   5.644
 9182WAT     H129648   7.299   8.710   5.623
 9182WAT     H229649   7.250   8.828   5.705
 9183WAT      O29650   6.833   7.847   2.732
 9183WAT     H129651   6.825   7.756   2.705
 9183WAT     H229652   6.791   7.897   2.662
 9184WAT      O29653   6.646   8.025   2.920
 9184WAT     H129654   6.568   7.977   2.949
 9184WAT     H229655   6.711   7.957   2.903
 9185WAT      O29656   6.048   8.056   3.008
 9185WAT     H129657   5.964   8.031   3.048
 9185WAT     H229658   6.108   8.063   3.082
 9186WAT      O29659   7.048   8.466   2.798
 9186WAT     H129660   7.002   8.388   2.831
 9186WAT     H229661   7.129   8.468   2.849
 9187WAT      O29662   6.046   8.460   3.028
 9187WAT     H129663   6.076   8.371   3.010
 9187WAT     H229664   6.120   8.515   3.005
 9188WAT      O29665   5.889   7.552   2.387
 9188WAT     H129666   5.800   7.586   2.376
 9188WAT     H229667   5.917   7.532   2.297
 9189WAT      O29668   5.685   7.812   2.975
 9189WAT     H129669   5.742   7.735   2.975
 9189WAT     H229670   5.685   7.842   2.884
 9190WAT      O29671   6.671   8.694   2.760
 9190WAT     H129672   6.609   8.740   2.703
 9190WAT     H229673   6.756   8.710   2.720
 9191WAT      O29674   6.590   8.293   2.921
 9191WAT     H129675   6.583   8.198   2.905
 9191WAT     H229676   6.666   8.302   2.978
 9192WAT      O29677   5.809   7.353   3.154
 9192WAT     H129678   5.791   7.263   3.182
 9192WAT     H229679   5.769   7.408   3.221
 9193WAT      O29680   6.693   7.573   2.944
 9193WAT     H129681   6.731   7.486   2.933
 9193WAT     H229682   6.683   7.607   2.855
 9194WAT      O29683   6.106   7.411   2.490
 9194WAT     H129684   6.117   7.501   2.521
 9194WAT     H229685   6.015   7.406   2.461
 9195WAT      O29686   7.071   7.323   2.637
 9195WAT     H129687   7.153   7.274   2.641
 9195WAT     H229688   7.075   7.382   2.712
 9196WAT      O29689   5.871   7.603   3.015
 9196WAT     H129690   5.939   7.629   3.076
 9196WAT     H229691   5.839   7.519   3.048
 9197WAT      O29692   6.290   7.707   2.923
 9197WAT     H129693   6.341   7.757   2.987
 9197WAT     H229694   6.343   7.630   2.906
 9198WAT      O29695   7.500   7.524   3.294
 9198WAT     H129696   7.430   7.563   3.242
 9198WAT     H229697   7.527   7.594   3.354
 9199WAT      O29698   6.119   7.171   3.350
 9199WAT     H129699   6.119   7.223   3.269
 9199WAT     H229700   6.036   7.124   3.348
 9200WAT      O29701   6.757   8.183   2.500
 9200WAT     H129702   6.695   8.229   2.443
 9200WAT     H229703   6.809   8.252   2.541
 9201WAT      O29704   6.244   8.135   3.168
 9201WAT     H129705   6.210   8.198   3.232
 9201WAT     H229706   6.261   8.188   3.090
 9202WAT      O29707   7.095   7.517   2.914
 9202WAT     H129708   7.025   7.546   2.972
 9202WAT     H229709   7.131   7.598   2.878
 9203WAT      O29710   6.087   7.342   3.151
 9203WAT     H129711   6.121   7.427   3.121
 9203WAT     H229712   5.993   7.357   3.162
 9204WAT      O29713   6.165   8.332   3.349
 9204WAT     H129714   6.227   8.400   3.321
 9204WAT     H229715   6.079   8.373   3.340
 9205WAT      O29716   5.694   8.251   2.237
 9205WAT     H129717   5.656   8.300   2.164
 9205WAT     H229718   5.720   8.318   2.300
 9206WAT      O29719   7.257   8.479   3.141
 9206WAT     H129720   7.188   8.546   3.140
 9206WAT     H229721   7.311   8.498   3.064
 9207WAT      O29722   7.402   7.461   2.953
 9207WAT     H129723   7.307   7.465   2.967
 9207WAT     H229724   7.434   7.543   2.992
 9208WAT      O29725   6.455   7.091   2.783
 9208WAT     H129726   6.486   7.036   2.711
 9208WAT     H229727   6.362   7.105   2.765
 9209WAT      O29728   7.010   8.663   3.012
 9209WAT     H129729   7.011   8.623   2.925
 9209WAT     H229730   6.955   8.740   3.002
 9210WAT      O29731   7.140   8.335   2.521
 9210WAT     H129732   7.129   8.241   2.534
 9210WAT     H229733   7.139   8.371   2.610
 9211WAT      O29734   6.950   8.153   3.145
 9211WAT     H129735   6.992   8.132   3.061
 9211WAT     H229736   7.022   8.179   3.202
 9212WAT      O29737   6.694   7.898   2.457
 9212WAT     H129738   6.601   7.891   2.480
 9212WAT     H229739   6.709   7.992   2.445
 9213WAT      O29740   6.693   7.525   2.156
 9213WAT     H129741   6.599   7.541   2.165
 9213WAT     H229742   6.724   7.597   2.102
 9214WAT      O29743   7.345   7.993   3.154
 9214WAT     H129744   7.262   8.000   3.107
 9214WAT     H229745   7.404   8.052   3.107
 9215WAT      O29746   7.097   8.054   2.507
 9215WAT     H129747   7.035   8.020   2.442
 9215WAT     H229748   7.095   7.990   2.578
 9216WAT      O29749   7.041   7.672   3.249
 9216WAT     H129750   7.000   7.754   3.274
 9216WAT     H229751   6.968   7.613   3.229
 9217WAT      O29752   6.254   7.950   2.735
 9217WAT     H129753   6.214   7.879   2.685
 9217WAT     H229754   6.263   7.916   2.824
 9218WAT      O29755   6.301   8.319   2.951
 9218WAT     H129756   6.272   8.259   2.883
 9218WAT     H229757   6.396   8.323   2.940
 9219WAT      O29758   6.126   7.628   3.113
 9219WAT     H129759   6.181   7.639   3.035
 9219WAT     H229760   6.177   7.665   3.184
 9220WAT      O29761   7.110   8.676   3.317
 9220WAT     H129762   7.062   8.757   3.298
 9220WAT     H229763   7.042   8.611   3.333
 9221WAT      O29764   6.210   8.293   3.616
 9221WAT     H129765   6.121   8.315   3.641
 9221WAT     H229766   6.213   8.305   3.521
 9222WAT      O29767   6.914   7.978   2.208
 9222WAT     H129768   6.958   7.894   2.193
 9222WAT     H229769   6.986   8.041   2.216
 9223WAT      O29770   6.093   7.980   3.474
 9223WAT     H129771   6.079   8.067   3.511
 9223WAT     H229772   6.005   7.946   3.459
 9224WAT      O29773   6.725   8.472   2.605
 9224WAT     H129774   6.769   8.546   2.563
 9224WAT     H229775   6.719   8.496   2.697
 9225WAT      O29776   6.273   8.574   3.695
 9225WAT     H129777   6.270   8.615   3.608
 9225WAT     H229778   6.257   8.481   3.678
 9226WAT      O29779   7.273   7.103   2.039
 9226WAT     H129780   7.241   7.113   2.129
 9226WAT     H229781   7.349   7.161   2.034
 9227WAT      O29782   5.924   7.840   2.485
 9227WAT     H129783   5.912   7.913   2.424
 9227WAT     H229784   5.893   7.763   2.437
 9228WAT      O29785   7.468   8.653   3.824
 9228WAT     H129786   7.516   8.700   3.892
 9228WAT     H229787   7.530   8.646   3.752
 9229WAT      O29788   5.688   8.157   3.066
 9229WAT     H129789   5.696   8.171   2.971
 9229WAT     H229790   5.750   8.086   3.085
 9230WAT      O29791   5.813   8.327   2.707
 9230WAT     H129792   5.772   8.341   2.621
 9230WAT     H229793   5.902   8.299   2.686
 9231WAT      O29794   7.408   8.372   3.540
 9231WAT     H129795   7.421   8.348   3.449
 9231WAT     H229796   7.413   8.289   3.588
 9232WAT      O29797   6.795   8.742   3.397
 9232WAT     H129798   6.846   8.733   3.478
 9232WAT     H229799   6.710   8.777   3.427
 9233WAT      O29800   6.992   8.771   2.340
 9233WAT     H129801   6.976   8.742   2.430
 9233WAT     H229802   6.976   8.693   2.287
 9234WAT      O29803   6.240   8.748   2.518
 9234WAT     H129804   6.222   8.657   2.497
 9234WAT     H229805   6.155   8.784   2.542
 9235WAT      O29806   6.962   8.521   2.196
 9235WAT     H129807   6.893   8.521   2.130
 9235WAT     H229808   7.037   8.479   2.153
 9236WAT      O29809   6.919   8.684   2.604
 9236WAT     H129810   6.964   8.606   2.635
 9236WAT     H229811   6.953   8.755   2.658
 9237WAT      O29812   7.394   7.577   3.637
 9237WAT     H129813   7.332   7.628   3.584
 9237WAT     H229814   7.362   7.487   3.631
 9238WAT      O29815   5.694   8.261   3.320
 9238WAT     H129816   5.710   8.214   3.238
 9238WAT     H229817   5.740   8.210   3.386
 9239WAT      O29818   6.171   7.174   2.823
 9239WAT     H129819   6.127   7.252   2.790
 9239WAT     H229820   6.227   7.207   2.894
 9240WAT      O29821   6.600   7.461   3.383
 9240WAT     H129822   6.554   7.482   3.465
 9240WAT     H229823   6.560   7.380   3.353
 9241WAT      O29824   7.100   7.583   3.496
 9241WAT     H129825   7.015   7.553   3.529
 9241WAT     H229826   7.084   7.607   3.405
 9242WAT      O29827   6.809   7.733   3.706
 9242WAT     H129828   6.842   7.650   3.672
 9242WAT     H229829   6.888   7.785   3.721
 9243WAT      O29830   6.483   7.136   2.311
 9243WAT     H129831   6.420   7.136   2.384
 9243WAT     H229832   6.474   7.050   2.272
 9244WAT      O29833   6.375   7.229   3.009
 9244WAT     H129834   6.405   7.319   3.001
 9244WAT     H229835   6.430   7.180   2.948
 9245WAT      O29836   6.150   7.687   2.596
 9245WAT     H129837   6.128   7.665   2.686
 9245WAT     H229838   6.072   7.730   2.561
 9246WAT      O29839   6.873   7.687   2.456
 9246WAT     H129840   6.813   7.760   2.437
 9246WAT     H229841   6.928   7.681   2.378
 9247WAT      O29842   6.394   7.776   3.663
 9247WAT     H129843   6.385   7.682   3.648
 9247WAT     H229844   6.479   7.799   3.623
 9248WAT      O29845   6.734   7.551   2.659
 9248WAT     H129846   6.773   7.583   2.578
 9248WAT     H229847   6.770   7.463   2.670
 9249WAT      O29848   5.907   7.418   3.478
 9249WAT     H129849   5.868   7.502   3.499
 9249WAT     H229850   5.839   7.354   3.497
 9250WAT      O29851   6.565   7.426   3.785
 9250WAT     H129852   6.496   7.407   3.848
 9250WAT     H229853   6.639   7.454   3.838
 9251WAT      O29854   5.638   7.210   2.881
 9251WAT     H129855   5.609   7.267   2.952
 9251WAT     H229856   5.712   7.162   2.917
 9252WAT      O29857   5.656   7.604   2.002
 9252WAT     H129858   5.648   7.698   2.016
 9252WAT     H229859   5.621   7.590   1.914
 9253WAT      O29860   6.792   7.810   3.068
 9253WAT     H129861   6.719   7.861   3.103
 9253WAT     H229862   6.753   7.728   3.038
 9254WAT      O29863   6.436   7.477   2.909
 9254WAT     H129864   6.437   7.433   2.824
 9254WAT     H229865   6.526   7.510   2.920
 9255WAT      O29866   6.021   7.466   2.805
 9255WAT     H129867   5.987   7.513   2.881
 9255WAT     H229868   5.945   7.420   2.769
 9256WAT      O29869   6.442   7.578   2.208
 9256WAT     H129870   6.455   7.573   2.303
 9256WAT     H229871   6.404   7.664   2.192
 9257WAT      O29872   6.839   7.355   3.010
 9257WAT     H129873   6.840   7.400   3.094
 9257WAT     H229874   6.814   7.265   3.031
 9258WAT      O29875   6.344   7.809   2.148
 9258WAT     H129876   6.287   7.764   2.085
 9258WAT     H229877   6.414   7.844   2.094
 9259WAT      O29878   7.181   7.097   3.593
 9259WAT     H129879   7.214   7.023   3.646
 9259WAT     H229880   7.185   7.065   3.503
 9260WAT      O29881   5.851   8.199   3.535
 9260WAT     H129882   5.813   8.135   3.595
 9260WAT     H229883   5.882   8.269   3.592
 9261WAT      O29884   6.466   7.883   3.084
 9261WAT     H129885   6.503   7.836   3.158
 9261WAT     H229886   6.447   7.971   3.118
 9262WAT      O29887   5.753   7.358   2.697
 9262WAT     H129888   5.724   7.321   2.780
 9262WAT     H229889   5.746   7.285   2.635
 9263WAT      O29890   6.245   7.788   3.315
 9263WAT     H129891   6.215   7.875   3.338
 9263WAT     H229892   6.341   7.794   3.319
 9264WAT      O29893   6.098   8.208   2.375
 9264WAT     H129894   6.021   8.154   2.359
 9264WAT     H229895   6.171   8.156   2.341
 9265WAT      O29896   7.174   8.108   2.954
 9265WAT     H129897   7.246   8.157   2.915
 9265WAT     H229898   7.154   8.040   2.890
 9266WAT      O29899   6.720   7.247   2.369
 9266WAT     H129900   6.639   7.197   2.361
 9266WAT     H229901   6.701   7.331   2.327
 9267WAT      O29902   6.712   8.115   3.543
 9267WAT     H129903   6.706   8.023   3.518
 9267WAT     H229904   6.649   8.125   3.614
 9268WAT      O29905   6.992   7.684   2.198
 9268WAT     H129906   7.080   7.716   2.181
 9268WAT     H229907   6.989   7.597   2.159
 9269WAT      O29908   6.102   8.175   2.739
 9269WAT     H129909   6.154   8.095   2.733
 9269WAT     H229910   6.057   8.169   2.823
 9270WAT      O29911   6.591   8.302   2.266
 9270WAT     H129912   6.625   8.376   2.217
 9270WAT     H229913   6.508   8.333   2.302
 9271WAT      O29914   5.851   7.872   3.430
 9271WAT     H129915   5.815   7.938   3.489
 9271WAT     H229916   5.821   7.788   3.467
 9272WAT      O29917   6.171   7.917   3.719
 9272WAT     H129918   6.141   7.932   3.629
 9272WAT     H229919   6.248   7.861   3.709
 9273WAT      O29920   6.705   8.397   3.518
 9273WAT     H129921   6.707   8.304   3.496
 9273WAT     H229922   6.635   8.406   3.582
 9274WAT      O29923   7.219   7.816   2.145
 9274WAT     H129924   7.210   7.859   2.060
 9274WAT     H229925   7.291   7.861   2.188
 9275WAT      O29926   7.326   8.061   3.453
 9275WAT     H129927   7.254   8.120   3.433
 9275WAT     H229928   7.379   8.060   3.373
 9276WAT      O29929   7.322   8.501   2.418
 9276WAT     H129930   7.257   8.435   2.445
 9276WAT     H229931   7.283   8.541   2.340
 9277WAT      O29932   6.879   8.234   2.803
 9277WAT     H129933   6.915   8.174   2.737
 9277WAT     H229934   6.791   8.201   2.820
 9278WAT      O29935   6.488   8.310   2.543
 9278WAT     H129936   6.557   8.364   2.581
 9278WAT     H229937   6.409   8.364   2.547
 9279WAT      O29938   5.702   7.871   2.092
 9279WAT     H129939   5.789   7.900   2.121
 9279WAT     H229940   5.653   7.953   2.081
 9280WAT      O29941   6.418   8.010   2.505
 9280WAT     H129942   6.464   8.091   2.527
 9280WAT     H229943   6.383   7.978   2.588
 9281WAT      O29944   6.649   8.561   3.227
 9281WAT     H129945   6.713   8.582   3.295
 9281WAT     H229946   6.685   8.485   3.182
 9282WAT      O29947   6.008   7.045   2.552
 9282WAT     H129948   5.996   7.044   2.647
 9282WAT     H229949   5.926   7.078   2.517
 9283WAT      O29950   6.776   8.362   3.099
 9283WAT     H129951   6.840   8.292   3.111
 9283WAT     H229952   6.828   8.440   3.081
 9284WAT      O29953   7.161   8.390   2.072
 9284WAT     H129954   7.138   8.318   2.131
 9284WAT     H229955   7.121   8.365   1.988
 9285WAT      O29956   6.953   8.442   3.420
 9285WAT     H129957   6.987   8.500   3.487
 9285WAT     H229958   6.861   8.428   3.443
 9286WAT      O29959   5.739   8.793   2.149
 9286WAT     H129960   5.775   8.853   2.084
 9286WAT     H229961   5.725   8.847   2.226
 9287WAT      O29962   5.708   7.221   3.498
 9287WAT     H129963   5.637   7.240   3.558
 9287WAT     H229964   5.750   7.143   3.535
 9288WAT      O29965   7.119   8.182   2.238
 9288WAT     H129966   7.090   8.228   2.317
 9288WAT     H229967   7.198   8.136   2.265
 9289WAT      O29968   5.737   8.619   3.597
 9289WAT     H129969   5.748   8.525   3.582
 9289WAT     H229970   5.672   8.646   3.532
 9290WAT      O29971   6.536   8.446   3.736
 9290WAT     H129972   6.504   8.375   3.791
 9290WAT     H229973   6.469   8.514   3.744
 9291WAT      O29974   6.340   8.531   2.231
 9291WAT     H129975   6.339   8.604   2.169
 9291WAT     H229976   6.248   8.506   2.240
 9292WAT      O29977   5.900   8.053   2.305
 9292WAT     H129978   5.840   8.127   2.306
 9292WAT     H229979   5.948   8.062   2.223
 9293WAT      O29980   6.858   7.470   3.273
 9293WAT     H129981   6.895   7.388   3.306
 9293WAT     H229982   6.772   7.476   3.314
 9294WAT      O29983   7.194   7.365   2.354
 9294WAT     H129984   7.132   7.376   2.282
 9294WAT     H229985   7.145   7.387   2.433
 9295WAT      O29986   6.639   8.537   2.097
 9295WAT     H129987   6.649   8.517   2.004
 9295WAT     H229988   6.549   8.512   2.118
 9296WAT      O29989   6.391   7.593   2.495
 9296WAT     H129990   6.320   7.640   2.539
 9296WAT     H229991   6.420   7.527   2.559
 9297WAT      O29992   6.554   7.735   3.295
 9297WAT     H129993   6.604   7.783   3.362
 9297WAT     H229994   6.568   7.643   3.316
 9298WAT      O29995   6.794   7.266   2.639
 9298WAT     H129996   6.782   7.268   2.544
 9298WAT     H229997   6.889   7.270   2.651
 9299WAT      O29998   6.503   8.789   2.567
 9299WAT     H129999   6.529   8.785   2.474
 9299WAT     H230000   6.408   8.777   2.566
 9300WAT      O30001   6.212   7.424   2.233
 9300WAT     H130002   6.296   7.468   2.226
 9300WAT     H230003   6.175   7.455   2.316
 9301WAT      O30004   7.274   7.357   3.380
 9301WAT     H130005   7.224   7.431   3.413
 9301WAT     H230006   7.356   7.396   3.348
 9302WAT      O30007   7.104   7.881   2.724
 9302WAT     H130008   7.010   7.883   2.742
 9302WAT     H230009   7.135   7.802   2.769
 9303WAT      O30010   6.102   8.049   2.080
 9303WAT     H130011   6.178   8.038   2.136
 9303WAT     H230012   6.109   7.980   2.015
 9304WAT      O30013   5.971   7.793   2.149
 9304WAT     H130014   5.979   7.698   2.160
 9304WAT     H230015   6.060   7.826   2.159
 9305WAT      O30016   7.304   8.598   2.892
 9305WAT     H130017   7.316   8.681   2.939
 9305WAT     H230018   7.391   8.577   2.857
 9306WAT      O30019   6.051   8.808   2.859
 9306WAT     H130020   6.125   8.753   2.886
 9306WAT     H230021   6.090   8.894   2.845
 9307WAT      O30022   5.740   8.414   2.446
 9307WAT     H130023   5.647   8.438   2.445
 9307WAT     H230024   5.786   8.497   2.434
 9308WAT      O30025   5.952   8.726   3.778
 9308WAT     H130026   6.032   8.758   3.819
 9308WAT     H230027   5.900   8.690   3.850
 9309WAT      O30028   6.362   8.725   2.041
 9309WAT     H130029   6.441   8.754   1.996
 9309WAT     H230030   6.310   8.682   1.973
 9310WAT      O30031   6.835   8.337   3.772
 9310WAT     H130032   6.775   8.339   3.698
 9310WAT     H230033   6.805   8.264   3.826
 9311WAT      O30034   6.978   8.710   3.634
 9311WAT     H130035   7.074   8.701   3.629
 9311WAT     H230036   6.964   8.776   3.701
 9312WAT      O30037   7.267   8.648   2.183
 9312WAT     H130038   7.239   8.606   2.102
 9312WAT     H230039   7.248   8.740   2.171
 9313WAT      O30040   5.724   7.975   3.672
 9313WAT     H130041   5.774   7.917   3.729
 9313WAT     H230042   5.650   8.003   3.726
 9314WAT      O30043   6.414   8.247   2.028
 9314WAT     H130044   6.403   8.185   2.100
 9314WAT     H230045   6.397   8.195   1.949
 9315WAT      O30046   6.429   8.115   3.625
 9315WAT     H130047   6.353   8.172   3.617
 9315WAT     H230048   6.447   8.086   3.536
 9316WAT      O30049   6.738   8.153   2.088
 9316WAT     H130050   6.683   8.198   2.152
 9316WAT     H230051   6.800   8.103   2.140
 9317WAT      O30052   7.143   8.288   3.681
 9317WAT     H130053   7.217   8.322   3.631
 9317WAT     H230054   7.067   8.305   3.626
 9318WAT      O30055   5.927   7.789   3.762
 9318WAT     H130056   5.931   7.759   3.852
 9318WAT     H230057   6.012   7.829   3.746
 9319WAT      O30058   6.305   8.049   2.278
 9319WAT     H130059   6.347   8.032   2.362
 9319WAT     H230060   6.317   7.968   2.228
 9320WAT      O30061   6.121   7.647   3.558
 9320WAT     H130062   6.068   7.598   3.496
 9320WAT     H230063   6.188   7.690   3.505
 9321WAT      O30064   6.556   7.951   2.002
 9321WAT     H130065   6.608   7.880   1.966
 9321WAT     H230066   6.621   8.015   2.032
 9322WAT      O30067   7.011   8.094   3.535
 9322WAT     H130068   7.052   8.109   3.620
 9322WAT     H230069   6.917   8.106   3.551
 9323WAT      O30070   7.058   7.828   3.735
 9323WAT     H130071   7.116   7.752   3.726
 9323WAT     H230072   7.076   7.881   3.657
 9324WAT      O30073   6.170   7.344   3.566
 9324WAT     H130074   6.160   7.282   3.494
 9324WAT     H230075   6.112   7.416   3.544
 9325WAT      O30076   6.446   7.199   3.270
 9325WAT     H130077   6.401   7.202   3.185
 9325WAT     H230078   6.383   7.159   3.329
 9326WAT      O30079   6.487   8.089   3.332
 9326WAT     H130080   6.529   8.173   3.314
 9326WAT     H230081   6.395   8.103   3.309
 9327WAT      O30082   6.721   7.862   3.470
 9327WAT     H130083   6.732   7.802   3.544
 9327WAT     H230084   6.806   7.866   3.428
 9328WAT      O30085   6.954   7.917   3.328
 9328WAT     H130086   6.902   7.970   3.267
 9328WAT     H230087   6.989   7.981   3.391
 9329WAT      O30088   6.194   7.656   1.972
 9329WAT     H130089   6.174   7.570   2.008
 9329WAT     H230090   6.177   7.648   1.878
 9330WAT      O30091   6.272   8.719   3.443
 9330WAT     H130092   6.218   8.792   3.411
 9330WAT     H230093   6.297   8.672   3.364
 9331WAT      O30094   6.397   7.516   3.596
 9331WAT     H130095   6.456   7.485   3.665
 9331WAT     H230096   6.315   7.469   3.611
 9332WAT      O30097   6.879   7.478   3.619
 9332WAT     H130098   6.810   7.412   3.613
 9332WAT     H230099   6.951   7.433   3.664
 9333WAT      O30100   6.942   7.137   2.225
 9333WAT     H130101   6.970   7.053   2.261
 9333WAT     H230102   6.865   7.161   2.276
 9334WAT      O30103   6.074   7.366   1.971
 9334WAT     H130104   6.104   7.367   1.880
 9334WAT     H230105   6.148   7.331   2.021
 9335WAT      O30106   6.558   8.843   3.469
 9335WAT     H130107   6.550   8.933   3.500
 9335WAT     H230108   6.467   8.811   3.466
 9336WAT      O30109   6.396   7.261   2.070
 9336WAT     H130110   6.361   7.193   2.012
 9336WAT     H230111   6.416   7.215   2.151
 9337WAT      O30112   6.612   8.759   2.231
 9337WAT     H130113   6.702   8.793   2.234
 9337WAT     H230114   6.616   8.687   2.169
 9338WAT      O30115   5.976   8.297   2.054
 9338WAT     H130116   6.020   8.351   2.120
 9338WAT     H230117   6.025   8.214   2.055
 9339WAT      O30118   5.698   8.576   2.799
 9339WAT     H130119   5.731   8.489   2.776
 9339WAT     H230120   5.741   8.596   2.883
 9340WAT      O30121   6.157   8.409   2.565
 9340WAT     H130122   6.127   8.396   2.656
 9340WAT     H230123   6.147   8.323   2.525
 9341WAT      O30124   5.747   8.662   3.073
 9341WAT     H130125   5.703   8.680   3.157
 9341WAT     H230126   5.804   8.738   3.059
 9342WAT      O30127   7.310   8.613   3.502
 9342WAT     H130128   7.250   8.618   3.428
 9342WAT     H230129   7.323   8.519   3.515
 9343WAT      O30130   7.434   8.387   2.036
 9343WAT     H130131   7.351   8.393   2.083
 9343WAT     H230132   7.452   8.476   2.005
 9344WAT      O30133   7.380   8.061   2.286
 9344WAT     H130134   7.456   8.118   2.297
 9344WAT     H230135   7.382   8.004   2.363
 9345WAT      O30136   5.730   7.914   2.709
 9345WAT     H130137   5.665   7.887   2.645
 9345WAT     H230138   5.814   7.903   2.664
 9346WAT      O30139   7.481   8.147   2.771
 9346WAT     H130140   7.518   8.068   2.730
 9346WAT     H230141   7.545   8.216   2.753
 9347WAT      O30142   7.179   8.285   3.312
 9347WAT     H130143   7.098   8.328   3.338
 9347WAT     H230144   7.220   8.346   3.251
 9348WAT      O30145   7.385   8.091   2.002
 9348WAT     H130146   7.413   8.181   1.989
 9348WAT     H230147   7.366   8.084   2.095
 9349WAT      O30148   7.025   7.393   2.131
 9349WAT     H130149   7.067   7.374   2.047
 9349WAT     H230150   6.994   7.308   2.162
 9350WAT      O30151   7.375   7.884   2.501
 9350WAT     H130152   7.337   7.807   2.458
 9350WAT     H230153   7.302   7.922   2.550
 9351WAT      O30154   5.834   7.952   3.163
 9351WAT     H130155   5.871   7.943   3.251
 9351WAT     H230156   5.777   7.876   3.153
 9352WAT      O30157   7.314   7.799   3.465
 9352WAT     H130158   7.291   7.776   3.374
 9352WAT     H230159   7.340   7.891   3.460
 9353WAT      O30160   5.789   7.643   3.554
 9353WAT     H130161   5.699   7.640   3.588
 9353WAT     H230162   5.843   7.663   3.630
 9354WAT      O30163   7.158   7.321   3.742
 9354WAT     H130164   7.245   7.322   3.781
 9354WAT     H230165   7.159   7.248   3.681
 9355WAT      O30166   5.651   7.635   2.303
 9355WAT     H130167   5.561   7.661   2.286
 9355WAT     H230168   5.700   7.662   2.225
 9356WAT      O30169   7.302   7.707   2.831
 9356WAT     H130170   7.355   7.657   2.768
 9356WAT     H230171   7.361   7.720   2.906
 9357WAT      O30172   7.320   7.715   3.183
 9357WAT     H130173   7.225   7.712   3.195
 9357WAT     H230174   7.338   7.806   3.160
 9358WAT      O30175   5.906   7.540   2.094
 9358WAT     H130176   5.977   7.498   2.046
 9358WAT     H230177   5.834   7.547   2.031
 9359WAT      O30178   5.870   7.146   1.998
 9359WAT     H130179   5.943   7.200   2.030
 9359WAT     H230180   5.898   7.118   1.911
 9360WAT      O30181   7.251   7.633   2.425
 9360WAT     H130182   7.301   7.609   2.504
 9360WAT     H230183   7.231   7.549   2.383
 9361WAT      O30184   5.839   7.071   2.989
 9361WAT     H130185   5.904   7.016   2.945
 9361WAT     H230186   5.881   7.096   3.071
 9362WAT      O30187   7.394   7.496   2.678
 9362WAT     H130188   7.383   7.481   2.772
 9362WAT     H230189   7.470   7.443   2.654
 9363WAT      O30190   7.229   7.090   3.324
 9363WAT     H130191   7.293   7.151   3.361
 9363WAT     H230192   7.244   7.094   3.230
 9364WAT      O30193   7.483   7.279   2.003
 9364WAT     H130194   7.576   7.266   1.982
 9364WAT     H230195   7.481   7.287   2.098
 9365WAT      O30196   7.490   7.356   2.265
 9365WAT     H130197   7.411   7.350   2.318
 9365WAT     H230198   7.511   7.450   2.264
 9366WAT      O30199   7.185   8.760   2.665
 9366WAT     H130200   7.244   8.728   2.597
 9366WAT     H230201   7.210   8.713   2.744
 9367WAT      O30202   5.815   7.086   3.263
 9367WAT     H130203   5.780   7.132   3.339
 9367WAT     H230204   5.782   6.997   3.271
 9368WAT      O30205   5.975   8.403   3.679
 9368WAT     H130206   5.971   8.366   3.768
 9368WAT     H230207   5.988   8.497   3.693
 9369WAT      O30208   6.345   8.559   3.240
 9369WAT     H130209   6.321   8.586   3.151
 9369WAT     H230210   6.439   8.576   3.245
 9370WAT      O30211   6.566   7.205   3.615
 9370WAT     H130212   6.560   7.265   3.690
 9370WAT     H230213   6.660   7.195   3.601
 9371WAT      O30214   6.830   7.171   3.579
 9371WAT     H130215   6.891   7.203   3.513
 9371WAT     H230216   6.884   7.123   3.641
 9372WAT      O30217   7.471   8.761   3.320
 9372WAT     H130218   7.422   8.801   3.248
 9372WAT     H230219   7.411   8.698   3.359
 9373WAT      O30220   5.882   7.039   3.590
 9373WAT     H130221   5.937   7.021   3.514
 9373WAT     H230222   5.888   6.960   3.644
 9374WAT      O30223   5.959   8.698   3.391
 9374WAT     H130224   5.900   8.685   3.465
 9374WAT     H230225   5.958   8.614   3.345
 9375WAT      O30226   6.904   7.027   3.212
 9375WAT     H130227   6.816   7.061   3.191
 9375WAT     H230228   6.893   6.980   3.294
 9376WAT      O30229   6.994   7.248   3.350
 9376WAT     H130230   6.962   7.167   3.312
 9376WAT     H230231   7.089   7.244   3.338
 9377WAT      O30232   7.240   8.825   3.047
 9377WAT     H130233   7.194   8.900   3.010
 9377WAT     H230234   7.177   8.753   3.042
 9378WAT      O30235   5.922   8.435   3.286
 9378WAT     H130236   5.850   8.373   3.280
 9378WAT     H230237   5.928   8.474   3.199
 9379WAT      O30238   6.283   8.656   2.965
 9379WAT     H130239   6.334   8.595   2.912
 9379WAT     H230240   6.348   8.706   3.014
 9380WAT      O30241   6.557   8.745   3.048
 9380WAT     H130242   6.585   8.720   2.960
 9380WAT     H230243   6.608   8.690   3.107
 9381WAT      O30244   6.678   7.119   3.106
 9381WAT     H130245   6.600   7.166   3.134
 9381WAT     H230246   6.649   7.029   3.095
 9382WAT      O30247   7.134   7.189   2.910
 9382WAT     H130248   7.178   7.184   2.825
 9382WAT     H230249   7.107   7.281   2.917
 9383WAT      O30250   7.320   7.152   2.711
 9383WAT     H130251   7.314   7.058   2.697
 9383WAT     H230252   7.398   7.163   2.766
 9384WAT      O30253   5.751   8.766   2.607
 9384WAT     H130254   5.734   8.703   2.677
 9384WAT     H230255   5.664   8.787   2.572
 9385WAT      O30256   5.813   7.150   2.358
 9385WAT     H130257   5.889   7.161   2.300
 9385WAT     H230258   5.767   7.233   2.353
 9386WAT      O30259   6.467   7.361   2.657
 9386WAT     H130260   6.386   7.323   2.623
 9386WAT     H230261   6.517   7.285   2.687
 9387WAT      O30262   6.917   7.027   2.781
 9387WAT     H130263   6.978   7.085   2.828
 9387WAT     H230264   6.843   7.084   2.758
 9388WAT      O30265   7.232   7.068   2.308
 9388WAT     H130266   7.251   7.157   2.335
 9388WAT     H230267   7.153   7.044   2.357
 9389WAT      O30268   5.911   8.636   2.352
 9389WAT     H130269   5.859   8.674   2.282
 9389WAT     H230270   5.904   8.698   2.424
 9390WAT      O30271   6.050   7.202   2.212
 9390WAT     H130272   6.103   7.123   2.199
 9390WAT     H230273   6.113   7.270   2.235
 9391WAT      O30274   6.270   7.176   2.517
 9391WAT     H130275   6.207   7.106   2.534
 9391WAT     H230276   6.216   7.252   2.496
 9392WAT      O30277   6.563   8.837   3.784
 9392WAT     H130278   6.656   8.814   3.789
 9392WAT     H230279   6.562   8.920   3.736
 9393WAT      O30280   7.387   8.792   2.484
 9393WAT     H130281   7.404   8.723   2.420
 9393WAT     H230282   7.317   8.844   2.445
 9394WAT      O30283   6.282   7.104   3.761
 9394WAT     H130284   6.254   7.154   3.684
 9394WAT     H230285   6.320   7.024   3.724
 9395WAT      O30286   6.171   8.831   2.239
 9395WAT     H130287   6.244   8.802   2.185
 9395WAT     H230288   6.197   8.807   2.328
 9396WAT      O30289   6.087   8.442   2.240
 9396WAT     H130290   6.024   8.489   2.295
 9396WAT     H230291   6.099   8.358   2.283
 9397WAT      O30292   6.942   7.045   3.819
 9397WAT     H130293   6.931   7.077   3.908
 9397WAT     H230294   7.024   7.085   3.789
 9398WAT      O30295   7.220   8.760   3.767
 9398WAT     H130296   7.299   8.710   3.746
 9398WAT     H230297   7.250   8.828   3.827
 9399WAT      O30298   6.833   7.847   0.855
 9399WAT     H130299   6.825   7.756   0.828
 9399WAT     H230300   6.791   7.897   0.784
 9400WAT      O30301   6.646   8.025   1.043
 9400WAT     H130302   6.568   7.977   1.072
 9400WAT     H230303   6.711   7.957   1.026
 9401WAT      O30304   6.048   8.056   1.131
 9401WAT     H130305   5.964   8.031   1.171
 9401WAT     H230306   6.108   8.063   1.204
 9402WAT      O30307   7.048   8.466   0.921
 9402WAT     H130308   7.002   8.388   0.954
 9402WAT     H230309   7.129   8.468   0.972
 9403WAT      O30310   6.046   8.460   1.150
 9403WAT     H130311   6.076   8.371   1.132
 9403WAT     H230312   6.120   8.515   1.128
 9404WAT      O30313   5.889   7.552   0.509
 9404WAT     H130314   5.800   7.586   0.499
 9404WAT     H230315   5.917   7.532   0.420
 9405WAT      O30316   5.685   7.812   1.098
 9405WAT     H130317   5.742   7.735   1.098
 9405WAT     H230318   5.685   7.842   1.007
 9406WAT      O30319   6.671   8.694   0.883
 9406WAT     H130320   6.609   8.740   0.826
 9406WAT     H230321   6.756   8.710   0.843
 9407WAT      O30322   6.590   8.293   1.044
 9407WAT     H130323   6.583   8.198   1.028
 9407WAT     H230324   6.666   8.302   1.101
 9408WAT      O30325   5.809   7.353   1.276
 9408WAT     H130326   5.791   7.263   1.304
 9408WAT     H230327   5.769   7.408   1.344
 9409WAT      O30328   6.693   7.573   1.066
 9409WAT     H130329   6.731   7.486   1.055
 9409WAT     H230330   6.683   7.607   0.977
 9410WAT      O30331   6.106   7.411   0.613
 9410WAT     H130332   6.117   7.501   0.643
 9410WAT     H230333   6.015   7.406   0.584
 9411WAT      O30334   7.071   7.323   0.760
 9411WAT     H130335   7.153   7.274   0.764
 9411WAT     H230336   7.075   7.382   0.835
 9412WAT      O30337   5.871   7.603   1.137
 9412WAT     H130338   5.939   7.629   1.199
 9412WAT     H230339   5.839   7.519   1.170
 9413WAT      O30340   6.290   7.707   1.046
 9413WAT     H130341   6.341   7.757   1.110
 9413WAT     H230342   6.343   7.630   1.028
 9414WAT      O30343   7.500   7.524   1.416
 9414WAT     H130344   7.430   7.563   1.364
 9414WAT     H230345   7.527   7.594   1.476
 9415WAT      O30346   6.119   7.171   1.472
 9415WAT     H130347   6.119   7.223   1.392
 9415WAT     H230348   6.036   7.124   1.470
 9416WAT      O30349   6.757   8.183   0.622
 9416WAT     H130350   6.695   8.229   0.566
 9416WAT     H230351   6.809   8.252   0.664
 9417WAT      O30352   6.244   8.135   1.290
 9417WAT     H130353   6.210   8.198   1.354
 9417WAT     H230354   6.261   8.188   1.212
 9418WAT      O30355   7.095   7.517   1.037
 9418WAT     H130356   7.025   7.546   1.095
 9418WAT     H230357   7.131   7.598   1.001
 9419WAT      O30358   6.087   7.342   1.273
 9419WAT     H130359   6.121   7.427   1.244
 9419WAT     H230360   5.993   7.357   1.285
 9420WAT      O30361   6.165   8.332   1.472
 9420WAT     H130362   6.227   8.400   1.444
 9420WAT     H230363   6.079   8.373   1.463
 9421WAT      O30364   5.694   8.251   0.360
 9421WAT     H130365   5.656   8.300   0.287
 9421WAT     H230366   5.720   8.318   0.423
 9422WAT      O30367   7.257   8.479   1.263
 9422WAT     H130368   7.188   8.546   1.262
 9422WAT     H230369   7.311   8.498   1.187
 9423WAT      O30370   7.402   7.461   1.076
 9423WAT     H130371   7.307   7.465   1.089
 9423WAT     H230372   7.434   7.543   1.115
 9424WAT      O30373   6.455   7.091   0.906
 9424WAT     H130374   6.486   7.036   0.834
 9424WAT     H230375   6.362   7.105   0.887
 9425WAT      O30376   7.010   8.663   1.135
 9425WAT     H130377   7.011   8.623   1.048
 9425WAT     H230378   6.955   8.740   1.124
 9426WAT      O30379   7.140   8.335   0.644
 9426WAT     H130380   7.129   8.241   0.656
 9426WAT     H230381   7.139   8.371   0.732
 9427WAT      O30382   6.950   8.153   1.267
 9427WAT     H130383   6.992   8.132   1.184
 9427WAT     H230384   7.022   8.179   1.325
 9428WAT      O30385   6.694   7.898   0.579
 9428WAT     H130386   6.601   7.891   0.602
 9428WAT     H230387   6.709   7.992   0.568
 9429WAT      O30388   6.693   7.525   0.279
 9429WAT     H130389   6.599   7.541   0.287
 9429WAT     H230390   6.724   7.597   0.224
 9430WAT      O30391   7.345   7.993   1.277
 9430WAT     H130392   7.262   8.000   1.229
 9430WAT     H230393   7.404   8.052   1.230
 9431WAT      O30394   7.097   8.054   0.630
 9431WAT     H130395   7.035   8.020   0.565
 9431WAT     H230396   7.095   7.990   0.700
 9432WAT      O30397   7.041   7.672   1.371
 9432WAT     H130398   7.000   7.754   1.397
 9432WAT     H230399   6.968   7.613   1.352
 9433WAT      O30400   6.254   7.950   0.857
 9433WAT     H130401   6.214   7.879   0.808
 9433WAT     H230402   6.263   7.916   0.946
 9434WAT      O30403   6.301   8.319   1.074
 9434WAT     H130404   6.272   8.259   1.006
 9434WAT     H230405   6.396   8.323   1.063
 9435WAT      O30406   6.126   7.628   1.235
 9435WAT     H130407   6.181   7.639   1.158
 9435WAT     H230408   6.177   7.665   1.307
 9436WAT      O30409   7.110   8.676   1.440
 9436WAT     H130410   7.062   8.757   1.421
 9436WAT     H230411   7.042   8.611   1.455
 9437WAT      O30412   6.210   8.293   1.739
 9437WAT     H130413   6.121   8.315   1.764
 9437WAT     H230414   6.213   8.305   1.644
 9438WAT      O30415   6.914   7.978   0.330
 9438WAT     H130416   6.958   7.894   0.316
 9438WAT     H230417   6.986   8.041   0.339
 9439WAT      O30418   6.093   7.980   1.596
 9439WAT     H130419   6.079   8.067   1.633
 9439WAT     H230420   6.005   7.946   1.582
 9440WAT      O30421   6.725   8.472   0.727
 9440WAT     H130422   6.769   8.546   0.686
 9440WAT     H230423   6.719   8.496   0.819
 9441WAT      O30424   6.273   8.574   1.817
 9441WAT     H130425   6.270   8.615   1.731
 9441WAT     H230426   6.257   8.481   1.801
 9442WAT      O30427   5.924   7.840   0.607
 9442WAT     H130428   5.912   7.913   0.546
 9442WAT     H230429   5.893   7.763   0.560
 9443WAT      O30430   7.468   8.653   1.947
 9443WAT     H130431   7.516   8.700   2.015
 9443WAT     H230432   7.530   8.646   1.874
 9444WAT      O30433   5.688   8.157   1.188
 9444WAT     H130434   5.696   8.171   1.094
 9444WAT     H230435   5.750   8.086   1.207
 9445WAT      O30436   5.813   8.327   0.829
 9445WAT     H130437   5.772   8.341   0.744
 9445WAT     H230438   5.902   8.299   0.809
 9446WAT      O30439   7.408   8.372   1.663
 9446WAT     H130440   7.421   8.348   1.571
 9446WAT     H230441   7.413   8.289   1.710
 9447WAT      O30442   6.795   8.742   1.520
 9447WAT     H130443   6.846   8.733   1.600
 9447WAT     H230444   6.710   8.777   1.549
 9448WAT      O30445   6.992   8.771   0.463
 9448WAT     H130446   6.976   8.742   0.553
 9448WAT     H230447   6.976   8.693   0.409
 9449WAT      O30448   6.240   8.748   0.640
 9449WAT     H130449   6.222   8.657   0.619
 9449WAT     H230450   6.155   8.784   0.664
 9450WAT      O30451   6.962   8.521   0.319
 9450WAT     H130452   6.893   8.521   0.253
 9450WAT     H230453   7.037   8.479   0.276
 9451WAT      O30454   6.919   8.684   0.726
 9451WAT     H130455   6.964   8.606   0.758
 9451WAT     H230456   6.953   8.755   0.781
 9452WAT      O30457   7.394   7.577   1.759
 9452WAT     H130458   7.332   7.628   1.707
 9452WAT     H230459   7.362   7.487   1.754
 9453WAT      O30460   5.694   8.261   1.442
 9453WAT     H130461   5.710   8.214   1.360
 9453WAT     H230462   5.740   8.210   1.509
 9454WAT      O30463   6.171   7.174   0.946
 9454WAT     H130464   6.127   7.252   0.913
 9454WAT     H230465   6.227   7.207   1.016
 9455WAT      O30466   6.600   7.461   1.506
 9455WAT     H130467   6.554   7.482   1.587
 9455WAT     H230468   6.560   7.380   1.476
 9456WAT      O30469   7.100   7.583   1.619
 9456WAT     H130470   7.015   7.553   1.651
 9456WAT     H230471   7.084   7.607   1.528
 9457WAT      O30472   6.809   7.733   1.829
 9457WAT     H130473   6.842   7.650   1.795
 9457WAT     H230474   6.888   7.785   1.844
 9458WAT      O30475   6.483   7.136   0.434
 9458WAT     H130476   6.420   7.136   0.506
 9458WAT     H230477   6.474   7.050   0.394
 9459WAT      O30478   6.375   7.229   1.132
 9459WAT     H130479   6.405   7.319   1.124
 9459WAT     H230480   6.430   7.180   1.070
 9460WAT      O30481   6.150   7.687   0.719
 9460WAT     H130482   6.128   7.665   0.809
 9460WAT     H230483   6.072   7.730   0.684
 9461WAT      O30484   6.873   7.687   0.578
 9461WAT     H130485   6.813   7.760   0.560
 9461WAT     H230486   6.928   7.681   0.500
 9462WAT      O30487   6.394   7.776   1.785
 9462WAT     H130488   6.385   7.682   1.770
 9462WAT     H230489   6.479   7.799   1.746
 9463WAT      O30490   6.734   7.551   0.781
 9463WAT     H130491   6.773   7.583   0.700
 9463WAT     H230492   6.770   7.463   0.793
 9464WAT      O30493   5.907   7.418   1.600
 9464WAT     H130494   5.868   7.502   1.621
 9464WAT     H230495   5.839   7.354   1.620
 9465WAT      O30496   6.565   7.426   1.907
 9465WAT     H130497   6.496   7.407   1.971
 9465WAT     H230498   6.639   7.454   1.961
 9466WAT      O30499   5.638   7.210   1.004
 9466WAT     H130500   5.609   7.267   1.075
 9466WAT     H230501   5.712   7.162   1.040
 9467WAT      O30502   6.792   7.810   1.191
 9467WAT     H130503   6.719   7.861   1.226
 9467WAT     H230504   6.753   7.728   1.161
 9468WAT      O30505   6.436   7.477   1.031
 9468WAT     H130506   6.437   7.433   0.947
 9468WAT     H230507   6.526   7.510   1.042
 9469WAT      O30508   6.021   7.466   0.927
 9469WAT     H130509   5.987   7.513   1.003
 9469WAT     H230510   5.945   7.420   0.891
 9470WAT      O30511   6.442   7.578   0.331
 9470WAT     H130512   6.455   7.573   0.425
 9470WAT     H230513   6.404   7.664   0.315
 9471WAT      O30514   6.839   7.355   1.132
 9471WAT     H130515   6.840   7.400   1.217
 9471WAT     H230516   6.814   7.265   1.154
 9472WAT      O30517   6.344   7.809   0.270
 9472WAT     H130518   6.287   7.764   0.208
 9472WAT     H230519   6.414   7.844   0.217
 9473WAT      O30520   7.181   7.097   1.716
 9473WAT     H130521   7.214   7.023   1.769
 9473WAT     H230522   7.185   7.065   1.626
 9474WAT      O30523   5.851   8.199   1.658
 9474WAT     H130524   5.813   8.135   1.718
 9474WAT     H230525   5.882   8.269   1.715
 9475WAT      O30526   6.466   7.883   1.206
 9475WAT     H130527   6.503   7.836   1.281
 9475WAT     H230528   6.447   7.971   1.240
 9476WAT      O30529   5.753   7.358   0.819
 9476WAT     H130530   5.724   7.321   0.903
 9476WAT     H230531   5.746   7.285   0.758
 9477WAT      O30532   6.245   7.788   1.438
 9477WAT     H130533   6.215   7.875   1.460
 9477WAT     H230534   6.341   7.794   1.442
 9478WAT      O30535   6.098   8.208   0.498
 9478WAT     H130536   6.021   8.154   0.482
 9478WAT     H230537   6.171   8.156   0.464
 9479WAT      O30538   7.174   8.108   1.077
 9479WAT     H130539   7.246   8.157   1.038
 9479WAT     H230540   7.154   8.040   1.012
 9480WAT      O30541   6.720   7.247   0.491
 9480WAT     H130542   6.639   7.197   0.484
 9480WAT     H230543   6.701   7.331   0.450
 9481WAT      O30544   6.712   8.115   1.666
 9481WAT     H130545   6.706   8.023   1.640
 9481WAT     H230546   6.649   8.125   1.737
 9482WAT      O30547   6.992   7.684   0.321
 9482WAT     H130548   7.080   7.716   0.303
 9482WAT     H230549   6.989   7.597   0.282
 9483WAT      O30550   6.102   8.175   0.861
 9483WAT     H130551   6.154   8.095   0.856
 9483WAT     H230552   6.057   8.169   0.946
 9484WAT      O30553   6.591   8.302   0.389
 9484WAT     H130554   6.625   8.376   0.339
 9484WAT     H230555   6.508   8.333   0.425
 9485WAT      O30556   5.851   7.872   1.553
 9485WAT     H130557   5.815   7.938   1.611
 9485WAT     H230558   5.821   7.788   1.590
 9486WAT      O30559   6.171   7.917   1.841
 9486WAT     H130560   6.141   7.932   1.751
 9486WAT     H230561   6.248   7.861   1.832
 9487WAT      O30562   6.705   8.397   1.641
 9487WAT     H130563   6.707   8.304   1.619
 9487WAT     H230564   6.635   8.406   1.705
 9488WAT      O30565   7.219   7.816   0.268
 9488WAT     H130566   7.210   7.859   0.183
 9488WAT     H230567   7.291   7.861   0.311
 9489WAT      O30568   7.326   8.061   1.575
 9489WAT     H130569   7.254   8.120   1.556
 9489WAT     H230570   7.379   8.060   1.495
 9490WAT      O30571   7.322   8.501   0.540
 9490WAT     H130572   7.257   8.435   0.568
 9490WAT     H230573   7.283   8.541   0.463
 9491WAT      O30574   6.879   8.234   0.925
 9491WAT     H130575   6.915   8.174   0.859
 9491WAT     H230576   6.791   8.201   0.942
 9492WAT      O30577   6.488   8.310   0.666
 9492WAT     H130578   6.557   8.364   0.704
 9492WAT     H230579   6.409   8.364   0.669
 9493WAT      O30580   5.702   7.871   0.215
 9493WAT     H130581   5.789   7.900   0.243
 9493WAT     H230582   5.653   7.953   0.204
 9494WAT      O30583   6.418   8.010   0.627
 9494WAT     H130584   6.464   8.091   0.650
 9494WAT     H230585   6.383   7.978   0.710
 9495WAT      O30586   6.649   8.561   1.350
 9495WAT     H130587   6.713   8.582   1.418
 9495WAT     H230588   6.685   8.485   1.305
 9496WAT      O30589   6.008   7.045   0.674
 9496WAT     H130590   5.996   7.044   0.769
 9496WAT     H230591   5.926   7.078   0.639
 9497WAT      O30592   6.776   8.362   1.222
 9497WAT     H130593   6.840   8.292   1.233
 9497WAT     H230594   6.828   8.440   1.204
 9498WAT      O30595   6.953   8.442   1.542
 9498WAT     H130596   6.987   8.500   1.610
 9498WAT     H230597   6.861   8.428   1.565
 9499WAT      O30598   5.739   8.793   0.272
 9499WAT     H130599   5.775   8.853   0.206
 9499WAT     H230600   5.725   8.847   0.349
 9500WAT      O30601   5.708   7.221   1.620
 9500WAT     H130602   5.637   7.240   1.681
 9500WAT     H230603   5.750   7.143   1.658
 9501WAT      O30604   7.119   8.182   0.360
 9501WAT     H130605   7.090   8.228   0.439
 9501WAT     H230606   7.198   8.136   0.387
 9502WAT      O30607   5.737   8.619   1.719
 9502WAT     H130608   5.748   8.525   1.705
 9502WAT     H230609   5.672   8.646   1.654
 9503WAT      O30610   6.536   8.446   1.859
 9503WAT     H130611   6.504   8.375   1.914
 9503WAT     H230612   6.469   8.514   1.866
 9504WAT      O30613   6.340   8.531   0.353
 9504WAT     H130614   6.339   8.604   0.292
 9504WAT     H230615   6.248   8.506   0.363
 9505WAT      O30616   5.900   8.053   0.428
 9505WAT     H130617   5.840   8.127   0.429
 9505WAT     H230618   5.948   8.062   0.345
 9506WAT      O30619   6.858   7.470   1.395
 9506WAT     H130620   6.895   7.388   1.428
 9506WAT     H230621   6.772   7.476   1.437
 9507WAT      O30622   7.194   7.365   0.476
 9507WAT     H130623   7.132   7.376   0.405
 9507WAT     H230624   7.145   7.387   0.555
 9508WAT      O30625   6.391   7.593   0.618
 9508WAT     H130626   6.320   7.640   0.662
 9508WAT     H230627   6.420   7.527   0.681
 9509WAT      O30628   6.554   7.735   1.418
 9509WAT     H130629   6.604   7.783   1.484
 9509WAT     H230630   6.568   7.643   1.439
 9510WAT      O30631   6.794   7.266   0.762
 9510WAT     H130632   6.782   7.268   0.667
 9510WAT     H230633   6.889   7.270   0.774
 9511WAT      O30634   6.503   8.789   0.689
 9511WAT     H130635   6.529   8.785   0.597
 9511WAT     H230636   6.408   8.777   0.688
 9512WAT      O30637   6.212   7.424   0.355
 9512WAT     H130638   6.296   7.468   0.349
 9512WAT     H230639   6.175   7.455   0.438
 9513WAT      O30640   7.274   7.357   1.502
 9513WAT     H130641   7.224   7.431   1.536
 9513WAT     H230642   7.356   7.396   1.470
 9514WAT      O30643   7.104   7.881   0.847
 9514WAT     H130644   7.010   7.883   0.864
 9514WAT     H230645   7.135   7.802   0.891
 9515WAT      O30646   5.971   7.793   0.271
 9515WAT     H130647   5.979   7.698   0.282
 9515WAT     H230648   6.060   7.826   0.282
 9516WAT      O30649   7.304   8.598   1.014
 9516WAT     H130650   7.316   8.681   1.061
 9516WAT     H230651   7.391   8.577   0.979
 9517WAT      O30652   6.051   8.808   0.981
 9517WAT     H130653   6.125   8.753   1.009
 9517WAT     H230654   6.090   8.894   0.967
 9518WAT      O30655   5.740   8.414   0.569
 9518WAT     H130656   5.647   8.438   0.568
 9518WAT     H230657   5.786   8.497   0.557
 9519WAT      O30658   5.952   8.726   1.900
 9519WAT     H130659   6.032   8.758   1.942
 9519WAT     H230660   5.900   8.690   1.972
 9520WAT      O30661   6.835   8.337   1.895
 9520WAT     H130662   6.775   8.339   1.821
 9520WAT     H230663   6.805   8.264   1.949
 9521WAT      O30664   6.978   8.710   1.756
 9521WAT     H130665   7.074   8.701   1.751
 9521WAT     H230666   6.964   8.776   1.823
 9522WAT      O30667   7.267   8.648   0.306
 9522WAT     H130668   7.239   8.606   0.225
 9522WAT     H230669   7.248   8.740   0.294
 9523WAT      O30670   5.724   7.975   1.795
 9523WAT     H130671   5.774   7.917   1.852
 9523WAT     H230672   5.650   8.003   1.848
 9524WAT      O30673   6.429   8.115   1.748
 9524WAT     H130674   6.353   8.172   1.740
 9524WAT     H230675   6.447   8.086   1.659
 9525WAT      O30676   6.738   8.153   0.211
 9525WAT     H130677   6.683   8.198   0.275
 9525WAT     H230678   6.800   8.103   0.263
 9526WAT      O30679   7.143   8.288   1.804
 9526WAT     H130680   7.217   8.322   1.753
 9526WAT     H230681   7.067   8.305   1.748
 9527WAT      O30682   5.927   7.789   1.884
 9527WAT     H130683   5.931   7.759   1.975
 9527WAT     H230684   6.012   7.829   1.868
 9528WAT      O30685   6.305   8.049   0.400
 9528WAT     H130686   6.347   8.032   0.484
 9528WAT     H230687   6.317   7.968   0.351
 9529WAT      O30688   6.121   7.647   1.681
 9529WAT     H130689   6.068   7.598   1.618
 9529WAT     H230690   6.188   7.690   1.627
 9530WAT      O30691   7.011   8.094   1.657
 9530WAT     H130692   7.052   8.109   1.742
 9530WAT     H230693   6.917   8.106   1.674
 9531WAT      O30694   7.058   7.828   1.858
 9531WAT     H130695   7.116   7.752   1.849
 9531WAT     H230696   7.076   7.881   1.780
 9532WAT      O30697   6.170   7.344   1.689
 9532WAT     H130698   6.160   7.282   1.616
 9532WAT     H230699   6.112   7.416   1.666
 9533WAT      O30700   6.446   7.199   1.392
 9533WAT     H130701   6.401   7.202   1.308
 9533WAT     H230702   6.383   7.159   1.452
 9534WAT      O30703   6.487   8.089   1.454
 9534WAT     H130704   6.529   8.173   1.437
 9534WAT     H230705   6.395   8.103   1.431
 9535WAT      O30706   6.721   7.862   1.593
 9535WAT     H130707   6.732   7.802   1.667
 9535WAT     H230708   6.806   7.866   1.551
 9536WAT      O30709   6.954   7.917   1.450
 9536WAT     H130710   6.902   7.970   1.390
 9536WAT     H230711   6.989   7.981   1.513
 9537WAT      O30712   6.272   8.719   1.566
 9537WAT     H130713   6.218   8.792   1.534
 9537WAT     H230714   6.297   8.672   1.487
 9538WAT      O30715   6.397   7.516   1.718
 9538WAT     H130716   6.456   7.485   1.787
 9538WAT     H230717   6.315   7.469   1.734
 9539WAT      O30718   6.879   7.478   1.742
 9539WAT     H130719   6.810   7.412   1.735
 9539WAT     H230720   6.951   7.433   1.786
 9540WAT      O30721   6.942   7.137   0.348
 9540WAT     H130722   6.970   7.053   0.383
 9540WAT     H230723   6.865   7.161   0.399
 9541WAT      O30724   6.558   8.843   1.592
 9541WAT     H130725   6.550   8.933   1.622
 9541WAT     H230726   6.467   8.811   1.589
 9542WAT      O30727   6.612   8.759   0.354
 9542WAT     H130728   6.702   8.793   0.356
 9542WAT     H230729   6.616   8.687   0.291
 9543WAT      O30730   5.976   8.297   0.177
 9543WAT     H130731   6.020   8.351   0.242
 9543WAT     H230732   6.025   8.214   0.178
 9544WAT      O30733   5.698   8.576   0.922
 9544WAT     H130734   5.731   8.489   0.899
 9544WAT     H230735   5.741   8.596   1.005
 9545WAT      O30736   6.157   8.409   0.688
 9545WAT     H130737   6.127   8.396   0.778
 9545WAT     H230738   6.147   8.323   0.647
 9546WAT      O30739   5.747   8.662   1.196
 9546WAT     H130740   5.703   8.680   1.279
 9546WAT     H230741   5.804   8.738   1.182
 9547WAT      O30742   7.310   8.613   1.625
 9547WAT     H130743   7.250   8.618   1.550
 9547WAT     H230744   7.323   8.519   1.638
 9548WAT      O30745   7.380   8.061   0.409
 9548WAT     H130746   7.456   8.118   0.419
 9548WAT     H230747   7.382   8.004   0.486
 9549WAT      O30748   5.730   7.914   0.832
 9549WAT     H130749   5.665   7.887   0.767
 9549WAT     H230750   5.814   7.903   0.787
 9550WAT      O30751   7.481   8.147   0.893
 9550WAT     H130752   7.518   8.068   0.852
 9550WAT     H230753   7.545   8.216   0.875
 9551WAT      O30754   7.179   8.285   1.434
 9551WAT     H130755   7.098   8.328   1.461
 9551WAT     H230756   7.220   8.346   1.373
 9552WAT      O30757   7.025   7.393   0.254
 9552WAT     H130758   7.067   7.374   0.170
 9552WAT     H230759   6.994   7.308   0.285
 9553WAT      O30760   7.375   7.884   0.624
 9553WAT     H130761   7.337   7.807   0.580
 9553WAT     H230762   7.302   7.922   0.672
 9554WAT      O30763   5.834   7.952   1.286
 9554WAT     H130764   5.871   7.943   1.374
 9554WAT     H230765   5.777   7.876   1.276
 9555WAT      O30766   7.314   7.799   1.587
 9555WAT     H130767   7.291   7.776   1.497
 9555WAT     H230768   7.340   7.891   1.583
 9556WAT      O30769   5.789   7.643   1.676
 9556WAT     H130770   5.699   7.640   1.710
 9556WAT     H230771   5.843   7.663   1.753
 9557WAT      O30772   7.158   7.321   1.865
 9557WAT     H130773   7.245   7.322   1.903
 9557WAT     H230774   7.159   7.248   1.804
 9558WAT      O30775   5.651   7.635   0.426
 9558WAT     H130776   5.561   7.661   0.409
 9558WAT     H230777   5.700   7.662   0.348
 9559WAT      O30778   7.302   7.707   0.954
 9559WAT     H130779   7.355   7.657   0.891
 9559WAT     H230780   7.361   7.720   1.028
 9560WAT      O30781   7.320   7.715   1.306
 9560WAT     H130782   7.225   7.712   1.317
 9560WAT     H230783   7.338   7.806   1.282
 9561WAT      O30784   7.251   7.633   0.548
 9561WAT     H130785   7.301   7.609   0.626
 9561WAT     H230786   7.231   7.549   0.506
 9562WAT      O30787   5.839   7.071   1.111
 9562WAT     H130788   5.904   7.016   1.067
 9562WAT     H230789   5.881   7.096   1.193
 9563WAT      O30790   7.394   7.496   0.801
 9563WAT     H130791   7.383   7.481   0.895
 9563WAT     H230792   7.470   7.443   0.777
 9564WAT      O30793   7.229   7.090   1.447
 9564WAT     H130794   7.293   7.151   1.483
 9564WAT     H230795   7.244   7.094   1.352
 9565WAT      O30796   7.490   7.356   0.388
 9565WAT     H130797   7.411   7.350   0.441
 9565WAT     H230798   7.511   7.450   0.387
 9566WAT      O30799   7.185   8.760   0.787
 9566WAT     H130800   7.244   8.728   0.719
 9566WAT     H230801   7.210   8.713   0.866
 9567WAT      O30802   5.815   7.086   1.385
 9567WAT     H130803   5.780   7.132   1.462
 9567WAT     H230804   5.782   6.997   1.394
 9568WAT      O30805   5.975   8.403   1.802
 9568WAT     H130806   5.971   8.366   1.890
 9568WAT     H230807   5.988   8.497   1.816
 9569WAT      O30808   6.345   8.559   1.362
 9569WAT     H130809   6.321   8.586   1.273
 9569WAT     H230810   6.439   8.576   1.368
 9570WAT      O30811   6.566   7.205   1.738
 9570WAT     H130812   6.560   7.265   1.813
 9570WAT     H230813   6.660   7.195   1.723
 9571WAT      O30814   6.830   7.171   1.702
 9571WAT     H130815   6.891   7.203   1.635
 9571WAT     H230816   6.884   7.123   1.764
 9572WAT      O30817   7.471   8.761   1.442
 9572WAT     H130818   7.422   8.801   1.370
 9572WAT     H230819   7.411   8.698   1.482
 9573WAT      O30820   5.882   7.039   1.713
 9573WAT     H130821   5.937   7.021   1.637
 9573WAT     H230822   5.888   6.960   1.767
 9574WAT      O30823   5.959   8.698   1.514
 9574WAT     H130824   5.900   8.685   1.588
 9574WAT     H230825   5.958   8.614   1.467
 9575WAT      O30826   6.904   7.027   1.334
 9575WAT     H130827   6.816   7.061   1.314
 9575WAT     H230828   6.893   6.980   1.417
 9576WAT      O30829   6.994   7.248   1.473
 9576WAT     H130830   6.962   7.167   1.435
 9576WAT     H230831   7.089   7.244   1.460
 9577WAT      O30832   7.240   8.825   1.170
 9577WAT     H130833   7.194   8.900   1.133
 9577WAT     H230834   7.177   8.753   1.164
 9578WAT      O30835   5.922   8.435   1.409
 9578WAT     H130836   5.850   8.373   1.402
 9578WAT     H230837   5.928   8.474   1.322
 9579WAT      O30838   6.283   8.656   1.088
 9579WAT     H130839   6.334   8.595   1.035
 9579WAT     H230840   6.348   8.706   1.137
 9580WAT      O30841   6.557   8.745   1.170
 9580WAT     H130842   6.585   8.720   1.083
 9580WAT     H230843   6.608   8.690   1.229
 9581WAT      O30844   6.678   7.119   1.228
 9581WAT     H130845   6.600   7.166   1.256
 9581WAT     H230846   6.649   7.029   1.217
 9582WAT      O30847   7.134   7.189   1.033
 9582WAT     H130848   7.178   7.184   0.948
 9582WAT     H230849   7.107   7.281   1.040
 9583WAT      O30850   7.320   7.152   0.834
 9583WAT     H130851   7.314   7.058   0.819
 9583WAT     H230852   7.398   7.163   0.888
 9584WAT      O30853   5.751   8.766   0.730
 9584WAT     H130854   5.734   8.703   0.800
 9584WAT     H230855   5.664   8.787   0.695
 9585WAT      O30856   5.813   7.150   0.480
 9585WAT     H130857   5.889   7.161   0.423
 9585WAT     H230858   5.767   7.233   0.476
 9586WAT      O30859   6.467   7.361   0.779
 9586WAT     H130860   6.386   7.323   0.745
 9586WAT     H230861   6.517   7.285   0.810
 9587WAT      O30862   6.917   7.027   0.903
 9587WAT     H130863   6.978   7.085   0.951
 9587WAT     H230864   6.843   7.084   0.881
 9588WAT      O30865   7.232   7.068   0.431
 9588WAT     H130866   7.251   7.157   0.457
 9588WAT     H230867   7.153   7.044   0.480
 9589WAT      O30868   5.911   8.636   0.474
 9589WAT     H130869   5.859   8.674   0.404
 9589WAT     H230870   5.904   8.698   0.547
 9590WAT      O30871   6.050   7.202   0.334
 9590WAT     H130872   6.103   7.123   0.321
 9590WAT     H230873   6.113   7.270   0.358
 9591WAT      O30874   6.270   7.176   0.640
 9591WAT     H130875   6.207   7.106   0.656
 9591WAT     H230876   6.216   7.252   0.618
 9592WAT      O30877   6.563   8.837   1.907
 9592WAT     H130878   6.656   8.814   1.911
 9592WAT     H230879   6.562   8.920   1.859
 9593WAT      O30880   7.387   8.792   0.607
 9593WAT     H130881   7.404   8.723   0.542
 9593WAT     H230882   7.317   8.844   0.567
 9594WAT      O30883   6.282   7.104   1.883
 9594WAT     H130884   6.254   7.154   1.807
 9594WAT     H230885   6.320   7.024   1.847
 9595WAT      O30886   6.171   8.831   0.362
 9595WAT     H130887   6.244   8.802   0.307
 9595WAT     H230888   6.197   8.807   0.451
 9596WAT      O30889   6.087   8.442   0.362
 9596WAT     H130890   6.024   8.489   0.417
 9596WAT     H230891   6.099   8.358   0.406
 9597WAT      O30892   6.942   7.045   1.941
 9597WAT     H130893   6.931   7.077   2.031
 9597WAT     H230894   7.024   7.085   1.911
 9598WAT      O30895   7.220   8.760   1.889
 9598WAT     H130896   7.299   8.710   1.869
 9598WAT     H230897   7.250   8.828   1.950
 9599WAT      O30898   6.833   5.970   6.487
 9599WAT     H130899   6.825   5.878   6.460
 9599WAT     H230900   6.791   6.019   6.417
 9600WAT      O30901   6.646   6.148   6.675
 9600WAT     H130902   6.568   6.100   6.704
 9600WAT     H230903   6.711   6.080   6.658
 9601WAT      O30904   6.048   6.179   6.763
 9601WAT     H130905   5.964   6.153   6.803
 9601WAT     H230906   6.108   6.186   6.837
 9602WAT      O30907   7.048   6.588   6.553
 9602WAT     H130908   7.002   6.511   6.586
 9602WAT     H230909   7.129   6.591   6.604
 9603WAT      O30910   6.046   6.582   6.783
 9603WAT     H130911   6.076   6.493   6.765
 9603WAT     H230912   6.120   6.638   6.760
 9604WAT      O30913   5.889   5.675   6.141
 9604WAT     H130914   5.800   5.709   6.131
 9604WAT     H230915   5.917   5.655   6.052
 9605WAT      O30916   5.685   5.935   6.730
 9605WAT     H130917   5.742   5.858   6.730
 9605WAT     H230918   5.685   5.965   6.639
 9606WAT      O30919   6.671   6.817   6.515
 9606WAT     H130920   6.609   6.862   6.458
 9606WAT     H230921   6.756   6.832   6.475
 9607WAT      O30922   6.590   6.415   6.676
 9607WAT     H130923   6.583   6.321   6.660
 9607WAT     H230924   6.666   6.424   6.733
 9608WAT      O30925   5.809   5.476   6.909
 9608WAT     H130926   5.791   5.386   6.937
 9608WAT     H230927   5.769   5.530   6.976
 9609WAT      O30928   6.693   5.696   6.699
 9609WAT     H130929   6.731   5.609   6.687
 9609WAT     H230930   6.683   5.729   6.610
 9610WAT      O30931   6.106   5.533   6.245
 9610WAT     H130932   6.117   5.623   6.276
 9610WAT     H230933   6.015   5.528   6.216
 9611WAT      O30934   7.071   5.445   6.392
 9611WAT     H130935   7.153   5.396   6.396
 9611WAT     H230936   7.075   5.504   6.467
 9612WAT      O30937   5.871   5.725   6.769
 9612WAT     H130938   5.939   5.752   6.831
 9612WAT     H230939   5.839   5.641   6.803
 9613WAT      O30940   6.290   5.830   6.678
 9613WAT     H130941   6.341   5.880   6.742
 9613WAT     H230942   6.343   5.752   6.661
 9614WAT      O30943   7.500   5.647   7.048
 9614WAT     H130944   7.430   5.686   6.997
 9614WAT     H230945   7.527   5.717   7.109
 9615WAT      O30946   6.119   5.294   7.105
 9615WAT     H130947   6.119   5.346   7.024
 9615WAT     H230948   6.036   5.246   7.102
 9616WAT      O30949   6.757   6.305   6.255
 9616WAT     H130950   6.695   6.352   6.198
 9616WAT     H230951   6.809   6.374   6.296
 9617WAT      O30952   6.244   6.258   6.922
 9617WAT     H130953   6.210   6.321   6.987
 9617WAT     H230954   6.261   6.311   6.845
 9618WAT      O30955   7.095   5.639   6.669
 9618WAT     H130956   7.025   5.668   6.727
 9618WAT     H230957   7.131   5.720   6.633
 9619WAT      O30958   6.087   5.465   6.905
 9619WAT     H130959   6.121   5.549   6.876
 9619WAT     H230960   5.993   5.480   6.917
 9620WAT      O30961   6.165   6.455   7.104
 9620WAT     H130962   6.227   6.522   7.076
 9620WAT     H230963   6.079   6.496   7.095
 9621WAT      O30964   5.694   6.374   5.992
 9621WAT     H130965   5.656   6.423   5.919
 9621WAT     H230966   5.720   6.441   6.055
 9622WAT      O30967   7.257   6.601   6.896
 9622WAT     H130968   7.188   6.668   6.895
 9622WAT     H230969   7.311   6.621   6.819
 9623WAT      O30970   7.402   5.584   6.708
 9623WAT     H130971   7.307   5.587   6.721
 9623WAT     H230972   7.434   5.665   6.747
 9624WAT      O30973   6.455   5.214   6.538
 9624WAT     H130974   6.486   5.158   6.466
 9624WAT     H230975   6.362   5.227   6.520
 9625WAT      O30976   7.010   6.786   6.767
 9625WAT     H130977   7.011   6.745   6.680
 9625WAT     H230978   6.955   6.863   6.757
 9626WAT      O30979   7.140   6.458   6.276
 9626WAT     H130980   7.129   6.363   6.288
 9626WAT     H230981   7.139   6.494   6.365
 9627WAT      O30982   6.950   6.276   6.900
 9627WAT     H130983   6.992   6.254   6.816
 9627WAT     H230984   7.022   6.302   6.957
 9628WAT      O30985   6.694   6.020   6.212
 9628WAT     H130986   6.601   6.014   6.234
 9628WAT     H230987   6.709   6.114   6.200
 9629WAT      O30988   6.693   5.648   5.911
 9629WAT     H130989   6.599   5.664   5.920
 9629WAT     H230990   6.724   5.719   5.857
 9630WAT      O30991   7.345   6.116   6.909
 9630WAT     H130992   7.262   6.123   6.861
 9630WAT     H230993   7.404   6.174   6.862
 9631WAT      O30994   7.097   6.177   6.262
 9631WAT     H130995   7.035   6.143   6.197
 9631WAT     H230996   7.095   6.112   6.333
 9632WAT      O30997   7.041   5.794   7.004
 9632WAT     H130998   7.000   5.877   7.029
 9632WAT     H230999   6.968   5.736   6.984
 9633WAT      O31000   6.254   6.073   6.490
 9633WAT     H131001   6.214   6.002   6.440
 9633WAT     H231002   6.263   6.039   6.579
 9634WAT      O31003   6.301   6.442   6.706
 9634WAT     H131004   6.272   6.381   6.638
 9634WAT     H231005   6.396   6.445   6.695
 9635WAT      O31006   6.126   5.750   6.868
 9635WAT     H131007   6.181   5.761   6.790
 9635WAT     H231008   6.177   5.788   6.939
 9636WAT      O31009   7.110   6.799   7.072
 9636WAT     H131010   7.062   6.880   7.053
 9636WAT     H231011   7.042   6.734   7.088
 9637WAT      O31012   6.210   6.415   7.371
 9637WAT     H131013   6.121   6.438   7.396
 9637WAT     H231014   6.213   6.428   7.276
 9638WAT      O31015   6.914   6.100   5.963
 9638WAT     H131016   6.958   6.017   5.948
 9638WAT     H231017   6.986   6.164   5.971
 9639WAT      O31018   6.093   6.103   7.229
 9639WAT     H131019   6.079   6.190   7.266
 9639WAT     H231020   6.005   6.068   7.214
 9640WAT      O31021   6.725   6.594   6.359
 9640WAT     H131022   6.769   6.669   6.318
 9640WAT     H231023   6.719   6.619   6.452
 9641WAT      O31024   6.273   6.697   7.450
 9641WAT     H131025   6.270   6.737   7.363
 9641WAT     H231026   6.257   6.604   7.433
 9642WAT      O31027   7.273   5.226   5.794
 9642WAT     H131028   7.241   5.235   5.884
 9642WAT     H231029   7.349   5.284   5.789
 9643WAT      O31030   5.924   5.962   6.240
 9643WAT     H131031   5.912   6.035   6.179
 9643WAT     H231032   5.893   5.885   6.192
 9644WAT      O31033   5.688   6.280   6.820
 9644WAT     H131034   5.696   6.293   6.726
 9644WAT     H231035   5.750   6.209   6.840
 9645WAT      O31036   5.813   6.450   6.462
 9645WAT     H131037   5.772   6.464   6.376
 9645WAT     H231038   5.902   6.421   6.441
 9646WAT      O31039   7.408   6.494   7.295
 9646WAT     H131040   7.421   6.470   7.203
 9646WAT     H231041   7.413   6.411   7.342
 9647WAT      O31042   6.795   6.865   7.152
 9647WAT     H131043   6.846   6.856   7.232
 9647WAT     H231044   6.710   6.899   7.181
 9648WAT      O31045   6.992   6.893   6.095
 9648WAT     H131046   6.976   6.864   6.185
 9648WAT     H231047   6.976   6.815   6.041
 9649WAT      O31048   6.240   6.871   6.273
 9649WAT     H131049   6.222   6.779   6.251
 9649WAT     H231050   6.155   6.907   6.297
 9650WAT      O31051   6.962   6.644   5.951
 9650WAT     H131052   6.893   6.644   5.885
 9650WAT     H231053   7.037   6.602   5.908
 9651WAT      O31054   6.919   6.807   6.358
 9651WAT     H131055   6.964   6.728   6.390
 9651WAT     H231056   6.953   6.878   6.413
 9652WAT      O31057   7.394   5.700   7.392
 9652WAT     H131058   7.332   5.750   7.339
 9652WAT     H231059   7.362   5.610   7.386
 9653WAT      O31060   5.694   6.384   7.074
 9653WAT     H131061   5.710   6.337   6.993
 9653WAT     H231062   5.740   6.333   7.141
 9654WAT      O31063   6.171   5.297   6.578
 9654WAT     H131064   6.127   5.375   6.545
 9654WAT     H231065   6.227   5.329   6.649
 9655WAT      O31066   6.600   5.583   7.138
 9655WAT     H131067   6.554   5.604   7.220
 9655WAT     H231068   6.560   5.502   7.108
 9656WAT      O31069   7.100   5.706   7.251
 9656WAT     H131070   7.015   5.676   7.283
 9656WAT     H231071   7.084   5.730   7.160
 9657WAT      O31072   6.809   5.856   7.461
 9657WAT     H131073   6.842   5.772   7.427
 9657WAT     H231074   6.888   5.908   7.476
 9658WAT      O31075   6.483   5.259   6.066
 9658WAT     H131076   6.420   5.259   6.139
 9658WAT     H231077   6.474   5.172   6.026
 9659WAT      O31078   6.375   5.351   6.764
 9659WAT     H131079   6.405   5.442   6.756
 9659WAT     H231080   6.430   5.302   6.702
 9660WAT      O31081   6.150   5.809   6.351
 9660WAT     H131082   6.128   5.788   6.441
 9660WAT     H231083   6.072   5.852   6.316
 9661WAT      O31084   6.873   5.810   6.211
 9661WAT     H131085   6.813   5.882   6.192
 9661WAT     H231086   6.928   5.804   6.132
 9662WAT      O31087   6.394   5.899   7.417
 9662WAT     H131088   6.385   5.805   7.402
 9662WAT     H231089   6.479   5.921   7.378
 9663WAT      O31090   6.734   5.673   6.414
 9663WAT     H131091   6.773   5.705   6.332
 9663WAT     H231092   6.770   5.586   6.425
 9664WAT      O31093   5.907   5.540   7.233
 9664WAT     H131094   5.868   5.625   7.253
 9664WAT     H231095   5.839   5.476   7.252
 9665WAT      O31096   5.638   5.332   6.636
 9665WAT     H131097   5.609   5.389   6.707
 9665WAT     H231098   5.712   5.284   6.672
 9666WAT      O31099   5.656   5.727   5.757
 9666WAT     H131100   5.648   5.821   5.771
 9666WAT     H231101   5.621   5.712   5.669
 9667WAT      O31102   6.792   5.932   6.823
 9667WAT     H131103   6.719   5.983   6.858
 9667WAT     H231104   6.753   5.851   6.793
 9668WAT      O31105   6.436   5.600   6.664
 9668WAT     H131106   6.437   5.556   6.579
 9668WAT     H231107   6.526   5.632   6.675
 9669WAT      O31108   6.021   5.588   6.560
 9669WAT     H131109   5.987   5.636   6.635
 9669WAT     H231110   5.945   5.543   6.524
 9670WAT      O31111   6.442   5.700   5.963
 9670WAT     H131112   6.455   5.696   6.058
 9670WAT     H231113   6.404   5.786   5.947
 9671WAT      O31114   6.839   5.478   6.764
 9671WAT     H131115   6.840   5.523   6.849
 9671WAT     H231116   6.814   5.388   6.786
 9672WAT      O31117   6.344   5.931   5.903
 9672WAT     H131118   6.287   5.886   5.840
 9672WAT     H231119   6.414   5.967   5.849
 9673WAT      O31120   7.181   5.219   7.348
 9673WAT     H131121   7.214   5.146   7.401
 9673WAT     H231122   7.185   5.187   7.258
 9674WAT      O31123   5.851   6.321   7.290
 9674WAT     H131124   5.813   6.257   7.350
 9674WAT     H231125   5.882   6.392   7.347
 9675WAT      O31126   6.466   6.006   6.838
 9675WAT     H131127   6.503   5.959   6.913
 9675WAT     H231128   6.447   6.093   6.873
 9676WAT      O31129   5.753   5.480   6.451
 9676WAT     H131130   5.724   5.444   6.535
 9676WAT     H231131   5.746   5.407   6.390
 9677WAT      O31132   6.245   5.910   7.070
 9677WAT     H131133   6.215   5.998   7.093
 9677WAT     H231134   6.341   5.916   7.074
 9678WAT      O31135   6.098   6.331   6.130
 9678WAT     H131136   6.021   6.277   6.114
 9678WAT     H231137   6.171   6.279   6.096
 9679WAT      O31138   7.174   6.230   6.709
 9679WAT     H131139   7.246   6.280   6.670
 9679WAT     H231140   7.154   6.163   6.645
 9680WAT      O31141   6.720   5.370   6.124
 9680WAT     H131142   6.639   5.320   6.116
 9680WAT     H231143   6.701   5.454   6.082
 9681WAT      O31144   6.712   6.237   7.298
 9681WAT     H131145   6.706   6.145   7.272
 9681WAT     H231146   6.649   6.247   7.369
 9682WAT      O31147   6.992   5.807   5.953
 9682WAT     H131148   7.080   5.838   5.936
 9682WAT     H231149   6.989   5.720   5.914
 9683WAT      O31150   6.102   6.298   6.494
 9683WAT     H131151   6.154   6.217   6.488
 9683WAT     H231152   6.057   6.291   6.578
 9684WAT      O31153   6.591   6.424   6.021
 9684WAT     H131154   6.625   6.499   5.971
 9684WAT     H231155   6.508   6.455   6.057
 9685WAT      O31156   5.851   5.994   7.185
 9685WAT     H131157   5.815   6.061   7.244
 9685WAT     H231158   5.821   5.911   7.222
 9686WAT      O31159   6.171   6.040   7.473
 9686WAT     H131160   6.141   6.055   7.384
 9686WAT     H231161   6.248   5.984   7.464
 9687WAT      O31162   6.705   6.520   7.273
 9687WAT     H131163   6.707   6.426   7.251
 9687WAT     H231164   6.635   6.528   7.337
 9688WAT      O31165   7.219   5.938   5.900
 9688WAT     H131166   7.210   5.981   5.815
 9688WAT     H231167   7.291   5.984   5.943
 9689WAT      O31168   7.326   6.184   7.208
 9689WAT     H131169   7.254   6.243   7.188
 9689WAT     H231170   7.379   6.183   7.128
 9690WAT      O31171   7.322   6.623   6.173
 9690WAT     H131172   7.257   6.558   6.200
 9690WAT     H231173   7.283   6.664   6.095
 9691WAT      O31174   6.879   6.356   6.557
 9691WAT     H131175   6.915   6.297   6.491
 9691WAT     H231176   6.791   6.324   6.575
 9692WAT      O31177   6.488   6.432   6.298
 9692WAT     H131178   6.557   6.487   6.336
 9692WAT     H231179   6.409   6.487   6.302
 9693WAT      O31180   5.702   5.994   5.847
 9693WAT     H131181   5.789   6.022   5.876
 9693WAT     H231182   5.653   6.075   5.836
 9694WAT      O31183   6.418   6.133   6.259
 9694WAT     H131184   6.464   6.214   6.282
 9694WAT     H231185   6.383   6.101   6.343
 9695WAT      O31186   6.649   6.684   6.982
 9695WAT     H131187   6.713   6.704   7.050
 9695WAT     H231188   6.685   6.608   6.937
 9696WAT      O31189   6.008   5.167   6.307
 9696WAT     H131190   5.996   5.166   6.402
 9696WAT     H231191   5.926   5.201   6.272
 9697WAT      O31192   6.776   6.484   6.854
 9697WAT     H131193   6.840   6.414   6.865
 9697WAT     H231194   6.828   6.562   6.836
 9698WAT      O31195   7.161   6.513   5.827
 9698WAT     H131196   7.138   6.441   5.886
 9698WAT     H231197   7.121   6.488   5.743
 9699WAT      O31198   6.953   6.564   7.174
 9699WAT     H131199   6.987   6.623   7.242
 9699WAT     H231200   6.861   6.551   7.197
 9700WAT      O31201   5.739   6.915   5.904
 9700WAT     H131202   5.775   6.975   5.839
 9700WAT     H231203   5.725   6.970   5.981
 9701WAT      O31204   5.708   5.343   7.253
 9701WAT     H131205   5.637   5.363   7.313
 9701WAT     H231206   5.750   5.265   7.290
 9702WAT      O31207   7.119   6.304   5.993
 9702WAT     H131208   7.090   6.350   6.071
 9702WAT     H231209   7.198   6.258   6.019
 9703WAT      O31210   5.737   6.742   7.351
 9703WAT     H131211   5.748   6.648   7.337
 9703WAT     H231212   5.672   6.768   7.287
 9704WAT      O31213   6.340   6.654   5.986
 9704WAT     H131214   6.339   6.727   5.924
 9704WAT     H231215   6.248   6.629   5.995
 9705WAT      O31216   5.900   6.176   6.060
 9705WAT     H131217   5.840   6.250   6.061
 9705WAT     H231218   5.948   6.185   5.978
 9706WAT      O31219   6.858   5.592   7.028
 9706WAT     H131220   6.895   5.510   7.061
 9706WAT     H231221   6.772   5.598   7.069
 9707WAT      O31222   7.194   5.488   6.109
 9707WAT     H131223   7.132   5.498   6.037
 9707WAT     H231224   7.145   5.510   6.188
 9708WAT      O31225   6.639   6.660   5.852
 9708WAT     H131226   6.649   6.640   5.759
 9708WAT     H231227   6.549   6.634   5.872
 9709WAT      O31228   6.391   5.716   6.250
 9709WAT     H131229   6.320   5.763   6.294
 9709WAT     H231230   6.420   5.650   6.314
 9710WAT      O31231   6.554   5.858   7.050
 9710WAT     H131232   6.604   5.905   7.117
 9710WAT     H231233   6.568   5.765   7.071
 9711WAT      O31234   6.794   5.388   6.394
 9711WAT     H131235   6.782   5.390   6.299
 9711WAT     H231236   6.889   5.393   6.406
 9712WAT      O31237   6.503   6.912   6.321
 9712WAT     H131238   6.529   6.908   6.229
 9712WAT     H231239   6.408   6.899   6.321
 9713WAT      O31240   6.212   5.547   5.988
 9713WAT     H131241   6.296   5.590   5.981
 9713WAT     H231242   6.175   5.578   6.070
 9714WAT      O31243   7.274   5.479   7.134
 9714WAT     H131244   7.224   5.553   7.168
 9714WAT     H231245   7.356   5.518   7.103
 9715WAT      O31246   7.104   6.004   6.479
 9715WAT     H131247   7.010   6.005   6.496
 9715WAT     H231248   7.135   5.925   6.524
 9716WAT      O31249   6.102   6.172   5.835
 9716WAT     H131250   6.178   6.161   5.891
 9716WAT     H231251   6.109   6.102   5.770
 9717WAT      O31252   5.971   5.915   5.903
 9717WAT     H131253   5.979   5.820   5.915
 9717WAT     H231254   6.060   5.948   5.914
 9718WAT      O31255   7.304   6.721   6.647
 9718WAT     H131256   7.316   6.803   6.694
 9718WAT     H231257   7.391   6.700   6.612
 9719WAT      O31258   6.051   6.930   6.614
 9719WAT     H131259   6.125   6.875   6.641
 9719WAT     H231260   6.090   7.017   6.600
 9720WAT      O31261   5.740   6.537   6.201
 9720WAT     H131262   5.647   6.561   6.200
 9720WAT     H231263   5.786   6.620   6.189
 9721WAT      O31264   6.362   6.847   5.796
 9721WAT     H131265   6.441   6.876   5.751
 9721WAT     H231266   6.310   6.804   5.728
 9722WAT      O31267   6.978   6.832   7.388
 9722WAT     H131268   7.074   6.824   7.383
 9722WAT     H231269   6.964   6.899   7.456
 9723WAT      O31270   7.267   6.770   5.938
 9723WAT     H131271   7.239   6.729   5.857
 9723WAT     H231272   7.248   6.863   5.926
 9724WAT      O31273   5.724   6.097   7.427
 9724WAT     H131274   5.774   6.039   7.484
 9724WAT     H231275   5.650   6.126   7.481
 9725WAT      O31276   6.414   6.369   5.782
 9725WAT     H131277   6.403   6.308   5.855
 9725WAT     H231278   6.397   6.317   5.704
 9726WAT      O31279   6.429   6.238   7.380
 9726WAT     H131280   6.353   6.295   7.372
 9726WAT     H231281   6.447   6.209   7.291
 9727WAT      O31282   6.738   6.276   5.843
 9727WAT     H131283   6.683   6.320   5.907
 9727WAT     H231284   6.800   6.225   5.895
 9728WAT      O31285   7.143   6.411   7.436
 9728WAT     H131286   7.217   6.445   7.386
 9728WAT     H231287   7.067   6.428   7.381
 9729WAT      O31288   6.305   6.172   6.032
 9729WAT     H131289   6.347   6.155   6.117
 9729WAT     H231290   6.317   6.091   5.983
 9730WAT      O31291   6.121   5.770   7.313
 9730WAT     H131292   6.068   5.720   7.250
 9730WAT     H231293   6.188   5.812   7.260
 9731WAT      O31294   6.556   6.074   5.757
 9731WAT     H131295   6.608   6.002   5.721
 9731WAT     H231296   6.621   6.138   5.787
 9732WAT      O31297   7.011   6.216   7.290
 9732WAT     H131298   7.052   6.232   7.375
 9732WAT     H231299   6.917   6.229   7.306
 9733WAT      O31300   7.058   5.950   7.490
 9733WAT     H131301   7.116   5.875   7.481
 9733WAT     H231302   7.076   6.003   7.412
 9734WAT      O31303   6.170   5.466   7.321
 9734WAT     H131304   6.160   5.404   7.249
 9734WAT     H231305   6.112   5.539   7.298
 9735WAT      O31306   6.446   5.322   7.024
 9735WAT     H131307   6.401   5.324   6.940
 9735WAT     H231308   6.383   5.282   7.084
 9736WAT      O31309   6.487   6.211   7.087
 9736WAT     H131310   6.529   6.296   7.069
 9736WAT     H231311   6.395   6.225   7.064
 9737WAT      O31312   6.721   5.985   7.225
 9737WAT     H131313   6.732   5.925   7.299
 9737WAT     H231314   6.806   5.988   7.183
 9738WAT      O31315   6.954   6.040   7.083
 9738WAT     H131316   6.902   6.092   7.022
 9738WAT     H231317   6.989   6.103   7.146
 9739WAT      O31318   6.194   5.779   5.727
 9739WAT     H131319   6.174   5.693   5.763
 9739WAT     H231320   6.177   5.770   5.633
 9740WAT      O31321   6.272   6.842   7.198
 9740WAT     H131322   6.218   6.914   7.166
 9740WAT     H231323   6.297   6.794   7.119
 9741WAT      O31324   6.397   5.639   7.351
 9741WAT     H131325   6.456   5.608   7.419
 9741WAT     H231326   6.315   5.592   7.366
 9742WAT      O31327   6.879   5.600   7.374
 9742WAT     H131328   6.810   5.534   7.368
 9742WAT     H231329   6.951   5.556   7.419
 9743WAT      O31330   6.942   5.260   5.980
 9743WAT     H131331   6.970   5.176   6.016
 9743WAT     H231332   6.865   5.283   6.031
 9744WAT      O31333   6.074   5.489   5.726
 9744WAT     H131334   6.104   5.490   5.635
 9744WAT     H231335   6.148   5.454   5.776
 9745WAT      O31336   6.558   6.965   7.224
 9745WAT     H131337   6.550   7.056   7.255
 9745WAT     H231338   6.467   6.934   7.221
 9746WAT      O31339   6.396   5.383   5.824
 9746WAT     H131340   6.361   5.315   5.766
 9746WAT     H231341   6.416   5.337   5.906
 9747WAT      O31342   6.612   6.882   5.986
 9747WAT     H131343   6.702   6.916   5.988
 9747WAT     H231344   6.616   6.810   5.924
 9748WAT      O31345   5.976   6.419   5.809
 9748WAT     H131346   6.020   6.474   5.875
 9748WAT     H231347   6.025   6.337   5.810
 9749WAT      O31348   5.698   6.698   6.554
 9749WAT     H131349   5.731   6.611   6.531
 9749WAT     H231350   5.741   6.719   6.637
 9750WAT      O31351   6.157   6.531   6.320
 9750WAT     H131352   6.127   6.519   6.410
 9750WAT     H231353   6.147   6.445   6.280
 9751WAT      O31354   5.747   6.785   6.828
 9751WAT     H131355   5.703   6.803   6.911
 9751WAT     H231356   5.804   6.861   6.814
 9752WAT      O31357   7.310   6.735   7.257
 9752WAT     H131358   7.250   6.741   7.183
 9752WAT     H231359   7.323   6.641   7.270
 9753WAT      O31360   7.434   6.509   5.791
 9753WAT     H131361   7.351   6.516   5.838
 9753WAT     H231362   7.452   6.598   5.760
 9754WAT      O31363   7.380   6.184   6.041
 9754WAT     H131364   7.456   6.241   6.052
 9754WAT     H231365   7.382   6.127   6.118
 9755WAT      O31366   5.730   6.036   6.464
 9755WAT     H131367   5.665   6.009   6.400
 9755WAT     H231368   5.814   6.025   6.419
 9756WAT      O31369   7.481   6.269   6.525
 9756WAT     H131370   7.518   6.191   6.485
 9756WAT     H231371   7.545   6.338   6.508
 9757WAT      O31372   7.179   6.408   7.067
 9757WAT     H131373   7.098   6.451   7.093
 9757WAT     H231374   7.220   6.469   7.005
 9758WAT      O31375   7.385   6.213   5.757
 9758WAT     H131376   7.413   6.304   5.744
 9758WAT     H231377   7.366   6.207   5.850
 9759WAT      O31378   7.025   5.516   5.886
 9759WAT     H131379   7.067   5.497   5.802
 9759WAT     H231380   6.994   5.430   5.917
 9760WAT      O31381   7.375   6.007   6.256
 9760WAT     H131382   7.337   5.930   6.213
 9760WAT     H231383   7.302   6.045   6.305
 9761WAT      O31384   5.834   6.075   6.918
 9761WAT     H131385   5.871   6.066   7.006
 9761WAT     H231386   5.777   5.998   6.908
 9762WAT      O31387   7.314   5.921   7.219
 9762WAT     H131388   7.291   5.899   7.129
 9762WAT     H231389   7.340   6.013   7.215
 9763WAT      O31390   5.789   5.766   7.309
 9763WAT     H131391   5.699   5.762   7.343
 9763WAT     H231392   5.843   5.786   7.385
 9764WAT      O31393   5.651   5.757   6.058
 9764WAT     H131394   5.561   5.783   6.041
 9764WAT     H231395   5.700   5.784   5.980
 9765WAT      O31396   7.302   5.829   6.586
 9765WAT     H131397   7.355   5.780   6.523
 9765WAT     H231398   7.361   5.843   6.661
 9766WAT      O31399   7.320   5.838   6.938
 9766WAT     H131400   7.225   5.834   6.950
 9766WAT     H231401   7.338   5.929   6.915
 9767WAT      O31402   5.906   5.663   5.849
 9767WAT     H131403   5.977   5.621   5.801
 9767WAT     H231404   5.834   5.670   5.786
 9768WAT      O31405   5.870   5.268   5.753
 9768WAT     H131406   5.943   5.322   5.785
 9768WAT     H231407   5.898   5.241   5.666
 9769WAT      O31408   7.251   5.755   6.180
 9769WAT     H131409   7.301   5.732   6.258
 9769WAT     H231410   7.231   5.671   6.138
 9770WAT      O31411   5.839   5.193   6.743
 9770WAT     H131412   5.904   5.138   6.699
 9770WAT     H231413   5.881   5.219   6.826
 9771WAT      O31414   7.394   5.619   6.433
 9771WAT     H131415   7.383   5.603   6.527
 9771WAT     H231416   7.470   5.566   6.409
 9772WAT      O31417   7.229   5.213   7.079
 9772WAT     H131418   7.293   5.274   7.116
 9772WAT     H231419   7.244   5.216   6.985
 9773WAT      O31420   7.483   5.402   5.757
 9773WAT     H131421   7.576   5.389   5.737
 9773WAT     H231422   7.481   5.410   5.853
 9774WAT      O31423   7.490   5.479   6.020
 9774WAT     H131424   7.411   5.472   6.073
 9774WAT     H231425   7.511   5.572   6.019
 9775WAT      O31426   7.185   6.883   6.419
 9775WAT     H131427   7.244   6.851   6.352
 9775WAT     H231428   7.210   6.835   6.499
 9776WAT      O31429   5.815   5.209   7.018
 9776WAT     H131430   5.780   5.254   7.094
 9776WAT     H231431   5.782   5.119   7.026
 9777WAT      O31432   6.345   6.682   6.994
 9777WAT     H131433   6.321   6.708   6.906
 9777WAT     H231434   6.439   6.699   7.000
 9778WAT      O31435   6.566   5.328   7.370
 9778WAT     H131436   6.560   5.387   7.445
 9778WAT     H231437   6.660   5.317   7.355
 9779WAT      O31438   6.830   5.294   7.334
 9779WAT     H131439   6.891   5.325   7.268
 9779WAT     H231440   6.884   5.245   7.396
 9780WAT      O31441   7.471   6.883   7.074
 9780WAT     H131442   7.422   6.923   7.003
 9780WAT     H231443   7.411   6.821   7.114
 9781WAT      O31444   5.882   5.162   7.345
 9781WAT     H131445   5.937   5.143   7.269
 9781WAT     H231446   5.888   5.082   7.399
 9782WAT      O31447   5.959   6.821   7.146
 9782WAT     H131448   5.900   6.807   7.220
 9782WAT     H231449   5.958   6.737   7.100
 9783WAT      O31450   6.904   5.150   6.967
 9783WAT     H131451   6.816   5.183   6.946
 9783WAT     H231452   6.893   5.103   7.049
 9784WAT      O31453   6.994   5.371   7.105
 9784WAT     H131454   6.962   5.289   7.067
 9784WAT     H231455   7.089   5.366   7.093
 9785WAT      O31456   7.240   6.948   6.802
 9785WAT     H131457   7.194   7.023   6.765
 9785WAT     H231458   7.177   6.876   6.796
 9786WAT      O31459   5.922   6.557   7.041
 9786WAT     H131460   5.850   6.495   7.035
 9786WAT     H231461   5.928   6.597   6.954
 9787WAT      O31462   6.283   6.779   6.720
 9787WAT     H131463   6.334   6.717   6.667
 9787WAT     H231464   6.348   6.829   6.769
 9788WAT      O31465   6.557   6.868   6.803
 9788WAT     H131466   6.585   6.842   6.715
 9788WAT     H231467   6.608   6.812   6.862
 9789WAT      O31468   6.678   5.242   6.860
 9789WAT     H131469   6.600   5.289   6.888
 9789WAT     H231470   6.649   5.151   6.850
 9790WAT      O31471   7.134   5.312   6.665
 9790WAT     H131472   7.178   5.306   6.580
 9790WAT     H231473   7.107   5.403   6.672
 9791WAT      O31474   7.320   5.275   6.466
 9791WAT     H131475   7.314   5.181   6.451
 9791WAT     H231476   7.398   5.286   6.521
 9792WAT      O31477   5.751   6.889   6.362
 9792WAT     H131478   5.734   6.826   6.432
 9792WAT     H231479   5.664   6.910   6.327
 9793WAT      O31480   5.813   5.272   6.113
 9793WAT     H131481   5.889   5.283   6.055
 9793WAT     H231482   5.767   5.356   6.108
 9794WAT      O31483   6.467   5.483   6.412
 9794WAT     H131484   6.386   5.446   6.378
 9794WAT     H231485   6.517   5.408   6.442
 9795WAT      O31486   6.917   5.150   6.535
 9795WAT     H131487   6.978   5.207   6.583
 9795WAT     H231488   6.843   5.206   6.513
 9796WAT      O31489   7.232   5.190   6.063
 9796WAT     H131490   7.251   5.280   6.090
 9796WAT     H231491   7.153   5.167   6.112
 9797WAT      O31492   5.911   6.758   6.107
 9797WAT     H131493   5.859   6.796   6.036
 9797WAT     H231494   5.904   6.821   6.179
 9798WAT      O31495   6.050   5.325   5.967
 9798WAT     H131496   6.103   5.246   5.954
 9798WAT     H231497   6.113   5.393   5.990
 9799WAT      O31498   6.270   5.298   6.272
 9799WAT     H131499   6.207   5.228   6.289
 9799WAT     H231500   6.216   5.375   6.250
 9800WAT      O31501   7.387   6.914   6.239
 9800WAT     H131502   7.404   6.845   6.175
 9800WAT     H231503   7.317   6.967   6.200
 9801WAT      O31504   6.171   6.953   5.994
 9801WAT     H131505   6.244   6.925   5.940
 9801WAT     H231506   6.197   6.929   6.083
 9802WAT      O31507   6.087   6.565   5.995
 9802WAT     H131508   6.024   6.612   6.050
 9802WAT     H231509   6.099   6.480   6.038
 9803WAT      O31510   6.833   5.970   4.610
 9803WAT     H131511   6.825   5.878   4.583
 9803WAT     H231512   6.791   6.019   4.539
 9804WAT      O31513   6.048   6.179   4.886
 9804WAT     H131514   5.964   6.153   4.926
 9804WAT     H231515   6.108   6.186   4.959
 9805WAT      O31516   7.048   6.588   4.676
 9805WAT     H131517   7.002   6.511   4.709
 9805WAT     H231518   7.129   6.591   4.726
 9806WAT      O31519   6.046   6.582   4.905
 9806WAT     H131520   6.076   6.493   4.887
 9806WAT     H231521   6.120   6.638   4.882
 9807WAT      O31522   5.685   5.935   4.852
 9807WAT     H131523   5.742   5.858   4.852
 9807WAT     H231524   5.685   5.965   4.762
 9808WAT      O31525   6.671   6.817   4.638
 9808WAT     H131526   6.609   6.862   4.581
 9808WAT     H231527   6.756   6.832   4.598
 9809WAT      O31528   6.590   6.415   4.799
 9809WAT     H131529   6.583   6.321   4.782
 9809WAT     H231530   6.666   6.424   4.856
 9810WAT      O31531   5.809   5.476   5.031
 9810WAT     H131532   5.791   5.386   5.059
 9810WAT     H231533   5.769   5.530   5.099
 9811WAT      O31534   7.071   5.445   4.515
 9811WAT     H131535   7.153   5.396   4.519
 9811WAT     H231536   7.075   5.504   4.590
 9812WAT      O31537   5.871   5.725   4.892
 9812WAT     H131538   5.939   5.752   4.954
 9812WAT     H231539   5.839   5.641   4.925
 9813WAT      O31540   7.500   5.647   5.171
 9813WAT     H131541   7.430   5.686   5.119
 9813WAT     H231542   7.527   5.717   5.231
 9814WAT      O31543   6.119   5.294   5.227
 9814WAT     H131544   6.119   5.346   5.147
 9814WAT     H231545   6.036   5.246   5.225
 9815WAT      O31546   6.757   6.305   4.377
 9815WAT     H131547   6.695   6.352   4.321
 9815WAT     H231548   6.809   6.374   4.419
 9816WAT      O31549   6.244   6.258   5.045
 9816WAT     H131550   6.210   6.321   5.109
 9816WAT     H231551   6.261   6.311   4.967
 9817WAT      O31552   7.095   5.639   4.792
 9817WAT     H131553   7.025   5.668   4.850
 9817WAT     H231554   7.131   5.720   4.756
 9818WAT      O31555   6.087   5.465   5.028
 9818WAT     H131556   6.121   5.549   4.999
 9818WAT     H231557   5.993   5.480   5.040
 9819WAT      O31558   6.165   6.455   5.227
 9819WAT     H131559   6.227   6.522   5.198
 9819WAT     H231560   6.079   6.496   5.217
 9820WAT      O31561   7.257   6.601   5.018
 9820WAT     H131562   7.188   6.668   5.017
 9820WAT     H231563   7.311   6.621   4.942
 9821WAT      O31564   7.402   5.584   4.831
 9821WAT     H131565   7.307   5.587   4.844
 9821WAT     H231566   7.434   5.665   4.869
 9822WAT      O31567   7.010   6.786   4.890
 9822WAT     H131568   7.011   6.745   4.803
 9822WAT     H231569   6.955   6.863   4.879
 9823WAT      O31570   7.140   6.458   4.398
 9823WAT     H131571   7.129   6.363   4.411
 9823WAT     H231572   7.139   6.494   4.487
 9824WAT      O31573   6.950   6.276   5.022
 9824WAT     H131574   6.992   6.254   4.939
 9824WAT     H231575   7.022   6.302   5.079
 9825WAT      O31576   6.693   5.648   4.034
 9825WAT     H131577   6.599   5.664   4.042
 9825WAT     H231578   6.724   5.719   3.979
 9826WAT      O31579   7.345   6.116   5.032
 9826WAT     H131580   7.262   6.123   4.984
 9826WAT     H231581   7.404   6.174   4.985
 9827WAT      O31582   7.097   6.177   4.384
 9827WAT     H131583   7.035   6.143   4.320
 9827WAT     H231584   7.095   6.112   4.455
 9828WAT      O31585   7.041   5.794   5.126
 9828WAT     H131586   7.000   5.877   5.151
 9828WAT     H231587   6.968   5.736   5.107
 9829WAT      O31588   6.301   6.442   4.829
 9829WAT     H131589   6.272   6.381   4.761
 9829WAT     H231590   6.396   6.445   4.818
 9830WAT      O31591   6.126   5.750   4.990
 9830WAT     H131592   6.181   5.761   4.913
 9830WAT     H231593   6.177   5.788   5.062
 9831WAT      O31594   7.110   6.799   5.195
 9831WAT     H131595   7.062   6.880   5.176
 9831WAT     H231596   7.042   6.734   5.210
 9832WAT      O31597   6.210   6.415   5.494
 9832WAT     H131598   6.121   6.438   5.518
 9832WAT     H231599   6.213   6.428   5.399
 9833WAT      O31600   6.914   6.100   4.085
 9833WAT     H131601   6.958   6.017   4.071
 9833WAT     H231602   6.986   6.164   4.094
 9834WAT      O31603   6.093   6.103   5.351
 9834WAT     H131604   6.079   6.190   5.388
 9834WAT     H231605   6.005   6.068   5.337
 9835WAT      O31606   6.725   6.594   4.482
 9835WAT     H131607   6.769   6.669   4.441
 9835WAT     H231608   6.719   6.619   4.574
 9836WAT      O31609   6.273   6.697   5.572
 9836WAT     H131610   6.270   6.737   5.485
 9836WAT     H231611   6.257   6.604   5.556
 9837WAT      O31612   7.273   5.226   3.917
 9837WAT     H131613   7.241   5.235   4.007
 9837WAT     H231614   7.349   5.284   3.912
 9838WAT      O31615   7.468   6.775   5.702
 9838WAT     H131616   7.516   6.823   5.770
 9838WAT     H231617   7.530   6.768   5.629
 9839WAT      O31618   5.688   6.280   4.943
 9839WAT     H131619   5.696   6.293   4.849
 9839WAT     H231620   5.750   6.209   4.962
 9840WAT      O31621   5.813   6.450   4.584
 9840WAT     H131622   5.772   6.464   4.499
 9840WAT     H231623   5.902   6.421   4.564
 9841WAT      O31624   7.408   6.494   5.418
 9841WAT     H131625   7.421   6.470   5.326
 9841WAT     H231626   7.413   6.411   5.465
 9842WAT      O31627   6.795   6.865   5.275
 9842WAT     H131628   6.846   6.856   5.355
 9842WAT     H231629   6.710   6.899   5.304
 9843WAT      O31630   6.992   6.893   4.218
 9843WAT     H131631   6.976   6.864   4.307
 9843WAT     H231632   6.976   6.815   4.164
 9844WAT      O31633   6.240   6.871   4.395
 9844WAT     H131634   6.222   6.779   4.374
 9844WAT     H231635   6.155   6.907   4.419
 9845WAT      O31636   6.962   6.644   4.074
 9845WAT     H131637   6.893   6.644   4.008
 9845WAT     H231638   7.037   6.602   4.031
 9846WAT      O31639   6.919   6.807   4.481
 9846WAT     H131640   6.964   6.728   4.512
 9846WAT     H231641   6.953   6.878   4.535
 9847WAT      O31642   7.394   5.700   5.514
 9847WAT     H131643   7.332   5.750   5.461
 9847WAT     H231644   7.362   5.610   5.509
 9848WAT      O31645   5.694   6.384   5.197
 9848WAT     H131646   5.710   6.337   5.115
 9848WAT     H231647   5.740   6.333   5.263
 9849WAT      O31648   6.600   5.583   5.261
 9849WAT     H131649   6.554   5.604   5.342
 9849WAT     H231650   6.560   5.502   5.231
 9850WAT      O31651   7.100   5.706   5.374
 9850WAT     H131652   7.015   5.676   5.406
 9850WAT     H231653   7.084   5.730   5.283
 9851WAT      O31654   6.809   5.856   5.584
 9851WAT     H131655   6.842   5.772   5.550
 9851WAT     H231656   6.888   5.908   5.599
 9852WAT      O31657   6.873   5.810   4.333
 9852WAT     H131658   6.813   5.882   4.315
 9852WAT     H231659   6.928   5.804   4.255
 9853WAT      O31660   6.394   5.899   5.540
 9853WAT     H131661   6.385   5.805   5.525
 9853WAT     H231662   6.479   5.921   5.500
 9854WAT      O31663   5.907   5.540   5.355
 9854WAT     H131664   5.868   5.625   5.376
 9854WAT     H231665   5.839   5.476   5.374
 9855WAT      O31666   6.565   5.548   5.662
 9855WAT     H131667   6.496   5.529   5.726
 9855WAT     H231668   6.639   5.577   5.716
 9856WAT      O31669   5.638   5.332   4.759
 9856WAT     H131670   5.609   5.389   4.830
 9856WAT     H231671   5.712   5.284   4.795
 9857WAT      O31672   6.792   5.932   4.946
 9857WAT     H131673   6.719   5.983   4.981
 9857WAT     H231674   6.753   5.851   4.916
 9858WAT      O31675   6.839   5.478   4.887
 9858WAT     H131676   6.840   5.523   4.971
 9858WAT     H231677   6.814   5.388   4.908
 9859WAT      O31678   7.181   5.219   5.471
 9859WAT     H131679   7.214   5.146   5.524
 9859WAT     H231680   7.185   5.187   5.381
 9860WAT      O31681   5.851   6.321   5.413
 9860WAT     H131682   5.813   6.257   5.473
 9860WAT     H231683   5.882   6.392   5.470
 9861WAT      O31684   6.245   5.910   5.193
 9861WAT     H131685   6.215   5.998   5.215
 9861WAT     H231686   6.341   5.916   5.196
 9862WAT      O31687   7.174   6.230   4.832
 9862WAT     H131688   7.246   6.280   4.793
 9862WAT     H231689   7.154   6.163   4.767
 9863WAT      O31690   6.712   6.237   5.420
 9863WAT     H131691   6.706   6.145   5.395
 9863WAT     H231692   6.649   6.247   5.492
 9864WAT      O31693   6.992   5.807   4.076
 9864WAT     H131694   7.080   5.838   4.058
 9864WAT     H231695   6.989   5.720   4.037
 9865WAT      O31696   6.591   6.424   4.144
 9865WAT     H131697   6.625   6.499   4.094
 9865WAT     H231698   6.508   6.455   4.180
 9866WAT      O31699   5.851   5.994   5.308
 9866WAT     H131700   5.815   6.061   5.366
 9866WAT     H231701   5.821   5.911   5.345
 9867WAT      O31702   6.171   6.040   5.596
 9867WAT     H131703   6.141   6.055   5.506
 9867WAT     H231704   6.248   5.984   5.587
 9868WAT      O31705   6.705   6.520   5.396
 9868WAT     H131706   6.707   6.426   5.374
 9868WAT     H231707   6.635   6.528   5.459
 9869WAT      O31708   7.219   5.938   4.022
 9869WAT     H131709   7.210   5.981   3.937
 9869WAT     H231710   7.291   5.984   4.066
 9870WAT      O31711   7.326   6.184   5.330
 9870WAT     H131712   7.254   6.243   5.310
 9870WAT     H231713   7.379   6.183   5.250
 9871WAT      O31714   7.322   6.623   4.295
 9871WAT     H131715   7.257   6.558   4.323
 9871WAT     H231716   7.283   6.664   4.218
 9872WAT      O31717   6.879   6.356   4.680
 9872WAT     H131718   6.915   6.297   4.614
 9872WAT     H231719   6.791   6.324   4.697
 9873WAT      O31720   6.488   6.432   4.421
 9873WAT     H131721   6.557   6.487   4.459
 9873WAT     H231722   6.409   6.487   4.424
 9874WAT      O31723   6.649   6.684   5.105
 9874WAT     H131724   6.713   6.704   5.173
 9874WAT     H231725   6.685   6.608   5.060
 9875WAT      O31726   6.776   6.484   4.977
 9875WAT     H131727   6.840   6.414   4.988
 9875WAT     H231728   6.828   6.562   4.959
 9876WAT      O31729   7.161   6.513   3.949
 9876WAT     H131730   7.138   6.441   4.008
 9876WAT     H231731   7.121   6.488   3.865
 9877WAT      O31732   6.953   6.564   5.297
 9877WAT     H131733   6.987   6.623   5.365
 9877WAT     H231734   6.861   6.551   5.320
 9878WAT      O31735   5.739   6.915   4.027
 9878WAT     H131736   5.775   6.975   3.961
 9878WAT     H231737   5.725   6.970   4.104
 9879WAT      O31738   5.708   5.343   5.375
 9879WAT     H131739   5.637   5.363   5.436
 9879WAT     H231740   5.750   5.265   5.412
 9880WAT      O31741   7.119   6.304   4.115
 9880WAT     H131742   7.090   6.350   4.194
 9880WAT     H231743   7.198   6.258   4.142
 9881WAT      O31744   5.737   6.742   5.474
 9881WAT     H131745   5.748   6.648   5.460
 9881WAT     H231746   5.672   6.768   5.409
 9882WAT      O31747   6.536   6.569   5.614
 9882WAT     H131748   6.504   6.497   5.668
 9882WAT     H231749   6.469   6.637   5.621
 9883WAT      O31750   6.340   6.654   4.108
 9883WAT     H131751   6.339   6.727   4.047
 9883WAT     H231752   6.248   6.629   4.118
 9884WAT      O31753   6.858   5.592   5.150
 9884WAT     H131754   6.895   5.510   5.183
 9884WAT     H231755   6.772   5.598   5.192
 9885WAT      O31756   7.194   5.488   4.231
 9885WAT     H131757   7.132   5.498   4.160
 9885WAT     H231758   7.145   5.510   4.310
 9886WAT      O31759   6.639   6.660   3.975
 9886WAT     H131760   6.649   6.640   3.882
 9886WAT     H231761   6.549   6.634   3.995
 9887WAT      O31762   6.554   5.858   5.173
 9887WAT     H131763   6.604   5.905   5.239
 9887WAT     H231764   6.568   5.765   5.193
 9888WAT      O31765   6.503   6.912   4.444
 9888WAT     H131766   6.529   6.908   4.352
 9888WAT     H231767   6.408   6.899   4.443
 9889WAT      O31768   7.274   5.479   5.257
 9889WAT     H131769   7.224   5.553   5.291
 9889WAT     H231770   7.356   5.518   5.225
 9890WAT      O31771   7.104   6.004   4.602
 9890WAT     H131772   7.010   6.005   4.619
 9890WAT     H231773   7.135   5.925   4.646
 9891WAT      O31774   7.304   6.721   4.769
 9891WAT     H131775   7.316   6.803   4.816
 9891WAT     H231776   7.391   6.700   4.734
 9892WAT      O31777   6.051   6.930   4.736
 9892WAT     H131778   6.125   6.875   4.763
 9892WAT     H231779   6.090   7.017   4.722
 9893WAT      O31780   5.740   6.537   4.324
 9893WAT     H131781   5.647   6.561   4.323
 9893WAT     H231782   5.786   6.620   4.312
 9894WAT      O31783   5.952   6.849   5.655
 9894WAT     H131784   6.032   6.881   5.696
 9894WAT     H231785   5.900   6.813   5.727
 9895WAT      O31786   6.362   6.847   3.919
 9895WAT     H131787   6.441   6.876   3.873
 9895WAT     H231788   6.310   6.804   3.851
 9896WAT      O31789   6.835   6.459   5.650
 9896WAT     H131790   6.775   6.462   5.576
 9896WAT     H231791   6.805   6.386   5.704
 9897WAT      O31792   6.978   6.832   5.511
 9897WAT     H131793   7.074   6.824   5.506
 9897WAT     H231794   6.964   6.899   5.578
 9898WAT      O31795   7.267   6.770   4.061
 9898WAT     H131796   7.239   6.729   3.979
 9898WAT     H231797   7.248   6.863   4.049
 9899WAT      O31798   5.724   6.097   5.550
 9899WAT     H131799   5.774   6.039   5.607
 9899WAT     H231800   5.650   6.126   5.603
 9900WAT      O31801   6.414   6.369   3.905
 9900WAT     H131802   6.403   6.308   3.978
 9900WAT     H231803   6.397   6.317   3.827
 9901WAT      O31804   6.429   6.238   5.503
 9901WAT     H131805   6.353   6.295   5.494
 9901WAT     H231806   6.447   6.209   5.414
 9902WAT      O31807   6.738   6.276   3.965
 9902WAT     H131808   6.683   6.320   4.030
 9902WAT     H231809   6.800   6.225   4.018
 9903WAT      O31810   7.143   6.411   5.559
 9903WAT     H131811   7.217   6.445   5.508
 9903WAT     H231812   7.067   6.428   5.503
 9904WAT      O31813   5.927   5.912   5.639
 9904WAT     H131814   5.931   5.882   5.730
 9904WAT     H231815   6.012   5.952   5.623
 9905WAT      O31816   6.121   5.770   5.436
 9905WAT     H131817   6.068   5.720   5.373
 9905WAT     H231818   6.188   5.812   5.382
 9906WAT      O31819   6.556   6.074   3.880
 9906WAT     H131820   6.608   6.002   3.843
 9906WAT     H231821   6.621   6.138   3.910
 9907WAT      O31822   7.011   6.216   5.412
 9907WAT     H131823   7.052   6.232   5.497
 9907WAT     H231824   6.917   6.229   5.428
 9908WAT      O31825   7.058   5.950   5.613
 9908WAT     H131826   7.116   5.875   5.604
 9908WAT     H231827   7.076   6.003   5.535
 9909WAT      O31828   6.170   5.466   5.444
 9909WAT     H131829   6.160   5.404   5.371
 9909WAT     H231830   6.112   5.539   5.421
 9910WAT      O31831   6.446   5.322   5.147
 9910WAT     H131832   6.401   5.324   5.062
 9910WAT     H231833   6.383   5.282   5.207
 9911WAT      O31834   6.487   6.211   5.209
 9911WAT     H131835   6.529   6.296   5.192
 9911WAT     H231836   6.395   6.225   5.186
 9912WAT      O31837   6.721   5.985   5.348
 9912WAT     H131838   6.732   5.925   5.421
 9912WAT     H231839   6.806   5.988   5.306
 9913WAT      O31840   6.954   6.040   5.205
 9913WAT     H131841   6.902   6.092   5.145
 9913WAT     H231842   6.989   6.103   5.268
 9914WAT      O31843   6.272   6.842   5.321
 9914WAT     H131844   6.218   6.914   5.289
 9914WAT     H231845   6.297   6.794   5.242
 9915WAT      O31846   6.397   5.639   5.473
 9915WAT     H131847   6.456   5.608   5.542
 9915WAT     H231848   6.315   5.592   5.489
 9916WAT      O31849   6.879   5.600   5.497
 9916WAT     H131850   6.810   5.534   5.490
 9916WAT     H231851   6.951   5.556   5.541
 9917WAT      O31852   6.942   5.260   4.102
 9917WAT     H131853   6.970   5.176   4.138
 9917WAT     H231854   6.865   5.283   4.154
 9918WAT      O31855   6.558   6.965   5.347
 9918WAT     H131856   6.550   7.056   5.377
 9918WAT     H231857   6.467   6.934   5.344
 9919WAT      O31858   6.612   6.882   4.109
 9919WAT     H131859   6.702   6.916   4.111
 9919WAT     H231860   6.616   6.810   4.046
 9920WAT      O31861   5.698   6.698   4.677
 9920WAT     H131862   5.731   6.611   4.654
 9920WAT     H231863   5.741   6.719   4.760
 9921WAT      O31864   6.157   6.531   4.443
 9921WAT     H131865   6.127   6.519   4.533
 9921WAT     H231866   6.147   6.445   4.402
 9922WAT      O31867   5.747   6.785   4.951
 9922WAT     H131868   5.703   6.803   5.034
 9922WAT     H231869   5.804   6.861   4.937
 9923WAT      O31870   7.310   6.735   5.379
 9923WAT     H131871   7.250   6.741   5.305
 9923WAT     H231872   7.323   6.641   5.392
 9924WAT      O31873   7.434   6.509   3.913
 9924WAT     H131874   7.351   6.516   3.960
 9924WAT     H231875   7.452   6.598   3.883
 9925WAT      O31876   7.380   6.184   4.164
 9925WAT     H131877   7.456   6.241   4.174
 9925WAT     H231878   7.382   6.127   4.241
 9926WAT      O31879   7.481   6.269   4.648
 9926WAT     H131880   7.518   6.191   4.607
 9926WAT     H231881   7.545   6.338   4.630
 9927WAT      O31882   7.179   6.408   5.189
 9927WAT     H131883   7.098   6.451   5.216
 9927WAT     H231884   7.220   6.469   5.128
 9928WAT      O31885   7.385   6.213   3.879
 9928WAT     H131886   7.413   6.304   3.866
 9928WAT     H231887   7.366   6.207   3.973
 9929WAT      O31888   7.025   5.516   4.009
 9929WAT     H131889   7.067   5.497   3.925
 9929WAT     H231890   6.994   5.430   4.040
 9930WAT      O31891   7.375   6.007   4.379
 9930WAT     H131892   7.337   5.930   4.335
 9930WAT     H231893   7.302   6.045   4.427
 9931WAT      O31894   5.834   6.075   5.041
 9931WAT     H131895   5.871   6.066   5.129
 9931WAT     H231896   5.777   5.998   5.031
 9932WAT      O31897   7.314   5.921   5.342
 9932WAT     H131898   7.291   5.899   5.252
 9932WAT     H231899   7.340   6.013   5.337
 9933WAT      O31900   5.789   5.766   5.431
 9933WAT     H131901   5.699   5.762   5.465
 9933WAT     H231902   5.843   5.786   5.508
 9934WAT      O31903   7.158   5.444   5.620
 9934WAT     H131904   7.245   5.445   5.658
 9934WAT     H231905   7.159   5.370   5.559
 9935WAT      O31906   7.302   5.829   4.709
 9935WAT     H131907   7.355   5.780   4.646
 9935WAT     H231908   7.361   5.843   4.783
 9936WAT      O31909   7.320   5.838   5.061
 9936WAT     H131910   7.225   5.834   5.072
 9936WAT     H231911   7.338   5.929   5.037
 9937WAT      O31912   7.251   5.755   4.303
 9937WAT     H131913   7.301   5.732   4.381
 9937WAT     H231914   7.231   5.671   4.261
 9938WAT      O31915   5.839   5.193   4.866
 9938WAT     H131916   5.904   5.138   4.822
 9938WAT     H231917   5.881   5.219   4.948
 9939WAT      O31918   7.394   5.619   4.556
 9939WAT     H131919   7.383   5.603   4.650
 9939WAT     H231920   7.470   5.566   4.532
 9940WAT      O31921   7.229   5.213   5.202
 9940WAT     H131922   7.293   5.274   5.238
 9940WAT     H231923   7.244   5.216   5.107
 9941WAT      O31924   7.483   5.402   3.880
 9941WAT     H131925   7.576   5.389   3.859
 9941WAT     H231926   7.481   5.410   3.975
 9942WAT      O31927   7.490   5.479   4.143
 9942WAT     H131928   7.411   5.472   4.195
 9942WAT     H231929   7.511   5.572   4.141
 9943WAT      O31930   7.185   6.883   4.542
 9943WAT     H131931   7.244   6.851   4.474
 9943WAT     H231932   7.210   6.835   4.621
 9944WAT      O31933   5.815   5.209   5.140
 9944WAT     H131934   5.780   5.254   5.217
 9944WAT     H231935   5.782   5.119   5.149
 9945WAT      O31936   5.975   6.526   5.557
 9945WAT     H131937   5.971   6.489   5.645
 9945WAT     H231938   5.988   6.620   5.571
 9946WAT      O31939   6.345   6.682   5.117
 9946WAT     H131940   6.321   6.708   5.028
 9946WAT     H231941   6.439   6.699   5.122
 9947WAT      O31942   6.566   5.328   5.493
 9947WAT     H131943   6.560   5.387   5.567
 9947WAT     H231944   6.660   5.317   5.478
 9948WAT      O31945   6.830   5.294   5.456
 9948WAT     H131946   6.891   5.325   5.390
 9948WAT     H231947   6.884   5.245   5.518
 9949WAT      O31948   7.471   6.883   5.197
 9949WAT     H131949   7.422   6.923   5.125
 9949WAT     H231950   7.411   6.821   5.236
 9950WAT      O31951   5.882   5.162   5.468
 9950WAT     H131952   5.937   5.143   5.391
 9950WAT     H231953   5.888   5.082   5.521
 9951WAT      O31954   5.959   6.821   5.269
 9951WAT     H131955   5.900   6.807   5.343
 9951WAT     H231956   5.958   6.737   5.222
 9952WAT      O31957   6.904   5.150   5.089
 9952WAT     H131958   6.816   5.183   5.069
 9952WAT     H231959   6.893   5.103   5.172
 9953WAT      O31960   6.994   5.371   5.228
 9953WAT     H131961   6.962   5.289   5.190
 9953WAT     H231962   7.089   5.366   5.215
 9954WAT      O31963   7.240   6.948   4.925
 9954WAT     H131964   7.194   7.023   4.887
 9954WAT     H231965   7.177   6.876   4.919
 9955WAT      O31966   5.922   6.557   5.164
 9955WAT     H131967   5.850   6.495   5.157
 9955WAT     H231968   5.928   6.597   5.077
 9956WAT      O31969   6.283   6.779   4.842
 9956WAT     H131970   6.334   6.717   4.790
 9956WAT     H231971   6.348   6.829   4.892
 9957WAT      O31972   6.557   6.868   4.925
 9957WAT     H131973   6.585   6.842   4.837
 9957WAT     H231974   6.608   6.812   4.984
 9958WAT      O31975   6.678   5.242   4.983
 9958WAT     H131976   6.600   5.289   5.011
 9958WAT     H231977   6.649   5.151   4.972
 9959WAT      O31978   7.134   5.312   4.788
 9959WAT     H131979   7.178   5.306   4.703
 9959WAT     H231980   7.107   5.403   4.795
 9960WAT      O31981   7.320   5.275   4.589
 9960WAT     H131982   7.314   5.181   4.574
 9960WAT     H231983   7.398   5.286   4.643
 9961WAT      O31984   5.751   6.889   4.485
 9961WAT     H131985   5.734   6.826   4.555
 9961WAT     H231986   5.664   6.910   4.450
 9962WAT      O31987   7.232   5.190   4.185
 9962WAT     H131988   7.251   5.280   4.212
 9962WAT     H231989   7.153   5.167   4.235
 9963WAT      O31990   5.911   6.758   4.229
 9963WAT     H131991   5.859   6.796   4.159
 9963WAT     H231992   5.904   6.821   4.301
 9964WAT      O31993   6.563   6.960   5.662
 9964WAT     H131994   6.656   6.936   5.666
 9964WAT     H231995   6.562   7.043   5.614
 9965WAT      O31996   7.387   6.914   4.362
 9965WAT     H131997   7.404   6.845   4.297
 9965WAT     H231998   7.317   6.967   4.322
 9966WAT      O31999   6.282   5.226   5.638
 9966WAT     H132000   6.254   5.277   5.562
 9966WAT     H232001   6.320   5.147   5.602
 9967WAT      O32002   6.171   6.953   4.117
 9967WAT     H132003   6.244   6.925   4.062
 9967WAT     H232004   6.197   6.929   4.206
 9968WAT      O32005   6.087   6.565   4.117
 9968WAT     H132006   6.024   6.612   4.172
 9968WAT     H232007   6.099   6.480   4.161
 9969WAT      O32008   6.942   5.168   5.696
 9969WAT     H132009   6.931   5.200   5.786
 9969WAT     H232010   7.024   5.208   5.666
 9970WAT      O32011   7.220   6.883   5.644
 9970WAT     H132012   7.299   6.833   5.623
 9970WAT     H232013   7.250   6.950   5.705
 9971WAT      O32014   6.833   5.970   2.732
 9971WAT     H132015   6.825   5.878   2.705
 9971WAT     H232016   6.791   6.019   2.662
 9972WAT      O32017   6.646   6.148   2.920
 9972WAT     H132018   6.568   6.100   2.949
 9972WAT     H232019   6.711   6.080   2.903
 9973WAT      O32020   6.048   6.179   3.008
 9973WAT     H132021   5.964   6.153   3.048
 9973WAT     H232022   6.108   6.186   3.082
 9974WAT      O32023   7.048   6.588   2.798
 9974WAT     H132024   7.002   6.511   2.831
 9974WAT     H232025   7.129   6.591   2.849
 9975WAT      O32026   6.046   6.582   3.028
 9975WAT     H132027   6.076   6.493   3.010
 9975WAT     H232028   6.120   6.638   3.005
 9976WAT      O32029   5.685   5.935   2.975
 9976WAT     H132030   5.742   5.858   2.975
 9976WAT     H232031   5.685   5.965   2.884
 9977WAT      O32032   6.671   6.817   2.760
 9977WAT     H132033   6.609   6.862   2.703
 9977WAT     H232034   6.756   6.832   2.720
 9978WAT      O32035   6.590   6.415   2.921
 9978WAT     H132036   6.583   6.321   2.905
 9978WAT     H232037   6.666   6.424   2.978
 9979WAT      O32038   5.809   5.476   3.154
 9979WAT     H132039   5.791   5.386   3.182
 9979WAT     H232040   5.769   5.530   3.221
 9980WAT      O32041   6.693   5.696   2.944
 9980WAT     H132042   6.731   5.609   2.933
 9980WAT     H232043   6.683   5.729   2.855
 9981WAT      O32044   7.071   5.445   2.637
 9981WAT     H132045   7.153   5.396   2.641
 9981WAT     H232046   7.075   5.504   2.712
 9982WAT      O32047   5.871   5.725   3.015
 9982WAT     H132048   5.939   5.752   3.076
 9982WAT     H232049   5.839   5.641   3.048
 9983WAT      O32050   6.290   5.830   2.923
 9983WAT     H132051   6.341   5.880   2.987
 9983WAT     H232052   6.343   5.752   2.906
 9984WAT      O32053   7.500   5.647   3.294
 9984WAT     H132054   7.430   5.686   3.242
 9984WAT     H232055   7.527   5.717   3.354
 9985WAT      O32056   6.119   5.294   3.350
 9985WAT     H132057   6.119   5.346   3.269
 9985WAT     H232058   6.036   5.246   3.348
 9986WAT      O32059   6.757   6.305   2.500
 9986WAT     H132060   6.695   6.352   2.443
 9986WAT     H232061   6.809   6.374   2.541
 9987WAT      O32062   6.244   6.258   3.168
 9987WAT     H132063   6.210   6.321   3.232
 9987WAT     H232064   6.261   6.311   3.090
 9988WAT      O32065   7.095   5.639   2.914
 9988WAT     H132066   7.025   5.668   2.972
 9988WAT     H232067   7.131   5.720   2.878
 9989WAT      O32068   6.087   5.465   3.151
 9989WAT     H132069   6.121   5.549   3.121
 9989WAT     H232070   5.993   5.480   3.162
 9990WAT      O32071   6.165   6.455   3.349
 9990WAT     H132072   6.227   6.522   3.321
 9990WAT     H232073   6.079   6.496   3.340
 9991WAT      O32074   5.694   6.374   2.237
 9991WAT     H132075   5.656   6.423   2.164
 9991WAT     H232076   5.720   6.441   2.300
 9992WAT      O32077   7.257   6.601   3.141
 9992WAT     H132078   7.188   6.668   3.140
 9992WAT     H232079   7.311   6.621   3.064
 9993WAT      O32080   7.402   5.584   2.953
 9993WAT     H132081   7.307   5.587   2.967
 9993WAT     H232082   7.434   5.665   2.992
 9994WAT      O32083   6.455   5.214   2.783
 9994WAT     H132084   6.486   5.158   2.711
 9994WAT     H232085   6.362   5.227   2.765
 9995WAT      O32086   7.010   6.786   3.012
 9995WAT     H132087   7.011   6.745   2.925
 9995WAT     H232088   6.955   6.863   3.002
 9996WAT      O32089   7.140   6.458   2.521
 9996WAT     H132090   7.129   6.363   2.534
 9996WAT     H232091   7.139   6.494   2.610
 9997WAT      O32092   6.950   6.276   3.145
 9997WAT     H132093   6.992   6.254   3.061
 9997WAT     H232094   7.022   6.302   3.202
 9998WAT      O32095   6.694   6.020   2.457
 9998WAT     H132096   6.601   6.014   2.480
 9998WAT     H232097   6.709   6.114   2.445
 9999WAT      O32098   6.693   5.648   2.156
 9999WAT     H132099   6.599   5.664   2.165
 9999WAT     H232100   6.724   5.719   2.102
10000WAT      O32101   7.345   6.116   3.154
10000WAT     H132102   7.262   6.123   3.107
10000WAT     H232103   7.404   6.174   3.107
10001WAT      O32104   7.097   6.177   2.507
10001WAT     H132105   7.035   6.143   2.442
10001WAT     H232106   7.095   6.112   2.578
10002WAT      O32107   7.041   5.794   3.249
10002WAT     H132108   7.000   5.877   3.274
10002WAT     H232109   6.968   5.736   3.229
10003WAT      O32110   6.254   6.073   2.735
10003WAT     H132111   6.214   6.002   2.685
10003WAT     H232112   6.263   6.039   2.824
10004WAT      O32113   6.301   6.442   2.951
10004WAT     H132114   6.272   6.381   2.883
10004WAT     H232115   6.396   6.445   2.940
10005WAT      O32116   6.126   5.750   3.113
10005WAT     H132117   6.181   5.761   3.035
10005WAT     H232118   6.177   5.788   3.184
10006WAT      O32119   7.110   6.799   3.317
10006WAT     H132120   7.062   6.880   3.298
10006WAT     H232121   7.042   6.734   3.333
10007WAT      O32122   6.210   6.415   3.616
10007WAT     H132123   6.121   6.438   3.641
10007WAT     H232124   6.213   6.428   3.521
10008WAT      O32125   6.914   6.100   2.208
10008WAT     H132126   6.958   6.017   2.193
10008WAT     H232127   6.986   6.164   2.216
10009WAT      O32128   6.093   6.103   3.474
10009WAT     H132129   6.079   6.190   3.511
10009WAT     H232130   6.005   6.068   3.459
10010WAT      O32131   6.725   6.594   2.605
10010WAT     H132132   6.769   6.669   2.563
10010WAT     H232133   6.719   6.619   2.697
10011WAT      O32134   6.273   6.697   3.695
10011WAT     H132135   6.270   6.737   3.608
10011WAT     H232136   6.257   6.604   3.678
10012WAT      O32137   7.273   5.226   2.039
10012WAT     H132138   7.241   5.235   2.129
10012WAT     H232139   7.349   5.284   2.034
10013WAT      O32140   5.924   5.962   2.485
10013WAT     H132141   5.912   6.035   2.424
10013WAT     H232142   5.893   5.885   2.437
10014WAT      O32143   7.468   6.775   3.824
10014WAT     H132144   7.516   6.823   3.892
10014WAT     H232145   7.530   6.768   3.752
10015WAT      O32146   5.688   6.280   3.066
10015WAT     H132147   5.696   6.293   2.971
10015WAT     H232148   5.750   6.209   3.085
10016WAT      O32149   5.813   6.450   2.707
10016WAT     H132150   5.772   6.464   2.621
10016WAT     H232151   5.902   6.421   2.686
10017WAT      O32152   7.408   6.494   3.540
10017WAT     H132153   7.421   6.470   3.449
10017WAT     H232154   7.413   6.411   3.588
10018WAT      O32155   6.795   6.865   3.397
10018WAT     H132156   6.846   6.856   3.478
10018WAT     H232157   6.710   6.899   3.427
10019WAT      O32158   6.992   6.893   2.340
10019WAT     H132159   6.976   6.864   2.430
10019WAT     H232160   6.976   6.815   2.287
10020WAT      O32161   6.240   6.871   2.518
10020WAT     H132162   6.222   6.779   2.497
10020WAT     H232163   6.155   6.907   2.542
10021WAT      O32164   6.962   6.644   2.196
10021WAT     H132165   6.893   6.644   2.130
10021WAT     H232166   7.037   6.602   2.153
10022WAT      O32167   6.919   6.807   2.604
10022WAT     H132168   6.964   6.728   2.635
10022WAT     H232169   6.953   6.878   2.658
10023WAT      O32170   7.394   5.700   3.637
10023WAT     H132171   7.332   5.750   3.584
10023WAT     H232172   7.362   5.610   3.631
10024WAT      O32173   5.694   6.384   3.320
10024WAT     H132174   5.710   6.337   3.238
10024WAT     H232175   5.740   6.333   3.386
10025WAT      O32176   6.171   5.297   2.823
10025WAT     H132177   6.127   5.375   2.790
10025WAT     H232178   6.227   5.329   2.894
10026WAT      O32179   6.600   5.583   3.383
10026WAT     H132180   6.554   5.604   3.465
10026WAT     H232181   6.560   5.502   3.353
10027WAT      O32182   7.100   5.706   3.496
10027WAT     H132183   7.015   5.676   3.529
10027WAT     H232184   7.084   5.730   3.405
10028WAT      O32185   6.809   5.856   3.706
10028WAT     H132186   6.842   5.772   3.672
10028WAT     H232187   6.888   5.908   3.721
10029WAT      O32188   6.483   5.259   2.311
10029WAT     H132189   6.420   5.259   2.384
10029WAT     H232190   6.474   5.172   2.272
10030WAT      O32191   6.375   5.351   3.009
10030WAT     H132192   6.405   5.442   3.001
10030WAT     H232193   6.430   5.302   2.948
10031WAT      O32194   6.150   5.809   2.596
10031WAT     H132195   6.128   5.788   2.686
10031WAT     H232196   6.072   5.852   2.561
10032WAT      O32197   6.873   5.810   2.456
10032WAT     H132198   6.813   5.882   2.437
10032WAT     H232199   6.928   5.804   2.378
10033WAT      O32200   6.394   5.899   3.663
10033WAT     H132201   6.385   5.805   3.648
10033WAT     H232202   6.479   5.921   3.623
10034WAT      O32203   6.734   5.673   2.659
10034WAT     H132204   6.773   5.705   2.578
10034WAT     H232205   6.770   5.586   2.670
10035WAT      O32206   6.565   5.548   3.785
10035WAT     H132207   6.496   5.529   3.848
10035WAT     H232208   6.639   5.577   3.838
10036WAT      O32209   5.638   5.332   2.881
10036WAT     H132210   5.609   5.389   2.952
10036WAT     H232211   5.712   5.284   2.917
10037WAT      O32212   5.656   5.727   2.002
10037WAT     H132213   5.648   5.821   2.016
10037WAT     H232214   5.621   5.712   1.914
10038WAT      O32215   6.792   5.932   3.068
10038WAT     H132216   6.719   5.983   3.103
10038WAT     H232217   6.753   5.851   3.038
10039WAT      O32218   6.436   5.600   2.909
10039WAT     H132219   6.437   5.556   2.824
10039WAT     H232220   6.526   5.632   2.920
10040WAT      O32221   6.021   5.588   2.805
10040WAT     H132222   5.987   5.636   2.881
10040WAT     H232223   5.945   5.543   2.769
10041WAT      O32224   6.442   5.700   2.208
10041WAT     H132225   6.455   5.696   2.303
10041WAT     H232226   6.404   5.786   2.192
10042WAT      O32227   6.839   5.478   3.010
10042WAT     H132228   6.840   5.523   3.094
10042WAT     H232229   6.814   5.388   3.031
10043WAT      O32230   6.344   5.931   2.148
10043WAT     H132231   6.287   5.886   2.085
10043WAT     H232232   6.414   5.967   2.094
10044WAT      O32233   7.181   5.219   3.593
10044WAT     H132234   7.214   5.146   3.646
10044WAT     H232235   7.185   5.187   3.503
10045WAT      O32236   5.851   6.321   3.535
10045WAT     H132237   5.813   6.257   3.595
10045WAT     H232238   5.882   6.392   3.592
10046WAT      O32239   6.466   6.006   3.084
10046WAT     H132240   6.503   5.959   3.158
10046WAT     H232241   6.447   6.093   3.118
10047WAT      O32242   6.245   5.910   3.315
10047WAT     H132243   6.215   5.998   3.338
10047WAT     H232244   6.341   5.916   3.319
10048WAT      O32245   6.098   6.331   2.375
10048WAT     H132246   6.021   6.277   2.359
10048WAT     H232247   6.171   6.279   2.341
10049WAT      O32248   7.174   6.230   2.954
10049WAT     H132249   7.246   6.280   2.915
10049WAT     H232250   7.154   6.163   2.890
10050WAT      O32251   6.720   5.370   2.369
10050WAT     H132252   6.639   5.320   2.361
10050WAT     H232253   6.701   5.454   2.327
10051WAT      O32254   6.712   6.237   3.543
10051WAT     H132255   6.706   6.145   3.518
10051WAT     H232256   6.649   6.247   3.614
10052WAT      O32257   6.992   5.807   2.198
10052WAT     H132258   7.080   5.838   2.181
10052WAT     H232259   6.989   5.720   2.159
10053WAT      O32260   6.102   6.298   2.739
10053WAT     H132261   6.154   6.217   2.733
10053WAT     H232262   6.057   6.291   2.823
10054WAT      O32263   6.591   6.424   2.266
10054WAT     H132264   6.625   6.499   2.217
10054WAT     H232265   6.508   6.455   2.302
10055WAT      O32266   5.851   5.994   3.430
10055WAT     H132267   5.815   6.061   3.489
10055WAT     H232268   5.821   5.911   3.467
10056WAT      O32269   6.705   6.520   3.518
10056WAT     H132270   6.707   6.426   3.496
10056WAT     H232271   6.635   6.528   3.582
10057WAT      O32272   7.219   5.938   2.145
10057WAT     H132273   7.210   5.981   2.060
10057WAT     H232274   7.291   5.984   2.188
10058WAT      O32275   7.326   6.184   3.453
10058WAT     H132276   7.254   6.243   3.433
10058WAT     H232277   7.379   6.183   3.373
10059WAT      O32278   7.322   6.623   2.418
10059WAT     H132279   7.257   6.558   2.445
10059WAT     H232280   7.283   6.664   2.340
10060WAT      O32281   6.879   6.356   2.803
10060WAT     H132282   6.915   6.297   2.737
10060WAT     H232283   6.791   6.324   2.820
10061WAT      O32284   6.488   6.432   2.543
10061WAT     H132285   6.557   6.487   2.581
10061WAT     H232286   6.409   6.487   2.547
10062WAT      O32287   5.702   5.994   2.092
10062WAT     H132288   5.789   6.022   2.121
10062WAT     H232289   5.653   6.075   2.081
10063WAT      O32290   6.418   6.133   2.505
10063WAT     H132291   6.464   6.214   2.527
10063WAT     H232292   6.383   6.101   2.588
10064WAT      O32293   6.649   6.684   3.227
10064WAT     H132294   6.713   6.704   3.295
10064WAT     H232295   6.685   6.608   3.182
10065WAT      O32296   6.008   5.167   2.552
10065WAT     H132297   5.996   5.166   2.647
10065WAT     H232298   5.926   5.201   2.517
10066WAT      O32299   6.776   6.484   3.099
10066WAT     H132300   6.840   6.414   3.111
10066WAT     H232301   6.828   6.562   3.081
10067WAT      O32302   7.161   6.513   2.072
10067WAT     H132303   7.138   6.441   2.131
10067WAT     H232304   7.121   6.488   1.988
10068WAT      O32305   6.953   6.564   3.420
10068WAT     H132306   6.987   6.623   3.487
10068WAT     H232307   6.861   6.551   3.443
10069WAT      O32308   5.739   6.915   2.149
10069WAT     H132309   5.775   6.975   2.084
10069WAT     H232310   5.725   6.970   2.226
10070WAT      O32311   7.119   6.304   2.238
10070WAT     H132312   7.090   6.350   2.317
10070WAT     H232313   7.198   6.258   2.265
10071WAT      O32314   5.737   6.742   3.597
10071WAT     H132315   5.748   6.648   3.582
10071WAT     H232316   5.672   6.768   3.532
10072WAT      O32317   6.536   6.569   3.736
10072WAT     H132318   6.504   6.497   3.791
10072WAT     H232319   6.469   6.637   3.744
10073WAT      O32320   6.340   6.654   2.231
10073WAT     H132321   6.339   6.727   2.169
10073WAT     H232322   6.248   6.629   2.240
10074WAT      O32323   5.900   6.176   2.305
10074WAT     H132324   5.840   6.250   2.306
10074WAT     H232325   5.948   6.185   2.223
10075WAT      O32326   6.858   5.592   3.273
10075WAT     H132327   6.895   5.510   3.306
10075WAT     H232328   6.772   5.598   3.314
10076WAT      O32329   7.194   5.488   2.354
10076WAT     H132330   7.132   5.498   2.282
10076WAT     H232331   7.145   5.510   2.433
10077WAT      O32332   6.639   6.660   2.097
10077WAT     H132333   6.649   6.640   2.004
10077WAT     H232334   6.549   6.634   2.118
10078WAT      O32335   6.391   5.716   2.495
10078WAT     H132336   6.320   5.763   2.539
10078WAT     H232337   6.420   5.650   2.559
10079WAT      O32338   6.554   5.858   3.295
10079WAT     H132339   6.604   5.905   3.362
10079WAT     H232340   6.568   5.765   3.316
10080WAT      O32341   6.794   5.388   2.639
10080WAT     H132342   6.782   5.390   2.544
10080WAT     H232343   6.889   5.393   2.651
10081WAT      O32344   6.503   6.912   2.567
10081WAT     H132345   6.529   6.908   2.474
10081WAT     H232346   6.408   6.899   2.566
10082WAT      O32347   6.212   5.547   2.233
10082WAT     H132348   6.296   5.590   2.226
10082WAT     H232349   6.175   5.578   2.316
10083WAT      O32350   7.274   5.479   3.380
10083WAT     H132351   7.224   5.553   3.413
10083WAT     H232352   7.356   5.518   3.348
10084WAT      O32353   7.104   6.004   2.724
10084WAT     H132354   7.010   6.005   2.742
10084WAT     H232355   7.135   5.925   2.769
10085WAT      O32356   6.102   6.172   2.080
10085WAT     H132357   6.178   6.161   2.136
10085WAT     H232358   6.109   6.102   2.015
10086WAT      O32359   5.971   5.915   2.149
10086WAT     H132360   5.979   5.820   2.160
10086WAT     H232361   6.060   5.948   2.159
10087WAT      O32362   7.304   6.721   2.892
10087WAT     H132363   7.316   6.803   2.939
10087WAT     H232364   7.391   6.700   2.857
10088WAT      O32365   6.051   6.930   2.859
10088WAT     H132366   6.125   6.875   2.886
10088WAT     H232367   6.090   7.017   2.845
10089WAT      O32368   5.740   6.537   2.446
10089WAT     H132369   5.647   6.561   2.445
10089WAT     H232370   5.786   6.620   2.434
10090WAT      O32371   5.952   6.849   3.778
10090WAT     H132372   6.032   6.881   3.819
10090WAT     H232373   5.900   6.813   3.850
10091WAT      O32374   6.362   6.847   2.041
10091WAT     H132375   6.441   6.876   1.996
10091WAT     H232376   6.310   6.804   1.973
10092WAT      O32377   6.835   6.459   3.772
10092WAT     H132378   6.775   6.462   3.698
10092WAT     H232379   6.805   6.386   3.826
10093WAT      O32380   6.978   6.832   3.634
10093WAT     H132381   7.074   6.824   3.629
10093WAT     H232382   6.964   6.899   3.701
10094WAT      O32383   7.267   6.770   2.183
10094WAT     H132384   7.239   6.729   2.102
10094WAT     H232385   7.248   6.863   2.171
10095WAT      O32386   5.724   6.097   3.672
10095WAT     H132387   5.774   6.039   3.729
10095WAT     H232388   5.650   6.126   3.726
10096WAT      O32389   6.414   6.369   2.028
10096WAT     H132390   6.403   6.308   2.100
10096WAT     H232391   6.397   6.317   1.949
10097WAT      O32392   6.429   6.238   3.625
10097WAT     H132393   6.353   6.295   3.617
10097WAT     H232394   6.447   6.209   3.536
10098WAT      O32395   6.738   6.276   2.088
10098WAT     H132396   6.683   6.320   2.152
10098WAT     H232397   6.800   6.225   2.140
10099WAT      O32398   7.143   6.411   3.681
10099WAT     H132399   7.217   6.445   3.631
10099WAT     H232400   7.067   6.428   3.626
10100WAT      O32401   6.305   6.172   2.278
10100WAT     H132402   6.347   6.155   2.362
10100WAT     H232403   6.317   6.091   2.228
10101WAT      O32404   6.121   5.770   3.558
10101WAT     H132405   6.068   5.720   3.496
10101WAT     H232406   6.188   5.812   3.505
10102WAT      O32407   6.556   6.074   2.002
10102WAT     H132408   6.608   6.002   1.966
10102WAT     H232409   6.621   6.138   2.032
10103WAT      O32410   7.011   6.216   3.535
10103WAT     H132411   7.052   6.232   3.620
10103WAT     H232412   6.917   6.229   3.551
10104WAT      O32413   7.058   5.950   3.735
10104WAT     H132414   7.116   5.875   3.726
10104WAT     H232415   7.076   6.003   3.657
10105WAT      O32416   6.170   5.466   3.566
10105WAT     H132417   6.160   5.404   3.494
10105WAT     H232418   6.112   5.539   3.544
10106WAT      O32419   6.446   5.322   3.270
10106WAT     H132420   6.401   5.324   3.185
10106WAT     H232421   6.383   5.282   3.329
10107WAT      O32422   6.487   6.211   3.332
10107WAT     H132423   6.529   6.296   3.314
10107WAT     H232424   6.395   6.225   3.309
10108WAT      O32425   6.721   5.985   3.470
10108WAT     H132426   6.732   5.925   3.544
10108WAT     H232427   6.806   5.988   3.428
10109WAT      O32428   6.954   6.040   3.328
10109WAT     H132429   6.902   6.092   3.267
10109WAT     H232430   6.989   6.103   3.391
10110WAT      O32431   6.194   5.779   1.972
10110WAT     H132432   6.174   5.693   2.008
10110WAT     H232433   6.177   5.770   1.878
10111WAT      O32434   6.272   6.842   3.443
10111WAT     H132435   6.218   6.914   3.411
10111WAT     H232436   6.297   6.794   3.364
10112WAT      O32437   6.397   5.639   3.596
10112WAT     H132438   6.456   5.608   3.665
10112WAT     H232439   6.315   5.592   3.611
10113WAT      O32440   6.879   5.600   3.619
10113WAT     H132441   6.810   5.534   3.613
10113WAT     H232442   6.951   5.556   3.664
10114WAT      O32443   6.942   5.260   2.225
10114WAT     H132444   6.970   5.176   2.261
10114WAT     H232445   6.865   5.283   2.276
10115WAT      O32446   6.074   5.489   1.971
10115WAT     H132447   6.104   5.490   1.880
10115WAT     H232448   6.148   5.454   2.021
10116WAT      O32449   6.558   6.965   3.469
10116WAT     H132450   6.550   7.056   3.500
10116WAT     H232451   6.467   6.934   3.466
10117WAT      O32452   6.396   5.383   2.070
10117WAT     H132453   6.361   5.315   2.012
10117WAT     H232454   6.416   5.337   2.151
10118WAT      O32455   6.612   6.882   2.231
10118WAT     H132456   6.702   6.916   2.234
10118WAT     H232457   6.616   6.810   2.169
10119WAT      O32458   5.976   6.419   2.054
10119WAT     H132459   6.020   6.474   2.120
10119WAT     H232460   6.025   6.337   2.055
10120WAT      O32461   5.698   6.698   2.799
10120WAT     H132462   5.731   6.611   2.776
10120WAT     H232463   5.741   6.719   2.883
10121WAT      O32464   6.157   6.531   2.565
10121WAT     H132465   6.127   6.519   2.656
10121WAT     H232466   6.147   6.445   2.525
10122WAT      O32467   5.747   6.785   3.073
10122WAT     H132468   5.703   6.803   3.157
10122WAT     H232469   5.804   6.861   3.059
10123WAT      O32470   7.310   6.735   3.502
10123WAT     H132471   7.250   6.741   3.428
10123WAT     H232472   7.323   6.641   3.515
10124WAT      O32473   7.434   6.509   2.036
10124WAT     H132474   7.351   6.516   2.083
10124WAT     H232475   7.452   6.598   2.005
10125WAT      O32476   7.380   6.184   2.286
10125WAT     H132477   7.456   6.241   2.297
10125WAT     H232478   7.382   6.127   2.363
10126WAT      O32479   5.730   6.036   2.709
10126WAT     H132480   5.665   6.009   2.645
10126WAT     H232481   5.814   6.025   2.664
10127WAT      O32482   7.481   6.269   2.771
10127WAT     H132483   7.518   6.191   2.730
10127WAT     H232484   7.545   6.338   2.753
10128WAT      O32485   7.179   6.408   3.312
10128WAT     H132486   7.098   6.451   3.338
10128WAT     H232487   7.220   6.469   3.251
10129WAT      O32488   7.385   6.213   2.002
10129WAT     H132489   7.413   6.304   1.989
10129WAT     H232490   7.366   6.207   2.095
10130WAT      O32491   7.025   5.516   2.131
10130WAT     H132492   7.067   5.497   2.047
10130WAT     H232493   6.994   5.430   2.162
10131WAT      O32494   7.375   6.007   2.501
10131WAT     H132495   7.337   5.930   2.458
10131WAT     H232496   7.302   6.045   2.550
10132WAT      O32497   5.834   6.075   3.163
10132WAT     H132498   5.871   6.066   3.251
10132WAT     H232499   5.777   5.998   3.153
10133WAT      O32500   7.314   5.921   3.465
10133WAT     H132501   7.291   5.899   3.374
10133WAT     H232502   7.340   6.013   3.460
10134WAT      O32503   5.789   5.766   3.554
10134WAT     H132504   5.699   5.762   3.588
10134WAT     H232505   5.843   5.786   3.630
10135WAT      O32506   7.158   5.444   3.742
10135WAT     H132507   7.245   5.445   3.781
10135WAT     H232508   7.159   5.370   3.681
10136WAT      O32509   7.302   5.829   2.831
10136WAT     H132510   7.355   5.780   2.768
10136WAT     H232511   7.361   5.843   2.906
10137WAT      O32512   7.320   5.838   3.183
10137WAT     H132513   7.225   5.834   3.195
10137WAT     H232514   7.338   5.929   3.160
10138WAT      O32515   5.906   5.663   2.094
10138WAT     H132516   5.977   5.621   2.046
10138WAT     H232517   5.834   5.670   2.031
10139WAT      O32518   5.870   5.268   1.998
10139WAT     H132519   5.943   5.322   2.030
10139WAT     H232520   5.898   5.241   1.911
10140WAT      O32521   7.251   5.755   2.425
10140WAT     H132522   7.301   5.732   2.504
10140WAT     H232523   7.231   5.671   2.383
10141WAT      O32524   5.839   5.193   2.989
10141WAT     H132525   5.904   5.138   2.945
10141WAT     H232526   5.881   5.219   3.071
10142WAT      O32527   7.394   5.619   2.678
10142WAT     H132528   7.383   5.603   2.772
10142WAT     H232529   7.470   5.566   2.654
10143WAT      O32530   7.229   5.213   3.324
10143WAT     H132531   7.293   5.274   3.361
10143WAT     H232532   7.244   5.216   3.230
10144WAT      O32533   7.483   5.402   2.003
10144WAT     H132534   7.576   5.389   1.982
10144WAT     H232535   7.481   5.410   2.098
10145WAT      O32536   7.490   5.479   2.265
10145WAT     H132537   7.411   5.472   2.318
10145WAT     H232538   7.511   5.572   2.264
10146WAT      O32539   7.185   6.883   2.665
10146WAT     H132540   7.244   6.851   2.597
10146WAT     H232541   7.210   6.835   2.744
10147WAT      O32542   5.815   5.209   3.263
10147WAT     H132543   5.780   5.254   3.339
10147WAT     H232544   5.782   5.119   3.271
10148WAT      O32545   5.975   6.526   3.679
10148WAT     H132546   5.971   6.489   3.768
10148WAT     H232547   5.988   6.620   3.693
10149WAT      O32548   6.345   6.682   3.240
10149WAT     H132549   6.321   6.708   3.151
10149WAT     H232550   6.439   6.699   3.245
10150WAT      O32551   6.566   5.328   3.615
10150WAT     H132552   6.560   5.387   3.690
10150WAT     H232553   6.660   5.317   3.601
10151WAT      O32554   6.830   5.294   3.579
10151WAT     H132555   6.891   5.325   3.513
10151WAT     H232556   6.884   5.245   3.641
10152WAT      O32557   7.471   6.883   3.320
10152WAT     H132558   7.422   6.923   3.248
10152WAT     H232559   7.411   6.821   3.359
10153WAT      O32560   5.959   6.821   3.391
10153WAT     H132561   5.900   6.807   3.465
10153WAT     H232562   5.958   6.737   3.345
10154WAT      O32563   6.904   5.150   3.212
10154WAT     H132564   6.816   5.183   3.191
10154WAT     H232565   6.893   5.103   3.294
10155WAT      O32566   6.994   5.371   3.350
10155WAT     H132567   6.962   5.289   3.312
10155WAT     H232568   7.089   5.366   3.338
10156WAT      O32569   7.240   6.948   3.047
10156WAT     H132570   7.194   7.023   3.010
10156WAT     H232571   7.177   6.876   3.042
10157WAT      O32572   5.922   6.557   3.286
10157WAT     H132573   5.850   6.495   3.280
10157WAT     H232574   5.928   6.597   3.199
10158WAT      O32575   6.283   6.779   2.965
10158WAT     H132576   6.334   6.717   2.912
10158WAT     H232577   6.348   6.829   3.014
10159WAT      O32578   6.557   6.868   3.048
10159WAT     H132579   6.585   6.842   2.960
10159WAT     H232580   6.608   6.812   3.107
10160WAT      O32581   6.678   5.242   3.106
10160WAT     H132582   6.600   5.289   3.134
10160WAT     H232583   6.649   5.151   3.095
10161WAT      O32584   7.134   5.312   2.910
10161WAT     H132585   7.178   5.306   2.825
10161WAT     H232586   7.107   5.403   2.917
10162WAT      O32587   7.320   5.275   2.711
10162WAT     H132588   7.314   5.181   2.697
10162WAT     H232589   7.398   5.286   2.766
10163WAT      O32590   5.751   6.889   2.607
10163WAT     H132591   5.734   6.826   2.677
10163WAT     H232592   5.664   6.910   2.572
10164WAT      O32593   6.467   5.483   2.657
10164WAT     H132594   6.386   5.446   2.623
10164WAT     H232595   6.517   5.408   2.687
10165WAT      O32596   6.917   5.150   2.781
10165WAT     H132597   6.978   5.207   2.828
10165WAT     H232598   6.843   5.206   2.758
10166WAT      O32599   7.232   5.190   2.308
10166WAT     H132600   7.251   5.280   2.335
10166WAT     H232601   7.153   5.167   2.357
10167WAT      O32602   5.911   6.758   2.352
10167WAT     H132603   5.859   6.796   2.282
10167WAT     H232604   5.904   6.821   2.424
10168WAT      O32605   6.050   5.325   2.212
10168WAT     H132606   6.103   5.246   2.199
10168WAT     H232607   6.113   5.393   2.235
10169WAT      O32608   6.270   5.298   2.517
10169WAT     H132609   6.207   5.228   2.534
10169WAT     H232610   6.216   5.375   2.496
10170WAT      O32611   6.563   6.960   3.784
10170WAT     H132612   6.656   6.936   3.789
10170WAT     H232613   6.562   7.043   3.736
10171WAT      O32614   7.387   6.914   2.484
10171WAT     H132615   7.404   6.845   2.420
10171WAT     H232616   7.317   6.967   2.445
10172WAT      O32617   6.171   6.953   2.239
10172WAT     H132618   6.244   6.925   2.185
10172WAT     H232619   6.197   6.929   2.328
10173WAT      O32620   6.087   6.565   2.240
10173WAT     H132621   6.024   6.612   2.295
10173WAT     H232622   6.099   6.480   2.283
10174WAT      O32623   7.220   6.883   3.767
10174WAT     H132624   7.299   6.833   3.746
10174WAT     H232625   7.250   6.950   3.827
10175WAT      O32626   6.833   5.970   0.855
10175WAT     H132627   6.825   5.878   0.828
10175WAT     H232628   6.791   6.019   0.784
10176WAT      O32629   6.646   6.148   1.043
10176WAT     H132630   6.568   6.100   1.072
10176WAT     H232631   6.711   6.080   1.026
10177WAT      O32632   6.048   6.179   1.131
10177WAT     H132633   5.964   6.153   1.171
10177WAT     H232634   6.108   6.186   1.204
10178WAT      O32635   7.048   6.588   0.921
10178WAT     H132636   7.002   6.511   0.954
10178WAT     H232637   7.129   6.591   0.972
10179WAT      O32638   6.046   6.582   1.150
10179WAT     H132639   6.076   6.493   1.132
10179WAT     H232640   6.120   6.638   1.128
10180WAT      O32641   5.889   5.675   0.509
10180WAT     H132642   5.800   5.709   0.499
10180WAT     H232643   5.917   5.655   0.420
10181WAT      O32644   5.685   5.935   1.098
10181WAT     H132645   5.742   5.858   1.098
10181WAT     H232646   5.685   5.965   1.007
10182WAT      O32647   6.671   6.817   0.883
10182WAT     H132648   6.609   6.862   0.826
10182WAT     H232649   6.756   6.832   0.843
10183WAT      O32650   6.590   6.415   1.044
10183WAT     H132651   6.583   6.321   1.028
10183WAT     H232652   6.666   6.424   1.101
10184WAT      O32653   5.809   5.476   1.276
10184WAT     H132654   5.791   5.386   1.304
10184WAT     H232655   5.769   5.530   1.344
10185WAT      O32656   6.693   5.696   1.066
10185WAT     H132657   6.731   5.609   1.055
10185WAT     H232658   6.683   5.729   0.977
10186WAT      O32659   6.106   5.533   0.613
10186WAT     H132660   6.117   5.623   0.643
10186WAT     H232661   6.015   5.528   0.584
10187WAT      O32662   7.071   5.445   0.760
10187WAT     H132663   7.153   5.396   0.764
10187WAT     H232664   7.075   5.504   0.835
10188WAT      O32665   5.871   5.725   1.137
10188WAT     H132666   5.939   5.752   1.199
10188WAT     H232667   5.839   5.641   1.170
10189WAT      O32668   6.290   5.830   1.046
10189WAT     H132669   6.341   5.880   1.110
10189WAT     H232670   6.343   5.752   1.028
10190WAT      O32671   7.500   5.647   1.416
10190WAT     H132672   7.430   5.686   1.364
10190WAT     H232673   7.527   5.717   1.476
10191WAT      O32674   6.119   5.294   1.472
10191WAT     H132675   6.119   5.346   1.392
10191WAT     H232676   6.036   5.246   1.470
10192WAT      O32677   6.757   6.305   0.622
10192WAT     H132678   6.695   6.352   0.566
10192WAT     H232679   6.809   6.374   0.664
10193WAT      O32680   6.244   6.258   1.290
10193WAT     H132681   6.210   6.321   1.354
10193WAT     H232682   6.261   6.311   1.212
10194WAT      O32683   7.095   5.639   1.037
10194WAT     H132684   7.025   5.668   1.095
10194WAT     H232685   7.131   5.720   1.001
10195WAT      O32686   6.087   5.465   1.273
10195WAT     H132687   6.121   5.549   1.244
10195WAT     H232688   5.993   5.480   1.285
10196WAT      O32689   6.165   6.455   1.472
10196WAT     H132690   6.227   6.522   1.444
10196WAT     H232691   6.079   6.496   1.463
10197WAT      O32692   5.694   6.374   0.360
10197WAT     H132693   5.656   6.423   0.287
10197WAT     H232694   5.720   6.441   0.423
10198WAT      O32695   7.257   6.601   1.263
10198WAT     H132696   7.188   6.668   1.262
10198WAT     H232697   7.311   6.621   1.187
10199WAT      O32698   7.402   5.584   1.076
10199WAT     H132699   7.307   5.587   1.089
10199WAT     H232700   7.434   5.665   1.115
10200WAT      O32701   6.455   5.214   0.906
10200WAT     H132702   6.486   5.158   0.834
10200WAT     H232703   6.362   5.227   0.887
10201WAT      O32704   7.010   6.786   1.135
10201WAT     H132705   7.011   6.745   1.048
10201WAT     H232706   6.955   6.863   1.124
10202WAT      O32707   7.140   6.458   0.644
10202WAT     H132708   7.129   6.363   0.656
10202WAT     H232709   7.139   6.494   0.732
10203WAT      O32710   6.950   6.276   1.267
10203WAT     H132711   6.992   6.254   1.184
10203WAT     H232712   7.022   6.302   1.325
10204WAT      O32713   6.694   6.020   0.579
10204WAT     H132714   6.601   6.014   0.602
10204WAT     H232715   6.709   6.114   0.568
10205WAT      O32716   6.693   5.648   0.279
10205WAT     H132717   6.599   5.664   0.287
10205WAT     H232718   6.724   5.719   0.224
10206WAT      O32719   7.345   6.116   1.277
10206WAT     H132720   7.262   6.123   1.229
10206WAT     H232721   7.404   6.174   1.230
10207WAT      O32722   7.097   6.177   0.630
10207WAT     H132723   7.035   6.143   0.565
10207WAT     H232724   7.095   6.112   0.700
10208WAT      O32725   7.041   5.794   1.371
10208WAT     H132726   7.000   5.877   1.397
10208WAT     H232727   6.968   5.736   1.352
10209WAT      O32728   6.254   6.073   0.857
10209WAT     H132729   6.214   6.002   0.808
10209WAT     H232730   6.263   6.039   0.946
10210WAT      O32731   6.301   6.442   1.074
10210WAT     H132732   6.272   6.381   1.006
10210WAT     H232733   6.396   6.445   1.063
10211WAT      O32734   6.126   5.750   1.235
10211WAT     H132735   6.181   5.761   1.158
10211WAT     H232736   6.177   5.788   1.307
10212WAT      O32737   7.110   6.799   1.440
10212WAT     H132738   7.062   6.880   1.421
10212WAT     H232739   7.042   6.734   1.455
10213WAT      O32740   6.210   6.415   1.739
10213WAT     H132741   6.121   6.438   1.764
10213WAT     H232742   6.213   6.428   1.644
10214WAT      O32743   6.914   6.100   0.330
10214WAT     H132744   6.958   6.017   0.316
10214WAT     H232745   6.986   6.164   0.339
10215WAT      O32746   6.093   6.103   1.596
10215WAT     H132747   6.079   6.190   1.633
10215WAT     H232748   6.005   6.068   1.582
10216WAT      O32749   6.725   6.594   0.727
10216WAT     H132750   6.769   6.669   0.686
10216WAT     H232751   6.719   6.619   0.819
10217WAT      O32752   6.273   6.697   1.817
10217WAT     H132753   6.270   6.737   1.731
10217WAT     H232754   6.257   6.604   1.801
10218WAT      O32755   5.924   5.962   0.607
10218WAT     H132756   5.912   6.035   0.546
10218WAT     H232757   5.893   5.885   0.560
10219WAT      O32758   7.468   6.775   1.947
10219WAT     H132759   7.516   6.823   2.015
10219WAT     H232760   7.530   6.768   1.874
10220WAT      O32761   5.688   6.280   1.188
10220WAT     H132762   5.696   6.293   1.094
10220WAT     H232763   5.750   6.209   1.207
10221WAT      O32764   5.813   6.450   0.829
10221WAT     H132765   5.772   6.464   0.744
10221WAT     H232766   5.902   6.421   0.809
10222WAT      O32767   7.408   6.494   1.663
10222WAT     H132768   7.421   6.470   1.571
10222WAT     H232769   7.413   6.411   1.710
10223WAT      O32770   6.795   6.865   1.520
10223WAT     H132771   6.846   6.856   1.600
10223WAT     H232772   6.710   6.899   1.549
10224WAT      O32773   6.992   6.893   0.463
10224WAT     H132774   6.976   6.864   0.553
10224WAT     H232775   6.976   6.815   0.409
10225WAT      O32776   6.240   6.871   0.640
10225WAT     H132777   6.222   6.779   0.619
10225WAT     H232778   6.155   6.907   0.664
10226WAT      O32779   6.962   6.644   0.319
10226WAT     H132780   6.893   6.644   0.253
10226WAT     H232781   7.037   6.602   0.276
10227WAT      O32782   6.919   6.807   0.726
10227WAT     H132783   6.964   6.728   0.758
10227WAT     H232784   6.953   6.878   0.781
10228WAT      O32785   7.394   5.700   1.759
10228WAT     H132786   7.332   5.750   1.707
10228WAT     H232787   7.362   5.610   1.754
10229WAT      O32788   5.694   6.384   1.442
10229WAT     H132789   5.710   6.337   1.360
10229WAT     H232790   5.740   6.333   1.509
10230WAT      O32791   6.171   5.297   0.946
10230WAT     H132792   6.127   5.375   0.913
10230WAT     H232793   6.227   5.329   1.016
10231WAT      O32794   6.600   5.583   1.506
10231WAT     H132795   6.554   5.604   1.587
10231WAT     H232796   6.560   5.502   1.476
10232WAT      O32797   7.100   5.706   1.619
10232WAT     H132798   7.015   5.676   1.651
10232WAT     H232799   7.084   5.730   1.528
10233WAT      O32800   6.809   5.856   1.829
10233WAT     H132801   6.842   5.772   1.795
10233WAT     H232802   6.888   5.908   1.844
10234WAT      O32803   6.483   5.259   0.434
10234WAT     H132804   6.420   5.259   0.506
10234WAT     H232805   6.474   5.172   0.394
10235WAT      O32806   6.375   5.351   1.132
10235WAT     H132807   6.405   5.442   1.124
10235WAT     H232808   6.430   5.302   1.070
10236WAT      O32809   6.150   5.809   0.719
10236WAT     H132810   6.128   5.788   0.809
10236WAT     H232811   6.072   5.852   0.684
10237WAT      O32812   6.873   5.810   0.578
10237WAT     H132813   6.813   5.882   0.560
10237WAT     H232814   6.928   5.804   0.500
10238WAT      O32815   6.394   5.899   1.785
10238WAT     H132816   6.385   5.805   1.770
10238WAT     H232817   6.479   5.921   1.746
10239WAT      O32818   6.734   5.673   0.781
10239WAT     H132819   6.773   5.705   0.700
10239WAT     H232820   6.770   5.586   0.793
10240WAT      O32821   5.907   5.540   1.600
10240WAT     H132822   5.868   5.625   1.621
10240WAT     H232823   5.839   5.476   1.620
10241WAT      O32824   6.565   5.548   1.907
10241WAT     H132825   6.496   5.529   1.971
10241WAT     H232826   6.639   5.577   1.961
10242WAT      O32827   5.638   5.332   1.004
10242WAT     H132828   5.609   5.389   1.075
10242WAT     H232829   5.712   5.284   1.040
10243WAT      O32830   6.792   5.932   1.191
10243WAT     H132831   6.719   5.983   1.226
10243WAT     H232832   6.753   5.851   1.161
10244WAT      O32833   6.436   5.600   1.031
10244WAT     H132834   6.437   5.556   0.947
10244WAT     H232835   6.526   5.632   1.042
10245WAT      O32836   6.021   5.588   0.927
10245WAT     H132837   5.987   5.636   1.003
10245WAT     H232838   5.945   5.543   0.891
10246WAT      O32839   6.442   5.700   0.331
10246WAT     H132840   6.455   5.696   0.425
10246WAT     H232841   6.404   5.786   0.315
10247WAT      O32842   6.839   5.478   1.132
10247WAT     H132843   6.840   5.523   1.217
10247WAT     H232844   6.814   5.388   1.154
10248WAT      O32845   6.344   5.931   0.270
10248WAT     H132846   6.287   5.886   0.208
10248WAT     H232847   6.414   5.967   0.217
10249WAT      O32848   7.181   5.219   1.716
10249WAT     H132849   7.214   5.146   1.769
10249WAT     H232850   7.185   5.187   1.626
10250WAT      O32851   5.851   6.321   1.658
10250WAT     H132852   5.813   6.257   1.718
10250WAT     H232853   5.882   6.392   1.715
10251WAT      O32854   6.466   6.006   1.206
10251WAT     H132855   6.503   5.959   1.281
10251WAT     H232856   6.447   6.093   1.240
10252WAT      O32857   5.753   5.480   0.819
10252WAT     H132858   5.724   5.444   0.903
10252WAT     H232859   5.746   5.407   0.758
10253WAT      O32860   6.245   5.910   1.438
10253WAT     H132861   6.215   5.998   1.460
10253WAT     H232862   6.341   5.916   1.442
10254WAT      O32863   6.098   6.331   0.498
10254WAT     H132864   6.021   6.277   0.482
10254WAT     H232865   6.171   6.279   0.464
10255WAT      O32866   7.174   6.230   1.077
10255WAT     H132867   7.246   6.280   1.038
10255WAT     H232868   7.154   6.163   1.012
10256WAT      O32869   6.720   5.370   0.491
10256WAT     H132870   6.639   5.320   0.484
10256WAT     H232871   6.701   5.454   0.450
10257WAT      O32872   6.712   6.237   1.666
10257WAT     H132873   6.706   6.145   1.640
10257WAT     H232874   6.649   6.247   1.737
10258WAT      O32875   6.992   5.807   0.321
10258WAT     H132876   7.080   5.838   0.303
10258WAT     H232877   6.989   5.720   0.282
10259WAT      O32878   6.102   6.298   0.861
10259WAT     H132879   6.154   6.217   0.856
10259WAT     H232880   6.057   6.291   0.946
10260WAT      O32881   6.591   6.424   0.389
10260WAT     H132882   6.625   6.499   0.339
10260WAT     H232883   6.508   6.455   0.425
10261WAT      O32884   5.851   5.994   1.553
10261WAT     H132885   5.815   6.061   1.611
10261WAT     H232886   5.821   5.911   1.590
10262WAT      O32887   6.171   6.040   1.841
10262WAT     H132888   6.141   6.055   1.751
10262WAT     H232889   6.248   5.984   1.832
10263WAT      O32890   6.705   6.520   1.641
10263WAT     H132891   6.707   6.426   1.619
10263WAT     H232892   6.635   6.528   1.705
10264WAT      O32893   7.219   5.938   0.268
10264WAT     H132894   7.210   5.981   0.183
10264WAT     H232895   7.291   5.984   0.311
10265WAT      O32896   7.326   6.184   1.575
10265WAT     H132897   7.254   6.243   1.556
10265WAT     H232898   7.379   6.183   1.495
10266WAT      O32899   7.322   6.623   0.540
10266WAT     H132900   7.257   6.558   0.568
10266WAT     H232901   7.283   6.664   0.463
10267WAT      O32902   6.879   6.356   0.925
10267WAT     H132903   6.915   6.297   0.859
10267WAT     H232904   6.791   6.324   0.942
10268WAT      O32905   6.488   6.432   0.666
10268WAT     H132906   6.557   6.487   0.704
10268WAT     H232907   6.409   6.487   0.669
10269WAT      O32908   5.702   5.994   0.215
10269WAT     H132909   5.789   6.022   0.243
10269WAT     H232910   5.653   6.075   0.204
10270WAT      O32911   6.418   6.133   0.627
10270WAT     H132912   6.464   6.214   0.650
10270WAT     H232913   6.383   6.101   0.710
10271WAT      O32914   6.649   6.684   1.350
10271WAT     H132915   6.713   6.704   1.418
10271WAT     H232916   6.685   6.608   1.305
10272WAT      O32917   6.008   5.167   0.674
10272WAT     H132918   5.996   5.166   0.769
10272WAT     H232919   5.926   5.201   0.639
10273WAT      O32920   6.776   6.484   1.222
10273WAT     H132921   6.840   6.414   1.233
10273WAT     H232922   6.828   6.562   1.204
10274WAT      O32923   6.953   6.564   1.542
10274WAT     H132924   6.987   6.623   1.610
10274WAT     H232925   6.861   6.551   1.565
10275WAT      O32926   5.739   6.915   0.272
10275WAT     H132927   5.775   6.975   0.206
10275WAT     H232928   5.725   6.970   0.349
10276WAT      O32929   5.708   5.343   1.620
10276WAT     H132930   5.637   5.363   1.681
10276WAT     H232931   5.750   5.265   1.658
10277WAT      O32932   7.119   6.304   0.360
10277WAT     H132933   7.090   6.350   0.439
10277WAT     H232934   7.198   6.258   0.387
10278WAT      O32935   5.737   6.742   1.719
10278WAT     H132936   5.748   6.648   1.705
10278WAT     H232937   5.672   6.768   1.654
10279WAT      O32938   6.536   6.569   1.859
10279WAT     H132939   6.504   6.497   1.914
10279WAT     H232940   6.469   6.637   1.866
10280WAT      O32941   6.340   6.654   0.353
10280WAT     H132942   6.339   6.727   0.292
10280WAT     H232943   6.248   6.629   0.363
10281WAT      O32944   5.900   6.176   0.428
10281WAT     H132945   5.840   6.250   0.429
10281WAT     H232946   5.948   6.185   0.345
10282WAT      O32947   6.858   5.592   1.395
10282WAT     H132948   6.895   5.510   1.428
10282WAT     H232949   6.772   5.598   1.437
10283WAT      O32950   7.194   5.488   0.476
10283WAT     H132951   7.132   5.498   0.405
10283WAT     H232952   7.145   5.510   0.555
10284WAT      O32953   6.391   5.716   0.618
10284WAT     H132954   6.320   5.763   0.662
10284WAT     H232955   6.420   5.650   0.681
10285WAT      O32956   6.554   5.858   1.418
10285WAT     H132957   6.604   5.905   1.484
10285WAT     H232958   6.568   5.765   1.439
10286WAT      O32959   6.794   5.388   0.762
10286WAT     H132960   6.782   5.390   0.667
10286WAT     H232961   6.889   5.393   0.774
10287WAT      O32962   6.503   6.912   0.689
10287WAT     H132963   6.529   6.908   0.597
10287WAT     H232964   6.408   6.899   0.688
10288WAT      O32965   6.212   5.547   0.355
10288WAT     H132966   6.296   5.590   0.349
10288WAT     H232967   6.175   5.578   0.438
10289WAT      O32968   7.274   5.479   1.502
10289WAT     H132969   7.224   5.553   1.536
10289WAT     H232970   7.356   5.518   1.470
10290WAT      O32971   7.104   6.004   0.847
10290WAT     H132972   7.010   6.005   0.864
10290WAT     H232973   7.135   5.925   0.891
10291WAT      O32974   5.971   5.915   0.271
10291WAT     H132975   5.979   5.820   0.282
10291WAT     H232976   6.060   5.948   0.282
10292WAT      O32977   7.304   6.721   1.014
10292WAT     H132978   7.316   6.803   1.061
10292WAT     H232979   7.391   6.700   0.979
10293WAT      O32980   6.051   6.930   0.981
10293WAT     H132981   6.125   6.875   1.009
10293WAT     H232982   6.090   7.017   0.967
10294WAT      O32983   5.740   6.537   0.569
10294WAT     H132984   5.647   6.561   0.568
10294WAT     H232985   5.786   6.620   0.557
10295WAT      O32986   5.952   6.849   1.900
10295WAT     H132987   6.032   6.881   1.942
10295WAT     H232988   5.900   6.813   1.972
10296WAT      O32989   6.835   6.459   1.895
10296WAT     H132990   6.775   6.462   1.821
10296WAT     H232991   6.805   6.386   1.949
10297WAT      O32992   6.978   6.832   1.756
10297WAT     H132993   7.074   6.824   1.751
10297WAT     H232994   6.964   6.899   1.823
10298WAT      O32995   7.267   6.770   0.306
10298WAT     H132996   7.239   6.729   0.225
10298WAT     H232997   7.248   6.863   0.294
10299WAT      O32998   5.724   6.097   1.795
10299WAT     H132999   5.774   6.039   1.852
10299WAT     H233000   5.650   6.126   1.848
10300WAT      O33001   6.429   6.238   1.748
10300WAT     H133002   6.353   6.295   1.740
10300WAT     H233003   6.447   6.209   1.659
10301WAT      O33004   6.738   6.276   0.211
10301WAT     H133005   6.683   6.320   0.275
10301WAT     H233006   6.800   6.225   0.263
10302WAT      O33007   7.143   6.411   1.804
10302WAT     H133008   7.217   6.445   1.753
10302WAT     H233009   7.067   6.428   1.748
10303WAT      O33010   5.927   5.912   1.884
10303WAT     H133011   5.931   5.882   1.975
10303WAT     H233012   6.012   5.952   1.868
10304WAT      O33013   6.305   6.172   0.400
10304WAT     H133014   6.347   6.155   0.484
10304WAT     H233015   6.317   6.091   0.351
10305WAT      O33016   6.121   5.770   1.681
10305WAT     H133017   6.068   5.720   1.618
10305WAT     H233018   6.188   5.812   1.627
10306WAT      O33019   7.011   6.216   1.657
10306WAT     H133020   7.052   6.232   1.742
10306WAT     H233021   6.917   6.229   1.674
10307WAT      O33022   7.058   5.950   1.858
10307WAT     H133023   7.116   5.875   1.849
10307WAT     H233024   7.076   6.003   1.780
10308WAT      O33025   6.170   5.466   1.689
10308WAT     H133026   6.160   5.404   1.616
10308WAT     H233027   6.112   5.539   1.666
10309WAT      O33028   6.446   5.322   1.392
10309WAT     H133029   6.401   5.324   1.308
10309WAT     H233030   6.383   5.282   1.452
10310WAT      O33031   6.487   6.211   1.454
10310WAT     H133032   6.529   6.296   1.437
10310WAT     H233033   6.395   6.225   1.431
10311WAT      O33034   6.721   5.985   1.593
10311WAT     H133035   6.732   5.925   1.667
10311WAT     H233036   6.806   5.988   1.551
10312WAT      O33037   6.954   6.040   1.450
10312WAT     H133038   6.902   6.092   1.390
10312WAT     H233039   6.989   6.103   1.513
10313WAT      O33040   6.272   6.842   1.566
10313WAT     H133041   6.218   6.914   1.534
10313WAT     H233042   6.297   6.794   1.487
10314WAT      O33043   6.397   5.639   1.718
10314WAT     H133044   6.456   5.608   1.787
10314WAT     H233045   6.315   5.592   1.734
10315WAT      O33046   6.879   5.600   1.742
10315WAT     H133047   6.810   5.534   1.735
10315WAT     H233048   6.951   5.556   1.786
10316WAT      O33049   6.942   5.260   0.348
10316WAT     H133050   6.970   5.176   0.383
10316WAT     H233051   6.865   5.283   0.399
10317WAT      O33052   6.558   6.965   1.592
10317WAT     H133053   6.550   7.056   1.622
10317WAT     H233054   6.467   6.934   1.589
10318WAT      O33055   6.612   6.882   0.354
10318WAT     H133056   6.702   6.916   0.356
10318WAT     H233057   6.616   6.810   0.291
10319WAT      O33058   5.976   6.419   0.177
10319WAT     H133059   6.020   6.474   0.242
10319WAT     H233060   6.025   6.337   0.178
10320WAT      O33061   5.698   6.698   0.922
10320WAT     H133062   5.731   6.611   0.899
10320WAT     H233063   5.741   6.719   1.005
10321WAT      O33064   6.157   6.531   0.688
10321WAT     H133065   6.127   6.519   0.778
10321WAT     H233066   6.147   6.445   0.647
10322WAT      O33067   5.747   6.785   1.196
10322WAT     H133068   5.703   6.803   1.279
10322WAT     H233069   5.804   6.861   1.182
10323WAT      O33070   7.310   6.735   1.625
10323WAT     H133071   7.250   6.741   1.550
10323WAT     H233072   7.323   6.641   1.638
10324WAT      O33073   7.380   6.184   0.409
10324WAT     H133074   7.456   6.241   0.419
10324WAT     H233075   7.382   6.127   0.486
10325WAT      O33076   5.730   6.036   0.832
10325WAT     H133077   5.665   6.009   0.767
10325WAT     H233078   5.814   6.025   0.787
10326WAT      O33079   7.481   6.269   0.893
10326WAT     H133080   7.518   6.191   0.852
10326WAT     H233081   7.545   6.338   0.875
10327WAT      O33082   7.179   6.408   1.434
10327WAT     H133083   7.098   6.451   1.461
10327WAT     H233084   7.220   6.469   1.373
10328WAT      O33085   7.025   5.516   0.254
10328WAT     H133086   7.067   5.497   0.170
10328WAT     H233087   6.994   5.430   0.285
10329WAT      O33088   7.375   6.007   0.624
10329WAT     H133089   7.337   5.930   0.580
10329WAT     H233090   7.302   6.045   0.672
10330WAT      O33091   5.834   6.075   1.286
10330WAT     H133092   5.871   6.066   1.374
10330WAT     H233093   5.777   5.998   1.276
10331WAT      O33094   7.314   5.921   1.587
10331WAT     H133095   7.291   5.899   1.497
10331WAT     H233096   7.340   6.013   1.583
10332WAT      O33097   5.789   5.766   1.676
10332WAT     H133098   5.699   5.762   1.710
10332WAT     H233099   5.843   5.786   1.753
10333WAT      O33100   7.158   5.444   1.865
10333WAT     H133101   7.245   5.445   1.903
10333WAT     H233102   7.159   5.370   1.804
10334WAT      O33103   5.651   5.757   0.426
10334WAT     H133104   5.561   5.783   0.409
10334WAT     H233105   5.700   5.784   0.348
10335WAT      O33106   7.302   5.829   0.954
10335WAT     H133107   7.355   5.780   0.891
10335WAT     H233108   7.361   5.843   1.028
10336WAT      O33109   7.320   5.838   1.306
10336WAT     H133110   7.225   5.834   1.317
10336WAT     H233111   7.338   5.929   1.282
10337WAT      O33112   7.251   5.755   0.548
10337WAT     H133113   7.301   5.732   0.626
10337WAT     H233114   7.231   5.671   0.506
10338WAT      O33115   5.839   5.193   1.111
10338WAT     H133116   5.904   5.138   1.067
10338WAT     H233117   5.881   5.219   1.193
10339WAT      O33118   7.394   5.619   0.801
10339WAT     H133119   7.383   5.603   0.895
10339WAT     H233120   7.470   5.566   0.777
10340WAT      O33121   7.229   5.213   1.447
10340WAT     H133122   7.293   5.274   1.483
10340WAT     H233123   7.244   5.216   1.352
10341WAT      O33124   7.490   5.479   0.388
10341WAT     H133125   7.411   5.472   0.441
10341WAT     H233126   7.511   5.572   0.387
10342WAT      O33127   7.185   6.883   0.787
10342WAT     H133128   7.244   6.851   0.719
10342WAT     H233129   7.210   6.835   0.866
10343WAT      O33130   5.815   5.209   1.385
10343WAT     H133131   5.780   5.254   1.462
10343WAT     H233132   5.782   5.119   1.394
10344WAT      O33133   5.975   6.526   1.802
10344WAT     H133134   5.971   6.489   1.890
10344WAT     H233135   5.988   6.620   1.816
10345WAT      O33136   6.345   6.682   1.362
10345WAT     H133137   6.321   6.708   1.273
10345WAT     H233138   6.439   6.699   1.368
10346WAT      O33139   6.566   5.328   1.738
10346WAT     H133140   6.560   5.387   1.813
10346WAT     H233141   6.660   5.317   1.723
10347WAT      O33142   6.830   5.294   1.702
10347WAT     H133143   6.891   5.325   1.635
10347WAT     H233144   6.884   5.245   1.764
10348WAT      O33145   7.471   6.883   1.442
10348WAT     H133146   7.422   6.923   1.370
10348WAT     H233147   7.411   6.821   1.482
10349WAT      O33148   5.882   5.162   1.713
10349WAT     H133149   5.937   5.143   1.637
10349WAT     H233150   5.888   5.082   1.767
10350WAT      O33151   5.959   6.821   1.514
10350WAT     H133152   5.900   6.807   1.588
10350WAT     H233153   5.958   6.737   1.467
10351WAT      O33154   6.904   5.150   1.334
10351WAT     H133155   6.816   5.183   1.314
10351WAT     H233156   6.893   5.103   1.417
10352WAT      O33157   6.994   5.371   1.473
10352WAT     H133158   6.962   5.289   1.435
10352WAT     H233159   7.089   5.366   1.460
10353WAT      O33160   7.240   6.948   1.170
10353WAT     H133161   7.194   7.023   1.133
10353WAT     H233162   7.177   6.876   1.164
10354WAT      O33163   5.922   6.557   1.409
10354WAT     H133164   5.850   6.495   1.402
10354WAT     H233165   5.928   6.597   1.322
10355WAT      O33166   6.283   6.779   1.088
10355WAT     H133167   6.334   6.717   1.035
10355WAT     H233168   6.348   6.829   1.137
10356WAT      O33169   6.557   6.868   1.170
10356WAT     H133170   6.585   6.842   1.083
10356WAT     H233171   6.608   6.812   1.229
10357WAT      O33172   6.678   5.242   1.228
10357WAT     H133173   6.600   5.289   1.256
10357WAT     H233174   6.649   5.151   1.217
10358WAT      O33175   7.134   5.312   1.033
10358WAT     H133176   7.178   5.306   0.948
10358WAT     H233177   7.107   5.403   1.040
10359WAT      O33178   7.320   5.275   0.834
10359WAT     H133179   7.314   5.181   0.819
10359WAT     H233180   7.398   5.286   0.888
10360WAT      O33181   5.751   6.889   0.730
10360WAT     H133182   5.734   6.826   0.800
10360WAT     H233183   5.664   6.910   0.695
10361WAT      O33184   5.813   5.272   0.480
10361WAT     H133185   5.889   5.283   0.423
10361WAT     H233186   5.767   5.356   0.476
10362WAT      O33187   6.467   5.483   0.779
10362WAT     H133188   6.386   5.446   0.745
10362WAT     H233189   6.517   5.408   0.810
10363WAT      O33190   6.917   5.150   0.903
10363WAT     H133191   6.978   5.207   0.951
10363WAT     H233192   6.843   5.206   0.881
10364WAT      O33193   7.232   5.190   0.431
10364WAT     H133194   7.251   5.280   0.457
10364WAT     H233195   7.153   5.167   0.480
10365WAT      O33196   5.911   6.758   0.474
10365WAT     H133197   5.859   6.796   0.404
10365WAT     H233198   5.904   6.821   0.547
10366WAT      O33199   6.050   5.325   0.334
10366WAT     H133200   6.103   5.246   0.321
10366WAT     H233201   6.113   5.393   0.358
10367WAT      O33202   6.270   5.298   0.640
10367WAT     H133203   6.207   5.228   0.656
10367WAT     H233204   6.216   5.375   0.618
10368WAT      O33205   6.563   6.960   1.907
10368WAT     H133206   6.656   6.936   1.911
10368WAT     H233207   6.562   7.043   1.859
10369WAT      O33208   7.387   6.914   0.607
10369WAT     H133209   7.404   6.845   0.542
10369WAT     H233210   7.317   6.967   0.567
10370WAT      O33211   6.282   5.226   1.883
10370WAT     H133212   6.254   5.277   1.807
10370WAT     H233213   6.320   5.147   1.847
10371WAT      O33214   6.171   6.953   0.362
10371WAT     H133215   6.244   6.925   0.307
10371WAT     H233216   6.197   6.929   0.451
10372WAT      O33217   6.087   6.565   0.362
10372WAT     H133218   6.024   6.612   0.417
10372WAT     H233219   6.099   6.480   0.406
10373WAT      O33220   6.942   5.168   1.941
10373WAT     H133221   6.931   5.200   2.031
10373WAT     H233222   7.024   5.208   1.911
10374WAT      O33223   7.220   6.883   1.889
10374WAT     H133224   7.299   6.833   1.869
10374WAT     H233225   7.250   6.950   1.950
10375WAT      O33226   6.833   4.092   6.487
10375WAT     H133227   6.825   4.001   6.460
10375WAT     H233228   6.791   4.142   6.417
10376WAT      O33229   6.646   4.270   6.675
10376WAT     H133230   6.568   4.222   6.704
10376WAT     H233231   6.711   4.202   6.658
10377WAT      O33232   6.048   4.301   6.763
10377WAT     H133233   5.964   4.276   6.803
10377WAT     H233234   6.108   4.308   6.837
10378WAT      O33235   7.048   4.711   6.553
10378WAT     H133236   7.002   4.634   6.586
10378WAT     H233237   7.129   4.713   6.604
10379WAT      O33238   6.046   4.705   6.783
10379WAT     H133239   6.076   4.616   6.765
10379WAT     H233240   6.120   4.760   6.760
10380WAT      O33241   5.889   3.797   6.141
10380WAT     H133242   5.800   3.832   6.131
10380WAT     H233243   5.917   3.777   6.052
10381WAT      O33244   5.685   4.057   6.730
10381WAT     H133245   5.742   3.981   6.730
10381WAT     H233246   5.685   4.087   6.639
10382WAT      O33247   6.671   4.939   6.515
10382WAT     H133248   6.609   4.985   6.458
10382WAT     H233249   6.756   4.955   6.475
10383WAT      O33250   6.590   4.538   6.676
10383WAT     H133251   6.583   4.444   6.660
10383WAT     H233252   6.666   4.547   6.733
10384WAT      O33253   5.809   3.598   6.909
10384WAT     H133254   5.791   3.508   6.937
10384WAT     H233255   5.769   3.653   6.976
10385WAT      O33256   6.693   3.818   6.699
10385WAT     H133257   6.731   3.731   6.687
10385WAT     H233258   6.683   3.852   6.610
10386WAT      O33259   6.106   3.656   6.245
10386WAT     H133260   6.117   3.746   6.276
10386WAT     H233261   6.015   3.651   6.216
10387WAT      O33262   7.071   3.568   6.392
10387WAT     H133263   7.153   3.519   6.396
10387WAT     H233264   7.075   3.627   6.467
10388WAT      O33265   5.871   3.848   6.769
10388WAT     H133266   5.939   3.874   6.831
10388WAT     H233267   5.839   3.764   6.803
10389WAT      O33268   6.290   3.953   6.678
10389WAT     H133269   6.341   4.002   6.742
10389WAT     H233270   6.343   3.875   6.661
10390WAT      O33271   7.500   3.770   7.048
10390WAT     H133272   7.430   3.808   6.997
10390WAT     H233273   7.527   3.839   7.109
10391WAT      O33274   6.119   3.417   7.105
10391WAT     H133275   6.119   3.468   7.024
10391WAT     H233276   6.036   3.369   7.102
10392WAT      O33277   6.757   4.428   6.255
10392WAT     H133278   6.695   4.474   6.198
10392WAT     H233279   6.809   4.497   6.296
10393WAT      O33280   6.244   4.380   6.922
10393WAT     H133281   6.210   4.443   6.987
10393WAT     H233282   6.261   4.433   6.845
10394WAT      O33283   7.095   3.762   6.669
10394WAT     H133284   7.025   3.791   6.727
10394WAT     H233285   7.131   3.843   6.633
10395WAT      O33286   6.087   3.588   6.905
10395WAT     H133287   6.121   3.672   6.876
10395WAT     H233288   5.993   3.602   6.917
10396WAT      O33289   6.165   4.577   7.104
10396WAT     H133290   6.227   4.645   7.076
10396WAT     H233291   6.079   4.618   7.095
10397WAT      O33292   5.694   4.496   5.992
10397WAT     H133293   5.656   4.545   5.919
10397WAT     H233294   5.720   4.564   6.055
10398WAT      O33295   7.257   4.724   6.896
10398WAT     H133296   7.188   4.791   6.895
10398WAT     H233297   7.311   4.743   6.819
10399WAT      O33298   7.402   3.706   6.708
10399WAT     H133299   7.307   3.710   6.721
10399WAT     H233300   7.434   3.788   6.747
10400WAT      O33301   6.455   3.336   6.538
10400WAT     H133302   6.486   3.281   6.466
10400WAT     H233303   6.362   3.350   6.520
10401WAT      O33304   7.010   4.908   6.767
10401WAT     H133305   7.011   4.868   6.680
10401WAT     H233306   6.955   4.986   6.757
10402WAT      O33307   7.140   4.580   6.276
10402WAT     H133308   7.129   4.486   6.288
10402WAT     H233309   7.139   4.616   6.365
10403WAT      O33310   6.950   4.398   6.900
10403WAT     H133311   6.992   4.377   6.816
10403WAT     H233312   7.022   4.424   6.957
10404WAT      O33313   6.694   4.143   6.212
10404WAT     H133314   6.601   4.136   6.234
10404WAT     H233315   6.709   4.237   6.200
10405WAT      O33316   6.693   3.770   5.911
10405WAT     H133317   6.599   3.786   5.920
10405WAT     H233318   6.724   3.842   5.857
10406WAT      O33319   7.345   4.238   6.909
10406WAT     H133320   7.262   4.245   6.861
10406WAT     H233321   7.404   4.297   6.862
10407WAT      O33322   7.097   4.299   6.262
10407WAT     H133323   7.035   4.265   6.197
10407WAT     H233324   7.095   4.235   6.333
10408WAT      O33325   7.041   3.917   7.004
10408WAT     H133326   7.000   4.000   7.029
10408WAT     H233327   6.968   3.858   6.984
10409WAT      O33328   6.254   4.196   6.490
10409WAT     H133329   6.214   4.124   6.440
10409WAT     H233330   6.263   4.161   6.579
10410WAT      O33331   6.301   4.564   6.706
10410WAT     H133332   6.272   4.504   6.638
10410WAT     H233333   6.396   4.568   6.695
10411WAT      O33334   6.126   3.873   6.868
10411WAT     H133335   6.181   3.884   6.790
10411WAT     H233336   6.177   3.910   6.939
10412WAT      O33337   7.110   4.922   7.072
10412WAT     H133338   7.062   5.002   7.053
10412WAT     H233339   7.042   4.856   7.088
10413WAT      O33340   6.210   4.538   7.371
10413WAT     H133341   6.121   4.560   7.396
10413WAT     H233342   6.213   4.550   7.276
10414WAT      O33343   6.914   4.223   5.963
10414WAT     H133344   6.958   4.139   5.948
10414WAT     H233345   6.986   4.286   5.971
10415WAT      O33346   6.093   4.225   7.229
10415WAT     H133347   6.079   4.312   7.266
10415WAT     H233348   6.005   4.191   7.214
10416WAT      O33349   6.725   4.717   6.359
10416WAT     H133350   6.769   4.791   6.318
10416WAT     H233351   6.719   4.741   6.452
10417WAT      O33352   6.273   4.819   7.450
10417WAT     H133353   6.270   4.860   7.363
10417WAT     H233354   6.257   4.727   7.433
10418WAT      O33355   7.273   3.348   5.794
10418WAT     H133356   7.241   3.358   5.884
10418WAT     H233357   7.349   3.406   5.789
10419WAT      O33358   5.924   4.085   6.240
10419WAT     H133359   5.912   4.158   6.179
10419WAT     H233360   5.893   4.008   6.192
10420WAT      O33361   5.688   4.402   6.820
10420WAT     H133362   5.696   4.416   6.726
10420WAT     H233363   5.750   4.331   6.840
10421WAT      O33364   5.813   4.572   6.462
10421WAT     H133365   5.772   4.586   6.376
10421WAT     H233366   5.902   4.544   6.441
10422WAT      O33367   7.408   4.617   7.295
10422WAT     H133368   7.421   4.593   7.203
10422WAT     H233369   7.413   4.534   7.342
10423WAT      O33370   6.795   4.987   7.152
10423WAT     H133371   6.846   4.978   7.232
10423WAT     H233372   6.710   5.022   7.181
10424WAT      O33373   6.992   5.016   6.095
10424WAT     H133374   6.976   4.987   6.185
10424WAT     H233375   6.976   4.938   6.041
10425WAT      O33376   6.240   4.994   6.273
10425WAT     H133377   6.222   4.902   6.251
10425WAT     H233378   6.155   5.029   6.297
10426WAT      O33379   6.962   4.767   5.951
10426WAT     H133380   6.893   4.766   5.885
10426WAT     H233381   7.037   4.724   5.908
10427WAT      O33382   6.919   4.929   6.358
10427WAT     H133383   6.964   4.851   6.390
10427WAT     H233384   6.953   5.000   6.413
10428WAT      O33385   7.394   3.822   7.392
10428WAT     H133386   7.332   3.873   7.339
10428WAT     H233387   7.362   3.732   7.386
10429WAT      O33388   5.694   4.506   7.074
10429WAT     H133389   5.710   4.459   6.993
10429WAT     H233390   5.740   4.456   7.141
10430WAT      O33391   6.171   3.419   6.578
10430WAT     H133392   6.127   3.497   6.545
10430WAT     H233393   6.227   3.452   6.649
10431WAT      O33394   6.600   3.706   7.138
10431WAT     H133395   6.554   3.727   7.220
10431WAT     H233396   6.560   3.625   7.108
10432WAT      O33397   7.100   3.828   7.251
10432WAT     H133398   7.015   3.798   7.283
10432WAT     H233399   7.084   3.853   7.160
10433WAT      O33400   6.809   3.978   7.461
10433WAT     H133401   6.842   3.895   7.427
10433WAT     H233402   6.888   4.030   7.476
10434WAT      O33403   6.483   3.381   6.066
10434WAT     H133404   6.420   3.381   6.139
10434WAT     H233405   6.474   3.295   6.026
10435WAT      O33406   6.375   3.474   6.764
10435WAT     H133407   6.405   3.564   6.756
10435WAT     H233408   6.430   3.425   6.702
10436WAT      O33409   6.150   3.932   6.351
10436WAT     H133410   6.128   3.910   6.441
10436WAT     H233411   6.072   3.975   6.316
10437WAT      O33412   6.873   3.932   6.211
10437WAT     H133413   6.813   4.005   6.192
10437WAT     H233414   6.928   3.926   6.132
10438WAT      O33415   6.394   4.022   7.417
10438WAT     H133416   6.385   3.928   7.402
10438WAT     H233417   6.479   4.044   7.378
10439WAT      O33418   6.734   3.796   6.414
10439WAT     H133419   6.773   3.828   6.332
10439WAT     H233420   6.770   3.708   6.425
10440WAT      O33421   5.907   3.663   7.233
10440WAT     H133422   5.868   3.747   7.253
10440WAT     H233423   5.839   3.599   7.252
10441WAT      O33424   5.638   3.455   6.636
10441WAT     H133425   5.609   3.512   6.707
10441WAT     H233426   5.712   3.407   6.672
10442WAT      O33427   5.656   3.849   5.757
10442WAT     H133428   5.648   3.943   5.771
10442WAT     H233429   5.621   3.835   5.669
10443WAT      O33430   6.792   4.055   6.823
10443WAT     H133431   6.719   4.106   6.858
10443WAT     H233432   6.753   3.973   6.793
10444WAT      O33433   6.436   3.723   6.664
10444WAT     H133434   6.437   3.678   6.579
10444WAT     H233435   6.526   3.755   6.675
10445WAT      O33436   6.021   3.711   6.560
10445WAT     H133437   5.987   3.759   6.635
10445WAT     H233438   5.945   3.665   6.524
10446WAT      O33439   6.442   3.823   5.963
10446WAT     H133440   6.455   3.819   6.058
10446WAT     H233441   6.404   3.909   5.947
10447WAT      O33442   6.839   3.600   6.764
10447WAT     H133443   6.840   3.645   6.849
10447WAT     H233444   6.814   3.510   6.786
10448WAT      O33445   6.344   4.054   5.903
10448WAT     H133446   6.287   4.009   5.840
10448WAT     H233447   6.414   4.090   5.849
10449WAT      O33448   7.181   3.342   7.348
10449WAT     H133449   7.214   3.269   7.401
10449WAT     H233450   7.185   3.310   7.258
10450WAT      O33451   5.851   4.444   7.290
10450WAT     H133452   5.813   4.380   7.350
10450WAT     H233453   5.882   4.514   7.347
10451WAT      O33454   6.466   4.129   6.838
10451WAT     H133455   6.503   4.081   6.913
10451WAT     H233456   6.447   4.216   6.873
10452WAT      O33457   5.753   3.603   6.451
10452WAT     H133458   5.724   3.567   6.535
10452WAT     H233459   5.746   3.530   6.390
10453WAT      O33460   6.245   4.033   7.070
10453WAT     H133461   6.215   4.121   7.093
10453WAT     H233462   6.341   4.039   7.074
10454WAT      O33463   6.098   4.453   6.130
10454WAT     H133464   6.021   4.399   6.114
10454WAT     H233465   6.171   4.401   6.096
10455WAT      O33466   7.174   4.353   6.709
10455WAT     H133467   7.246   4.402   6.670
10455WAT     H233468   7.154   4.285   6.645
10456WAT      O33469   6.720   3.492   6.124
10456WAT     H133470   6.639   3.442   6.116
10456WAT     H233471   6.701   3.576   6.082
10457WAT      O33472   6.712   4.360   7.298
10457WAT     H133473   6.706   4.268   7.272
10457WAT     H233474   6.649   4.370   7.369
10458WAT      O33475   6.992   3.930   5.953
10458WAT     H133476   7.080   3.961   5.936
10458WAT     H233477   6.989   3.842   5.914
10459WAT      O33478   6.102   4.420   6.494
10459WAT     H133479   6.154   4.340   6.488
10459WAT     H233480   6.057   4.414   6.578
10460WAT      O33481   6.591   4.547   6.021
10460WAT     H133482   6.625   4.621   5.971
10460WAT     H233483   6.508   4.578   6.057
10461WAT      O33484   5.851   4.117   7.185
10461WAT     H133485   5.815   4.183   7.244
10461WAT     H233486   5.821   4.034   7.222
10462WAT      O33487   6.171   4.163   7.473
10462WAT     H133488   6.141   4.177   7.384
10462WAT     H233489   6.248   4.107   7.464
10463WAT      O33490   6.705   4.642   7.273
10463WAT     H133491   6.707   4.549   7.251
10463WAT     H233492   6.635   4.651   7.337
10464WAT      O33493   7.219   4.061   5.900
10464WAT     H133494   7.210   4.104   5.815
10464WAT     H233495   7.291   4.107   5.943
10465WAT      O33496   7.326   4.306   7.208
10465WAT     H133497   7.254   4.366   7.188
10465WAT     H233498   7.379   4.306   7.128
10466WAT      O33499   7.322   4.746   6.173
10466WAT     H133500   7.257   4.681   6.200
10466WAT     H233501   7.283   4.787   6.095
10467WAT      O33502   6.879   4.479   6.557
10467WAT     H133503   6.915   4.419   6.491
10467WAT     H233504   6.791   4.446   6.575
10468WAT      O33505   6.488   4.555   6.298
10468WAT     H133506   6.557   4.610   6.336
10468WAT     H233507   6.409   4.609   6.302
10469WAT      O33508   5.702   4.117   5.847
10469WAT     H133509   5.789   4.145   5.876
10469WAT     H233510   5.653   4.198   5.836
10470WAT      O33511   6.418   4.255   6.259
10470WAT     H133512   6.464   4.336   6.282
10470WAT     H233513   6.383   4.224   6.343
10471WAT      O33514   6.649   4.806   6.982
10471WAT     H133515   6.713   4.827   7.050
10471WAT     H233516   6.685   4.730   6.937
10472WAT      O33517   6.008   3.290   6.307
10472WAT     H133518   5.996   3.289   6.402
10472WAT     H233519   5.926   3.324   6.272
10473WAT      O33520   6.776   4.607   6.854
10473WAT     H133521   6.840   4.537   6.865
10473WAT     H233522   6.828   4.685   6.836
10474WAT      O33523   7.161   4.635   5.827
10474WAT     H133524   7.138   4.564   5.886
10474WAT     H233525   7.121   4.610   5.743
10475WAT      O33526   6.953   4.687   7.174
10475WAT     H133527   6.987   4.745   7.242
10475WAT     H233528   6.861   4.674   7.197
10476WAT      O33529   5.739   5.038   5.904
10476WAT     H133530   5.775   5.098   5.839
10476WAT     H233531   5.725   5.092   5.981
10477WAT      O33532   5.708   3.466   7.253
10477WAT     H133533   5.637   3.486   7.313
10477WAT     H233534   5.750   3.388   7.290
10478WAT      O33535   7.119   4.427   5.993
10478WAT     H133536   7.090   4.473   6.071
10478WAT     H233537   7.198   4.381   6.019
10479WAT      O33538   5.737   4.864   7.351
10479WAT     H133539   5.748   4.770   7.337
10479WAT     H233540   5.672   4.891   7.287
10480WAT      O33541   6.340   4.776   5.986
10480WAT     H133542   6.339   4.849   5.924
10480WAT     H233543   6.248   4.752   5.995
10481WAT      O33544   5.900   4.298   6.060
10481WAT     H133545   5.840   4.372   6.061
10481WAT     H233546   5.948   4.307   5.978
10482WAT      O33547   6.858   3.715   7.028
10482WAT     H133548   6.895   3.633   7.061
10482WAT     H233549   6.772   3.721   7.069
10483WAT      O33550   7.194   3.610   6.109
10483WAT     H133551   7.132   3.621   6.037
10483WAT     H233552   7.145   3.632   6.188
10484WAT      O33553   6.639   4.782   5.852
10484WAT     H133554   6.649   4.762   5.759
10484WAT     H233555   6.549   4.757   5.872
10485WAT      O33556   6.391   3.838   6.250
10485WAT     H133557   6.320   3.885   6.294
10485WAT     H233558   6.420   3.773   6.314
10486WAT      O33559   6.554   3.980   7.050
10486WAT     H133560   6.604   4.028   7.117
10486WAT     H233561   6.568   3.888   7.071
10487WAT      O33562   6.794   3.511   6.394
10487WAT     H133563   6.782   3.513   6.299
10487WAT     H233564   6.889   3.516   6.406
10488WAT      O33565   6.503   5.034   6.321
10488WAT     H133566   6.529   5.031   6.229
10488WAT     H233567   6.408   5.022   6.321
10489WAT      O33568   6.212   3.669   5.988
10489WAT     H133569   6.296   3.713   5.981
10489WAT     H233570   6.175   3.700   6.070
10490WAT      O33571   7.274   3.602   7.134
10490WAT     H133572   7.224   3.676   7.168
10490WAT     H233573   7.356   3.641   7.103
10491WAT      O33574   7.104   4.126   6.479
10491WAT     H133575   7.010   4.128   6.496
10491WAT     H233576   7.135   4.048   6.524
10492WAT      O33577   6.102   4.294   5.835
10492WAT     H133578   6.178   4.283   5.891
10492WAT     H233579   6.109   4.225   5.770
10493WAT      O33580   5.971   4.038   5.903
10493WAT     H133581   5.979   3.943   5.915
10493WAT     H233582   6.060   4.071   5.914
10494WAT      O33583   7.304   4.843   6.647
10494WAT     H133584   7.316   4.926   6.694
10494WAT     H233585   7.391   4.822   6.612
10495WAT      O33586   6.051   5.053   6.614
10495WAT     H133587   6.125   4.998   6.641
10495WAT     H233588   6.090   5.139   6.600
10496WAT      O33589   5.740   4.659   6.201
10496WAT     H133590   5.647   4.684   6.200
10496WAT     H233591   5.786   4.742   6.189
10497WAT      O33592   6.362   4.970   5.796
10497WAT     H133593   6.441   4.999   5.751
10497WAT     H233594   6.310   4.927   5.728
10498WAT      O33595   6.978   4.955   7.388
10498WAT     H133596   7.074   4.946   7.383
10498WAT     H233597   6.964   5.021   7.456
10499WAT      O33598   7.267   4.893   5.938
10499WAT     H133599   7.239   4.851   5.857
10499WAT     H233600   7.248   4.986   5.926
10500WAT      O33601   5.724   4.220   7.427
10500WAT     H133602   5.774   4.162   7.484
10500WAT     H233603   5.650   4.248   7.481
10501WAT      O33604   6.414   4.492   5.782
10501WAT     H133605   6.403   4.431   5.855
10501WAT     H233606   6.397   4.440   5.704
10502WAT      O33607   6.429   4.361   7.380
10502WAT     H133608   6.353   4.417   7.372
10502WAT     H233609   6.447   4.331   7.291
10503WAT      O33610   6.738   4.398   5.843
10503WAT     H133611   6.683   4.443   5.907
10503WAT     H233612   6.800   4.348   5.895
10504WAT      O33613   7.143   4.534   7.436
10504WAT     H133614   7.217   4.567   7.386
10504WAT     H233615   7.067   4.551   7.381
10505WAT      O33616   6.305   4.294   6.032
10505WAT     H133617   6.347   4.278   6.117
10505WAT     H233618   6.317   4.213   5.983
10506WAT      O33619   6.121   3.892   7.313
10506WAT     H133620   6.068   3.843   7.250
10506WAT     H233621   6.188   3.935   7.260
10507WAT      O33622   6.556   4.196   5.757
10507WAT     H133623   6.608   4.125   5.721
10507WAT     H233624   6.621   4.260   5.787
10508WAT      O33625   7.011   4.339   7.290
10508WAT     H133626   7.052   4.354   7.375
10508WAT     H233627   6.917   4.351   7.306
10509WAT      O33628   7.058   4.073   7.490
10509WAT     H133629   7.116   3.997   7.481
10509WAT     H233630   7.076   4.126   7.412
10510WAT      O33631   6.170   3.589   7.321
10510WAT     H133632   6.160   3.527   7.249
10510WAT     H233633   6.112   3.661   7.298
10511WAT      O33634   6.446   3.444   7.024
10511WAT     H133635   6.401   3.447   6.940
10511WAT     H233636   6.383   3.405   7.084
10512WAT      O33637   6.487   4.334   7.087
10512WAT     H133638   6.529   4.418   7.069
10512WAT     H233639   6.395   4.348   7.064
10513WAT      O33640   6.721   4.107   7.225
10513WAT     H133641   6.732   4.048   7.299
10513WAT     H233642   6.806   4.111   7.183
10514WAT      O33643   6.954   4.163   7.083
10514WAT     H133644   6.902   4.215   7.022
10514WAT     H233645   6.989   4.226   7.146
10515WAT      O33646   6.194   3.901   5.727
10515WAT     H133647   6.174   3.815   5.763
10515WAT     H233648   6.177   3.893   5.633
10516WAT      O33649   6.272   4.965   7.198
10516WAT     H133650   6.218   5.037   7.166
10516WAT     H233651   6.297   4.917   7.119
10517WAT      O33652   6.397   3.761   7.351
10517WAT     H133653   6.456   3.731   7.419
10517WAT     H233654   6.315   3.714   7.366
10518WAT      O33655   6.879   3.723   7.374
10518WAT     H133656   6.810   3.657   7.368
10518WAT     H233657   6.951   3.678   7.419
10519WAT      O33658   6.942   3.383   5.980
10519WAT     H133659   6.970   3.298   6.016
10519WAT     H233660   6.865   3.406   6.031
10520WAT      O33661   6.074   3.611   5.726
10520WAT     H133662   6.104   3.612   5.635
10520WAT     H233663   6.148   3.576   5.776
10521WAT      O33664   6.558   5.088   7.224
10521WAT     H133665   6.550   5.178   7.255
10521WAT     H233666   6.467   5.056   7.221
10522WAT      O33667   6.396   3.506   5.824
10522WAT     H133668   6.361   3.438   5.766
10522WAT     H233669   6.416   3.460   5.906
10523WAT      O33670   6.612   5.005   5.986
10523WAT     H133671   6.702   5.038   5.988
10523WAT     H233672   6.616   4.932   5.924
10524WAT      O33673   5.976   4.542   5.809
10524WAT     H133674   6.020   4.596   5.875
10524WAT     H233675   6.025   4.459   5.810
10525WAT      O33676   5.698   4.821   6.554
10525WAT     H133677   5.731   4.734   6.531
10525WAT     H233678   5.741   4.841   6.637
10526WAT      O33679   6.157   4.654   6.320
10526WAT     H133680   6.127   4.642   6.410
10526WAT     H233681   6.147   4.568   6.280
10527WAT      O33682   5.747   4.907   6.828
10527WAT     H133683   5.703   4.925   6.911
10527WAT     H233684   5.804   4.983   6.814
10528WAT      O33685   7.310   4.858   7.257
10528WAT     H133686   7.250   4.864   7.183
10528WAT     H233687   7.323   4.764   7.270
10529WAT      O33688   7.434   4.632   5.791
10529WAT     H133689   7.351   4.639   5.838
10529WAT     H233690   7.452   4.721   5.760
10530WAT      O33691   7.380   4.306   6.041
10530WAT     H133692   7.456   4.363   6.052
10530WAT     H233693   7.382   4.250   6.118
10531WAT      O33694   5.730   4.159   6.464
10531WAT     H133695   5.665   4.132   6.400
10531WAT     H233696   5.814   4.148   6.419
10532WAT      O33697   7.481   4.392   6.525
10532WAT     H133698   7.518   4.313   6.485
10532WAT     H233699   7.545   4.461   6.508
10533WAT      O33700   7.179   4.530   7.067
10533WAT     H133701   7.098   4.573   7.093
10533WAT     H233702   7.220   4.591   7.005
10534WAT      O33703   7.385   4.336   5.757
10534WAT     H133704   7.413   4.426   5.744
10534WAT     H233705   7.366   4.329   5.850
10535WAT      O33706   7.025   3.638   5.886
10535WAT     H133707   7.067   3.619   5.802
10535WAT     H233708   6.994   3.553   5.917
10536WAT      O33709   7.375   4.129   6.256
10536WAT     H133710   7.337   4.053   6.213
10536WAT     H233711   7.302   4.168   6.305
10537WAT      O33712   5.834   4.197   6.918
10537WAT     H133713   5.871   4.188   7.006
10537WAT     H233714   5.777   4.121   6.908
10538WAT      O33715   7.314   4.044   7.219
10538WAT     H133716   7.291   4.021   7.129
10538WAT     H233717   7.340   4.136   7.215
10539WAT      O33718   5.789   3.888   7.309
10539WAT     H133719   5.699   3.885   7.343
10539WAT     H233720   5.843   3.908   7.385
10540WAT      O33721   5.651   3.880   6.058
10540WAT     H133722   5.561   3.906   6.041
10540WAT     H233723   5.700   3.907   5.980
10541WAT      O33724   7.302   3.952   6.586
10541WAT     H133725   7.355   3.903   6.523
10541WAT     H233726   7.361   3.965   6.661
10542WAT      O33727   7.320   3.960   6.938
10542WAT     H133728   7.225   3.957   6.950
10542WAT     H233729   7.338   4.051   6.915
10543WAT      O33730   5.906   3.785   5.849
10543WAT     H133731   5.977   3.743   5.801
10543WAT     H233732   5.834   3.792   5.786
10544WAT      O33733   5.870   3.391   5.753
10544WAT     H133734   5.943   3.445   5.785
10544WAT     H233735   5.898   3.363   5.666
10545WAT      O33736   7.251   3.878   6.180
10545WAT     H133737   7.301   3.854   6.258
10545WAT     H233738   7.231   3.794   6.138
10546WAT      O33739   5.839   3.316   6.743
10546WAT     H133740   5.904   3.261   6.699
10546WAT     H233741   5.881   3.341   6.826
10547WAT      O33742   7.394   3.741   6.433
10547WAT     H133743   7.383   3.726   6.527
10547WAT     H233744   7.470   3.688   6.409
10548WAT      O33745   7.229   3.335   7.079
10548WAT     H133746   7.293   3.397   7.116
10548WAT     H233747   7.244   3.339   6.985
10549WAT      O33748   7.483   3.524   5.757
10549WAT     H133749   7.576   3.511   5.737
10549WAT     H233750   7.481   3.532   5.853
10550WAT      O33751   7.490   3.601   6.020
10550WAT     H133752   7.411   3.595   6.073
10550WAT     H233753   7.511   3.695   6.019
10551WAT      O33754   7.185   5.005   6.419
10551WAT     H133755   7.244   4.973   6.352
10551WAT     H233756   7.210   4.958   6.499
10552WAT      O33757   5.815   3.331   7.018
10552WAT     H133758   5.780   3.377   7.094
10552WAT     H233759   5.782   3.242   7.026
10553WAT      O33760   6.345   4.804   6.994
10553WAT     H133761   6.321   4.831   6.906
10553WAT     H233762   6.439   4.821   7.000
10554WAT      O33763   6.566   3.450   7.370
10554WAT     H133764   6.560   3.510   7.445
10554WAT     H233765   6.660   3.440   7.355
10555WAT      O33766   6.830   3.416   7.334
10555WAT     H133767   6.891   3.448   7.268
10555WAT     H233768   6.884   3.368   7.396
10556WAT      O33769   7.471   5.006   7.074
10556WAT     H133770   7.422   5.046   7.003
10556WAT     H233771   7.411   4.944   7.114
10557WAT      O33772   5.882   3.284   7.345
10557WAT     H133773   5.937   3.266   7.269
10557WAT     H233774   5.888   3.205   7.399
10558WAT      O33775   5.959   4.943   7.146
10558WAT     H133776   5.900   4.930   7.220
10558WAT     H233777   5.958   4.860   7.100
10559WAT      O33778   6.904   3.272   6.967
10559WAT     H133779   6.816   3.306   6.946
10559WAT     H233780   6.893   3.225   7.049
10560WAT      O33781   6.994   3.493   7.105
10560WAT     H133782   6.962   3.412   7.067
10560WAT     H233783   7.089   3.489   7.093
10561WAT      O33784   7.240   5.070   6.802
10561WAT     H133785   7.194   5.145   6.765
10561WAT     H233786   7.177   4.998   6.796
10562WAT      O33787   5.922   4.680   7.041
10562WAT     H133788   5.850   4.618   7.035
10562WAT     H233789   5.928   4.719   6.954
10563WAT      O33790   6.283   4.901   6.720
10563WAT     H133791   6.334   4.840   6.667
10563WAT     H233792   6.348   4.951   6.769
10564WAT      O33793   6.557   4.990   6.803
10564WAT     H133794   6.585   4.965   6.715
10564WAT     H233795   6.608   4.935   6.862
10565WAT      O33796   6.678   3.364   6.860
10565WAT     H133797   6.600   3.412   6.888
10565WAT     H233798   6.649   3.274   6.850
10566WAT      O33799   7.134   3.434   6.665
10566WAT     H133800   7.178   3.429   6.580
10566WAT     H233801   7.107   3.526   6.672
10567WAT      O33802   7.320   3.398   6.466
10567WAT     H133803   7.314   3.303   6.451
10567WAT     H233804   7.398   3.408   6.521
10568WAT      O33805   5.751   5.011   6.362
10568WAT     H133806   5.734   4.948   6.432
10568WAT     H233807   5.664   5.032   6.327
10569WAT      O33808   5.813   3.395   6.113
10569WAT     H133809   5.889   3.406   6.055
10569WAT     H233810   5.767   3.478   6.108
10570WAT      O33811   6.467   3.606   6.412
10570WAT     H133812   6.386   3.569   6.378
10570WAT     H233813   6.517   3.530   6.442
10571WAT      O33814   6.917   3.272   6.535
10571WAT     H133815   6.978   3.330   6.583
10571WAT     H233816   6.843   3.329   6.513
10572WAT      O33817   7.232   3.313   6.063
10572WAT     H133818   7.251   3.403   6.090
10572WAT     H233819   7.153   3.290   6.112
10573WAT      O33820   5.911   4.881   6.107
10573WAT     H133821   5.859   4.919   6.036
10573WAT     H233822   5.904   4.943   6.179
10574WAT      O33823   6.050   3.447   5.967
10574WAT     H133824   6.103   3.369   5.954
10574WAT     H233825   6.113   3.515   5.990
10575WAT      O33826   6.270   3.421   6.272
10575WAT     H133827   6.207   3.351   6.289
10575WAT     H233828   6.216   3.497   6.250
10576WAT      O33829   7.387   5.037   6.239
10576WAT     H133830   7.404   4.968   6.175
10576WAT     H233831   7.317   5.089   6.200
10577WAT      O33832   6.171   5.076   5.994
10577WAT     H133833   6.244   5.047   5.940
10577WAT     H233834   6.197   5.052   6.083
10578WAT      O33835   6.087   4.687   5.995
10578WAT     H133836   6.024   4.734   6.050
10578WAT     H233837   6.099   4.603   6.038
10579WAT      O33838   6.833   4.092   4.610
10579WAT     H133839   6.825   4.001   4.583
10579WAT     H233840   6.791   4.142   4.539
10580WAT      O33841   6.646   4.270   4.798
10580WAT     H133842   6.568   4.222   4.827
10580WAT     H233843   6.711   4.202   4.780
10581WAT      O33844   5.889   3.797   4.264
10581WAT     H133845   5.800   3.832   4.254
10581WAT     H233846   5.917   3.777   4.175
10582WAT      O33847   6.590   4.538   4.799
10582WAT     H133848   6.583   4.444   4.782
10582WAT     H233849   6.666   4.547   4.856
10583WAT      O33850   5.809   3.598   5.031
10583WAT     H133851   5.791   3.508   5.059
10583WAT     H233852   5.769   3.653   5.099
10584WAT      O33853   6.693   3.818   4.821
10584WAT     H133854   6.731   3.731   4.810
10584WAT     H233855   6.683   3.852   4.732
10585WAT      O33856   6.106   3.656   4.367
10585WAT     H133857   6.117   3.746   4.398
10585WAT     H233858   6.015   3.651   4.338
10586WAT      O33859   7.071   3.568   4.515
10586WAT     H133860   7.153   3.519   4.519
10586WAT     H233861   7.075   3.627   4.590
10587WAT      O33862   7.500   3.770   5.171
10587WAT     H133863   7.430   3.808   5.119
10587WAT     H233864   7.527   3.839   5.231
10588WAT      O33865   6.119   3.417   5.227
10588WAT     H133866   6.119   3.468   5.147
10588WAT     H233867   6.036   3.369   5.225
10589WAT      O33868   7.095   3.762   4.792
10589WAT     H133869   7.025   3.791   4.850
10589WAT     H233870   7.131   3.843   4.756
10590WAT      O33871   6.087   3.588   5.028
10590WAT     H133872   6.121   3.672   4.999
10590WAT     H233873   5.993   3.602   5.040
10591WAT      O33874   6.165   4.577   5.227
10591WAT     H133875   6.227   4.645   5.198
10591WAT     H233876   6.079   4.618   5.217
10592WAT      O33877   7.257   4.724   5.018
10592WAT     H133878   7.188   4.791   5.017
10592WAT     H233879   7.311   4.743   4.942
10593WAT      O33880   7.402   3.706   4.831
10593WAT     H133881   7.307   3.710   4.844
10593WAT     H233882   7.434   3.788   4.869
10594WAT      O33883   6.455   3.336   4.660
10594WAT     H133884   6.486   3.281   4.589
10594WAT     H233885   6.362   3.350   4.642
10595WAT      O33886   7.010   4.908   4.890
10595WAT     H133887   7.011   4.868   4.803
10595WAT     H233888   6.955   4.986   4.879
10596WAT      O33889   6.950   4.398   5.022
10596WAT     H133890   6.992   4.377   4.939
10596WAT     H233891   7.022   4.424   5.079
10597WAT      O33892   6.694   4.143   4.334
10597WAT     H133893   6.601   4.136   4.357
10597WAT     H233894   6.709   4.237   4.323
10598WAT      O33895   6.693   3.770   4.034
10598WAT     H133896   6.599   3.786   4.042
10598WAT     H233897   6.724   3.842   3.979
10599WAT      O33898   7.345   4.238   5.032
10599WAT     H133899   7.262   4.245   4.984
10599WAT     H233900   7.404   4.297   4.985
10600WAT      O33901   7.097   4.299   4.384
10600WAT     H133902   7.035   4.265   4.320
10600WAT     H233903   7.095   4.235   4.455
10601WAT      O33904   7.041   3.917   5.126
10601WAT     H133905   7.000   4.000   5.151
10601WAT     H233906   6.968   3.858   5.107
10602WAT      O33907   7.110   4.922   5.195
10602WAT     H133908   7.062   5.002   5.176
10602WAT     H233909   7.042   4.856   5.210
10603WAT      O33910   6.210   4.538   5.494
10603WAT     H133911   6.121   4.560   5.518
10603WAT     H233912   6.213   4.550   5.399
10604WAT      O33913   6.914   4.223   4.085
10604WAT     H133914   6.958   4.139   4.071
10604WAT     H233915   6.986   4.286   4.094
10605WAT      O33916   6.093   4.225   5.351
10605WAT     H133917   6.079   4.312   5.388
10605WAT     H233918   6.005   4.191   5.337
10606WAT      O33919   6.273   4.819   5.572
10606WAT     H133920   6.270   4.860   5.485
10606WAT     H233921   6.257   4.727   5.556
10607WAT      O33922   7.468   4.898   5.702
10607WAT     H133923   7.516   4.946   5.770
10607WAT     H233924   7.530   4.891   5.629
10608WAT      O33925   7.408   4.617   5.418
10608WAT     H133926   7.421   4.593   5.326
10608WAT     H233927   7.413   4.534   5.465
10609WAT      O33928   6.795   4.987   5.275
10609WAT     H133929   6.846   4.978   5.355
10609WAT     H233930   6.710   5.022   5.304
10610WAT      O33931   7.394   3.822   5.514
10610WAT     H133932   7.332   3.873   5.461
10610WAT     H233933   7.362   3.732   5.509
10611WAT      O33934   5.694   4.506   5.197
10611WAT     H133935   5.710   4.459   5.115
10611WAT     H233936   5.740   4.456   5.263
10612WAT      O33937   6.171   3.419   4.701
10612WAT     H133938   6.127   3.497   4.667
10612WAT     H233939   6.227   3.452   4.771
10613WAT      O33940   6.600   3.706   5.261
10613WAT     H133941   6.554   3.727   5.342
10613WAT     H233942   6.560   3.625   5.231
10614WAT      O33943   7.100   3.828   5.374
10614WAT     H133944   7.015   3.798   5.406
10614WAT     H233945   7.084   3.853   5.283
10615WAT      O33946   6.809   3.978   5.584
10615WAT     H133947   6.842   3.895   5.550
10615WAT     H233948   6.888   4.030   5.599
10616WAT      O33949   6.483   3.381   4.189
10616WAT     H133950   6.420   3.381   4.261
10616WAT     H233951   6.474   3.295   4.149
10617WAT      O33952   6.375   3.474   4.886
10617WAT     H133953   6.405   3.564   4.878
10617WAT     H233954   6.430   3.425   4.825
10618WAT      O33955   6.873   3.932   4.333
10618WAT     H133956   6.813   4.005   4.315
10618WAT     H233957   6.928   3.926   4.255
10619WAT      O33958   6.394   4.022   5.540
10619WAT     H133959   6.385   3.928   5.525
10619WAT     H233960   6.479   4.044   5.500
10620WAT      O33961   6.734   3.796   4.536
10620WAT     H133962   6.773   3.828   4.455
10620WAT     H233963   6.770   3.708   4.548
10621WAT      O33964   5.907   3.663   5.355
10621WAT     H133965   5.868   3.747   5.376
10621WAT     H233966   5.839   3.599   5.374
10622WAT      O33967   6.565   3.671   5.662
10622WAT     H133968   6.496   3.652   5.726
10622WAT     H233969   6.639   3.699   5.716
10623WAT      O33970   5.638   3.455   4.759
10623WAT     H133971   5.609   3.512   4.830
10623WAT     H233972   5.712   3.407   4.795
10624WAT      O33973   5.656   3.849   3.880
10624WAT     H133974   5.648   3.943   3.894
10624WAT     H233975   5.621   3.835   3.792
10625WAT      O33976   6.792   4.055   4.946
10625WAT     H133977   6.719   4.106   4.981
10625WAT     H233978   6.753   3.973   4.916
10626WAT      O33979   6.436   3.723   4.786
10626WAT     H133980   6.437   3.678   4.701
10626WAT     H233981   6.526   3.755   4.797
10627WAT      O33982   6.442   3.823   4.085
10627WAT     H133983   6.455   3.819   4.180
10627WAT     H233984   6.404   3.909   4.070
10628WAT      O33985   6.839   3.600   4.887
10628WAT     H133986   6.840   3.645   4.971
10628WAT     H233987   6.814   3.510   4.908
10629WAT      O33988   7.181   3.342   5.471
10629WAT     H133989   7.214   3.269   5.524
10629WAT     H233990   7.185   3.310   5.381
10630WAT      O33991   5.851   4.444   5.413
10630WAT     H133992   5.813   4.380   5.473
10630WAT     H233993   5.882   4.514   5.470
10631WAT      O33994   5.753   3.603   4.574
10631WAT     H133995   5.724   3.567   4.658
10631WAT     H233996   5.746   3.530   4.513
10632WAT      O33997   7.174   4.353   4.832
10632WAT     H133998   7.246   4.402   4.793
10632WAT     H233999   7.154   4.285   4.767
10633WAT      O34000   6.720   3.492   4.246
10633WAT     H134001   6.639   3.442   4.239
10633WAT     H234002   6.701   3.576   4.204
10634WAT      O34003   6.712   4.360   5.420
10634WAT     H134004   6.706   4.268   5.395
10634WAT     H234005   6.649   4.370   5.492
10635WAT      O34006   6.992   3.930   4.076
10635WAT     H134007   7.080   3.961   4.058
10635WAT     H234008   6.989   3.842   4.037
10636WAT      O34009   5.851   4.117   5.308
10636WAT     H134010   5.815   4.183   5.366
10636WAT     H234011   5.821   4.034   5.345
10637WAT      O34012   6.171   4.163   5.596
10637WAT     H134013   6.141   4.177   5.506
10637WAT     H234014   6.248   4.107   5.587
10638WAT      O34015   6.705   4.642   5.396
10638WAT     H134016   6.707   4.549   5.374
10638WAT     H234017   6.635   4.651   5.459
10639WAT      O34018   7.219   4.061   4.022
10639WAT     H134019   7.210   4.104   3.937
10639WAT     H234020   7.291   4.107   4.066
10640WAT      O34021   7.326   4.306   5.330
10640WAT     H134022   7.254   4.366   5.310
10640WAT     H234023   7.379   4.306   5.250
10641WAT      O34024   7.322   4.746   4.295
10641WAT     H134025   7.257   4.681   4.323
10641WAT     H234026   7.283   4.787   4.218
10642WAT      O34027   5.702   4.117   3.970
10642WAT     H134028   5.789   4.145   3.998
10642WAT     H234029   5.653   4.198   3.958
10643WAT      O34030   6.649   4.806   5.105
10643WAT     H134031   6.713   4.827   5.173
10643WAT     H234032   6.685   4.730   5.060
10644WAT      O34033   6.008   3.290   4.429
10644WAT     H134034   5.996   3.289   4.524
10644WAT     H234035   5.926   3.324   4.394
10645WAT      O34036   6.776   4.607   4.977
10645WAT     H134037   6.840   4.537   4.988
10645WAT     H234038   6.828   4.685   4.959
10646WAT      O34039   7.161   4.635   3.949
10646WAT     H134040   7.138   4.564   4.008
10646WAT     H234041   7.121   4.610   3.865
10647WAT      O34042   6.953   4.687   5.297
10647WAT     H134043   6.987   4.745   5.365
10647WAT     H234044   6.861   4.674   5.320
10648WAT      O34045   5.708   3.466   5.375
10648WAT     H134046   5.637   3.486   5.436
10648WAT     H234047   5.750   3.388   5.412
10649WAT      O34048   7.119   4.427   4.115
10649WAT     H134049   7.090   4.473   4.194
10649WAT     H234050   7.198   4.381   4.142
10650WAT      O34051   5.737   4.864   5.474
10650WAT     H134052   5.748   4.770   5.460
10650WAT     H234053   5.672   4.891   5.409
10651WAT      O34054   6.536   4.692   5.614
10651WAT     H134055   6.504   4.620   5.668
10651WAT     H234056   6.469   4.759   5.621
10652WAT      O34057   6.858   3.715   5.150
10652WAT     H134058   6.895   3.633   5.183
10652WAT     H234059   6.772   3.721   5.192
10653WAT      O34060   6.554   3.980   5.173
10653WAT     H134061   6.604   4.028   5.239
10653WAT     H234062   6.568   3.888   5.193
10654WAT      O34063   6.794   3.511   4.517
10654WAT     H134064   6.782   3.513   4.422
10654WAT     H234065   6.889   3.516   4.529
10655WAT      O34066   6.212   3.669   4.110
10655WAT     H134067   6.296   3.713   4.104
10655WAT     H234068   6.175   3.700   4.193
10656WAT      O34069   7.274   3.602   5.257
10656WAT     H134070   7.224   3.676   5.291
10656WAT     H234071   7.356   3.641   5.225
10657WAT      O34072   7.104   4.126   4.602
10657WAT     H134073   7.010   4.128   4.619
10657WAT     H234074   7.135   4.048   4.646
10658WAT      O34075   7.304   4.843   4.769
10658WAT     H134076   7.316   4.926   4.816
10658WAT     H234077   7.391   4.822   4.734
10659WAT      O34078   5.952   4.971   5.655
10659WAT     H134079   6.032   5.003   5.696
10659WAT     H234080   5.900   4.935   5.727
10660WAT      O34081   6.835   4.582   5.650
10660WAT     H134082   6.775   4.584   5.576
10660WAT     H234083   6.805   4.509   5.704
10661WAT      O34084   6.978   4.955   5.511
10661WAT     H134085   7.074   4.946   5.506
10661WAT     H234086   6.964   5.021   5.578
10662WAT      O34087   7.267   4.893   4.061
10662WAT     H134088   7.239   4.851   3.979
10662WAT     H234089   7.248   4.986   4.049
10663WAT      O34090   5.724   4.220   5.550
10663WAT     H134091   5.774   4.162   5.607
10663WAT     H234092   5.650   4.248   5.603
10664WAT      O34093   6.429   4.361   5.503
10664WAT     H134094   6.353   4.417   5.494
10664WAT     H234095   6.447   4.331   5.414
10665WAT      O34096   6.738   4.398   3.965
10665WAT     H134097   6.683   4.443   4.030
10665WAT     H234098   6.800   4.348   4.018
10666WAT      O34099   7.143   4.534   5.559
10666WAT     H134100   7.217   4.567   5.508
10666WAT     H234101   7.067   4.551   5.503
10667WAT      O34102   5.927   4.034   5.639
10667WAT     H134103   5.931   4.004   5.730
10667WAT     H234104   6.012   4.074   5.623
10668WAT      O34105   6.121   3.892   5.436
10668WAT     H134106   6.068   3.843   5.373
10668WAT     H234107   6.188   3.935   5.382
10669WAT      O34108   7.011   4.339   5.412
10669WAT     H134109   7.052   4.354   5.497
10669WAT     H234110   6.917   4.351   5.428
10670WAT      O34111   7.058   4.073   5.613
10670WAT     H134112   7.116   3.997   5.604
10670WAT     H234113   7.076   4.126   5.535
10671WAT      O34114   6.170   3.589   5.444
10671WAT     H134115   6.160   3.527   5.371
10671WAT     H234116   6.112   3.661   5.421
10672WAT      O34117   6.446   3.444   5.147
10672WAT     H134118   6.401   3.447   5.062
10672WAT     H234119   6.383   3.405   5.207
10673WAT      O34120   6.487   4.334   5.209
10673WAT     H134121   6.529   4.418   5.192
10673WAT     H234122   6.395   4.348   5.186
10674WAT      O34123   6.721   4.107   5.348
10674WAT     H134124   6.732   4.048   5.421
10674WAT     H234125   6.806   4.111   5.306
10675WAT      O34126   6.954   4.163   5.205
10675WAT     H134127   6.902   4.215   5.145
10675WAT     H234128   6.989   4.226   5.268
10676WAT      O34129   6.194   3.901   3.850
10676WAT     H134130   6.174   3.815   3.886
10676WAT     H234131   6.177   3.893   3.756
10677WAT      O34132   6.272   4.965   5.321
10677WAT     H134133   6.218   5.037   5.289
10677WAT     H234134   6.297   4.917   5.242
10678WAT      O34135   6.397   3.761   5.473
10678WAT     H134136   6.456   3.731   5.542
10678WAT     H234137   6.315   3.714   5.489
10679WAT      O34138   6.879   3.723   5.497
10679WAT     H134139   6.810   3.657   5.490
10679WAT     H234140   6.951   3.678   5.541
10680WAT      O34141   6.942   3.383   4.102
10680WAT     H134142   6.970   3.298   4.138
10680WAT     H234143   6.865   3.406   4.154
10681WAT      O34144   6.074   3.611   3.848
10681WAT     H134145   6.104   3.612   3.758
10681WAT     H234146   6.148   3.576   3.898
10682WAT      O34147   6.558   5.088   5.347
10682WAT     H134148   6.550   5.178   5.377
10682WAT     H234149   6.467   5.056   5.344
10683WAT      O34150   6.396   3.506   3.947
10683WAT     H134151   6.361   3.438   3.889
10683WAT     H234152   6.416   3.460   4.028
10684WAT      O34153   7.310   4.858   5.379
10684WAT     H134154   7.250   4.864   5.305
10684WAT     H234155   7.323   4.764   5.392
10685WAT      O34156   7.434   4.632   3.913
10685WAT     H134157   7.351   4.639   3.960
10685WAT     H234158   7.452   4.721   3.883
10686WAT      O34159   7.380   4.306   4.164
10686WAT     H134160   7.456   4.363   4.174
10686WAT     H234161   7.382   4.250   4.241
10687WAT      O34162   7.481   4.392   4.648
10687WAT     H134163   7.518   4.313   4.607
10687WAT     H234164   7.545   4.461   4.630
10688WAT      O34165   7.179   4.530   5.189
10688WAT     H134166   7.098   4.573   5.216
10688WAT     H234167   7.220   4.591   5.128
10689WAT      O34168   7.385   4.336   3.879
10689WAT     H134169   7.413   4.426   3.866
10689WAT     H234170   7.366   4.329   3.973
10690WAT      O34171   7.375   4.129   4.379
10690WAT     H134172   7.337   4.053   4.335
10690WAT     H234173   7.302   4.168   4.427
10691WAT      O34174   7.314   4.044   5.342
10691WAT     H134175   7.291   4.021   5.252
10691WAT     H234176   7.340   4.136   5.337
10692WAT      O34177   5.789   3.888   5.431
10692WAT     H134178   5.699   3.885   5.465
10692WAT     H234179   5.843   3.908   5.508
10693WAT      O34180   7.158   3.567   5.620
10693WAT     H134181   7.245   3.567   5.658
10693WAT     H234182   7.159   3.493   5.559
10694WAT      O34183   5.651   3.880   4.181
10694WAT     H134184   5.561   3.906   4.163
10694WAT     H234185   5.700   3.907   4.103
10695WAT      O34186   7.302   3.952   4.709
10695WAT     H134187   7.355   3.903   4.646
10695WAT     H234188   7.361   3.965   4.783
10696WAT      O34189   7.320   3.960   5.061
10696WAT     H134190   7.225   3.957   5.072
10696WAT     H234191   7.338   4.051   5.037
10697WAT      O34192   5.906   3.785   3.972
10697WAT     H134193   5.977   3.743   3.923
10697WAT     H234194   5.834   3.792   3.909
10698WAT      O34195   5.870   3.391   3.876
10698WAT     H134196   5.943   3.445   3.908
10698WAT     H234197   5.898   3.363   3.788
10699WAT      O34198   7.251   3.878   4.303
10699WAT     H134199   7.301   3.854   4.381
10699WAT     H234200   7.231   3.794   4.261
10700WAT      O34201   5.839   3.316   4.866
10700WAT     H134202   5.904   3.261   4.822
10700WAT     H234203   5.881   3.341   4.948
10701WAT      O34204   7.394   3.741   4.556
10701WAT     H134205   7.383   3.726   4.650
10701WAT     H234206   7.470   3.688   4.532
10702WAT      O34207   7.229   3.335   5.202
10702WAT     H134208   7.293   3.397   5.238
10702WAT     H234209   7.244   3.339   5.107
10703WAT      O34210   7.185   5.005   4.542
10703WAT     H134211   7.244   4.973   4.474
10703WAT     H234212   7.210   4.958   4.621
10704WAT      O34213   5.815   3.331   5.140
10704WAT     H134214   5.780   3.377   5.217
10704WAT     H234215   5.782   3.242   5.149
10705WAT      O34216   5.975   4.649   5.557
10705WAT     H134217   5.971   4.611   5.645
10705WAT     H234218   5.988   4.742   5.571
10706WAT      O34219   6.345   4.804   5.117
10706WAT     H134220   6.321   4.831   5.028
10706WAT     H234221   6.439   4.821   5.122
10707WAT      O34222   6.566   3.450   5.493
10707WAT     H134223   6.560   3.510   5.567
10707WAT     H234224   6.660   3.440   5.478
10708WAT      O34225   6.830   3.416   5.456
10708WAT     H134226   6.891   3.448   5.390
10708WAT     H234227   6.884   3.368   5.518
10709WAT      O34228   7.471   5.006   5.197
10709WAT     H134229   7.422   5.046   5.125
10709WAT     H234230   7.411   4.944   5.236
10710WAT      O34231   5.882   3.284   5.468
10710WAT     H134232   5.937   3.266   5.391
10710WAT     H234233   5.888   3.205   5.521
10711WAT      O34234   5.959   4.943   5.269
10711WAT     H134235   5.900   4.930   5.343
10711WAT     H234236   5.958   4.860   5.222
10712WAT      O34237   6.904   3.272   5.089
10712WAT     H134238   6.816   3.306   5.069
10712WAT     H234239   6.893   3.225   5.172
10713WAT      O34240   6.994   3.493   5.228
10713WAT     H134241   6.962   3.412   5.190
10713WAT     H234242   7.089   3.489   5.215
10714WAT      O34243   7.240   5.070   4.925
10714WAT     H134244   7.194   5.145   4.887
10714WAT     H234245   7.177   4.998   4.919
10715WAT      O34246   6.678   3.364   4.983
10715WAT     H134247   6.600   3.412   5.011
10715WAT     H234248   6.649   3.274   4.972
10716WAT      O34249   7.134   3.434   4.788
10716WAT     H134250   7.178   3.429   4.703
10716WAT     H234251   7.107   3.526   4.795
10717WAT      O34252   7.320   3.398   4.589
10717WAT     H134253   7.314   3.303   4.574
10717WAT     H234254   7.398   3.408   4.643
10718WAT      O34255   5.813   3.395   4.235
10718WAT     H134256   5.889   3.406   4.178
10718WAT     H234257   5.767   3.478   4.231
10719WAT      O34258   6.467   3.606   4.534
10719WAT     H134259   6.386   3.569   4.500
10719WAT     H234260   6.517   3.530   4.564
10720WAT      O34261   6.917   3.272   4.658
10720WAT     H134262   6.978   3.330   4.706
10720WAT     H234263   6.843   3.329   4.636
10721WAT      O34264   6.050   3.447   4.089
10721WAT     H134265   6.103   3.369   4.076
10721WAT     H234266   6.113   3.515   4.113
10722WAT      O34267   6.270   3.421   4.395
10722WAT     H134268   6.207   3.351   4.411
10722WAT     H234269   6.216   3.497   4.373
10723WAT      O34270   6.563   5.082   5.662
10723WAT     H134271   6.656   5.059   5.666
10723WAT     H234272   6.562   5.165   5.614
10724WAT      O34273   7.387   5.037   4.362
10724WAT     H134274   7.404   4.968   4.297
10724WAT     H234275   7.317   5.089   4.322
10725WAT      O34276   6.282   3.349   5.638
10725WAT     H134277   6.254   3.399   5.562
10725WAT     H234278   6.320   3.269   5.602
10726WAT      O34279   6.942   3.290   5.696
10726WAT     H134280   6.931   3.322   5.786
10726WAT     H234281   7.024   3.331   5.666
10727WAT      O34282   7.220   5.005   5.644
10727WAT     H134283   7.299   4.956   5.623
10727WAT     H234284   7.250   5.073   5.705
10728WAT      O34285   6.833   4.092   2.732
10728WAT     H134286   6.825   4.001   2.705
10728WAT     H234287   6.791   4.142   2.662
10729WAT      O34288   6.646   4.270   2.920
10729WAT     H134289   6.568   4.222   2.949
10729WAT     H234290   6.711   4.202   2.903
10730WAT      O34291   7.048   4.711   2.798
10730WAT     H134292   7.002   4.634   2.831
10730WAT     H234293   7.129   4.713   2.849
10731WAT      O34294   5.889   3.797   2.387
10731WAT     H134295   5.800   3.832   2.376
10731WAT     H234296   5.917   3.777   2.297
10732WAT      O34297   5.685   4.057   2.975
10732WAT     H134298   5.742   3.981   2.975
10732WAT     H234299   5.685   4.087   2.884
10733WAT      O34300   6.671   4.939   2.760
10733WAT     H134301   6.609   4.985   2.703
10733WAT     H234302   6.756   4.955   2.720
10734WAT      O34303   6.590   4.538   2.921
10734WAT     H134304   6.583   4.444   2.905
10734WAT     H234305   6.666   4.547   2.978
10735WAT      O34306   5.809   3.598   3.154
10735WAT     H134307   5.791   3.508   3.182
10735WAT     H234308   5.769   3.653   3.221
10736WAT      O34309   6.693   3.818   2.944
10736WAT     H134310   6.731   3.731   2.933
10736WAT     H234311   6.683   3.852   2.855
10737WAT      O34312   6.106   3.656   2.490
10737WAT     H134313   6.117   3.746   2.521
10737WAT     H234314   6.015   3.651   2.461
10738WAT      O34315   5.871   3.848   3.015
10738WAT     H134316   5.939   3.874   3.076
10738WAT     H234317   5.839   3.764   3.048
10739WAT      O34318   6.290   3.953   2.923
10739WAT     H134319   6.341   4.002   2.987
10739WAT     H234320   6.343   3.875   2.906
10740WAT      O34321   6.119   3.417   3.350
10740WAT     H134322   6.119   3.468   3.269
10740WAT     H234323   6.036   3.369   3.348
10741WAT      O34324   6.757   4.428   2.500
10741WAT     H134325   6.695   4.474   2.443
10741WAT     H234326   6.809   4.497   2.541
10742WAT      O34327   6.087   3.588   3.151
10742WAT     H134328   6.121   3.672   3.121
10742WAT     H234329   5.993   3.602   3.162
10743WAT      O34330   5.694   4.496   2.237
10743WAT     H134331   5.656   4.545   2.164
10743WAT     H234332   5.720   4.564   2.300
10744WAT      O34333   7.257   4.724   3.141
10744WAT     H134334   7.188   4.791   3.140
10744WAT     H234335   7.311   4.743   3.064
10745WAT      O34336   6.455   3.336   2.783
10745WAT     H134337   6.486   3.281   2.711
10745WAT     H234338   6.362   3.350   2.765
10746WAT      O34339   7.010   4.908   3.012
10746WAT     H134340   7.011   4.868   2.925
10746WAT     H234341   6.955   4.986   3.002
10747WAT      O34342   7.140   4.580   2.521
10747WAT     H134343   7.129   4.486   2.534
10747WAT     H234344   7.139   4.616   2.610
10748WAT      O34345   6.950   4.398   3.145
10748WAT     H134346   6.992   4.377   3.061
10748WAT     H234347   7.022   4.424   3.202
10749WAT      O34348   6.694   4.143   2.457
10749WAT     H134349   6.601   4.136   2.480
10749WAT     H234350   6.709   4.237   2.445
10750WAT      O34351   6.693   3.770   2.156
10750WAT     H134352   6.599   3.786   2.165
10750WAT     H234353   6.724   3.842   2.102
10751WAT      O34354   7.345   4.238   3.154
10751WAT     H134355   7.262   4.245   3.107
10751WAT     H234356   7.404   4.297   3.107
10752WAT      O34357   7.097   4.299   2.507
10752WAT     H134358   7.035   4.265   2.442
10752WAT     H234359   7.095   4.235   2.578
10753WAT      O34360   7.041   3.917   3.249
10753WAT     H134361   7.000   4.000   3.274
10753WAT     H234362   6.968   3.858   3.229
10754WAT      O34363   6.254   4.196   2.735
10754WAT     H134364   6.214   4.124   2.685
10754WAT     H234365   6.263   4.161   2.824
10755WAT      O34366   6.301   4.564   2.951
10755WAT     H134367   6.272   4.504   2.883
10755WAT     H234368   6.396   4.568   2.940
10756WAT      O34369   6.126   3.873   3.113
10756WAT     H134370   6.181   3.884   3.035
10756WAT     H234371   6.177   3.910   3.184
10757WAT      O34372   7.110   4.922   3.317
10757WAT     H134373   7.062   5.002   3.298
10757WAT     H234374   7.042   4.856   3.333
10758WAT      O34375   6.914   4.223   2.208
10758WAT     H134376   6.958   4.139   2.193
10758WAT     H234377   6.986   4.286   2.216
10759WAT      O34378   6.725   4.717   2.605
10759WAT     H134379   6.769   4.791   2.563
10759WAT     H234380   6.719   4.741   2.697
10760WAT      O34381   7.273   3.348   2.039
10760WAT     H134382   7.241   3.358   2.129
10760WAT     H234383   7.349   3.406   2.034
10761WAT      O34384   5.924   4.085   2.485
10761WAT     H134385   5.912   4.158   2.424
10761WAT     H234386   5.893   4.008   2.437
10762WAT      O34387   7.468   4.898   3.824
10762WAT     H134388   7.516   4.946   3.892
10762WAT     H234389   7.530   4.891   3.752
10763WAT      O34390   5.813   4.572   2.707
10763WAT     H134391   5.772   4.586   2.621
10763WAT     H234392   5.902   4.544   2.686
10764WAT      O34393   7.408   4.617   3.540
10764WAT     H134394   7.421   4.593   3.449
10764WAT     H234395   7.413   4.534   3.588
10765WAT      O34396   6.992   5.016   2.340
10765WAT     H134397   6.976   4.987   2.430
10765WAT     H234398   6.976   4.938   2.287
10766WAT      O34399   6.240   4.994   2.518
10766WAT     H134400   6.222   4.902   2.497
10766WAT     H234401   6.155   5.029   2.542
10767WAT      O34402   6.962   4.767   2.196
10767WAT     H134403   6.893   4.766   2.130
10767WAT     H234404   7.037   4.724   2.153
10768WAT      O34405   6.919   4.929   2.604
10768WAT     H134406   6.964   4.851   2.635
10768WAT     H234407   6.953   5.000   2.658
10769WAT      O34408   6.171   3.419   2.823
10769WAT     H134409   6.127   3.497   2.790
10769WAT     H234410   6.227   3.452   2.894
10770WAT      O34411   6.600   3.706   3.383
10770WAT     H134412   6.554   3.727   3.465
10770WAT     H234413   6.560   3.625   3.353
10771WAT      O34414   6.809   3.978   3.706
10771WAT     H134415   6.842   3.895   3.672
10771WAT     H234416   6.888   4.030   3.721
10772WAT      O34417   6.483   3.381   2.311
10772WAT     H134418   6.420   3.381   2.384
10772WAT     H234419   6.474   3.295   2.272
10773WAT      O34420   6.375   3.474   3.009
10773WAT     H134421   6.405   3.564   3.001
10773WAT     H234422   6.430   3.425   2.948
10774WAT      O34423   6.150   3.932   2.596
10774WAT     H134424   6.128   3.910   2.686
10774WAT     H234425   6.072   3.975   2.561
10775WAT      O34426   6.873   3.932   2.456
10775WAT     H134427   6.813   4.005   2.437
10775WAT     H234428   6.928   3.926   2.378
10776WAT      O34429   6.734   3.796   2.659
10776WAT     H134430   6.773   3.828   2.578
10776WAT     H234431   6.770   3.708   2.670
10777WAT      O34432   5.907   3.663   3.478
10777WAT     H134433   5.868   3.747   3.499
10777WAT     H234434   5.839   3.599   3.497
10778WAT      O34435   6.565   3.671   3.785
10778WAT     H134436   6.496   3.652   3.848
10778WAT     H234437   6.639   3.699   3.838
10779WAT      O34438   5.638   3.455   2.881
10779WAT     H134439   5.609   3.512   2.952
10779WAT     H234440   5.712   3.407   2.917
10780WAT      O34441   5.656   3.849   2.002
10780WAT     H134442   5.648   3.943   2.016
10780WAT     H234443   5.621   3.835   1.914
10781WAT      O34444   6.792   4.055   3.068
10781WAT     H134445   6.719   4.106   3.103
10781WAT     H234446   6.753   3.973   3.038
10782WAT      O34447   6.436   3.723   2.909
10782WAT     H134448   6.437   3.678   2.824
10782WAT     H234449   6.526   3.755   2.920
10783WAT      O34450   6.021   3.711   2.805
10783WAT     H134451   5.987   3.759   2.881
10783WAT     H234452   5.945   3.665   2.769
10784WAT      O34453   6.442   3.823   2.208
10784WAT     H134454   6.455   3.819   2.303
10784WAT     H234455   6.404   3.909   2.192
10785WAT      O34456   6.344   4.054   2.148
10785WAT     H134457   6.287   4.009   2.085
10785WAT     H234458   6.414   4.090   2.094
10786WAT      O34459   6.466   4.129   3.084
10786WAT     H134460   6.503   4.081   3.158
10786WAT     H234461   6.447   4.216   3.118
10787WAT      O34462   5.753   3.603   2.697
10787WAT     H134463   5.724   3.567   2.780
10787WAT     H234464   5.746   3.530   2.635
10788WAT      O34465   6.245   4.033   3.315
10788WAT     H134466   6.215   4.121   3.338
10788WAT     H234467   6.341   4.039   3.319
10789WAT      O34468   6.098   4.453   2.375
10789WAT     H134469   6.021   4.399   2.359
10789WAT     H234470   6.171   4.401   2.341
10790WAT      O34471   7.174   4.353   2.954
10790WAT     H134472   7.246   4.402   2.915
10790WAT     H234473   7.154   4.285   2.890
10791WAT      O34474   6.720   3.492   2.369
10791WAT     H134475   6.639   3.442   2.361
10791WAT     H234476   6.701   3.576   2.327
10792WAT      O34477   6.992   3.930   2.198
10792WAT     H134478   7.080   3.961   2.181
10792WAT     H234479   6.989   3.842   2.159
10793WAT      O34480   6.102   4.420   2.739
10793WAT     H134481   6.154   4.340   2.733
10793WAT     H234482   6.057   4.414   2.823
10794WAT      O34483   6.591   4.547   2.266
10794WAT     H134484   6.625   4.621   2.217
10794WAT     H234485   6.508   4.578   2.302
10795WAT      O34486   7.219   4.061   2.145
10795WAT     H134487   7.210   4.104   2.060
10795WAT     H234488   7.291   4.107   2.188
10796WAT      O34489   7.326   4.306   3.453
10796WAT     H134490   7.254   4.366   3.433
10796WAT     H234491   7.379   4.306   3.373
10797WAT      O34492   7.322   4.746   2.418
10797WAT     H134493   7.257   4.681   2.445
10797WAT     H234494   7.283   4.787   2.340
10798WAT      O34495   6.879   4.479   2.803
10798WAT     H134496   6.915   4.419   2.737
10798WAT     H234497   6.791   4.446   2.820
10799WAT      O34498   6.488   4.555   2.543
10799WAT     H134499   6.557   4.610   2.581
10799WAT     H234500   6.409   4.609   2.547
10800WAT      O34501   5.702   4.117   2.092
10800WAT     H134502   5.789   4.145   2.121
10800WAT     H234503   5.653   4.198   2.081
10801WAT      O34504   6.418   4.255   2.505
10801WAT     H134505   6.464   4.336   2.527
10801WAT     H234506   6.383   4.224   2.588
10802WAT      O34507   6.008   3.290   2.552
10802WAT     H134508   5.996   3.289   2.647
10802WAT     H234509   5.926   3.324   2.517
10803WAT      O34510   7.161   4.635   2.072
10803WAT     H134511   7.138   4.564   2.131
10803WAT     H234512   7.121   4.610   1.988
10804WAT      O34513   5.739   5.038   2.149
10804WAT     H134514   5.775   5.098   2.084
10804WAT     H234515   5.725   5.092   2.226
10805WAT      O34516   5.708   3.466   3.498
10805WAT     H134517   5.637   3.486   3.558
10805WAT     H234518   5.750   3.388   3.535
10806WAT      O34519   7.119   4.427   2.238
10806WAT     H134520   7.090   4.473   2.317
10806WAT     H234521   7.198   4.381   2.265
10807WAT      O34522   6.340   4.776   2.231
10807WAT     H134523   6.339   4.849   2.169
10807WAT     H234524   6.248   4.752   2.240
10808WAT      O34525   5.900   4.298   2.305
10808WAT     H134526   5.840   4.372   2.306
10808WAT     H234527   5.948   4.307   2.223
10809WAT      O34528   7.194   3.610   2.354
10809WAT     H134529   7.132   3.621   2.282
10809WAT     H234530   7.145   3.632   2.433
10810WAT      O34531   6.639   4.782   2.097
10810WAT     H134532   6.649   4.762   2.004
10810WAT     H234533   6.549   4.757   2.118
10811WAT      O34534   6.391   3.838   2.495
10811WAT     H134535   6.320   3.885   2.539
10811WAT     H234536   6.420   3.773   2.559
10812WAT      O34537   6.794   3.511   2.639
10812WAT     H134538   6.782   3.513   2.544
10812WAT     H234539   6.889   3.516   2.651
10813WAT      O34540   6.503   5.034   2.567
10813WAT     H134541   6.529   5.031   2.474
10813WAT     H234542   6.408   5.022   2.566
10814WAT      O34543   6.212   3.669   2.233
10814WAT     H134544   6.296   3.713   2.226
10814WAT     H234545   6.175   3.700   2.316
10815WAT      O34546   6.102   4.294   2.080
10815WAT     H134547   6.178   4.283   2.136
10815WAT     H234548   6.109   4.225   2.015
10816WAT      O34549   5.971   4.038   2.149
10816WAT     H134550   5.979   3.943   2.160
10816WAT     H234551   6.060   4.071   2.159
10817WAT      O34552   7.304   4.843   2.892
10817WAT     H134553   7.316   4.926   2.939
10817WAT     H234554   7.391   4.822   2.857
10818WAT      O34555   6.051   5.053   2.859
10818WAT     H134556   6.125   4.998   2.886
10818WAT     H234557   6.090   5.139   2.845
10819WAT      O34558   5.740   4.659   2.446
10819WAT     H134559   5.647   4.684   2.445
10819WAT     H234560   5.786   4.742   2.434
10820WAT      O34561   6.362   4.970   2.041
10820WAT     H134562   6.441   4.999   1.996
10820WAT     H234563   6.310   4.927   1.973
10821WAT      O34564   7.267   4.893   2.183
10821WAT     H134565   7.239   4.851   2.102
10821WAT     H234566   7.248   4.986   2.171
10822WAT      O34567   6.414   4.492   2.028
10822WAT     H134568   6.403   4.431   2.100
10822WAT     H234569   6.397   4.440   1.949
10823WAT      O34570   6.738   4.398   2.088
10823WAT     H134571   6.683   4.443   2.152
10823WAT     H234572   6.800   4.348   2.140
10824WAT      O34573   7.143   4.534   3.681
10824WAT     H134574   7.217   4.567   3.631
10824WAT     H234575   7.067   4.551   3.626
10825WAT      O34576   6.305   4.294   2.278
10825WAT     H134577   6.347   4.278   2.362
10825WAT     H234578   6.317   4.213   2.228
10826WAT      O34579   6.556   4.196   2.002
10826WAT     H134580   6.608   4.125   1.966
10826WAT     H234581   6.621   4.260   2.032
10827WAT      O34582   7.011   4.339   3.535
10827WAT     H134583   7.052   4.354   3.620
10827WAT     H234584   6.917   4.351   3.551
10828WAT      O34585   7.058   4.073   3.735
10828WAT     H134586   7.116   3.997   3.726
10828WAT     H234587   7.076   4.126   3.657
10829WAT      O34588   6.170   3.589   3.566
10829WAT     H134589   6.160   3.527   3.494
10829WAT     H234590   6.112   3.661   3.544
10830WAT      O34591   6.446   3.444   3.270
10830WAT     H134592   6.401   3.447   3.185
10830WAT     H234593   6.383   3.405   3.329
10831WAT      O34594   6.194   3.901   1.972
10831WAT     H134595   6.174   3.815   2.008
10831WAT     H234596   6.177   3.893   1.878
10832WAT      O34597   6.397   3.761   3.596
10832WAT     H134598   6.456   3.731   3.665
10832WAT     H234599   6.315   3.714   3.611
10833WAT      O34600   6.879   3.723   3.619
10833WAT     H134601   6.810   3.657   3.613
10833WAT     H234602   6.951   3.678   3.664
10834WAT      O34603   6.942   3.383   2.225
10834WAT     H134604   6.970   3.298   2.261
10834WAT     H234605   6.865   3.406   2.276
10835WAT      O34606   6.074   3.611   1.971
10835WAT     H134607   6.104   3.612   1.880
10835WAT     H234608   6.148   3.576   2.021
10836WAT      O34609   6.396   3.506   2.070
10836WAT     H134610   6.361   3.438   2.012
10836WAT     H234611   6.416   3.460   2.151
10837WAT      O34612   6.612   5.005   2.231
10837WAT     H134613   6.702   5.038   2.234
10837WAT     H234614   6.616   4.932   2.169
10838WAT      O34615   5.976   4.542   2.054
10838WAT     H134616   6.020   4.596   2.120
10838WAT     H234617   6.025   4.459   2.055
10839WAT      O34618   5.698   4.821   2.799
10839WAT     H134619   5.731   4.734   2.776
10839WAT     H234620   5.741   4.841   2.883
10840WAT      O34621   6.157   4.654   2.565
10840WAT     H134622   6.127   4.642   2.656
10840WAT     H234623   6.147   4.568   2.525
10841WAT      O34624   5.747   4.907   3.073
10841WAT     H134625   5.703   4.925   3.157
10841WAT     H234626   5.804   4.983   3.059
10842WAT      O34627   7.310   4.858   3.502
10842WAT     H134628   7.250   4.864   3.428
10842WAT     H234629   7.323   4.764   3.515
10843WAT      O34630   7.434   4.632   2.036
10843WAT     H134631   7.351   4.639   2.083
10843WAT     H234632   7.452   4.721   2.005
10844WAT      O34633   7.380   4.306   2.286
10844WAT     H134634   7.456   4.363   2.297
10844WAT     H234635   7.382   4.250   2.363
10845WAT      O34636   5.730   4.159   2.709
10845WAT     H134637   5.665   4.132   2.645
10845WAT     H234638   5.814   4.148   2.664
10846WAT      O34639   7.481   4.392   2.771
10846WAT     H134640   7.518   4.313   2.730
10846WAT     H234641   7.545   4.461   2.753
10847WAT      O34642   7.179   4.530   3.312
10847WAT     H134643   7.098   4.573   3.338
10847WAT     H234644   7.220   4.591   3.251
10848WAT      O34645   7.385   4.336   2.002
10848WAT     H134646   7.413   4.426   1.989
10848WAT     H234647   7.366   4.329   2.095
10849WAT      O34648   7.025   3.638   2.131
10849WAT     H134649   7.067   3.619   2.047
10849WAT     H234650   6.994   3.553   2.162
10850WAT      O34651   7.375   4.129   2.501
10850WAT     H134652   7.337   4.053   2.458
10850WAT     H234653   7.302   4.168   2.550
10851WAT      O34654   7.314   4.044   3.465
10851WAT     H134655   7.291   4.021   3.374
10851WAT     H234656   7.340   4.136   3.460
10852WAT      O34657   5.789   3.888   3.554
10852WAT     H134658   5.699   3.885   3.588
10852WAT     H234659   5.843   3.908   3.630
10853WAT      O34660   5.651   3.880   2.303
10853WAT     H134661   5.561   3.906   2.286
10853WAT     H234662   5.700   3.907   2.225
10854WAT      O34663   5.906   3.785   2.094
10854WAT     H134664   5.977   3.743   2.046
10854WAT     H234665   5.834   3.792   2.031
10855WAT      O34666   5.870   3.391   1.998
10855WAT     H134667   5.943   3.445   2.030
10855WAT     H234668   5.898   3.363   1.911
10856WAT      O34669   5.839   3.316   2.989
10856WAT     H134670   5.904   3.261   2.945
10856WAT     H234671   5.881   3.341   3.071
10857WAT      O34672   7.483   3.524   2.003
10857WAT     H134673   7.576   3.511   1.982
10857WAT     H234674   7.481   3.532   2.098
10858WAT      O34675   7.185   5.005   2.665
10858WAT     H134676   7.244   4.973   2.597
10858WAT     H234677   7.210   4.958   2.744
10859WAT      O34678   5.815   3.331   3.263
10859WAT     H134679   5.780   3.377   3.339
10859WAT     H234680   5.782   3.242   3.271
10860WAT      O34681   6.566   3.450   3.615
10860WAT     H134682   6.560   3.510   3.690
10860WAT     H234683   6.660   3.440   3.601
10861WAT      O34684   6.830   3.416   3.579
10861WAT     H134685   6.891   3.448   3.513
10861WAT     H234686   6.884   3.368   3.641
10862WAT      O34687   7.471   5.006   3.320
10862WAT     H134688   7.422   5.046   3.248
10862WAT     H234689   7.411   4.944   3.359
10863WAT      O34690   5.882   3.284   3.590
10863WAT     H134691   5.937   3.266   3.514
10863WAT     H234692   5.888   3.205   3.644
10864WAT      O34693   6.904   3.272   3.212
10864WAT     H134694   6.816   3.306   3.191
10864WAT     H234695   6.893   3.225   3.294
10865WAT      O34696   7.240   5.070   3.047
10865WAT     H134697   7.194   5.145   3.010
10865WAT     H234698   7.177   4.998   3.042
10866WAT      O34699   6.283   4.901   2.965
10866WAT     H134700   6.334   4.840   2.912
10866WAT     H234701   6.348   4.951   3.014
10867WAT      O34702   6.557   4.990   3.048
10867WAT     H134703   6.585   4.965   2.960
10867WAT     H234704   6.608   4.935   3.107
10868WAT      O34705   6.678   3.364   3.106
10868WAT     H134706   6.600   3.412   3.134
10868WAT     H234707   6.649   3.274   3.095
10869WAT      O34708   5.751   5.011   2.607
10869WAT     H134709   5.734   4.948   2.677
10869WAT     H234710   5.664   5.032   2.572
10870WAT      O34711   5.813   3.395   2.358
10870WAT     H134712   5.889   3.406   2.300
10870WAT     H234713   5.767   3.478   2.353
10871WAT      O34714   6.467   3.606   2.657
10871WAT     H134715   6.386   3.569   2.623
10871WAT     H234716   6.517   3.530   2.687
10872WAT      O34717   6.917   3.272   2.781
10872WAT     H134718   6.978   3.330   2.828
10872WAT     H234719   6.843   3.329   2.758
10873WAT      O34720   7.232   3.313   2.308
10873WAT     H134721   7.251   3.403   2.335
10873WAT     H234722   7.153   3.290   2.357
10874WAT      O34723   5.911   4.881   2.352
10874WAT     H134724   5.859   4.919   2.282
10874WAT     H234725   5.904   4.943   2.424
10875WAT      O34726   6.050   3.447   2.212
10875WAT     H134727   6.103   3.369   2.199
10875WAT     H234728   6.113   3.515   2.235
10876WAT      O34729   6.270   3.421   2.517
10876WAT     H134730   6.207   3.351   2.534
10876WAT     H234731   6.216   3.497   2.496
10877WAT      O34732   7.387   5.037   2.484
10877WAT     H134733   7.404   4.968   2.420
10877WAT     H234734   7.317   5.089   2.445
10878WAT      O34735   6.282   3.349   3.761
10878WAT     H134736   6.254   3.399   3.684
10878WAT     H234737   6.320   3.269   3.724
10879WAT      O34738   6.171   5.076   2.239
10879WAT     H134739   6.244   5.047   2.185
10879WAT     H234740   6.197   5.052   2.328
10880WAT      O34741   6.087   4.687   2.240
10880WAT     H134742   6.024   4.734   2.295
10880WAT     H234743   6.099   4.603   2.283
10881WAT      O34744   6.942   3.290   3.819
10881WAT     H134745   6.931   3.322   3.908
10881WAT     H234746   7.024   3.331   3.789
10882WAT      O34747   7.220   5.005   3.767
10882WAT     H134748   7.299   4.956   3.746
10882WAT     H234749   7.250   5.073   3.827
10883WAT      O34750   6.833   4.092   0.855
10883WAT     H134751   6.825   4.001   0.828
10883WAT     H234752   6.791   4.142   0.784
10884WAT      O34753   6.646   4.270   1.043
10884WAT     H134754   6.568   4.222   1.072
10884WAT     H234755   6.711   4.202   1.026
10885WAT      O34756   6.048   4.301   1.131
10885WAT     H134757   5.964   4.276   1.171
10885WAT     H234758   6.108   4.308   1.204
10886WAT      O34759   7.048   4.711   0.921
10886WAT     H134760   7.002   4.634   0.954
10886WAT     H234761   7.129   4.713   0.972
10887WAT      O34762   6.046   4.705   1.150
10887WAT     H134763   6.076   4.616   1.132
10887WAT     H234764   6.120   4.760   1.128
10888WAT      O34765   5.889   3.797   0.509
10888WAT     H134766   5.800   3.832   0.499
10888WAT     H234767   5.917   3.777   0.420
10889WAT      O34768   5.685   4.057   1.098
10889WAT     H134769   5.742   3.981   1.098
10889WAT     H234770   5.685   4.087   1.007
10890WAT      O34771   6.671   4.939   0.883
10890WAT     H134772   6.609   4.985   0.826
10890WAT     H234773   6.756   4.955   0.843
10891WAT      O34774   6.590   4.538   1.044
10891WAT     H134775   6.583   4.444   1.028
10891WAT     H234776   6.666   4.547   1.101
10892WAT      O34777   5.809   3.598   1.276
10892WAT     H134778   5.791   3.508   1.304
10892WAT     H234779   5.769   3.653   1.344
10893WAT      O34780   6.693   3.818   1.066
10893WAT     H134781   6.731   3.731   1.055
10893WAT     H234782   6.683   3.852   0.977
10894WAT      O34783   6.106   3.656   0.613
10894WAT     H134784   6.117   3.746   0.643
10894WAT     H234785   6.015   3.651   0.584
10895WAT      O34786   7.071   3.568   0.760
10895WAT     H134787   7.153   3.519   0.764
10895WAT     H234788   7.075   3.627   0.835
10896WAT      O34789   5.871   3.848   1.137
10896WAT     H134790   5.939   3.874   1.199
10896WAT     H234791   5.839   3.764   1.170
10897WAT      O34792   6.290   3.953   1.046
10897WAT     H134793   6.341   4.002   1.110
10897WAT     H234794   6.343   3.875   1.028
10898WAT      O34795   7.500   3.770   1.416
10898WAT     H134796   7.430   3.808   1.364
10898WAT     H234797   7.527   3.839   1.476
10899WAT      O34798   6.119   3.417   1.472
10899WAT     H134799   6.119   3.468   1.392
10899WAT     H234800   6.036   3.369   1.470
10900WAT      O34801   6.757   4.428   0.622
10900WAT     H134802   6.695   4.474   0.566
10900WAT     H234803   6.809   4.497   0.664
10901WAT      O34804   6.244   4.380   1.290
10901WAT     H134805   6.210   4.443   1.354
10901WAT     H234806   6.261   4.433   1.212
10902WAT      O34807   7.095   3.762   1.037
10902WAT     H134808   7.025   3.791   1.095
10902WAT     H234809   7.131   3.843   1.001
10903WAT      O34810   6.087   3.588   1.273
10903WAT     H134811   6.121   3.672   1.244
10903WAT     H234812   5.993   3.602   1.285
10904WAT      O34813   6.165   4.577   1.472
10904WAT     H134814   6.227   4.645   1.444
10904WAT     H234815   6.079   4.618   1.463
10905WAT      O34816   5.694   4.496   0.360
10905WAT     H134817   5.656   4.545   0.287
10905WAT     H234818   5.720   4.564   0.423
10906WAT      O34819   7.257   4.724   1.263
10906WAT     H134820   7.188   4.791   1.262
10906WAT     H234821   7.311   4.743   1.187
10907WAT      O34822   7.402   3.706   1.076
10907WAT     H134823   7.307   3.710   1.089
10907WAT     H234824   7.434   3.788   1.115
10908WAT      O34825   6.455   3.336   0.906
10908WAT     H134826   6.486   3.281   0.834
10908WAT     H234827   6.362   3.350   0.887
10909WAT      O34828   7.010   4.908   1.135
10909WAT     H134829   7.011   4.868   1.048
10909WAT     H234830   6.955   4.986   1.124
10910WAT      O34831   7.140   4.580   0.644
10910WAT     H134832   7.129   4.486   0.656
10910WAT     H234833   7.139   4.616   0.732
10911WAT      O34834   6.950   4.398   1.267
10911WAT     H134835   6.992   4.377   1.184
10911WAT     H234836   7.022   4.424   1.325
10912WAT      O34837   6.694   4.143   0.579
10912WAT     H134838   6.601   4.136   0.602
10912WAT     H234839   6.709   4.237   0.568
10913WAT      O34840   6.693   3.770   0.279
10913WAT     H134841   6.599   3.786   0.287
10913WAT     H234842   6.724   3.842   0.224
10914WAT      O34843   7.345   4.238   1.277
10914WAT     H134844   7.262   4.245   1.229
10914WAT     H234845   7.404   4.297   1.230
10915WAT      O34846   7.097   4.299   0.630
10915WAT     H134847   7.035   4.265   0.565
10915WAT     H234848   7.095   4.235   0.700
10916WAT      O34849   7.041   3.917   1.371
10916WAT     H134850   7.000   4.000   1.397
10916WAT     H234851   6.968   3.858   1.352
10917WAT      O34852   6.254   4.196   0.857
10917WAT     H134853   6.214   4.124   0.808
10917WAT     H234854   6.263   4.161   0.946
10918WAT      O34855   6.301   4.564   1.074
10918WAT     H134856   6.272   4.504   1.006
10918WAT     H234857   6.396   4.568   1.063
10919WAT      O34858   6.126   3.873   1.235
10919WAT     H134859   6.181   3.884   1.158
10919WAT     H234860   6.177   3.910   1.307
10920WAT      O34861   7.110   4.922   1.440
10920WAT     H134862   7.062   5.002   1.421
10920WAT     H234863   7.042   4.856   1.455
10921WAT      O34864   6.210   4.538   1.739
10921WAT     H134865   6.121   4.560   1.764
10921WAT     H234866   6.213   4.550   1.644
10922WAT      O34867   6.914   4.223   0.330
10922WAT     H134868   6.958   4.139   0.316
10922WAT     H234869   6.986   4.286   0.339
10923WAT      O34870   6.093   4.225   1.596
10923WAT     H134871   6.079   4.312   1.633
10923WAT     H234872   6.005   4.191   1.582
10924WAT      O34873   6.725   4.717   0.727
10924WAT     H134874   6.769   4.791   0.686
10924WAT     H234875   6.719   4.741   0.819
10925WAT      O34876   6.273   4.819   1.817
10925WAT     H134877   6.270   4.860   1.731
10925WAT     H234878   6.257   4.727   1.801
10926WAT      O34879   5.924   4.085   0.607
10926WAT     H134880   5.912   4.158   0.546
10926WAT     H234881   5.893   4.008   0.560
10927WAT      O34882   7.468   4.898   1.947
10927WAT     H134883   7.516   4.946   2.015
10927WAT     H234884   7.530   4.891   1.874
10928WAT      O34885   5.688   4.402   1.188
10928WAT     H134886   5.696   4.416   1.094
10928WAT     H234887   5.750   4.331   1.207
10929WAT      O34888   5.813   4.572   0.829
10929WAT     H134889   5.772   4.586   0.744
10929WAT     H234890   5.902   4.544   0.809
10930WAT      O34891   7.408   4.617   1.663
10930WAT     H134892   7.421   4.593   1.571
10930WAT     H234893   7.413   4.534   1.710
10931WAT      O34894   6.795   4.987   1.520
10931WAT     H134895   6.846   4.978   1.600
10931WAT     H234896   6.710   5.022   1.549
10932WAT      O34897   6.992   5.016   0.463
10932WAT     H134898   6.976   4.987   0.553
10932WAT     H234899   6.976   4.938   0.409
10933WAT      O34900   6.240   4.994   0.640
10933WAT     H134901   6.222   4.902   0.619
10933WAT     H234902   6.155   5.029   0.664
10934WAT      O34903   6.962   4.767   0.319
10934WAT     H134904   6.893   4.766   0.253
10934WAT     H234905   7.037   4.724   0.276
10935WAT      O34906   6.919   4.929   0.726
10935WAT     H134907   6.964   4.851   0.758
10935WAT     H234908   6.953   5.000   0.781
10936WAT      O34909   7.394   3.822   1.759
10936WAT     H134910   7.332   3.873   1.707
10936WAT     H234911   7.362   3.732   1.754
10937WAT      O34912   5.694   4.506   1.442
10937WAT     H134913   5.710   4.459   1.360
10937WAT     H234914   5.740   4.456   1.509
10938WAT      O34915   6.171   3.419   0.946
10938WAT     H134916   6.127   3.497   0.913
10938WAT     H234917   6.227   3.452   1.016
10939WAT      O34918   6.600   3.706   1.506
10939WAT     H134919   6.554   3.727   1.587
10939WAT     H234920   6.560   3.625   1.476
10940WAT      O34921   7.100   3.828   1.619
10940WAT     H134922   7.015   3.798   1.651
10940WAT     H234923   7.084   3.853   1.528
10941WAT      O34924   6.809   3.978   1.829
10941WAT     H134925   6.842   3.895   1.795
10941WAT     H234926   6.888   4.030   1.844
10942WAT      O34927   6.483   3.381   0.434
10942WAT     H134928   6.420   3.381   0.506
10942WAT     H234929   6.474   3.295   0.394
10943WAT      O34930   6.375   3.474   1.132
10943WAT     H134931   6.405   3.564   1.124
10943WAT     H234932   6.430   3.425   1.070
10944WAT      O34933   6.150   3.932   0.719
10944WAT     H134934   6.128   3.910   0.809
10944WAT     H234935   6.072   3.975   0.684
10945WAT      O34936   6.873   3.932   0.578
10945WAT     H134937   6.813   4.005   0.560
10945WAT     H234938   6.928   3.926   0.500
10946WAT      O34939   6.394   4.022   1.785
10946WAT     H134940   6.385   3.928   1.770
10946WAT     H234941   6.479   4.044   1.746
10947WAT      O34942   6.734   3.796   0.781
10947WAT     H134943   6.773   3.828   0.700
10947WAT     H234944   6.770   3.708   0.793
10948WAT      O34945   5.907   3.663   1.600
10948WAT     H134946   5.868   3.747   1.621
10948WAT     H234947   5.839   3.599   1.620
10949WAT      O34948   6.565   3.671   1.907
10949WAT     H134949   6.496   3.652   1.971
10949WAT     H234950   6.639   3.699   1.961
10950WAT      O34951   5.638   3.455   1.004
10950WAT     H134952   5.609   3.512   1.075
10950WAT     H234953   5.712   3.407   1.040
10951WAT      O34954   6.792   4.055   1.191
10951WAT     H134955   6.719   4.106   1.226
10951WAT     H234956   6.753   3.973   1.161
10952WAT      O34957   6.436   3.723   1.031
10952WAT     H134958   6.437   3.678   0.947
10952WAT     H234959   6.526   3.755   1.042
10953WAT      O34960   6.021   3.711   0.927
10953WAT     H134961   5.987   3.759   1.003
10953WAT     H234962   5.945   3.665   0.891
10954WAT      O34963   6.442   3.823   0.331
10954WAT     H134964   6.455   3.819   0.425
10954WAT     H234965   6.404   3.909   0.315
10955WAT      O34966   6.839   3.600   1.132
10955WAT     H134967   6.840   3.645   1.217
10955WAT     H234968   6.814   3.510   1.154
10956WAT      O34969   6.344   4.054   0.270
10956WAT     H134970   6.287   4.009   0.208
10956WAT     H234971   6.414   4.090   0.217
10957WAT      O34972   7.181   3.342   1.716
10957WAT     H134973   7.214   3.269   1.769
10957WAT     H234974   7.185   3.310   1.626
10958WAT      O34975   5.851   4.444   1.658
10958WAT     H134976   5.813   4.380   1.718
10958WAT     H234977   5.882   4.514   1.715
10959WAT      O34978   6.466   4.129   1.206
10959WAT     H134979   6.503   4.081   1.281
10959WAT     H234980   6.447   4.216   1.240
10960WAT      O34981   5.753   3.603   0.819
10960WAT     H134982   5.724   3.567   0.903
10960WAT     H234983   5.746   3.530   0.758
10961WAT      O34984   6.245   4.033   1.438
10961WAT     H134985   6.215   4.121   1.460
10961WAT     H234986   6.341   4.039   1.442
10962WAT      O34987   6.098   4.453   0.498
10962WAT     H134988   6.021   4.399   0.482
10962WAT     H234989   6.171   4.401   0.464
10963WAT      O34990   7.174   4.353   1.077
10963WAT     H134991   7.246   4.402   1.038
10963WAT     H234992   7.154   4.285   1.012
10964WAT      O34993   6.720   3.492   0.491
10964WAT     H134994   6.639   3.442   0.484
10964WAT     H234995   6.701   3.576   0.450
10965WAT      O34996   6.712   4.360   1.666
10965WAT     H134997   6.706   4.268   1.640
10965WAT     H234998   6.649   4.370   1.737
10966WAT      O34999   6.992   3.930   0.321
10966WAT     H135000   7.080   3.961   0.303
10966WAT     H235001   6.989   3.842   0.282
10967WAT      O35002   6.102   4.420   0.861
10967WAT     H135003   6.154   4.340   0.856
10967WAT     H235004   6.057   4.414   0.946
10968WAT      O35005   6.591   4.547   0.389
10968WAT     H135006   6.625   4.621   0.339
10968WAT     H235007   6.508   4.578   0.425
10969WAT      O35008   5.851   4.117   1.553
10969WAT     H135009   5.815   4.183   1.611
10969WAT     H235010   5.821   4.034   1.590
10970WAT      O35011   6.171   4.163   1.841
10970WAT     H135012   6.141   4.177   1.751
10970WAT     H235013   6.248   4.107   1.832
10971WAT      O35014   6.705   4.642   1.641
10971WAT     H135015   6.707   4.549   1.619
10971WAT     H235016   6.635   4.651   1.705
10972WAT      O35017   7.219   4.061   0.268
10972WAT     H135018   7.210   4.104   0.183
10972WAT     H235019   7.291   4.107   0.311
10973WAT      O35020   7.326   4.306   1.575
10973WAT     H135021   7.254   4.366   1.556
10973WAT     H235022   7.379   4.306   1.495
10974WAT      O35023   7.322   4.746   0.540
10974WAT     H135024   7.257   4.681   0.568
10974WAT     H235025   7.283   4.787   0.463
10975WAT      O35026   6.879   4.479   0.925
10975WAT     H135027   6.915   4.419   0.859
10975WAT     H235028   6.791   4.446   0.942
10976WAT      O35029   6.488   4.555   0.666
10976WAT     H135030   6.557   4.610   0.704
10976WAT     H235031   6.409   4.609   0.669
10977WAT      O35032   5.702   4.117   0.215
10977WAT     H135033   5.789   4.145   0.243
10977WAT     H235034   5.653   4.198   0.204
10978WAT      O35035   6.418   4.255   0.627
10978WAT     H135036   6.464   4.336   0.650
10978WAT     H235037   6.383   4.224   0.710
10979WAT      O35038   6.649   4.806   1.350
10979WAT     H135039   6.713   4.827   1.418
10979WAT     H235040   6.685   4.730   1.305
10980WAT      O35041   6.008   3.290   0.674
10980WAT     H135042   5.996   3.289   0.769
10980WAT     H235043   5.926   3.324   0.639
10981WAT      O35044   6.776   4.607   1.222
10981WAT     H135045   6.840   4.537   1.233
10981WAT     H235046   6.828   4.685   1.204
10982WAT      O35047   6.953   4.687   1.542
10982WAT     H135048   6.987   4.745   1.610
10982WAT     H235049   6.861   4.674   1.565
10983WAT      O35050   5.739   5.038   0.272
10983WAT     H135051   5.775   5.098   0.206
10983WAT     H235052   5.725   5.092   0.349
10984WAT      O35053   5.708   3.466   1.620
10984WAT     H135054   5.637   3.486   1.681
10984WAT     H235055   5.750   3.388   1.658
10985WAT      O35056   7.119   4.427   0.360
10985WAT     H135057   7.090   4.473   0.439
10985WAT     H235058   7.198   4.381   0.387
10986WAT      O35059   5.737   4.864   1.719
10986WAT     H135060   5.748   4.770   1.705
10986WAT     H235061   5.672   4.891   1.654
10987WAT      O35062   6.536   4.692   1.859
10987WAT     H135063   6.504   4.620   1.914
10987WAT     H235064   6.469   4.759   1.866
10988WAT      O35065   6.340   4.776   0.353
10988WAT     H135066   6.339   4.849   0.292
10988WAT     H235067   6.248   4.752   0.363
10989WAT      O35068   5.900   4.298   0.428
10989WAT     H135069   5.840   4.372   0.429
10989WAT     H235070   5.948   4.307   0.345
10990WAT      O35071   6.858   3.715   1.395
10990WAT     H135072   6.895   3.633   1.428
10990WAT     H235073   6.772   3.721   1.437
10991WAT      O35074   7.194   3.610   0.476
10991WAT     H135075   7.132   3.621   0.405
10991WAT     H235076   7.145   3.632   0.555
10992WAT      O35077   6.391   3.838   0.618
10992WAT     H135078   6.320   3.885   0.662
10992WAT     H235079   6.420   3.773   0.681
10993WAT      O35080   6.554   3.980   1.418
10993WAT     H135081   6.604   4.028   1.484
10993WAT     H235082   6.568   3.888   1.439
10994WAT      O35083   6.794   3.511   0.762
10994WAT     H135084   6.782   3.513   0.667
10994WAT     H235085   6.889   3.516   0.774
10995WAT      O35086   6.503   5.034   0.689
10995WAT     H135087   6.529   5.031   0.597
10995WAT     H235088   6.408   5.022   0.688
10996WAT      O35089   6.212   3.669   0.355
10996WAT     H135090   6.296   3.713   0.349
10996WAT     H235091   6.175   3.700   0.438
10997WAT      O35092   7.274   3.602   1.502
10997WAT     H135093   7.224   3.676   1.536
10997WAT     H235094   7.356   3.641   1.470
10998WAT      O35095   7.104   4.126   0.847
10998WAT     H135096   7.010   4.128   0.864
10998WAT     H235097   7.135   4.048   0.891
10999WAT      O35098   5.971   4.038   0.271
10999WAT     H135099   5.979   3.943   0.282
10999WAT     H235100   6.060   4.071   0.282
11000WAT      O35101   7.304   4.843   1.014
11000WAT     H135102   7.316   4.926   1.061
11000WAT     H235103   7.391   4.822   0.979
11001WAT      O35104   6.051   5.053   0.981
11001WAT     H135105   6.125   4.998   1.009
11001WAT     H235106   6.090   5.139   0.967
11002WAT      O35107   5.740   4.659   0.569
11002WAT     H135108   5.647   4.684   0.568
11002WAT     H235109   5.786   4.742   0.557
11003WAT      O35110   5.952   4.971   1.900
11003WAT     H135111   6.032   5.003   1.942
11003WAT     H235112   5.900   4.935   1.972
11004WAT      O35113   6.835   4.582   1.895
11004WAT     H135114   6.775   4.584   1.821
11004WAT     H235115   6.805   4.509   1.949
11005WAT      O35116   6.978   4.955   1.756
11005WAT     H135117   7.074   4.946   1.751
11005WAT     H235118   6.964   5.021   1.823
11006WAT      O35119   7.267   4.893   0.306
11006WAT     H135120   7.239   4.851   0.225
11006WAT     H235121   7.248   4.986   0.294
11007WAT      O35122   5.724   4.220   1.795
11007WAT     H135123   5.774   4.162   1.852
11007WAT     H235124   5.650   4.248   1.848
11008WAT      O35125   6.429   4.361   1.748
11008WAT     H135126   6.353   4.417   1.740
11008WAT     H235127   6.447   4.331   1.659
11009WAT      O35128   6.738   4.398   0.211
11009WAT     H135129   6.683   4.443   0.275
11009WAT     H235130   6.800   4.348   0.263
11010WAT      O35131   7.143   4.534   1.804
11010WAT     H135132   7.217   4.567   1.753
11010WAT     H235133   7.067   4.551   1.748
11011WAT      O35134   5.927   4.034   1.884
11011WAT     H135135   5.931   4.004   1.975
11011WAT     H235136   6.012   4.074   1.868
11012WAT      O35137   6.305   4.294   0.400
11012WAT     H135138   6.347   4.278   0.484
11012WAT     H235139   6.317   4.213   0.351
11013WAT      O35140   6.121   3.892   1.681
11013WAT     H135141   6.068   3.843   1.618
11013WAT     H235142   6.188   3.935   1.627
11014WAT      O35143   7.011   4.339   1.657
11014WAT     H135144   7.052   4.354   1.742
11014WAT     H235145   6.917   4.351   1.674
11015WAT      O35146   7.058   4.073   1.858
11015WAT     H135147   7.116   3.997   1.849
11015WAT     H235148   7.076   4.126   1.780
11016WAT      O35149   6.170   3.589   1.689
11016WAT     H135150   6.160   3.527   1.616
11016WAT     H235151   6.112   3.661   1.666
11017WAT      O35152   6.446   3.444   1.392
11017WAT     H135153   6.401   3.447   1.308
11017WAT     H235154   6.383   3.405   1.452
11018WAT      O35155   6.487   4.334   1.454
11018WAT     H135156   6.529   4.418   1.437
11018WAT     H235157   6.395   4.348   1.431
11019WAT      O35158   6.721   4.107   1.593
11019WAT     H135159   6.732   4.048   1.667
11019WAT     H235160   6.806   4.111   1.551
11020WAT      O35161   6.954   4.163   1.450
11020WAT     H135162   6.902   4.215   1.390
11020WAT     H235163   6.989   4.226   1.513
11021WAT      O35164   6.272   4.965   1.566
11021WAT     H135165   6.218   5.037   1.534
11021WAT     H235166   6.297   4.917   1.487
11022WAT      O35167   6.397   3.761   1.718
11022WAT     H135168   6.456   3.731   1.787
11022WAT     H235169   6.315   3.714   1.734
11023WAT      O35170   6.879   3.723   1.742
11023WAT     H135171   6.810   3.657   1.735
11023WAT     H235172   6.951   3.678   1.786
11024WAT      O35173   6.942   3.383   0.348
11024WAT     H135174   6.970   3.298   0.383
11024WAT     H235175   6.865   3.406   0.399
11025WAT      O35176   6.558   5.088   1.592
11025WAT     H135177   6.550   5.178   1.622
11025WAT     H235178   6.467   5.056   1.589
11026WAT      O35179   6.612   5.005   0.354
11026WAT     H135180   6.702   5.038   0.356
11026WAT     H235181   6.616   4.932   0.291
11027WAT      O35182   5.976   4.542   0.177
11027WAT     H135183   6.020   4.596   0.242
11027WAT     H235184   6.025   4.459   0.178
11028WAT      O35185   5.698   4.821   0.922
11028WAT     H135186   5.731   4.734   0.899
11028WAT     H235187   5.741   4.841   1.005
11029WAT      O35188   6.157   4.654   0.688
11029WAT     H135189   6.127   4.642   0.778
11029WAT     H235190   6.147   4.568   0.647
11030WAT      O35191   5.747   4.907   1.196
11030WAT     H135192   5.703   4.925   1.279
11030WAT     H235193   5.804   4.983   1.182
11031WAT      O35194   7.310   4.858   1.625
11031WAT     H135195   7.250   4.864   1.550
11031WAT     H235196   7.323   4.764   1.638
11032WAT      O35197   7.380   4.306   0.409
11032WAT     H135198   7.456   4.363   0.419
11032WAT     H235199   7.382   4.250   0.486
11033WAT      O35200   5.730   4.159   0.832
11033WAT     H135201   5.665   4.132   0.767
11033WAT     H235202   5.814   4.148   0.787
11034WAT      O35203   7.481   4.392   0.893
11034WAT     H135204   7.518   4.313   0.852
11034WAT     H235205   7.545   4.461   0.875
11035WAT      O35206   7.179   4.530   1.434
11035WAT     H135207   7.098   4.573   1.461
11035WAT     H235208   7.220   4.591   1.373
11036WAT      O35209   7.025   3.638   0.254
11036WAT     H135210   7.067   3.619   0.170
11036WAT     H235211   6.994   3.553   0.285
11037WAT      O35212   7.375   4.129   0.624
11037WAT     H135213   7.337   4.053   0.580
11037WAT     H235214   7.302   4.168   0.672
11038WAT      O35215   5.834   4.197   1.286
11038WAT     H135216   5.871   4.188   1.374
11038WAT     H235217   5.777   4.121   1.276
11039WAT      O35218   7.314   4.044   1.587
11039WAT     H135219   7.291   4.021   1.497
11039WAT     H235220   7.340   4.136   1.583
11040WAT      O35221   5.789   3.888   1.676
11040WAT     H135222   5.699   3.885   1.710
11040WAT     H235223   5.843   3.908   1.753
11041WAT      O35224   7.158   3.567   1.865
11041WAT     H135225   7.245   3.567   1.903
11041WAT     H235226   7.159   3.493   1.804
11042WAT      O35227   5.651   3.880   0.426
11042WAT     H135228   5.561   3.906   0.409
11042WAT     H235229   5.700   3.907   0.348
11043WAT      O35230   7.302   3.952   0.954
11043WAT     H135231   7.355   3.903   0.891
11043WAT     H235232   7.361   3.965   1.028
11044WAT      O35233   7.320   3.960   1.306
11044WAT     H135234   7.225   3.957   1.317
11044WAT     H235235   7.338   4.051   1.282
11045WAT      O35236   7.251   3.878   0.548
11045WAT     H135237   7.301   3.854   0.626
11045WAT     H235238   7.231   3.794   0.506
11046WAT      O35239   5.839   3.316   1.111
11046WAT     H135240   5.904   3.261   1.067
11046WAT     H235241   5.881   3.341   1.193
11047WAT      O35242   7.394   3.741   0.801
11047WAT     H135243   7.383   3.726   0.895
11047WAT     H235244   7.470   3.688   0.777
11048WAT      O35245   7.229   3.335   1.447
11048WAT     H135246   7.293   3.397   1.483
11048WAT     H235247   7.244   3.339   1.352
11049WAT      O35248   7.490   3.601   0.388
11049WAT     H135249   7.411   3.595   0.441
11049WAT     H235250   7.511   3.695   0.387
11050WAT      O35251   7.185   5.005   0.787
11050WAT     H135252   7.244   4.973   0.719
11050WAT     H235253   7.210   4.958   0.866
11051WAT      O35254   5.815   3.331   1.385
11051WAT     H135255   5.780   3.377   1.462
11051WAT     H235256   5.782   3.242   1.394
11052WAT      O35257   5.975   4.649   1.802
11052WAT     H135258   5.971   4.611   1.890
11052WAT     H235259   5.988   4.742   1.816
11053WAT      O35260   6.345   4.804   1.362
11053WAT     H135261   6.321   4.831   1.273
11053WAT     H235262   6.439   4.821   1.368
11054WAT      O35263   6.566   3.450   1.738
11054WAT     H135264   6.560   3.510   1.813
11054WAT     H235265   6.660   3.440   1.723
11055WAT      O35266   6.830   3.416   1.702
11055WAT     H135267   6.891   3.448   1.635
11055WAT     H235268   6.884   3.368   1.764
11056WAT      O35269   7.471   5.006   1.442
11056WAT     H135270   7.422   5.046   1.370
11056WAT     H235271   7.411   4.944   1.482
11057WAT      O35272   5.882   3.284   1.713
11057WAT     H135273   5.937   3.266   1.637
11057WAT     H235274   5.888   3.205   1.767
11058WAT      O35275   5.959   4.943   1.514
11058WAT     H135276   5.900   4.930   1.588
11058WAT     H235277   5.958   4.860   1.467
11059WAT      O35278   6.904   3.272   1.334
11059WAT     H135279   6.816   3.306   1.314
11059WAT     H235280   6.893   3.225   1.417
11060WAT      O35281   6.994   3.493   1.473
11060WAT     H135282   6.962   3.412   1.435
11060WAT     H235283   7.089   3.489   1.460
11061WAT      O35284   7.240   5.070   1.170
11061WAT     H135285   7.194   5.145   1.133
11061WAT     H235286   7.177   4.998   1.164
11062WAT      O35287   5.922   4.680   1.409
11062WAT     H135288   5.850   4.618   1.402
11062WAT     H235289   5.928   4.719   1.322
11063WAT      O35290   6.283   4.901   1.088
11063WAT     H135291   6.334   4.840   1.035
11063WAT     H235292   6.348   4.951   1.137
11064WAT      O35293   6.557   4.990   1.170
11064WAT     H135294   6.585   4.965   1.083
11064WAT     H235295   6.608   4.935   1.229
11065WAT      O35296   6.678   3.364   1.228
11065WAT     H135297   6.600   3.412   1.256
11065WAT     H235298   6.649   3.274   1.217
11066WAT      O35299   7.134   3.434   1.033
11066WAT     H135300   7.178   3.429   0.948
11066WAT     H235301   7.107   3.526   1.040
11067WAT      O35302   7.320   3.398   0.834
11067WAT     H135303   7.314   3.303   0.819
11067WAT     H235304   7.398   3.408   0.888
11068WAT      O35305   5.751   5.011   0.730
11068WAT     H135306   5.734   4.948   0.800
11068WAT     H235307   5.664   5.032   0.695
11069WAT      O35308   5.813   3.395   0.480
11069WAT     H135309   5.889   3.406   0.423
11069WAT     H235310   5.767   3.478   0.476
11070WAT      O35311   6.467   3.606   0.779
11070WAT     H135312   6.386   3.569   0.745
11070WAT     H235313   6.517   3.530   0.810
11071WAT      O35314   6.917   3.272   0.903
11071WAT     H135315   6.978   3.330   0.951
11071WAT     H235316   6.843   3.329   0.881
11072WAT      O35317   7.232   3.313   0.431
11072WAT     H135318   7.251   3.403   0.457
11072WAT     H235319   7.153   3.290   0.480
11073WAT      O35320   5.911   4.881   0.474
11073WAT     H135321   5.859   4.919   0.404
11073WAT     H235322   5.904   4.943   0.547
11074WAT      O35323   6.050   3.447   0.334
11074WAT     H135324   6.103   3.369   0.321
11074WAT     H235325   6.113   3.515   0.358
11075WAT      O35326   6.270   3.421   0.640
11075WAT     H135327   6.207   3.351   0.656
11075WAT     H235328   6.216   3.497   0.618
11076WAT      O35329   6.563   5.082   1.907
11076WAT     H135330   6.656   5.059   1.911
11076WAT     H235331   6.562   5.165   1.859
11077WAT      O35332   7.387   5.037   0.607
11077WAT     H135333   7.404   4.968   0.542
11077WAT     H235334   7.317   5.089   0.567
11078WAT      O35335   6.282   3.349   1.883
11078WAT     H135336   6.254   3.399   1.807
11078WAT     H235337   6.320   3.269   1.847
11079WAT      O35338   6.171   5.076   0.362
11079WAT     H135339   6.244   5.047   0.307
11079WAT     H235340   6.197   5.052   0.451
11080WAT      O35341   6.087   4.687   0.362
11080WAT     H135342   6.024   4.734   0.417
11080WAT     H235343   6.099   4.603   0.406
11081WAT      O35344   6.942   3.290   1.941
11081WAT     H135345   6.931   3.322   2.031
11081WAT     H235346   7.024   3.331   1.911
11082WAT      O35347   7.220   5.005   1.889
11082WAT     H135348   7.299   4.956   1.869
11082WAT     H235349   7.250   5.073   1.950
11083WAT      O35350   6.833   2.215   6.487
11083WAT     H135351   6.825   2.123   6.460
11083WAT     H235352   6.791   2.265   6.417
11084WAT      O35353   6.646   2.393   6.675
11084WAT     H135354   6.568   2.345   6.704
11084WAT     H235355   6.711   2.325   6.658
11085WAT      O35356   6.048   2.424   6.763
11085WAT     H135357   5.964   2.398   6.803
11085WAT     H235358   6.108   2.431   6.837
11086WAT      O35359   7.048   2.833   6.553
11086WAT     H135360   7.002   2.756   6.586
11086WAT     H235361   7.129   2.836   6.604
11087WAT      O35362   6.046   2.827   6.783
11087WAT     H135363   6.076   2.738   6.765
11087WAT     H235364   6.120   2.883   6.760
11088WAT      O35365   5.889   1.920   6.141
11088WAT     H135366   5.800   1.954   6.131
11088WAT     H235367   5.917   1.900   6.052
11089WAT      O35368   5.685   2.180   6.730
11089WAT     H135369   5.742   2.103   6.730
11089WAT     H235370   5.685   2.210   6.639
11090WAT      O35371   6.671   3.062   6.515
11090WAT     H135372   6.609   3.107   6.458
11090WAT     H235373   6.756   3.077   6.475
11091WAT      O35374   6.590   2.660   6.676
11091WAT     H135375   6.583   2.566   6.660
11091WAT     H235376   6.666   2.669   6.733
11092WAT      O35377   5.809   1.721   6.909
11092WAT     H135378   5.791   1.631   6.937
11092WAT     H235379   5.769   1.776   6.976
11093WAT      O35380   6.693   1.941   6.699
11093WAT     H135381   6.731   1.854   6.687
11093WAT     H235382   6.683   1.975   6.610
11094WAT      O35383   6.106   1.778   6.245
11094WAT     H135384   6.117   1.868   6.276
11094WAT     H235385   6.015   1.773   6.216
11095WAT      O35386   7.071   1.690   6.392
11095WAT     H135387   7.153   1.641   6.396
11095WAT     H235388   7.075   1.749   6.467
11096WAT      O35389   5.871   1.970   6.769
11096WAT     H135390   5.939   1.997   6.831
11096WAT     H235391   5.839   1.886   6.803
11097WAT      O35392   6.290   2.075   6.678
11097WAT     H135393   6.341   2.125   6.742
11097WAT     H235394   6.343   1.997   6.661
11098WAT      O35395   7.500   1.892   7.048
11098WAT     H135396   7.430   1.931   6.997
11098WAT     H235397   7.527   1.962   7.109
11099WAT      O35398   6.119   1.539   7.105
11099WAT     H135399   6.119   1.591   7.024
11099WAT     H235400   6.036   1.491   7.102
11100WAT      O35401   6.757   2.550   6.255
11100WAT     H135402   6.695   2.597   6.198
11100WAT     H235403   6.809   2.620   6.296
11101WAT      O35404   6.244   2.503   6.922
11101WAT     H135405   6.210   2.566   6.987
11101WAT     H235406   6.261   2.556   6.845
11102WAT      O35407   7.095   1.884   6.669
11102WAT     H135408   7.025   1.913   6.727
11102WAT     H235409   7.131   1.965   6.633
11103WAT      O35410   6.087   1.710   6.905
11103WAT     H135411   6.121   1.795   6.876
11103WAT     H235412   5.993   1.725   6.917
11104WAT      O35413   6.165   2.700   7.104
11104WAT     H135414   6.227   2.767   7.076
11104WAT     H235415   6.079   2.741   7.095
11105WAT      O35416   5.694   2.619   5.992
11105WAT     H135417   5.656   2.668   5.919
11105WAT     H235418   5.720   2.686   6.055
11106WAT      O35419   7.257   2.846   6.896
11106WAT     H135420   7.188   2.913   6.895
11106WAT     H235421   7.311   2.866   6.819
11107WAT      O35422   7.402   1.829   6.708
11107WAT     H135423   7.307   1.832   6.721
11107WAT     H235424   7.434   1.910   6.747
11108WAT      O35425   6.455   1.459   6.538
11108WAT     H135426   6.486   1.403   6.466
11108WAT     H235427   6.362   1.472   6.520
11109WAT      O35428   7.010   3.031   6.767
11109WAT     H135429   7.011   2.990   6.680
11109WAT     H235430   6.955   3.108   6.757
11110WAT      O35431   7.140   2.703   6.276
11110WAT     H135432   7.129   2.609   6.288
11110WAT     H235433   7.139   2.739   6.365
11111WAT      O35434   6.950   2.521   6.900
11111WAT     H135435   6.992   2.500   6.816
11111WAT     H235436   7.022   2.547   6.957
11112WAT      O35437   6.694   2.265   6.212
11112WAT     H135438   6.601   2.259   6.234
11112WAT     H235439   6.709   2.359   6.200
11113WAT      O35440   6.693   1.893   5.911
11113WAT     H135441   6.599   1.909   5.920
11113WAT     H235442   6.724   1.965   5.857
11114WAT      O35443   7.345   2.361   6.909
11114WAT     H135444   7.262   2.368   6.861
11114WAT     H235445   7.404   2.419   6.862
11115WAT      O35446   7.097   2.422   6.262
11115WAT     H135447   7.035   2.388   6.197
11115WAT     H235448   7.095   2.357   6.333
11116WAT      O35449   7.041   2.040   7.004
11116WAT     H135450   7.000   2.122   7.029
11116WAT     H235451   6.968   1.981   6.984
11117WAT      O35452   6.254   2.318   6.490
11117WAT     H135453   6.214   2.247   6.440
11117WAT     H235454   6.263   2.284   6.579
11118WAT      O35455   6.301   2.687   6.706
11118WAT     H135456   6.272   2.626   6.638
11118WAT     H235457   6.396   2.691   6.695
11119WAT      O35458   6.126   1.996   6.868
11119WAT     H135459   6.181   2.007   6.790
11119WAT     H235460   6.177   2.033   6.939
11120WAT      O35461   7.110   3.044   7.072
11120WAT     H135462   7.062   3.125   7.053
11120WAT     H235463   7.042   2.979   7.088
11121WAT      O35464   6.210   2.661   7.371
11121WAT     H135465   6.121   2.683   7.396
11121WAT     H235466   6.213   2.673   7.276
11122WAT      O35467   6.914   2.346   5.963
11122WAT     H135468   6.958   2.262   5.948
11122WAT     H235469   6.986   2.409   5.971
11123WAT      O35470   6.093   2.348   7.229
11123WAT     H135471   6.079   2.435   7.266
11123WAT     H235472   6.005   2.313   7.214
11124WAT      O35473   6.725   2.840   6.359
11124WAT     H135474   6.769   2.914   6.318
11124WAT     H235475   6.719   2.864   6.452
11125WAT      O35476   6.273   2.942   7.450
11125WAT     H135477   6.270   2.982   7.363
11125WAT     H235478   6.257   2.849   7.433
11126WAT      O35479   7.273   1.471   5.794
11126WAT     H135480   7.241   1.480   5.884
11126WAT     H235481   7.349   1.529   5.789
11127WAT      O35482   5.924   2.208   6.240
11127WAT     H135483   5.912   2.280   6.179
11127WAT     H235484   5.893   2.131   6.192
11128WAT      O35485   5.688   2.525   6.820
11128WAT     H135486   5.696   2.538   6.726
11128WAT     H235487   5.750   2.454   6.840
11129WAT      O35488   5.813   2.695   6.462
11129WAT     H135489   5.772   2.709   6.376
11129WAT     H235490   5.902   2.666   6.441
11130WAT      O35491   7.408   2.739   7.295
11130WAT     H135492   7.421   2.715   7.203
11130WAT     H235493   7.413   2.656   7.342
11131WAT      O35494   6.795   3.110   7.152
11131WAT     H135495   6.846   3.101   7.232
11131WAT     H235496   6.710   3.144   7.181
11132WAT      O35497   6.992   3.138   6.095
11132WAT     H135498   6.976   3.109   6.185
11132WAT     H235499   6.976   3.061   6.041
11133WAT      O35500   6.240   3.116   6.273
11133WAT     H135501   6.222   3.025   6.251
11133WAT     H235502   6.155   3.152   6.297
11134WAT      O35503   6.962   2.889   5.951
11134WAT     H135504   6.893   2.889   5.885
11134WAT     H235505   7.037   2.847   5.908
11135WAT      O35506   6.919   3.052   6.358
11135WAT     H135507   6.964   2.974   6.390
11135WAT     H235508   6.953   3.123   6.413
11136WAT      O35509   7.394   1.945   7.392
11136WAT     H135510   7.332   1.995   7.339
11136WAT     H235511   7.362   1.855   7.386
11137WAT      O35512   5.694   2.629   7.074
11137WAT     H135513   5.710   2.582   6.993
11137WAT     H235514   5.740   2.578   7.141
11138WAT      O35515   6.171   1.542   6.578
11138WAT     H135516   6.127   1.620   6.545
11138WAT     H235517   6.227   1.574   6.649
11139WAT      O35518   6.600   1.829   7.138
11139WAT     H135519   6.554   1.849   7.220
11139WAT     H235520   6.560   1.747   7.108
11140WAT      O35521   7.100   1.951   7.251
11140WAT     H135522   7.015   1.921   7.283
11140WAT     H235523   7.084   1.975   7.160
11141WAT      O35524   6.809   2.101   7.461
11141WAT     H135525   6.842   2.017   7.427
11141WAT     H235526   6.888   2.153   7.476
11142WAT      O35527   6.483   1.504   6.066
11142WAT     H135528   6.420   1.504   6.139
11142WAT     H235529   6.474   1.417   6.026
11143WAT      O35530   6.375   1.596   6.764
11143WAT     H135531   6.405   1.687   6.756
11143WAT     H235532   6.430   1.548   6.702
11144WAT      O35533   6.150   2.054   6.351
11144WAT     H135534   6.128   2.033   6.441
11144WAT     H235535   6.072   2.098   6.316
11145WAT      O35536   6.873   2.055   6.211
11145WAT     H135537   6.813   2.127   6.192
11145WAT     H235538   6.928   2.049   6.132
11146WAT      O35539   6.394   2.144   7.417
11146WAT     H135540   6.385   2.050   7.402
11146WAT     H235541   6.479   2.166   7.378
11147WAT      O35542   6.734   1.919   6.414
11147WAT     H135543   6.773   1.950   6.332
11147WAT     H235544   6.770   1.831   6.425
11148WAT      O35545   5.907   1.785   7.233
11148WAT     H135546   5.868   1.870   7.253
11148WAT     H235547   5.839   1.722   7.252
11149WAT      O35548   5.638   1.578   6.636
11149WAT     H135549   5.609   1.635   6.707
11149WAT     H235550   5.712   1.530   6.672
11150WAT      O35551   5.656   1.972   5.757
11150WAT     H135552   5.648   2.066   5.771
11150WAT     H235553   5.621   1.957   5.669
11151WAT      O35554   6.792   2.178   6.823
11151WAT     H135555   6.719   2.228   6.858
11151WAT     H235556   6.753   2.096   6.793
11152WAT      O35557   6.436   1.845   6.664
11152WAT     H135558   6.437   1.801   6.579
11152WAT     H235559   6.526   1.877   6.675
11153WAT      O35560   6.021   1.833   6.560
11153WAT     H135561   5.987   1.881   6.635
11153WAT     H235562   5.945   1.788   6.524
11154WAT      O35563   6.442   1.945   5.963
11154WAT     H135564   6.455   1.941   6.058
11154WAT     H235565   6.404   2.031   5.947
11155WAT      O35566   6.839   1.723   6.764
11155WAT     H135567   6.840   1.768   6.849
11155WAT     H235568   6.814   1.633   6.786
11156WAT      O35569   6.344   2.176   5.903
11156WAT     H135570   6.287   2.131   5.840
11156WAT     H235571   6.414   2.212   5.849
11157WAT      O35572   7.181   1.464   7.348
11157WAT     H135573   7.214   1.391   7.401
11157WAT     H235574   7.185   1.432   7.258
11158WAT      O35575   5.851   2.566   7.290
11158WAT     H135576   5.813   2.502   7.350
11158WAT     H235577   5.882   2.637   7.347
11159WAT      O35578   6.466   2.251   6.838
11159WAT     H135579   6.503   2.204   6.913
11159WAT     H235580   6.447   2.339   6.873
11160WAT      O35581   5.753   1.726   6.451
11160WAT     H135582   5.724   1.689   6.535
11160WAT     H235583   5.746   1.652   6.390
11161WAT      O35584   6.245   2.155   7.070
11161WAT     H135585   6.215   2.243   7.093
11161WAT     H235586   6.341   2.161   7.074
11162WAT      O35587   6.098   2.576   6.130
11162WAT     H135588   6.021   2.522   6.114
11162WAT     H235589   6.171   2.524   6.096
11163WAT      O35590   7.174   2.476   6.709
11163WAT     H135591   7.246   2.525   6.670
11163WAT     H235592   7.154   2.408   6.645
11164WAT      O35593   6.720   1.615   6.124
11164WAT     H135594   6.639   1.565   6.116
11164WAT     H235595   6.701   1.699   6.082
11165WAT      O35596   6.712   2.483   7.298
11165WAT     H135597   6.706   2.391   7.272
11165WAT     H235598   6.649   2.492   7.369
11166WAT      O35599   6.992   2.052   5.953
11166WAT     H135600   7.080   2.083   5.936
11166WAT     H235601   6.989   1.965   5.914
11167WAT      O35602   6.102   2.543   6.494
11167WAT     H135603   6.154   2.462   6.488
11167WAT     H235604   6.057   2.536   6.578
11168WAT      O35605   6.591   2.669   6.021
11168WAT     H135606   6.625   2.744   5.971
11168WAT     H235607   6.508   2.701   6.057
11169WAT      O35608   5.851   2.239   7.185
11169WAT     H135609   5.815   2.306   7.244
11169WAT     H235610   5.821   2.156   7.222
11170WAT      O35611   6.171   2.285   7.473
11170WAT     H135612   6.141   2.300   7.384
11170WAT     H235613   6.248   2.229   7.464
11171WAT      O35614   6.705   2.765   7.273
11171WAT     H135615   6.707   2.672   7.251
11171WAT     H235616   6.635   2.773   7.337
11172WAT      O35617   7.219   2.183   5.900
11172WAT     H135618   7.210   2.226   5.815
11172WAT     H235619   7.291   2.229   5.943
11173WAT      O35620   7.326   2.429   7.208
11173WAT     H135621   7.254   2.488   7.188
11173WAT     H235622   7.379   2.428   7.128
11174WAT      O35623   7.322   2.869   6.173
11174WAT     H135624   7.257   2.803   6.200
11174WAT     H235625   7.283   2.909   6.095
11175WAT      O35626   6.879   2.601   6.557
11175WAT     H135627   6.915   2.542   6.491
11175WAT     H235628   6.791   2.569   6.575
11176WAT      O35629   6.488   2.677   6.298
11176WAT     H135630   6.557   2.732   6.336
11176WAT     H235631   6.409   2.732   6.302
11177WAT      O35632   5.702   2.239   5.847
11177WAT     H135633   5.789   2.267   5.876
11177WAT     H235634   5.653   2.321   5.836
11178WAT      O35635   6.418   2.378   6.259
11178WAT     H135636   6.464   2.459   6.282
11178WAT     H235637   6.383   2.346   6.343
11179WAT      O35638   6.649   2.929   6.982
11179WAT     H135639   6.713   2.950   7.050
11179WAT     H235640   6.685   2.853   6.937
11180WAT      O35641   6.008   1.412   6.307
11180WAT     H135642   5.996   1.411   6.402
11180WAT     H235643   5.926   1.446   6.272
11181WAT      O35644   6.776   2.729   6.854
11181WAT     H135645   6.840   2.659   6.865
11181WAT     H235646   6.828   2.807   6.836
11182WAT      O35647   7.161   2.758   5.827
11182WAT     H135648   7.138   2.686   5.886
11182WAT     H235649   7.121   2.733   5.743
11183WAT      O35650   6.953   2.809   7.174
11183WAT     H135651   6.987   2.868   7.242
11183WAT     H235652   6.861   2.796   7.197
11184WAT      O35653   5.739   3.160   5.904
11184WAT     H135654   5.775   3.220   5.839
11184WAT     H235655   5.725   3.215   5.981
11185WAT      O35656   5.708   1.588   7.253
11185WAT     H135657   5.637   1.608   7.313
11185WAT     H235658   5.750   1.511   7.290
11186WAT      O35659   7.119   2.550   5.993
11186WAT     H135660   7.090   2.596   6.071
11186WAT     H235661   7.198   2.503   6.019
11187WAT      O35662   5.737   2.987   7.351
11187WAT     H135663   5.748   2.893   7.337
11187WAT     H235664   5.672   3.014   7.287
11188WAT      O35665   6.340   2.899   5.986
11188WAT     H135666   6.339   2.972   5.924
11188WAT     H235667   6.248   2.874   5.995
11189WAT      O35668   5.900   2.421   6.060
11189WAT     H135669   5.840   2.495   6.061
11189WAT     H235670   5.948   2.430   5.978
11190WAT      O35671   6.858   1.837   7.028
11190WAT     H135672   6.895   1.755   7.061
11190WAT     H235673   6.772   1.843   7.069
11191WAT      O35674   7.194   1.733   6.109
11191WAT     H135675   7.132   1.743   6.037
11191WAT     H235676   7.145   1.755   6.188
11192WAT      O35677   6.639   2.905   5.852
11192WAT     H135678   6.649   2.885   5.759
11192WAT     H235679   6.549   2.880   5.872
11193WAT      O35680   6.391   1.961   6.250
11193WAT     H135681   6.320   2.008   6.294
11193WAT     H235682   6.420   1.895   6.314
11194WAT      O35683   6.554   2.103   7.050
11194WAT     H135684   6.604   2.150   7.117
11194WAT     H235685   6.568   2.010   7.071
11195WAT      O35686   6.794   1.633   6.394
11195WAT     H135687   6.782   1.635   6.299
11195WAT     H235688   6.889   1.638   6.406
11196WAT      O35689   6.503   3.157   6.321
11196WAT     H135690   6.529   3.153   6.229
11196WAT     H235691   6.408   3.144   6.321
11197WAT      O35692   6.212   1.792   5.988
11197WAT     H135693   6.296   1.835   5.981
11197WAT     H235694   6.175   1.823   6.070
11198WAT      O35695   7.274   1.724   7.134
11198WAT     H135696   7.224   1.799   7.168
11198WAT     H235697   7.356   1.763   7.103
11199WAT      O35698   7.104   2.249   6.479
11199WAT     H135699   7.010   2.250   6.496
11199WAT     H235700   7.135   2.170   6.524
11200WAT      O35701   6.102   2.417   5.835
11200WAT     H135702   6.178   2.406   5.891
11200WAT     H235703   6.109   2.347   5.770
11201WAT      O35704   5.971   2.160   5.903
11201WAT     H135705   5.979   2.066   5.915
11201WAT     H235706   6.060   2.193   5.914
11202WAT      O35707   7.304   2.966   6.647
11202WAT     H135708   7.316   3.048   6.694
11202WAT     H235709   7.391   2.945   6.612
11203WAT      O35710   6.051   3.175   6.614
11203WAT     H135711   6.125   3.120   6.641
11203WAT     H235712   6.090   3.262   6.600
11204WAT      O35713   5.740   2.782   6.201
11204WAT     H135714   5.647   2.806   6.200
11204WAT     H235715   5.786   2.865   6.189
11205WAT      O35716   6.362   3.093   5.796
11205WAT     H135717   6.441   3.121   5.751
11205WAT     H235718   6.310   3.049   5.728
11206WAT      O35719   6.978   3.077   7.388
11206WAT     H135720   7.074   3.069   7.383
11206WAT     H235721   6.964   3.144   7.456
11207WAT      O35722   7.267   3.015   5.938
11207WAT     H135723   7.239   2.974   5.857
11207WAT     H235724   7.248   3.108   5.926
11208WAT      O35725   5.724   2.342   7.427
11208WAT     H135726   5.774   2.284   7.484
11208WAT     H235727   5.650   2.371   7.481
11209WAT      O35728   6.414   2.615   5.782
11209WAT     H135729   6.403   2.553   5.855
11209WAT     H235730   6.397   2.562   5.704
11210WAT      O35731   6.429   2.483   7.380
11210WAT     H135732   6.353   2.540   7.372
11210WAT     H235733   6.447   2.454   7.291
11211WAT      O35734   6.738   2.521   5.843
11211WAT     H135735   6.683   2.565   5.907
11211WAT     H235736   6.800   2.470   5.895
11212WAT      O35737   7.143   2.656   7.436
11212WAT     H135738   7.217   2.690   7.386
11212WAT     H235739   7.067   2.673   7.381
11213WAT      O35740   6.305   2.417   6.032
11213WAT     H135741   6.347   2.400   6.117
11213WAT     H235742   6.317   2.336   5.983
11214WAT      O35743   6.121   2.015   7.313
11214WAT     H135744   6.068   1.966   7.250
11214WAT     H235745   6.188   2.057   7.260
11215WAT      O35746   6.556   2.319   5.757
11215WAT     H135747   6.608   2.248   5.721
11215WAT     H235748   6.621   2.383   5.787
11216WAT      O35749   7.011   2.461   7.290
11216WAT     H135750   7.052   2.477   7.375
11216WAT     H235751   6.917   2.474   7.306
11217WAT      O35752   7.058   2.195   7.490
11217WAT     H135753   7.116   2.120   7.481
11217WAT     H235754   7.076   2.248   7.412
11218WAT      O35755   6.170   1.711   7.321
11218WAT     H135756   6.160   1.649   7.249
11218WAT     H235757   6.112   1.784   7.298
11219WAT      O35758   6.446   1.567   7.024
11219WAT     H135759   6.401   1.569   6.940
11219WAT     H235760   6.383   1.527   7.084
11220WAT      O35761   6.487   2.457   7.087
11220WAT     H135762   6.529   2.541   7.069
11220WAT     H235763   6.395   2.470   7.064
11221WAT      O35764   6.721   2.230   7.225
11221WAT     H135765   6.732   2.170   7.299
11221WAT     H235766   6.806   2.233   7.183
11222WAT      O35767   6.954   2.285   7.083
11222WAT     H135768   6.902   2.337   7.022
11222WAT     H235769   6.989   2.348   7.146
11223WAT      O35770   6.194   2.024   5.727
11223WAT     H135771   6.174   1.938   5.763
11223WAT     H235772   6.177   2.015   5.633
11224WAT      O35773   6.272   3.087   7.198
11224WAT     H135774   6.218   3.160   7.166
11224WAT     H235775   6.297   3.039   7.119
11225WAT      O35776   6.397   1.884   7.351
11225WAT     H135777   6.456   1.853   7.419
11225WAT     H235778   6.315   1.837   7.366
11226WAT      O35779   6.879   1.846   7.374
11226WAT     H135780   6.810   1.779   7.368
11226WAT     H235781   6.951   1.801   7.419
11227WAT      O35782   6.942   1.505   5.980
11227WAT     H135783   6.970   1.421   6.016
11227WAT     H235784   6.865   1.528   6.031
11228WAT      O35785   6.074   1.734   5.726
11228WAT     H135786   6.104   1.735   5.635
11228WAT     H235787   6.148   1.699   5.776
11229WAT      O35788   6.558   3.211   7.224
11229WAT     H135789   6.550   3.301   7.255
11229WAT     H235790   6.467   3.179   7.221
11230WAT      O35791   6.396   1.628   5.824
11230WAT     H135792   6.361   1.561   5.766
11230WAT     H235793   6.416   1.582   5.906
11231WAT      O35794   6.612   3.127   5.986
11231WAT     H135795   6.702   3.161   5.988
11231WAT     H235796   6.616   3.055   5.924
11232WAT      O35797   5.976   2.664   5.809
11232WAT     H135798   6.020   2.719   5.875
11232WAT     H235799   6.025   2.582   5.810
11233WAT      O35800   5.698   2.943   6.554
11233WAT     H135801   5.731   2.857   6.531
11233WAT     H235802   5.741   2.964   6.637
11234WAT      O35803   6.157   2.776   6.320
11234WAT     H135804   6.127   2.764   6.410
11234WAT     H235805   6.147   2.691   6.280
11235WAT      O35806   5.747   3.030   6.828
11235WAT     H135807   5.703   3.048   6.911
11235WAT     H235808   5.804   3.106   6.814
11236WAT      O35809   7.310   2.980   7.257
11236WAT     H135810   7.250   2.986   7.183
11236WAT     H235811   7.323   2.886   7.270
11237WAT      O35812   7.434   2.754   5.791
11237WAT     H135813   7.351   2.761   5.838
11237WAT     H235814   7.452   2.843   5.760
11238WAT      O35815   7.380   2.429   6.041
11238WAT     H135816   7.456   2.486   6.052
11238WAT     H235817   7.382   2.372   6.118
11239WAT      O35818   5.730   2.281   6.464
11239WAT     H135819   5.665   2.254   6.400
11239WAT     H235820   5.814   2.270   6.419
11240WAT      O35821   7.481   2.514   6.525
11240WAT     H135822   7.518   2.436   6.485
11240WAT     H235823   7.545   2.583   6.508
11241WAT      O35824   7.179   2.653   7.067
11241WAT     H135825   7.098   2.696   7.093
11241WAT     H235826   7.220   2.714   7.005
11242WAT      O35827   7.385   2.458   5.757
11242WAT     H135828   7.413   2.549   5.744
11242WAT     H235829   7.366   2.452   5.850
11243WAT      O35830   7.025   1.761   5.886
11243WAT     H135831   7.067   1.742   5.802
11243WAT     H235832   6.994   1.675   5.917
11244WAT      O35833   7.375   2.252   6.256
11244WAT     H135834   7.337   2.175   6.213
11244WAT     H235835   7.302   2.290   6.305
11245WAT      O35836   5.834   2.320   6.918
11245WAT     H135837   5.871   2.311   7.006
11245WAT     H235838   5.777   2.243   6.908
11246WAT      O35839   7.314   2.167   7.219
11246WAT     H135840   7.291   2.144   7.129
11246WAT     H235841   7.340   2.259   7.215
11247WAT      O35842   5.789   2.011   7.309
11247WAT     H135843   5.699   2.008   7.343
11247WAT     H235844   5.843   2.031   7.385
11248WAT      O35845   5.651   2.002   6.058
11248WAT     H135846   5.561   2.029   6.041
11248WAT     H235847   5.700   2.029   5.980
11249WAT      O35848   7.302   2.074   6.586
11249WAT     H135849   7.355   2.025   6.523
11249WAT     H235850   7.361   2.088   6.661
11250WAT      O35851   7.320   2.083   6.938
11250WAT     H135852   7.225   2.079   6.950
11250WAT     H235853   7.338   2.174   6.915
11251WAT      O35854   5.906   1.908   5.849
11251WAT     H135855   5.977   1.866   5.801
11251WAT     H235856   5.834   1.915   5.786
11252WAT      O35857   5.870   1.513   5.753
11252WAT     H135858   5.943   1.567   5.785
11252WAT     H235859   5.898   1.486   5.666
11253WAT      O35860   7.251   2.000   6.180
11253WAT     H135861   7.301   1.977   6.258
11253WAT     H235862   7.231   1.916   6.138
11254WAT      O35863   5.839   1.438   6.743
11254WAT     H135864   5.904   1.383   6.699
11254WAT     H235865   5.881   1.464   6.826
11255WAT      O35866   7.394   1.864   6.433
11255WAT     H135867   7.383   1.848   6.527
11255WAT     H235868   7.470   1.811   6.409
11256WAT      O35869   7.229   1.458   7.079
11256WAT     H135870   7.293   1.519   7.116
11256WAT     H235871   7.244   1.461   6.985
11257WAT      O35872   7.483   1.647   5.757
11257WAT     H135873   7.576   1.634   5.737
11257WAT     H235874   7.481   1.655   5.853
11258WAT      O35875   7.490   1.724   6.020
11258WAT     H135876   7.411   1.717   6.073
11258WAT     H235877   7.511   1.818   6.019
11259WAT      O35878   7.185   3.128   6.419
11259WAT     H135879   7.244   3.096   6.352
11259WAT     H235880   7.210   3.081   6.499
11260WAT      O35881   5.815   1.454   7.018
11260WAT     H135882   5.780   1.500   7.094
11260WAT     H235883   5.782   1.364   7.026
11261WAT      O35884   6.345   2.927   6.994
11261WAT     H135885   6.321   2.953   6.906
11261WAT     H235886   6.439   2.944   7.000
11262WAT      O35887   6.566   1.573   7.370
11262WAT     H135888   6.560   1.632   7.445
11262WAT     H235889   6.660   1.562   7.355
11263WAT      O35890   6.830   1.539   7.334
11263WAT     H135891   6.891   1.571   7.268
11263WAT     H235892   6.884   1.490   7.396
11264WAT      O35893   7.471   3.129   7.074
11264WAT     H135894   7.422   3.168   7.003
11264WAT     H235895   7.411   3.066   7.114
11265WAT      O35896   5.882   1.407   7.345
11265WAT     H135897   5.937   1.389   7.269
11265WAT     H235898   5.888   1.328   7.399
11266WAT      O35899   5.959   3.066   7.146
11266WAT     H135900   5.900   3.053   7.220
11266WAT     H235901   5.958   2.982   7.100
11267WAT      O35902   6.904   1.395   6.967
11267WAT     H135903   6.816   1.428   6.946
11267WAT     H235904   6.893   1.348   7.049
11268WAT      O35905   6.994   1.616   7.105
11268WAT     H135906   6.962   1.534   7.067
11268WAT     H235907   7.089   1.611   7.093
11269WAT      O35908   7.240   3.193   6.802
11269WAT     H135909   7.194   3.268   6.765
11269WAT     H235910   7.177   3.121   6.796
11270WAT      O35911   5.922   2.802   7.041
11270WAT     H135912   5.850   2.740   7.035
11270WAT     H235913   5.928   2.842   6.954
11271WAT      O35914   6.283   3.024   6.720
11271WAT     H135915   6.334   2.963   6.667
11271WAT     H235916   6.348   3.074   6.769
11272WAT      O35917   6.557   3.113   6.803
11272WAT     H135918   6.585   3.087   6.715
11272WAT     H235919   6.608   3.058   6.862
11273WAT      O35920   6.678   1.487   6.860
11273WAT     H135921   6.600   1.534   6.888
11273WAT     H235922   6.649   1.396   6.850
11274WAT      O35923   7.134   1.557   6.665
11274WAT     H135924   7.178   1.551   6.580
11274WAT     H235925   7.107   1.649   6.672
11275WAT      O35926   7.320   1.520   6.466
11275WAT     H135927   7.314   1.426   6.451
11275WAT     H235928   7.398   1.531   6.521
11276WAT      O35929   5.751   3.134   6.362
11276WAT     H135930   5.734   3.071   6.432
11276WAT     H235931   5.664   3.155   6.327
11277WAT      O35932   5.813   1.517   6.113
11277WAT     H135933   5.889   1.528   6.055
11277WAT     H235934   5.767   1.601   6.108
11278WAT      O35935   6.467   1.729   6.412
11278WAT     H135936   6.386   1.691   6.378
11278WAT     H235937   6.517   1.653   6.442
11279WAT      O35938   6.917   1.395   6.535
11279WAT     H135939   6.978   1.452   6.583
11279WAT     H235940   6.843   1.451   6.513
11280WAT      O35941   7.232   1.435   6.063
11280WAT     H135942   7.251   1.525   6.090
11280WAT     H235943   7.153   1.412   6.112
11281WAT      O35944   5.911   3.003   6.107
11281WAT     H135945   5.859   3.041   6.036
11281WAT     H235946   5.904   3.066   6.179
11282WAT      O35947   6.050   1.570   5.967
11282WAT     H135948   6.103   1.491   5.954
11282WAT     H235949   6.113   1.638   5.990
11283WAT      O35950   6.270   1.544   6.272
11283WAT     H135951   6.207   1.473   6.289
11283WAT     H235952   6.216   1.620   6.250
11284WAT      O35953   7.387   3.159   6.239
11284WAT     H135954   7.404   3.091   6.175
11284WAT     H235955   7.317   3.212   6.200
11285WAT      O35956   6.171   3.198   5.994
11285WAT     H135957   6.244   3.170   5.940
11285WAT     H235958   6.197   3.174   6.083
11286WAT      O35959   6.087   2.810   5.995
11286WAT     H135960   6.024   2.857   6.050
11286WAT     H235961   6.099   2.725   6.038
11287WAT      O35962   6.833   2.215   4.610
11287WAT     H135963   6.825   2.123   4.583
11287WAT     H235964   6.791   2.265   4.539
11288WAT      O35965   6.646   2.393   4.798
11288WAT     H135966   6.568   2.345   4.827
11288WAT     H235967   6.711   2.325   4.780
11289WAT      O35968   6.048   2.424   4.886
11289WAT     H135969   5.964   2.398   4.926
11289WAT     H235970   6.108   2.431   4.959
11290WAT      O35971   7.048   2.833   4.676
11290WAT     H135972   7.002   2.756   4.709
11290WAT     H235973   7.129   2.836   4.726
11291WAT      O35974   6.046   2.827   4.905
11291WAT     H135975   6.076   2.738   4.887
11291WAT     H235976   6.120   2.883   4.882
11292WAT      O35977   5.889   1.920   4.264
11292WAT     H135978   5.800   1.954   4.254
11292WAT     H235979   5.917   1.900   4.175
11293WAT      O35980   5.685   2.180   4.852
11293WAT     H135981   5.742   2.103   4.852
11293WAT     H235982   5.685   2.210   4.762
11294WAT      O35983   6.671   3.062   4.638
11294WAT     H135984   6.609   3.107   4.581
11294WAT     H235985   6.756   3.077   4.598
11295WAT      O35986   6.590   2.660   4.799
11295WAT     H135987   6.583   2.566   4.782
11295WAT     H235988   6.666   2.669   4.856
11296WAT      O35989   5.809   1.721   5.031
11296WAT     H135990   5.791   1.631   5.059
11296WAT     H235991   5.769   1.776   5.099
11297WAT      O35992   6.693   1.941   4.821
11297WAT     H135993   6.731   1.854   4.810
11297WAT     H235994   6.683   1.975   4.732
11298WAT      O35995   6.106   1.778   4.367
11298WAT     H135996   6.117   1.868   4.398
11298WAT     H235997   6.015   1.773   4.338
11299WAT      O35998   7.071   1.690   4.515
11299WAT     H135999   7.153   1.641   4.519
11299WAT     H236000   7.075   1.749   4.590
11300WAT      O36001   5.871   1.970   4.892
11300WAT     H136002   5.939   1.997   4.954
11300WAT     H236003   5.839   1.886   4.925
11301WAT      O36004   6.290   2.075   4.801
11301WAT     H136005   6.341   2.125   4.865
11301WAT     H236006   6.343   1.997   4.783
11302WAT      O36007   7.500   1.892   5.171
11302WAT     H136008   7.430   1.931   5.119
11302WAT     H236009   7.527   1.962   5.231
11303WAT      O36010   6.119   1.539   5.227
11303WAT     H136011   6.119   1.591   5.147
11303WAT     H236012   6.036   1.491   5.225
11304WAT      O36013   6.757   2.550   4.377
11304WAT     H136014   6.695   2.597   4.321
11304WAT     H236015   6.809   2.620   4.419
11305WAT      O36016   6.244   2.503   5.045
11305WAT     H136017   6.210   2.566   5.109
11305WAT     H236018   6.261   2.556   4.967
11306WAT      O36019   7.095   1.884   4.792
11306WAT     H136020   7.025   1.913   4.850
11306WAT     H236021   7.131   1.965   4.756
11307WAT      O36022   6.087   1.710   5.028
11307WAT     H136023   6.121   1.795   4.999
11307WAT     H236024   5.993   1.725   5.040
11308WAT      O36025   6.165   2.700   5.227
11308WAT     H136026   6.227   2.767   5.198
11308WAT     H236027   6.079   2.741   5.217
11309WAT      O36028   5.694   2.619   4.115
11309WAT     H136029   5.656   2.668   4.041
11309WAT     H236030   5.720   2.686   4.178
11310WAT      O36031   7.257   2.846   5.018
11310WAT     H136032   7.188   2.913   5.017
11310WAT     H236033   7.311   2.866   4.942
11311WAT      O36034   7.402   1.829   4.831
11311WAT     H136035   7.307   1.832   4.844
11311WAT     H236036   7.434   1.910   4.869
11312WAT      O36037   6.455   1.459   4.660
11312WAT     H136038   6.486   1.403   4.589
11312WAT     H236039   6.362   1.472   4.642
11313WAT      O36040   7.010   3.031   4.890
11313WAT     H136041   7.011   2.990   4.803
11313WAT     H236042   6.955   3.108   4.879
11314WAT      O36043   7.140   2.703   4.398
11314WAT     H136044   7.129   2.609   4.411
11314WAT     H236045   7.139   2.739   4.487
11315WAT      O36046   6.950   2.521   5.022
11315WAT     H136047   6.992   2.500   4.939
11315WAT     H236048   7.022   2.547   5.079
11316WAT      O36049   6.694   2.265   4.334
11316WAT     H136050   6.601   2.259   4.357
11316WAT     H236051   6.709   2.359   4.323
11317WAT      O36052   6.693   1.893   4.034
11317WAT     H136053   6.599   1.909   4.042
11317WAT     H236054   6.724   1.965   3.979
11318WAT      O36055   7.345   2.361   5.032
11318WAT     H136056   7.262   2.368   4.984
11318WAT     H236057   7.404   2.419   4.985
11319WAT      O36058   7.097   2.422   4.384
11319WAT     H136059   7.035   2.388   4.320
11319WAT     H236060   7.095   2.357   4.455
11320WAT      O36061   7.041   2.040   5.126
11320WAT     H136062   7.000   2.122   5.151
11320WAT     H236063   6.968   1.981   5.107
11321WAT      O36064   6.254   2.318   4.612
11321WAT     H136065   6.214   2.247   4.563
11321WAT     H236066   6.263   2.284   4.701
11322WAT      O36067   6.301   2.687   4.829
11322WAT     H136068   6.272   2.626   4.761
11322WAT     H236069   6.396   2.691   4.818
11323WAT      O36070   6.126   1.996   4.990
11323WAT     H136071   6.181   2.007   4.913
11323WAT     H236072   6.177   2.033   5.062
11324WAT      O36073   7.110   3.044   5.195
11324WAT     H136074   7.062   3.125   5.176
11324WAT     H236075   7.042   2.979   5.210
11325WAT      O36076   6.210   2.661   5.494
11325WAT     H136077   6.121   2.683   5.518
11325WAT     H236078   6.213   2.673   5.399
11326WAT      O36079   6.914   2.346   4.085
11326WAT     H136080   6.958   2.262   4.071
11326WAT     H236081   6.986   2.409   4.094
11327WAT      O36082   6.093   2.348   5.351
11327WAT     H136083   6.079   2.435   5.388
11327WAT     H236084   6.005   2.313   5.337
11328WAT      O36085   6.725   2.840   4.482
11328WAT     H136086   6.769   2.914   4.441
11328WAT     H236087   6.719   2.864   4.574
11329WAT      O36088   6.273   2.942   5.572
11329WAT     H136089   6.270   2.982   5.485
11329WAT     H236090   6.257   2.849   5.556
11330WAT      O36091   7.273   1.471   3.917
11330WAT     H136092   7.241   1.480   4.007
11330WAT     H236093   7.349   1.529   3.912
11331WAT      O36094   5.924   2.208   4.362
11331WAT     H136095   5.912   2.280   4.301
11331WAT     H236096   5.893   2.131   4.315
11332WAT      O36097   7.468   3.020   5.702
11332WAT     H136098   7.516   3.068   5.770
11332WAT     H236099   7.530   3.013   5.629
11333WAT      O36100   5.688   2.525   4.943
11333WAT     H136101   5.696   2.538   4.849
11333WAT     H236102   5.750   2.454   4.962
11334WAT      O36103   5.813   2.695   4.584
11334WAT     H136104   5.772   2.709   4.499
11334WAT     H236105   5.902   2.666   4.564
11335WAT      O36106   7.408   2.739   5.418
11335WAT     H136107   7.421   2.715   5.326
11335WAT     H236108   7.413   2.656   5.465
11336WAT      O36109   6.795   3.110   5.275
11336WAT     H136110   6.846   3.101   5.355
11336WAT     H236111   6.710   3.144   5.304
11337WAT      O36112   6.992   3.138   4.218
11337WAT     H136113   6.976   3.109   4.307
11337WAT     H236114   6.976   3.061   4.164
11338WAT      O36115   6.240   3.116   4.395
11338WAT     H136116   6.222   3.025   4.374
11338WAT     H236117   6.155   3.152   4.419
11339WAT      O36118   6.962   2.889   4.074
11339WAT     H136119   6.893   2.889   4.008
11339WAT     H236120   7.037   2.847   4.031
11340WAT      O36121   6.919   3.052   4.481
11340WAT     H136122   6.964   2.974   4.512
11340WAT     H236123   6.953   3.123   4.535
11341WAT      O36124   7.394   1.945   5.514
11341WAT     H136125   7.332   1.995   5.461
11341WAT     H236126   7.362   1.855   5.509
11342WAT      O36127   5.694   2.629   5.197
11342WAT     H136128   5.710   2.582   5.115
11342WAT     H236129   5.740   2.578   5.263
11343WAT      O36130   6.171   1.542   4.701
11343WAT     H136131   6.127   1.620   4.667
11343WAT     H236132   6.227   1.574   4.771
11344WAT      O36133   6.600   1.829   5.261
11344WAT     H136134   6.554   1.849   5.342
11344WAT     H236135   6.560   1.747   5.231
11345WAT      O36136   7.100   1.951   5.374
11345WAT     H136137   7.015   1.921   5.406
11345WAT     H236138   7.084   1.975   5.283
11346WAT      O36139   6.809   2.101   5.584
11346WAT     H136140   6.842   2.017   5.550
11346WAT     H236141   6.888   2.153   5.599
11347WAT      O36142   6.483   1.504   4.189
11347WAT     H136143   6.420   1.504   4.261
11347WAT     H236144   6.474   1.417   4.149
11348WAT      O36145   6.375   1.596   4.886
11348WAT     H136146   6.405   1.687   4.878
11348WAT     H236147   6.430   1.548   4.825
11349WAT      O36148   6.150   2.054   4.473
11349WAT     H136149   6.128   2.033   4.564
11349WAT     H236150   6.072   2.098   4.439
11350WAT      O36151   6.873   2.055   4.333
11350WAT     H136152   6.813   2.127   4.315
11350WAT     H236153   6.928   2.049   4.255
11351WAT      O36154   6.394   2.144   5.540
11351WAT     H136155   6.385   2.050   5.525
11351WAT     H236156   6.479   2.166   5.500
11352WAT      O36157   6.734   1.919   4.536
11352WAT     H136158   6.773   1.950   4.455
11352WAT     H236159   6.770   1.831   4.548
11353WAT      O36160   5.907   1.785   5.355
11353WAT     H136161   5.868   1.870   5.376
11353WAT     H236162   5.839   1.722   5.374
11354WAT      O36163   6.565   1.794   5.662
11354WAT     H136164   6.496   1.774   5.726
11354WAT     H236165   6.639   1.822   5.716
11355WAT      O36166   5.638   1.578   4.759
11355WAT     H136167   5.609   1.635   4.830
11355WAT     H236168   5.712   1.530   4.795
11356WAT      O36169   5.656   1.972   3.880
11356WAT     H136170   5.648   2.066   3.894
11356WAT     H236171   5.621   1.957   3.792
11357WAT      O36172   6.792   2.178   4.946
11357WAT     H136173   6.719   2.228   4.981
11357WAT     H236174   6.753   2.096   4.916
11358WAT      O36175   6.436   1.845   4.786
11358WAT     H136176   6.437   1.801   4.701
11358WAT     H236177   6.526   1.877   4.797
11359WAT      O36178   6.021   1.833   4.682
11359WAT     H136179   5.987   1.881   4.758
11359WAT     H236180   5.945   1.788   4.646
11360WAT      O36181   6.442   1.945   4.085
11360WAT     H136182   6.455   1.941   4.180
11360WAT     H236183   6.404   2.031   4.070
11361WAT      O36184   6.839   1.723   4.887
11361WAT     H136185   6.840   1.768   4.971
11361WAT     H236186   6.814   1.633   4.908
11362WAT      O36187   6.344   2.176   4.025
11362WAT     H136188   6.287   2.131   3.963
11362WAT     H236189   6.414   2.212   3.972
11363WAT      O36190   7.181   1.464   5.471
11363WAT     H136191   7.214   1.391   5.524
11363WAT     H236192   7.185   1.432   5.381
11364WAT      O36193   5.851   2.566   5.413
11364WAT     H136194   5.813   2.502   5.473
11364WAT     H236195   5.882   2.637   5.470
11365WAT      O36196   6.466   2.251   4.961
11365WAT     H136197   6.503   2.204   5.036
11365WAT     H236198   6.447   2.339   4.995
11366WAT      O36199   5.753   1.726   4.574
11366WAT     H136200   5.724   1.689   4.658
11366WAT     H236201   5.746   1.652   4.513
11367WAT      O36202   6.245   2.155   5.193
11367WAT     H136203   6.215   2.243   5.215
11367WAT     H236204   6.341   2.161   5.196
11368WAT      O36205   6.098   2.576   4.253
11368WAT     H136206   6.021   2.522   4.237
11368WAT     H236207   6.171   2.524   4.219
11369WAT      O36208   7.174   2.476   4.832
11369WAT     H136209   7.246   2.525   4.793
11369WAT     H236210   7.154   2.408   4.767
11370WAT      O36211   6.720   1.615   4.246
11370WAT     H136212   6.639   1.565   4.239
11370WAT     H236213   6.701   1.699   4.204
11371WAT      O36214   6.712   2.483   5.420
11371WAT     H136215   6.706   2.391   5.395
11371WAT     H236216   6.649   2.492   5.492
11372WAT      O36217   6.992   2.052   4.076
11372WAT     H136218   7.080   2.083   4.058
11372WAT     H236219   6.989   1.965   4.037
11373WAT      O36220   6.102   2.543   4.616
11373WAT     H136221   6.154   2.462   4.611
11373WAT     H236222   6.057   2.536   4.700
11374WAT      O36223   6.591   2.669   4.144
11374WAT     H136224   6.625   2.744   4.094
11374WAT     H236225   6.508   2.701   4.180
11375WAT      O36226   5.851   2.239   5.308
11375WAT     H136227   5.815   2.306   5.366
11375WAT     H236228   5.821   2.156   5.345
11376WAT      O36229   6.171   2.285   5.596
11376WAT     H136230   6.141   2.300   5.506
11376WAT     H236231   6.248   2.229   5.587
11377WAT      O36232   6.705   2.765   5.396
11377WAT     H136233   6.707   2.672   5.374
11377WAT     H236234   6.635   2.773   5.459
11378WAT      O36235   7.219   2.183   4.022
11378WAT     H136236   7.210   2.226   3.937
11378WAT     H236237   7.291   2.229   4.066
11379WAT      O36238   7.326   2.429   5.330
11379WAT     H136239   7.254   2.488   5.310
11379WAT     H236240   7.379   2.428   5.250
11380WAT      O36241   6.879   2.601   4.680
11380WAT     H136242   6.915   2.542   4.614
11380WAT     H236243   6.791   2.569   4.697
11381WAT      O36244   6.488   2.677   4.421
11381WAT     H136245   6.557   2.732   4.459
11381WAT     H236246   6.409   2.732   4.424
11382WAT      O36247   5.702   2.239   3.970
11382WAT     H136248   5.789   2.267   3.998
11382WAT     H236249   5.653   2.321   3.958
11383WAT      O36250   6.418   2.378   4.382
11383WAT     H136251   6.464   2.459   4.405
11383WAT     H236252   6.383   2.346   4.465
11384WAT      O36253   6.649   2.929   5.105
11384WAT     H136254   6.713   2.950   5.173
11384WAT     H236255   6.685   2.853   5.060
11385WAT      O36256   6.008   1.412   4.429
11385WAT     H136257   5.996   1.411   4.524
11385WAT     H236258   5.926   1.446   4.394
11386WAT      O36259   6.776   2.729   4.977
11386WAT     H136260   6.840   2.659   4.988
11386WAT     H236261   6.828   2.807   4.959
11387WAT      O36262   6.953   2.809   5.297
11387WAT     H136263   6.987   2.868   5.365
11387WAT     H236264   6.861   2.796   5.320
11388WAT      O36265   5.739   3.160   4.027
11388WAT     H136266   5.775   3.220   3.961
11388WAT     H236267   5.725   3.215   4.104
11389WAT      O36268   5.708   1.588   5.375
11389WAT     H136269   5.637   1.608   5.436
11389WAT     H236270   5.750   1.511   5.412
11390WAT      O36271   7.119   2.550   4.115
11390WAT     H136272   7.090   2.596   4.194
11390WAT     H236273   7.198   2.503   4.142
11391WAT      O36274   5.737   2.987   5.474
11391WAT     H136275   5.748   2.893   5.460
11391WAT     H236276   5.672   3.014   5.409
11392WAT      O36277   6.536   2.814   5.614
11392WAT     H136278   6.504   2.742   5.668
11392WAT     H236279   6.469   2.882   5.621
11393WAT      O36280   6.340   2.899   4.108
11393WAT     H136281   6.339   2.972   4.047
11393WAT     H236282   6.248   2.874   4.118
11394WAT      O36283   5.900   2.421   4.183
11394WAT     H136284   5.840   2.495   4.184
11394WAT     H236285   5.948   2.430   4.100
11395WAT      O36286   6.858   1.837   5.150
11395WAT     H136287   6.895   1.755   5.183
11395WAT     H236288   6.772   1.843   5.192
11396WAT      O36289   7.194   1.733   4.231
11396WAT     H136290   7.132   1.743   4.160
11396WAT     H236291   7.145   1.755   4.310
11397WAT      O36292   6.639   2.905   3.975
11397WAT     H136293   6.649   2.885   3.882
11397WAT     H236294   6.549   2.880   3.995
11398WAT      O36295   6.391   1.961   4.373
11398WAT     H136296   6.320   2.008   4.417
11398WAT     H236297   6.420   1.895   4.436
11399WAT      O36298   6.554   2.103   5.173
11399WAT     H136299   6.604   2.150   5.239
11399WAT     H236300   6.568   2.010   5.193
11400WAT      O36301   6.794   1.633   4.517
11400WAT     H136302   6.782   1.635   4.422
11400WAT     H236303   6.889   1.638   4.529
11401WAT      O36304   6.503   3.157   4.444
11401WAT     H136305   6.529   3.153   4.352
11401WAT     H236306   6.408   3.144   4.443
11402WAT      O36307   6.212   1.792   4.110
11402WAT     H136308   6.296   1.835   4.104
11402WAT     H236309   6.175   1.823   4.193
11403WAT      O36310   7.274   1.724   5.257
11403WAT     H136311   7.224   1.799   5.291
11403WAT     H236312   7.356   1.763   5.225
11404WAT      O36313   7.104   2.249   4.602
11404WAT     H136314   7.010   2.250   4.619
11404WAT     H236315   7.135   2.170   4.646
11405WAT      O36316   6.102   2.417   3.958
11405WAT     H136317   6.178   2.406   4.014
11405WAT     H236318   6.109   2.347   3.892
11406WAT      O36319   5.971   2.160   4.026
11406WAT     H136320   5.979   2.066   4.037
11406WAT     H236321   6.060   2.193   4.037
11407WAT      O36322   7.304   2.966   4.769
11407WAT     H136323   7.316   3.048   4.816
11407WAT     H236324   7.391   2.945   4.734
11408WAT      O36325   6.051   3.175   4.736
11408WAT     H136326   6.125   3.120   4.763
11408WAT     H236327   6.090   3.262   4.722
11409WAT      O36328   5.740   2.782   4.324
11409WAT     H136329   5.647   2.806   4.323
11409WAT     H236330   5.786   2.865   4.312
11410WAT      O36331   5.952   3.094   5.655
11410WAT     H136332   6.032   3.126   5.696
11410WAT     H236333   5.900   3.058   5.727
11411WAT      O36334   6.362   3.093   3.919
11411WAT     H136335   6.441   3.121   3.873
11411WAT     H236336   6.310   3.049   3.851
11412WAT      O36337   6.835   2.704   5.650
11412WAT     H136338   6.775   2.707   5.576
11412WAT     H236339   6.805   2.631   5.704
11413WAT      O36340   6.978   3.077   5.511
11413WAT     H136341   7.074   3.069   5.506
11413WAT     H236342   6.964   3.144   5.578
11414WAT      O36343   5.724   2.342   5.550
11414WAT     H136344   5.774   2.284   5.607
11414WAT     H236345   5.650   2.371   5.603
11415WAT      O36346   6.414   2.615   3.905
11415WAT     H136347   6.403   2.553   3.978
11415WAT     H236348   6.397   2.562   3.827
11416WAT      O36349   6.429   2.483   5.503
11416WAT     H136350   6.353   2.540   5.494
11416WAT     H236351   6.447   2.454   5.414
11417WAT      O36352   6.738   2.521   3.965
11417WAT     H136353   6.683   2.565   4.030
11417WAT     H236354   6.800   2.470   4.018
11418WAT      O36355   7.143   2.656   5.559
11418WAT     H136356   7.217   2.690   5.508
11418WAT     H236357   7.067   2.673   5.503
11419WAT      O36358   5.927   2.157   5.639
11419WAT     H136359   5.931   2.127   5.730
11419WAT     H236360   6.012   2.197   5.623
11420WAT      O36361   6.305   2.417   4.155
11420WAT     H136362   6.347   2.400   4.239
11420WAT     H236363   6.317   2.336   4.106
11421WAT      O36364   6.121   2.015   5.436
11421WAT     H136365   6.068   1.966   5.373
11421WAT     H236366   6.188   2.057   5.382
11422WAT      O36367   6.556   2.319   3.880
11422WAT     H136368   6.608   2.248   3.843
11422WAT     H236369   6.621   2.383   3.910
11423WAT      O36370   7.011   2.461   5.412
11423WAT     H136371   7.052   2.477   5.497
11423WAT     H236372   6.917   2.474   5.428
11424WAT      O36373   7.058   2.195   5.613
11424WAT     H136374   7.116   2.120   5.604
11424WAT     H236375   7.076   2.248   5.535
11425WAT      O36376   6.170   1.711   5.444
11425WAT     H136377   6.160   1.649   5.371
11425WAT     H236378   6.112   1.784   5.421
11426WAT      O36379   6.446   1.567   5.147
11426WAT     H136380   6.401   1.569   5.062
11426WAT     H236381   6.383   1.527   5.207
11427WAT      O36382   6.487   2.457   5.209
11427WAT     H136383   6.529   2.541   5.192
11427WAT     H236384   6.395   2.470   5.186
11428WAT      O36385   6.721   2.230   5.348
11428WAT     H136386   6.732   2.170   5.421
11428WAT     H236387   6.806   2.233   5.306
11429WAT      O36388   6.954   2.285   5.205
11429WAT     H136389   6.902   2.337   5.145
11429WAT     H236390   6.989   2.348   5.268
11430WAT      O36391   6.194   2.024   3.850
11430WAT     H136392   6.174   1.938   3.886
11430WAT     H236393   6.177   2.015   3.756
11431WAT      O36394   6.272   3.087   5.321
11431WAT     H136395   6.218   3.160   5.289
11431WAT     H236396   6.297   3.039   5.242
11432WAT      O36397   6.397   1.884   5.473
11432WAT     H136398   6.456   1.853   5.542
11432WAT     H236399   6.315   1.837   5.489
11433WAT      O36400   6.879   1.846   5.497
11433WAT     H136401   6.810   1.779   5.490
11433WAT     H236402   6.951   1.801   5.541
11434WAT      O36403   6.942   1.505   4.102
11434WAT     H136404   6.970   1.421   4.138
11434WAT     H236405   6.865   1.528   4.154
11435WAT      O36406   6.074   1.734   3.848
11435WAT     H136407   6.104   1.735   3.758
11435WAT     H236408   6.148   1.699   3.898
11436WAT      O36409   6.558   3.211   5.347
11436WAT     H136410   6.550   3.301   5.377
11436WAT     H236411   6.467   3.179   5.344
11437WAT      O36412   6.396   1.628   3.947
11437WAT     H136413   6.361   1.561   3.889
11437WAT     H236414   6.416   1.582   4.028
11438WAT      O36415   6.612   3.127   4.109
11438WAT     H136416   6.702   3.161   4.111
11438WAT     H236417   6.616   3.055   4.046
11439WAT      O36418   5.976   2.664   3.932
11439WAT     H136419   6.020   2.719   3.997
11439WAT     H236420   6.025   2.582   3.933
11440WAT      O36421   5.698   2.943   4.677
11440WAT     H136422   5.731   2.857   4.654
11440WAT     H236423   5.741   2.964   4.760
11441WAT      O36424   6.157   2.776   4.443
11441WAT     H136425   6.127   2.764   4.533
11441WAT     H236426   6.147   2.691   4.402
11442WAT      O36427   5.747   3.030   4.951
11442WAT     H136428   5.703   3.048   5.034
11442WAT     H236429   5.804   3.106   4.937
11443WAT      O36430   7.310   2.980   5.379
11443WAT     H136431   7.250   2.986   5.305
11443WAT     H236432   7.323   2.886   5.392
11444WAT      O36433   7.380   2.429   4.164
11444WAT     H136434   7.456   2.486   4.174
11444WAT     H236435   7.382   2.372   4.241
11445WAT      O36436   5.730   2.281   4.587
11445WAT     H136437   5.665   2.254   4.522
11445WAT     H236438   5.814   2.270   4.542
11446WAT      O36439   7.481   2.514   4.648
11446WAT     H136440   7.518   2.436   4.607
11446WAT     H236441   7.545   2.583   4.630
11447WAT      O36442   7.179   2.653   5.189
11447WAT     H136443   7.098   2.696   5.216
11447WAT     H236444   7.220   2.714   5.128
11448WAT      O36445   7.025   1.761   4.009
11448WAT     H136446   7.067   1.742   3.925
11448WAT     H236447   6.994   1.675   4.040
11449WAT      O36448   7.375   2.252   4.379
11449WAT     H136449   7.337   2.175   4.335
11449WAT     H236450   7.302   2.290   4.427
11450WAT      O36451   5.834   2.320   5.041
11450WAT     H136452   5.871   2.311   5.129
11450WAT     H236453   5.777   2.243   5.031
11451WAT      O36454   7.314   2.167   5.342
11451WAT     H136455   7.291   2.144   5.252
11451WAT     H236456   7.340   2.259   5.337
11452WAT      O36457   5.789   2.011   5.431
11452WAT     H136458   5.699   2.008   5.465
11452WAT     H236459   5.843   2.031   5.508
11453WAT      O36460   7.158   1.689   5.620
11453WAT     H136461   7.245   1.690   5.658
11453WAT     H236462   7.159   1.615   5.559
11454WAT      O36463   5.651   2.002   4.181
11454WAT     H136464   5.561   2.029   4.163
11454WAT     H236465   5.700   2.029   4.103
11455WAT      O36466   7.302   2.074   4.709
11455WAT     H136467   7.355   2.025   4.646
11455WAT     H236468   7.361   2.088   4.783
11456WAT      O36469   7.320   2.083   5.061
11456WAT     H136470   7.225   2.079   5.072
11456WAT     H236471   7.338   2.174   5.037
11457WAT      O36472   5.906   1.908   3.972
11457WAT     H136473   5.977   1.866   3.923
11457WAT     H236474   5.834   1.915   3.909
11458WAT      O36475   5.870   1.513   3.876
11458WAT     H136476   5.943   1.567   3.908
11458WAT     H236477   5.898   1.486   3.788
11459WAT      O36478   7.251   2.000   4.303
11459WAT     H136479   7.301   1.977   4.381
11459WAT     H236480   7.231   1.916   4.261
11460WAT      O36481   5.839   1.438   4.866
11460WAT     H136482   5.904   1.383   4.822
11460WAT     H236483   5.881   1.464   4.948
11461WAT      O36484   7.394   1.864   4.556
11461WAT     H136485   7.383   1.848   4.650
11461WAT     H236486   7.470   1.811   4.532
11462WAT      O36487   7.229   1.458   5.202
11462WAT     H136488   7.293   1.519   5.238
11462WAT     H236489   7.244   1.461   5.107
11463WAT      O36490   7.490   1.724   4.143
11463WAT     H136491   7.411   1.717   4.195
11463WAT     H236492   7.511   1.818   4.141
11464WAT      O36493   7.185   3.128   4.542
11464WAT     H136494   7.244   3.096   4.474
11464WAT     H236495   7.210   3.081   4.621
11465WAT      O36496   5.815   1.454   5.140
11465WAT     H136497   5.780   1.500   5.217
11465WAT     H236498   5.782   1.364   5.149
11466WAT      O36499   5.975   2.771   5.557
11466WAT     H136500   5.971   2.734   5.645
11466WAT     H236501   5.988   2.865   5.571
11467WAT      O36502   6.345   2.927   5.117
11467WAT     H136503   6.321   2.953   5.028
11467WAT     H236504   6.439   2.944   5.122
11468WAT      O36505   6.566   1.573   5.493
11468WAT     H136506   6.560   1.632   5.567
11468WAT     H236507   6.660   1.562   5.478
11469WAT      O36508   6.830   1.539   5.456
11469WAT     H136509   6.891   1.571   5.390
11469WAT     H236510   6.884   1.490   5.518
11470WAT      O36511   7.471   3.129   5.197
11470WAT     H136512   7.422   3.168   5.125
11470WAT     H236513   7.411   3.066   5.236
11471WAT      O36514   5.882   1.407   5.468
11471WAT     H136515   5.937   1.389   5.391
11471WAT     H236516   5.888   1.328   5.521
11472WAT      O36517   5.959   3.066   5.269
11472WAT     H136518   5.900   3.053   5.343
11472WAT     H236519   5.958   2.982   5.222
11473WAT      O36520   6.904   1.395   5.089
11473WAT     H136521   6.816   1.428   5.069
11473WAT     H236522   6.893   1.348   5.172
11474WAT      O36523   6.994   1.616   5.228
11474WAT     H136524   6.962   1.534   5.190
11474WAT     H236525   7.089   1.611   5.215
11475WAT      O36526   7.240   3.193   4.925
11475WAT     H136527   7.194   3.268   4.887
11475WAT     H236528   7.177   3.121   4.919
11476WAT      O36529   5.922   2.802   5.164
11476WAT     H136530   5.850   2.740   5.157
11476WAT     H236531   5.928   2.842   5.077
11477WAT      O36532   6.283   3.024   4.842
11477WAT     H136533   6.334   2.963   4.790
11477WAT     H236534   6.348   3.074   4.892
11478WAT      O36535   6.557   3.113   4.925
11478WAT     H136536   6.585   3.087   4.837
11478WAT     H236537   6.608   3.058   4.984
11479WAT      O36538   6.678   1.487   4.983
11479WAT     H136539   6.600   1.534   5.011
11479WAT     H236540   6.649   1.396   4.972
11480WAT      O36541   7.134   1.557   4.788
11480WAT     H136542   7.178   1.551   4.703
11480WAT     H236543   7.107   1.649   4.795
11481WAT      O36544   7.320   1.520   4.589
11481WAT     H136545   7.314   1.426   4.574
11481WAT     H236546   7.398   1.531   4.643
11482WAT      O36547   5.751   3.134   4.485
11482WAT     H136548   5.734   3.071   4.555
11482WAT     H236549   5.664   3.155   4.450
11483WAT      O36550   5.813   1.517   4.235
11483WAT     H136551   5.889   1.528   4.178
11483WAT     H236552   5.767   1.601   4.231
11484WAT      O36553   6.467   1.729   4.534
11484WAT     H136554   6.386   1.691   4.500
11484WAT     H236555   6.517   1.653   4.564
11485WAT      O36556   6.917   1.395   4.658
11485WAT     H136557   6.978   1.452   4.706
11485WAT     H236558   6.843   1.451   4.636
11486WAT      O36559   7.232   1.435   4.185
11486WAT     H136560   7.251   1.525   4.212
11486WAT     H236561   7.153   1.412   4.235
11487WAT      O36562   5.911   3.003   4.229
11487WAT     H136563   5.859   3.041   4.159
11487WAT     H236564   5.904   3.066   4.301
11488WAT      O36565   6.050   1.570   4.089
11488WAT     H136566   6.103   1.491   4.076
11488WAT     H236567   6.113   1.638   4.113
11489WAT      O36568   6.270   1.544   4.395
11489WAT     H136569   6.207   1.473   4.411
11489WAT     H236570   6.216   1.620   4.373
11490WAT      O36571   6.563   3.205   5.662
11490WAT     H136572   6.656   3.181   5.666
11490WAT     H236573   6.562   3.288   5.614
11491WAT      O36574   6.282   1.471   5.638
11491WAT     H136575   6.254   1.522   5.562
11491WAT     H236576   6.320   1.392   5.602
11492WAT      O36577   6.171   3.198   4.117
11492WAT     H136578   6.244   3.170   4.062
11492WAT     H236579   6.197   3.174   4.206
11493WAT      O36580   6.087   2.810   4.117
11493WAT     H136581   6.024   2.857   4.172
11493WAT     H236582   6.099   2.725   4.161
11494WAT      O36583   6.942   1.413   5.696
11494WAT     H136584   6.931   1.445   5.786
11494WAT     H236585   7.024   1.453   5.666
11495WAT      O36586   7.220   3.128   5.644
11495WAT     H136587   7.299   3.078   5.623
11495WAT     H236588   7.250   3.196   5.705
11496WAT      O36589   6.646   2.393   2.920
11496WAT     H136590   6.568   2.345   2.949
11496WAT     H236591   6.711   2.325   2.903
11497WAT      O36592   6.048   2.424   3.008
11497WAT     H136593   5.964   2.398   3.048
11497WAT     H236594   6.108   2.431   3.082
11498WAT      O36595   6.046   2.827   3.028
11498WAT     H136596   6.076   2.738   3.010
11498WAT     H236597   6.120   2.883   3.005
11499WAT      O36598   5.889   1.920   2.387
11499WAT     H136599   5.800   1.954   2.376
11499WAT     H236600   5.917   1.900   2.297
11500WAT      O36601   5.685   2.180   2.975
11500WAT     H136602   5.742   2.103   2.975
11500WAT     H236603   5.685   2.210   2.884
11501WAT      O36604   6.671   3.062   2.760
11501WAT     H136605   6.609   3.107   2.703
11501WAT     H236606   6.756   3.077   2.720
11502WAT      O36607   6.590   2.660   2.921
11502WAT     H136608   6.583   2.566   2.905
11502WAT     H236609   6.666   2.669   2.978
11503WAT      O36610   5.809   1.721   3.154
11503WAT     H136611   5.791   1.631   3.182
11503WAT     H236612   5.769   1.776   3.221
11504WAT      O36613   6.693   1.941   2.944
11504WAT     H136614   6.731   1.854   2.933
11504WAT     H236615   6.683   1.975   2.855
11505WAT      O36616   6.106   1.778   2.490
11505WAT     H136617   6.117   1.868   2.521
11505WAT     H236618   6.015   1.773   2.461
11506WAT      O36619   7.071   1.690   2.637
11506WAT     H136620   7.153   1.641   2.641
11506WAT     H236621   7.075   1.749   2.712
11507WAT      O36622   5.871   1.970   3.015
11507WAT     H136623   5.939   1.997   3.076
11507WAT     H236624   5.839   1.886   3.048
11508WAT      O36625   6.290   2.075   2.923
11508WAT     H136626   6.341   2.125   2.987
11508WAT     H236627   6.343   1.997   2.906
11509WAT      O36628   6.119   1.539   3.350
11509WAT     H136629   6.119   1.591   3.269
11509WAT     H236630   6.036   1.491   3.348
11510WAT      O36631   6.757   2.550   2.500
11510WAT     H136632   6.695   2.597   2.443
11510WAT     H236633   6.809   2.620   2.541
11511WAT      O36634   6.244   2.503   3.168
11511WAT     H136635   6.210   2.566   3.232
11511WAT     H236636   6.261   2.556   3.090
11512WAT      O36637   6.087   1.710   3.151
11512WAT     H136638   6.121   1.795   3.121
11512WAT     H236639   5.993   1.725   3.162
11513WAT      O36640   6.165   2.700   3.349
11513WAT     H136641   6.227   2.767   3.321
11513WAT     H236642   6.079   2.741   3.340
11514WAT      O36643   5.694   2.619   2.237
11514WAT     H136644   5.656   2.668   2.164
11514WAT     H236645   5.720   2.686   2.300
11515WAT      O36646   6.455   1.459   2.783
11515WAT     H136647   6.486   1.403   2.711
11515WAT     H236648   6.362   1.472   2.765
11516WAT      O36649   6.950   2.521   3.145
11516WAT     H136650   6.992   2.500   3.061
11516WAT     H236651   7.022   2.547   3.202
11517WAT      O36652   6.694   2.265   2.457
11517WAT     H136653   6.601   2.259   2.480
11517WAT     H236654   6.709   2.359   2.445
11518WAT      O36655   6.693   1.893   2.156
11518WAT     H136656   6.599   1.909   2.165
11518WAT     H236657   6.724   1.965   2.102
11519WAT      O36658   6.254   2.318   2.735
11519WAT     H136659   6.214   2.247   2.685
11519WAT     H236660   6.263   2.284   2.824
11520WAT      O36661   6.301   2.687   2.951
11520WAT     H136662   6.272   2.626   2.883
11520WAT     H236663   6.396   2.691   2.940
11521WAT      O36664   6.126   1.996   3.113
11521WAT     H136665   6.181   2.007   3.035
11521WAT     H236666   6.177   2.033   3.184
11522WAT      O36667   6.210   2.661   3.616
11522WAT     H136668   6.121   2.683   3.641
11522WAT     H236669   6.213   2.673   3.521
11523WAT      O36670   6.093   2.348   3.474
11523WAT     H136671   6.079   2.435   3.511
11523WAT     H236672   6.005   2.313   3.459
11524WAT      O36673   6.725   2.840   2.605
11524WAT     H136674   6.769   2.914   2.563
11524WAT     H236675   6.719   2.864   2.697
11525WAT      O36676   6.273   2.942   3.695
11525WAT     H136677   6.270   2.982   3.608
11525WAT     H236678   6.257   2.849   3.678
11526WAT      O36679   5.924   2.208   2.485
11526WAT     H136680   5.912   2.280   2.424
11526WAT     H236681   5.893   2.131   2.437
11527WAT      O36682   5.688   2.525   3.066
11527WAT     H136683   5.696   2.538   2.971
11527WAT     H236684   5.750   2.454   3.085
11528WAT      O36685   5.813   2.695   2.707
11528WAT     H136686   5.772   2.709   2.621
11528WAT     H236687   5.902   2.666   2.686
11529WAT      O36688   6.795   3.110   3.397
11529WAT     H136689   6.846   3.101   3.478
11529WAT     H236690   6.710   3.144   3.427
11530WAT      O36691   6.992   3.138   2.340
11530WAT     H136692   6.976   3.109   2.430
11530WAT     H236693   6.976   3.061   2.287
11531WAT      O36694   6.240   3.116   2.518
11531WAT     H136695   6.222   3.025   2.497
11531WAT     H236696   6.155   3.152   2.542
11532WAT      O36697   6.962   2.889   2.196
11532WAT     H136698   6.893   2.889   2.130
11532WAT     H236699   7.037   2.847   2.153
11533WAT      O36700   6.919   3.052   2.604
11533WAT     H136701   6.964   2.974   2.635
11533WAT     H236702   6.953   3.123   2.658
11534WAT      O36703   5.694   2.629   3.320
11534WAT     H136704   5.710   2.582   3.238
11534WAT     H236705   5.740   2.578   3.386
11535WAT      O36706   6.171   1.542   2.823
11535WAT     H136707   6.127   1.620   2.790
11535WAT     H236708   6.227   1.574   2.894
11536WAT      O36709   6.600   1.829   3.383
11536WAT     H136710   6.554   1.849   3.465
11536WAT     H236711   6.560   1.747   3.353
11537WAT      O36712   6.809   2.101   3.706
11537WAT     H136713   6.842   2.017   3.672
11537WAT     H236714   6.888   2.153   3.721
11538WAT      O36715   6.483   1.504   2.311
11538WAT     H136716   6.420   1.504   2.384
11538WAT     H236717   6.474   1.417   2.272
11539WAT      O36718   6.375   1.596   3.009
11539WAT     H136719   6.405   1.687   3.001
11539WAT     H236720   6.430   1.548   2.948
11540WAT      O36721   6.150   2.054   2.596
11540WAT     H136722   6.128   2.033   2.686
11540WAT     H236723   6.072   2.098   2.561
11541WAT      O36724   6.873   2.055   2.456
11541WAT     H136725   6.813   2.127   2.437
11541WAT     H236726   6.928   2.049   2.378
11542WAT      O36727   6.394   2.144   3.663
11542WAT     H136728   6.385   2.050   3.648
11542WAT     H236729   6.479   2.166   3.623
11543WAT      O36730   6.734   1.919   2.659
11543WAT     H136731   6.773   1.950   2.578
11543WAT     H236732   6.770   1.831   2.670
11544WAT      O36733   5.907   1.785   3.478
11544WAT     H136734   5.868   1.870   3.499
11544WAT     H236735   5.839   1.722   3.497
11545WAT      O36736   6.565   1.794   3.785
11545WAT     H136737   6.496   1.774   3.848
11545WAT     H236738   6.639   1.822   3.838
11546WAT      O36739   5.638   1.578   2.881
11546WAT     H136740   5.609   1.635   2.952
11546WAT     H236741   5.712   1.530   2.917
11547WAT      O36742   5.656   1.972   2.002
11547WAT     H136743   5.648   2.066   2.016
11547WAT     H236744   5.621   1.957   1.914
11548WAT      O36745   6.436   1.845   2.909
11548WAT     H136746   6.437   1.801   2.824
11548WAT     H236747   6.526   1.877   2.920
11549WAT      O36748   6.021   1.833   2.805
11549WAT     H136749   5.987   1.881   2.881
11549WAT     H236750   5.945   1.788   2.769
11550WAT      O36751   6.442   1.945   2.208
11550WAT     H136752   6.455   1.941   2.303
11550WAT     H236753   6.404   2.031   2.192
11551WAT      O36754   6.344   2.176   2.148
11551WAT     H136755   6.287   2.131   2.085
11551WAT     H236756   6.414   2.212   2.094
11552WAT      O36757   7.181   1.464   3.593
11552WAT     H136758   7.214   1.391   3.646
11552WAT     H236759   7.185   1.432   3.503
11553WAT      O36760   5.851   2.566   3.535
11553WAT     H136761   5.813   2.502   3.595
11553WAT     H236762   5.882   2.637   3.592
11554WAT      O36763   6.466   2.251   3.084
11554WAT     H136764   6.503   2.204   3.158
11554WAT     H236765   6.447   2.339   3.118
11555WAT      O36766   5.753   1.726   2.697
11555WAT     H136767   5.724   1.689   2.780
11555WAT     H236768   5.746   1.652   2.635
11556WAT      O36769   6.245   2.155   3.315
11556WAT     H136770   6.215   2.243   3.338
11556WAT     H236771   6.341   2.161   3.319
11557WAT      O36772   6.098   2.576   2.375
11557WAT     H136773   6.021   2.522   2.359
11557WAT     H236774   6.171   2.524   2.341
11558WAT      O36775   6.720   1.615   2.369
11558WAT     H136776   6.639   1.565   2.361
11558WAT     H236777   6.701   1.699   2.327
11559WAT      O36778   6.712   2.483   3.543
11559WAT     H136779   6.706   2.391   3.518
11559WAT     H236780   6.649   2.492   3.614
11560WAT      O36781   6.102   2.543   2.739
11560WAT     H136782   6.154   2.462   2.733
11560WAT     H236783   6.057   2.536   2.823
11561WAT      O36784   6.591   2.669   2.266
11561WAT     H136785   6.625   2.744   2.217
11561WAT     H236786   6.508   2.701   2.302
11562WAT      O36787   5.851   2.239   3.430
11562WAT     H136788   5.815   2.306   3.489
11562WAT     H236789   5.821   2.156   3.467
11563WAT      O36790   6.171   2.285   3.719
11563WAT     H136791   6.141   2.300   3.629
11563WAT     H236792   6.248   2.229   3.709
11564WAT      O36793   6.705   2.765   3.518
11564WAT     H136794   6.707   2.672   3.496
11564WAT     H236795   6.635   2.773   3.582
11565WAT      O36796   6.879   2.601   2.803
11565WAT     H136797   6.915   2.542   2.737
11565WAT     H236798   6.791   2.569   2.820
11566WAT      O36799   6.488   2.677   2.543
11566WAT     H136800   6.557   2.732   2.581
11566WAT     H236801   6.409   2.732   2.547
11567WAT      O36802   5.702   2.239   2.092
11567WAT     H136803   5.789   2.267   2.121
11567WAT     H236804   5.653   2.321   2.081
11568WAT      O36805   6.418   2.378   2.505
11568WAT     H136806   6.464   2.459   2.527
11568WAT     H236807   6.383   2.346   2.588
11569WAT      O36808   6.649   2.929   3.227
11569WAT     H136809   6.713   2.950   3.295
11569WAT     H236810   6.685   2.853   3.182
11570WAT      O36811   6.008   1.412   2.552
11570WAT     H136812   5.996   1.411   2.647
11570WAT     H236813   5.926   1.446   2.517
11571WAT      O36814   6.776   2.729   3.099
11571WAT     H136815   6.840   2.659   3.111
11571WAT     H236816   6.828   2.807   3.081
11572WAT      O36817   6.953   2.809   3.420
11572WAT     H136818   6.987   2.868   3.487
11572WAT     H236819   6.861   2.796   3.443
11573WAT      O36820   5.739   3.160   2.149
11573WAT     H136821   5.775   3.220   2.084
11573WAT     H236822   5.725   3.215   2.226
11574WAT      O36823   5.708   1.588   3.498
11574WAT     H136824   5.637   1.608   3.558
11574WAT     H236825   5.750   1.511   3.535
11575WAT      O36826   5.737   2.987   3.597
11575WAT     H136827   5.748   2.893   3.582
11575WAT     H236828   5.672   3.014   3.532
11576WAT      O36829   6.536   2.814   3.736
11576WAT     H136830   6.504   2.742   3.791
11576WAT     H236831   6.469   2.882   3.744
11577WAT      O36832   6.340   2.899   2.231
11577WAT     H136833   6.339   2.972   2.169
11577WAT     H236834   6.248   2.874   2.240
11578WAT      O36835   5.900   2.421   2.305
11578WAT     H136836   5.840   2.495   2.306
11578WAT     H236837   5.948   2.430   2.223
11579WAT      O36838   6.639   2.905   2.097
11579WAT     H136839   6.649   2.885   2.004
11579WAT     H236840   6.549   2.880   2.118
11580WAT      O36841   6.391   1.961   2.495
11580WAT     H136842   6.320   2.008   2.539
11580WAT     H236843   6.420   1.895   2.559
11581WAT      O36844   6.554   2.103   3.295
11581WAT     H136845   6.604   2.150   3.362
11581WAT     H236846   6.568   2.010   3.316
11582WAT      O36847   6.794   1.633   2.639
11582WAT     H136848   6.782   1.635   2.544
11582WAT     H236849   6.889   1.638   2.651
11583WAT      O36850   6.503   3.157   2.567
11583WAT     H136851   6.529   3.153   2.474
11583WAT     H236852   6.408   3.144   2.566
11584WAT      O36853   6.212   1.792   2.233
11584WAT     H136854   6.296   1.835   2.226
11584WAT     H236855   6.175   1.823   2.316
11585WAT      O36856   6.102   2.417   2.080
11585WAT     H136857   6.178   2.406   2.136
11585WAT     H236858   6.109   2.347   2.015
11586WAT      O36859   5.971   2.160   2.149
11586WAT     H136860   5.979   2.066   2.160
11586WAT     H236861   6.060   2.193   2.159
11587WAT      O36862   6.051   3.175   2.859
11587WAT     H136863   6.125   3.120   2.886
11587WAT     H236864   6.090   3.262   2.845
11588WAT      O36865   5.740   2.782   2.446
11588WAT     H136866   5.647   2.806   2.445
11588WAT     H236867   5.786   2.865   2.434
11589WAT      O36868   5.952   3.094   3.778
11589WAT     H136869   6.032   3.126   3.819
11589WAT     H236870   5.900   3.058   3.850
11590WAT      O36871   6.362   3.093   2.041
11590WAT     H136872   6.441   3.121   1.996
11590WAT     H236873   6.310   3.049   1.973
11591WAT      O36874   6.835   2.704   3.772
11591WAT     H136875   6.775   2.707   3.698
11591WAT     H236876   6.805   2.631   3.826
11592WAT      O36877   7.267   3.015   2.183
11592WAT     H136878   7.239   2.974   2.102
11592WAT     H236879   7.248   3.108   2.171
11593WAT      O36880   5.724   2.342   3.672
11593WAT     H136881   5.774   2.284   3.729
11593WAT     H236882   5.650   2.371   3.726
11594WAT      O36883   6.414   2.615   2.028
11594WAT     H136884   6.403   2.553   2.100
11594WAT     H236885   6.397   2.562   1.949
11595WAT      O36886   6.429   2.483   3.625
11595WAT     H136887   6.353   2.540   3.617
11595WAT     H236888   6.447   2.454   3.536
11596WAT      O36889   6.738   2.521   2.088
11596WAT     H136890   6.683   2.565   2.152
11596WAT     H236891   6.800   2.470   2.140
11597WAT      O36892   5.927   2.157   3.762
11597WAT     H136893   5.931   2.127   3.852
11597WAT     H236894   6.012   2.197   3.746
11598WAT      O36895   6.305   2.417   2.278
11598WAT     H136896   6.347   2.400   2.362
11598WAT     H236897   6.317   2.336   2.228
11599WAT      O36898   6.121   2.015   3.558
11599WAT     H136899   6.068   1.966   3.496
11599WAT     H236900   6.188   2.057   3.505
11600WAT      O36901   6.556   2.319   2.002
11600WAT     H136902   6.608   2.248   1.966
11600WAT     H236903   6.621   2.383   2.032
11601WAT      O36904   7.011   2.461   3.535
11601WAT     H136905   7.052   2.477   3.620
11601WAT     H236906   6.917   2.474   3.551
11602WAT      O36907   7.058   2.195   3.735
11602WAT     H136908   7.116   2.120   3.726
11602WAT     H236909   7.076   2.248   3.657
11603WAT      O36910   6.170   1.711   3.566
11603WAT     H136911   6.160   1.649   3.494
11603WAT     H236912   6.112   1.784   3.544
11604WAT      O36913   6.446   1.567   3.270
11604WAT     H136914   6.401   1.569   3.185
11604WAT     H236915   6.383   1.527   3.329
11605WAT      O36916   6.487   2.457   3.332
11605WAT     H136917   6.529   2.541   3.314
11605WAT     H236918   6.395   2.470   3.309
11606WAT      O36919   6.721   2.230   3.470
11606WAT     H136920   6.732   2.170   3.544
11606WAT     H236921   6.806   2.233   3.428
11607WAT      O36922   6.194   2.024   1.972
11607WAT     H136923   6.174   1.938   2.008
11607WAT     H236924   6.177   2.015   1.878
11608WAT      O36925   6.272   3.087   3.443
11608WAT     H136926   6.218   3.160   3.411
11608WAT     H236927   6.297   3.039   3.364
11609WAT      O36928   6.397   1.884   3.596
11609WAT     H136929   6.456   1.853   3.665
11609WAT     H236930   6.315   1.837   3.611
11610WAT      O36931   6.879   1.846   3.619
11610WAT     H136932   6.810   1.779   3.613
11610WAT     H236933   6.951   1.801   3.664
11611WAT      O36934   6.942   1.505   2.225
11611WAT     H136935   6.970   1.421   2.261
11611WAT     H236936   6.865   1.528   2.276
11612WAT      O36937   6.074   1.734   1.971
11612WAT     H136938   6.104   1.735   1.880
11612WAT     H236939   6.148   1.699   2.021
11613WAT      O36940   6.558   3.211   3.469
11613WAT     H136941   6.550   3.301   3.500
11613WAT     H236942   6.467   3.179   3.466
11614WAT      O36943   6.396   1.628   2.070
11614WAT     H136944   6.361   1.561   2.012
11614WAT     H236945   6.416   1.582   2.151
11615WAT      O36946   6.612   3.127   2.231
11615WAT     H136947   6.702   3.161   2.234
11615WAT     H236948   6.616   3.055   2.169
11616WAT      O36949   5.976   2.664   2.054
11616WAT     H136950   6.020   2.719   2.120
11616WAT     H236951   6.025   2.582   2.055
11617WAT      O36952   5.698   2.943   2.799
11617WAT     H136953   5.731   2.857   2.776
11617WAT     H236954   5.741   2.964   2.883
11618WAT      O36955   6.157   2.776   2.565
11618WAT     H136956   6.127   2.764   2.656
11618WAT     H236957   6.147   2.691   2.525
11619WAT      O36958   5.747   3.030   3.073
11619WAT     H136959   5.703   3.048   3.157
11619WAT     H236960   5.804   3.106   3.059
11620WAT      O36961   5.730   2.281   2.709
11620WAT     H136962   5.665   2.254   2.645
11620WAT     H236963   5.814   2.270   2.664
11621WAT      O36964   5.834   2.320   3.163
11621WAT     H136965   5.871   2.311   3.251
11621WAT     H236966   5.777   2.243   3.153
11622WAT      O36967   5.789   2.011   3.554
11622WAT     H136968   5.699   2.008   3.588
11622WAT     H236969   5.843   2.031   3.630
11623WAT      O36970   7.158   1.689   3.742
11623WAT     H136971   7.245   1.690   3.781
11623WAT     H236972   7.159   1.615   3.681
11624WAT      O36973   5.651   2.002   2.303
11624WAT     H136974   5.561   2.029   2.286
11624WAT     H236975   5.700   2.029   2.225
11625WAT      O36976   5.906   1.908   2.094
11625WAT     H136977   5.977   1.866   2.046
11625WAT     H236978   5.834   1.915   2.031
11626WAT      O36979   5.870   1.513   1.998
11626WAT     H136980   5.943   1.567   2.030
11626WAT     H236981   5.898   1.486   1.911
11627WAT      O36982   5.839   1.438   2.989
11627WAT     H136983   5.904   1.383   2.945
11627WAT     H236984   5.881   1.464   3.071
11628WAT      O36985   7.185   3.128   2.665
11628WAT     H136986   7.244   3.096   2.597
11628WAT     H236987   7.210   3.081   2.744
11629WAT      O36988   5.815   1.454   3.263
11629WAT     H136989   5.780   1.500   3.339
11629WAT     H236990   5.782   1.364   3.271
11630WAT      O36991   5.975   2.771   3.679
11630WAT     H136992   5.971   2.734   3.768
11630WAT     H236993   5.988   2.865   3.693
11631WAT      O36994   6.345   2.927   3.240
11631WAT     H136995   6.321   2.953   3.151
11631WAT     H236996   6.439   2.944   3.245
11632WAT      O36997   6.566   1.573   3.615
11632WAT     H136998   6.560   1.632   3.690
11632WAT     H236999   6.660   1.562   3.601
11633WAT      O37000   6.830   1.539   3.579
11633WAT     H137001   6.891   1.571   3.513
11633WAT     H237002   6.884   1.490   3.641
11634WAT      O37003   5.882   1.407   3.590
11634WAT     H137004   5.937   1.389   3.514
11634WAT     H237005   5.888   1.328   3.644
11635WAT      O37006   5.959   3.066   3.391
11635WAT     H137007   5.900   3.053   3.465
11635WAT     H237008   5.958   2.982   3.345
11636WAT      O37009   6.904   1.395   3.212
11636WAT     H137010   6.816   1.428   3.191
11636WAT     H237011   6.893   1.348   3.294
11637WAT      O37012   5.922   2.802   3.286
11637WAT     H137013   5.850   2.740   3.280
11637WAT     H237014   5.928   2.842   3.199
11638WAT      O37015   6.283   3.024   2.965
11638WAT     H137016   6.334   2.963   2.912
11638WAT     H237017   6.348   3.074   3.014
11639WAT      O37018   6.557   3.113   3.048
11639WAT     H137019   6.585   3.087   2.960
11639WAT     H237020   6.608   3.058   3.107
11640WAT      O37021   6.678   1.487   3.106
11640WAT     H137022   6.600   1.534   3.134
11640WAT     H237023   6.649   1.396   3.095
11641WAT      O37024   7.320   1.520   2.711
11641WAT     H137025   7.314   1.426   2.697
11641WAT     H237026   7.398   1.531   2.766
11642WAT      O37027   5.751   3.134   2.607
11642WAT     H137028   5.734   3.071   2.677
11642WAT     H237029   5.664   3.155   2.572
11643WAT      O37030   5.813   1.517   2.358
11643WAT     H137031   5.889   1.528   2.300
11643WAT     H237032   5.767   1.601   2.353
11644WAT      O37033   6.467   1.729   2.657
11644WAT     H137034   6.386   1.691   2.623
11644WAT     H237035   6.517   1.653   2.687
11645WAT      O37036   6.917   1.395   2.781
11645WAT     H137037   6.978   1.452   2.828
11645WAT     H237038   6.843   1.451   2.758
11646WAT      O37039   5.911   3.003   2.352
11646WAT     H137040   5.859   3.041   2.282
11646WAT     H237041   5.904   3.066   2.424
11647WAT      O37042   6.050   1.570   2.212
11647WAT     H137043   6.103   1.491   2.199
11647WAT     H237044   6.113   1.638   2.235
11648WAT      O37045   6.270   1.544   2.517
11648WAT     H137046   6.207   1.473   2.534
11648WAT     H237047   6.216   1.620   2.496
11649WAT      O37048   6.563   3.205   3.784
11649WAT     H137049   6.656   3.181   3.789
11649WAT     H237050   6.562   3.288   3.736
11650WAT      O37051   7.387   3.159   2.484
11650WAT     H137052   7.404   3.091   2.420
11650WAT     H237053   7.317   3.212   2.445
11651WAT      O37054   6.282   1.471   3.761
11651WAT     H137055   6.254   1.522   3.684
11651WAT     H237056   6.320   1.392   3.724
11652WAT      O37057   6.171   3.198   2.239
11652WAT     H137058   6.244   3.170   2.185
11652WAT     H237059   6.197   3.174   2.328
11653WAT      O37060   6.087   2.810   2.240
11653WAT     H137061   6.024   2.857   2.295
11653WAT     H237062   6.099   2.725   2.283
11654WAT      O37063   6.942   1.413   3.819
11654WAT     H137064   6.931   1.445   3.908
11654WAT     H237065   7.024   1.453   3.789
11655WAT      O37066   6.833   2.215   0.855
11655WAT     H137067   6.825   2.123   0.828
11655WAT     H237068   6.791   2.265   0.784
11656WAT      O37069   6.646   2.393   1.043
11656WAT     H137070   6.568   2.345   1.072
11656WAT     H237071   6.711   2.325   1.026
11657WAT      O37072   6.048   2.424   1.131
11657WAT     H137073   5.964   2.398   1.171
11657WAT     H237074   6.108   2.431   1.204
11658WAT      O37075   7.048   2.833   0.921
11658WAT     H137076   7.002   2.756   0.954
11658WAT     H237077   7.129   2.836   0.972
11659WAT      O37078   6.046   2.827   1.150
11659WAT     H137079   6.076   2.738   1.132
11659WAT     H237080   6.120   2.883   1.128
11660WAT      O37081   5.889   1.920   0.509
11660WAT     H137082   5.800   1.954   0.499
11660WAT     H237083   5.917   1.900   0.420
11661WAT      O37084   5.685   2.180   1.098
11661WAT     H137085   5.742   2.103   1.098
11661WAT     H237086   5.685   2.210   1.007
11662WAT      O37087   6.671   3.062   0.883
11662WAT     H137088   6.609   3.107   0.826
11662WAT     H237089   6.756   3.077   0.843
11663WAT      O37090   6.590   2.660   1.044
11663WAT     H137091   6.583   2.566   1.028
11663WAT     H237092   6.666   2.669   1.101
11664WAT      O37093   5.809   1.721   1.276
11664WAT     H137094   5.791   1.631   1.304
11664WAT     H237095   5.769   1.776   1.344
11665WAT      O37096   6.693   1.941   1.066
11665WAT     H137097   6.731   1.854   1.055
11665WAT     H237098   6.683   1.975   0.977
11666WAT      O37099   6.106   1.778   0.613
11666WAT     H137100   6.117   1.868   0.643
11666WAT     H237101   6.015   1.773   0.584
11667WAT      O37102   7.071   1.690   0.760
11667WAT     H137103   7.153   1.641   0.764
11667WAT     H237104   7.075   1.749   0.835
11668WAT      O37105   5.871   1.970   1.137
11668WAT     H137106   5.939   1.997   1.199
11668WAT     H237107   5.839   1.886   1.170
11669WAT      O37108   6.290   2.075   1.046
11669WAT     H137109   6.341   2.125   1.110
11669WAT     H237110   6.343   1.997   1.028
11670WAT      O37111   7.500   1.892   1.416
11670WAT     H137112   7.430   1.931   1.364
11670WAT     H237113   7.527   1.962   1.476
11671WAT      O37114   6.119   1.539   1.472
11671WAT     H137115   6.119   1.591   1.392
11671WAT     H237116   6.036   1.491   1.470
11672WAT      O37117   6.757   2.550   0.622
11672WAT     H137118   6.695   2.597   0.566
11672WAT     H237119   6.809   2.620   0.664
11673WAT      O37120   6.244   2.503   1.290
11673WAT     H137121   6.210   2.566   1.354
11673WAT     H237122   6.261   2.556   1.212
11674WAT      O37123   7.095   1.884   1.037
11674WAT     H137124   7.025   1.913   1.095
11674WAT     H237125   7.131   1.965   1.001
11675WAT      O37126   6.087   1.710   1.273
11675WAT     H137127   6.121   1.795   1.244
11675WAT     H237128   5.993   1.725   1.285
11676WAT      O37129   6.165   2.700   1.472
11676WAT     H137130   6.227   2.767   1.444
11676WAT     H237131   6.079   2.741   1.463
11677WAT      O37132   5.694   2.619   0.360
11677WAT     H137133   5.656   2.668   0.287
11677WAT     H237134   5.720   2.686   0.423
11678WAT      O37135   7.257   2.846   1.263
11678WAT     H137136   7.188   2.913   1.262
11678WAT     H237137   7.311   2.866   1.187
11679WAT      O37138   7.402   1.829   1.076
11679WAT     H137139   7.307   1.832   1.089
11679WAT     H237140   7.434   1.910   1.115
11680WAT      O37141   6.455   1.459   0.906
11680WAT     H137142   6.486   1.403   0.834
11680WAT     H237143   6.362   1.472   0.887
11681WAT      O37144   7.010   3.031   1.135
11681WAT     H137145   7.011   2.990   1.048
11681WAT     H237146   6.955   3.108   1.124
11682WAT      O37147   7.140   2.703   0.644
11682WAT     H137148   7.129   2.609   0.656
11682WAT     H237149   7.139   2.739   0.732
11683WAT      O37150   6.950   2.521   1.267
11683WAT     H137151   6.992   2.500   1.184
11683WAT     H237152   7.022   2.547   1.325
11684WAT      O37153   6.694   2.265   0.579
11684WAT     H137154   6.601   2.259   0.602
11684WAT     H237155   6.709   2.359   0.568
11685WAT      O37156   6.693   1.893   0.279
11685WAT     H137157   6.599   1.909   0.287
11685WAT     H237158   6.724   1.965   0.224
11686WAT      O37159   7.345   2.361   1.277
11686WAT     H137160   7.262   2.368   1.229
11686WAT     H237161   7.404   2.419   1.230
11687WAT      O37162   7.097   2.422   0.630
11687WAT     H137163   7.035   2.388   0.565
11687WAT     H237164   7.095   2.357   0.700
11688WAT      O37165   6.254   2.318   0.857
11688WAT     H137166   6.214   2.247   0.808
11688WAT     H237167   6.263   2.284   0.946
11689WAT      O37168   6.301   2.687   1.074
11689WAT     H137169   6.272   2.626   1.006
11689WAT     H237170   6.396   2.691   1.063
11690WAT      O37171   6.126   1.996   1.235
11690WAT     H137172   6.181   2.007   1.158
11690WAT     H237173   6.177   2.033   1.307
11691WAT      O37174   7.110   3.044   1.440
11691WAT     H137175   7.062   3.125   1.421
11691WAT     H237176   7.042   2.979   1.455
11692WAT      O37177   6.210   2.661   1.739
11692WAT     H137178   6.121   2.683   1.764
11692WAT     H237179   6.213   2.673   1.644
11693WAT      O37180   6.914   2.346   0.330
11693WAT     H137181   6.958   2.262   0.316
11693WAT     H237182   6.986   2.409   0.339
11694WAT      O37183   6.093   2.348   1.596
11694WAT     H137184   6.079   2.435   1.633
11694WAT     H237185   6.005   2.313   1.582
11695WAT      O37186   6.725   2.840   0.727
11695WAT     H137187   6.769   2.914   0.686
11695WAT     H237188   6.719   2.864   0.819
11696WAT      O37189   6.273   2.942   1.817
11696WAT     H137190   6.270   2.982   1.731
11696WAT     H237191   6.257   2.849   1.801
11697WAT      O37192   5.924   2.208   0.607
11697WAT     H137193   5.912   2.280   0.546
11697WAT     H237194   5.893   2.131   0.560
11698WAT      O37195   7.468   3.020   1.947
11698WAT     H137196   7.516   3.068   2.015
11698WAT     H237197   7.530   3.013   1.874
11699WAT      O37198   5.688   2.525   1.188
11699WAT     H137199   5.696   2.538   1.094
11699WAT     H237200   5.750   2.454   1.207
11700WAT      O37201   5.813   2.695   0.829
11700WAT     H137202   5.772   2.709   0.744
11700WAT     H237203   5.902   2.666   0.809
11701WAT      O37204   7.408   2.739   1.663
11701WAT     H137205   7.421   2.715   1.571
11701WAT     H237206   7.413   2.656   1.710
11702WAT      O37207   6.795   3.110   1.520
11702WAT     H137208   6.846   3.101   1.600
11702WAT     H237209   6.710   3.144   1.549
11703WAT      O37210   6.992   3.138   0.463
11703WAT     H137211   6.976   3.109   0.553
11703WAT     H237212   6.976   3.061   0.409
11704WAT      O37213   6.240   3.116   0.640
11704WAT     H137214   6.222   3.025   0.619
11704WAT     H237215   6.155   3.152   0.664
11705WAT      O37216   6.962   2.889   0.319
11705WAT     H137217   6.893   2.889   0.253
11705WAT     H237218   7.037   2.847   0.276
11706WAT      O37219   6.919   3.052   0.726
11706WAT     H137220   6.964   2.974   0.758
11706WAT     H237221   6.953   3.123   0.781
11707WAT      O37222   5.694   2.629   1.442
11707WAT     H137223   5.710   2.582   1.360
11707WAT     H237224   5.740   2.578   1.509
11708WAT      O37225   6.171   1.542   0.946
11708WAT     H137226   6.127   1.620   0.913
11708WAT     H237227   6.227   1.574   1.016
11709WAT      O37228   6.483   1.504   0.434
11709WAT     H137229   6.420   1.504   0.506
11709WAT     H237230   6.474   1.417   0.394
11710WAT      O37231   6.375   1.596   1.132
11710WAT     H137232   6.405   1.687   1.124
11710WAT     H237233   6.430   1.548   1.070
11711WAT      O37234   6.150   2.054   0.719
11711WAT     H137235   6.128   2.033   0.809
11711WAT     H237236   6.072   2.098   0.684
11712WAT      O37237   6.873   2.055   0.578
11712WAT     H137238   6.813   2.127   0.560
11712WAT     H237239   6.928   2.049   0.500
11713WAT      O37240   6.394   2.144   1.785
11713WAT     H137241   6.385   2.050   1.770
11713WAT     H237242   6.479   2.166   1.746
11714WAT      O37243   6.734   1.919   0.781
11714WAT     H137244   6.773   1.950   0.700
11714WAT     H237245   6.770   1.831   0.793
11715WAT      O37246   5.907   1.785   1.600
11715WAT     H137247   5.868   1.870   1.621
11715WAT     H237248   5.839   1.722   1.620
11716WAT      O37249   6.565   1.794   1.907
11716WAT     H137250   6.496   1.774   1.971
11716WAT     H237251   6.639   1.822   1.961
11717WAT      O37252   5.638   1.578   1.004
11717WAT     H137253   5.609   1.635   1.075
11717WAT     H237254   5.712   1.530   1.040
11718WAT      O37255   6.792   2.178   1.191
11718WAT     H137256   6.719   2.228   1.226
11718WAT     H237257   6.753   2.096   1.161
11719WAT      O37258   6.436   1.845   1.031
11719WAT     H137259   6.437   1.801   0.947
11719WAT     H237260   6.526   1.877   1.042
11720WAT      O37261   6.021   1.833   0.927
11720WAT     H137262   5.987   1.881   1.003
11720WAT     H237263   5.945   1.788   0.891
11721WAT      O37264   6.442   1.945   0.331
11721WAT     H137265   6.455   1.941   0.425
11721WAT     H237266   6.404   2.031   0.315
11722WAT      O37267   6.839   1.723   1.132
11722WAT     H137268   6.840   1.768   1.217
11722WAT     H237269   6.814   1.633   1.154
11723WAT      O37270   6.344   2.176   0.270
11723WAT     H137271   6.287   2.131   0.208
11723WAT     H237272   6.414   2.212   0.217
11724WAT      O37273   7.181   1.464   1.716
11724WAT     H137274   7.214   1.391   1.769
11724WAT     H237275   7.185   1.432   1.626
11725WAT      O37276   5.851   2.566   1.658
11725WAT     H137277   5.813   2.502   1.718
11725WAT     H237278   5.882   2.637   1.715
11726WAT      O37279   6.466   2.251   1.206
11726WAT     H137280   6.503   2.204   1.281
11726WAT     H237281   6.447   2.339   1.240
11727WAT      O37282   5.753   1.726   0.819
11727WAT     H137283   5.724   1.689   0.903
11727WAT     H237284   5.746   1.652   0.758
11728WAT      O37285   6.245   2.155   1.438
11728WAT     H137286   6.215   2.243   1.460
11728WAT     H237287   6.341   2.161   1.442
11729WAT      O37288   6.098   2.576   0.498
11729WAT     H137289   6.021   2.522   0.482
11729WAT     H237290   6.171   2.524   0.464
11730WAT      O37291   7.174   2.476   1.077
11730WAT     H137292   7.246   2.525   1.038
11730WAT     H237293   7.154   2.408   1.012
11731WAT      O37294   6.720   1.615   0.491
11731WAT     H137295   6.639   1.565   0.484
11731WAT     H237296   6.701   1.699   0.450
11732WAT      O37297   6.712   2.483   1.666
11732WAT     H137298   6.706   2.391   1.640
11732WAT     H237299   6.649   2.492   1.737
11733WAT      O37300   6.992   2.052   0.321
11733WAT     H137301   7.080   2.083   0.303
11733WAT     H237302   6.989   1.965   0.282
11734WAT      O37303   6.102   2.543   0.861
11734WAT     H137304   6.154   2.462   0.856
11734WAT     H237305   6.057   2.536   0.946
11735WAT      O37306   6.591   2.669   0.389
11735WAT     H137307   6.625   2.744   0.339
11735WAT     H237308   6.508   2.701   0.425
11736WAT      O37309   5.851   2.239   1.553
11736WAT     H137310   5.815   2.306   1.611
11736WAT     H237311   5.821   2.156   1.590
11737WAT      O37312   6.171   2.285   1.841
11737WAT     H137313   6.141   2.300   1.751
11737WAT     H237314   6.248   2.229   1.832
11738WAT      O37315   6.705   2.765   1.641
11738WAT     H137316   6.707   2.672   1.619
11738WAT     H237317   6.635   2.773   1.705
11739WAT      O37318   7.219   2.183   0.268
11739WAT     H137319   7.210   2.226   0.183
11739WAT     H237320   7.291   2.229   0.311
11740WAT      O37321   7.322   2.869   0.540
11740WAT     H137322   7.257   2.803   0.568
11740WAT     H237323   7.283   2.909   0.463
11741WAT      O37324   6.879   2.601   0.925
11741WAT     H137325   6.915   2.542   0.859
11741WAT     H237326   6.791   2.569   0.942
11742WAT      O37327   6.488   2.677   0.666
11742WAT     H137328   6.557   2.732   0.704
11742WAT     H237329   6.409   2.732   0.669
11743WAT      O37330   5.702   2.239   0.215
11743WAT     H137331   5.789   2.267   0.243
11743WAT     H237332   5.653   2.321   0.204
11744WAT      O37333   6.418   2.378   0.627
11744WAT     H137334   6.464   2.459   0.650
11744WAT     H237335   6.383   2.346   0.710
11745WAT      O37336   6.649   2.929   1.350
11745WAT     H137337   6.713   2.950   1.418
11745WAT     H237338   6.685   2.853   1.305
11746WAT      O37339   6.008   1.412   0.674
11746WAT     H137340   5.996   1.411   0.769
11746WAT     H237341   5.926   1.446   0.639
11747WAT      O37342   6.776   2.729   1.222
11747WAT     H137343   6.840   2.659   1.233
11747WAT     H237344   6.828   2.807   1.204
11748WAT      O37345   6.953   2.809   1.542
11748WAT     H137346   6.987   2.868   1.610
11748WAT     H237347   6.861   2.796   1.565
11749WAT      O37348   5.739   3.160   0.272
11749WAT     H137349   5.775   3.220   0.206
11749WAT     H237350   5.725   3.215   0.349
11750WAT      O37351   5.708   1.588   1.620
11750WAT     H137352   5.637   1.608   1.681
11750WAT     H237353   5.750   1.511   1.658
11751WAT      O37354   7.119   2.550   0.360
11751WAT     H137355   7.090   2.596   0.439
11751WAT     H237356   7.198   2.503   0.387
11752WAT      O37357   5.737   2.987   1.719
11752WAT     H137358   5.748   2.893   1.705
11752WAT     H237359   5.672   3.014   1.654
11753WAT      O37360   6.536   2.814   1.859
11753WAT     H137361   6.504   2.742   1.914
11753WAT     H237362   6.469   2.882   1.866
11754WAT      O37363   6.340   2.899   0.353
11754WAT     H137364   6.339   2.972   0.292
11754WAT     H237365   6.248   2.874   0.363
11755WAT      O37366   5.900   2.421   0.428
11755WAT     H137367   5.840   2.495   0.429
11755WAT     H237368   5.948   2.430   0.345
11756WAT      O37369   7.194   1.733   0.476
11756WAT     H137370   7.132   1.743   0.405
11756WAT     H237371   7.145   1.755   0.555
11757WAT      O37372   6.391   1.961   0.618
11757WAT     H137373   6.320   2.008   0.662
11757WAT     H237374   6.420   1.895   0.681
11758WAT      O37375   6.554   2.103   1.418
11758WAT     H137376   6.604   2.150   1.484
11758WAT     H237377   6.568   2.010   1.439
11759WAT      O37378   6.794   1.633   0.762
11759WAT     H137379   6.782   1.635   0.667
11759WAT     H237380   6.889   1.638   0.774
11760WAT      O37381   6.503   3.157   0.689
11760WAT     H137382   6.529   3.153   0.597
11760WAT     H237383   6.408   3.144   0.688
11761WAT      O37384   6.212   1.792   0.355
11761WAT     H137385   6.296   1.835   0.349
11761WAT     H237386   6.175   1.823   0.438
11762WAT      O37387   7.104   2.249   0.847
11762WAT     H137388   7.010   2.250   0.864
11762WAT     H237389   7.135   2.170   0.891
11763WAT      O37390   5.971   2.160   0.271
11763WAT     H137391   5.979   2.066   0.282
11763WAT     H237392   6.060   2.193   0.282
11764WAT      O37393   7.304   2.966   1.014
11764WAT     H137394   7.316   3.048   1.061
11764WAT     H237395   7.391   2.945   0.979
11765WAT      O37396   6.051   3.175   0.981
11765WAT     H137397   6.125   3.120   1.009
11765WAT     H237398   6.090   3.262   0.967
11766WAT      O37399   5.740   2.782   0.569
11766WAT     H137400   5.647   2.806   0.568
11766WAT     H237401   5.786   2.865   0.557
11767WAT      O37402   5.952   3.094   1.900
11767WAT     H137403   6.032   3.126   1.942
11767WAT     H237404   5.900   3.058   1.972
11768WAT      O37405   6.835   2.704   1.895
11768WAT     H137406   6.775   2.707   1.821
11768WAT     H237407   6.805   2.631   1.949
11769WAT      O37408   6.978   3.077   1.756
11769WAT     H137409   7.074   3.069   1.751
11769WAT     H237410   6.964   3.144   1.823
11770WAT      O37411   7.267   3.015   0.306
11770WAT     H137412   7.239   2.974   0.225
11770WAT     H237413   7.248   3.108   0.294
11771WAT      O37414   5.724   2.342   1.795
11771WAT     H137415   5.774   2.284   1.852
11771WAT     H237416   5.650   2.371   1.848
11772WAT      O37417   6.429   2.483   1.748
11772WAT     H137418   6.353   2.540   1.740
11772WAT     H237419   6.447   2.454   1.659
11773WAT      O37420   6.738   2.521   0.211
11773WAT     H137421   6.683   2.565   0.275
11773WAT     H237422   6.800   2.470   0.263
11774WAT      O37423   7.143   2.656   1.804
11774WAT     H137424   7.217   2.690   1.753
11774WAT     H237425   7.067   2.673   1.748
11775WAT      O37426   5.927   2.157   1.884
11775WAT     H137427   5.931   2.127   1.975
11775WAT     H237428   6.012   2.197   1.868
11776WAT      O37429   6.305   2.417   0.400
11776WAT     H137430   6.347   2.400   0.484
11776WAT     H237431   6.317   2.336   0.351
11777WAT      O37432   6.121   2.015   1.681
11777WAT     H137433   6.068   1.966   1.618
11777WAT     H237434   6.188   2.057   1.627
11778WAT      O37435   6.170   1.711   1.689
11778WAT     H137436   6.160   1.649   1.616
11778WAT     H237437   6.112   1.784   1.666
11779WAT      O37438   6.446   1.567   1.392
11779WAT     H137439   6.401   1.569   1.308
11779WAT     H237440   6.383   1.527   1.452
11780WAT      O37441   6.487   2.457   1.454
11780WAT     H137442   6.529   2.541   1.437
11780WAT     H237443   6.395   2.470   1.431
11781WAT      O37444   6.272   3.087   1.566
11781WAT     H137445   6.218   3.160   1.534
11781WAT     H237446   6.297   3.039   1.487
11782WAT      O37447   6.397   1.884   1.718
11782WAT     H137448   6.456   1.853   1.787
11782WAT     H237449   6.315   1.837   1.734
11783WAT      O37450   6.942   1.505   0.348
11783WAT     H137451   6.970   1.421   0.383
11783WAT     H237452   6.865   1.528   0.399
11784WAT      O37453   6.558   3.211   1.592
11784WAT     H137454   6.550   3.301   1.622
11784WAT     H237455   6.467   3.179   1.589
11785WAT      O37456   6.612   3.127   0.354
11785WAT     H137457   6.702   3.161   0.356
11785WAT     H237458   6.616   3.055   0.291
11786WAT      O37459   5.976   2.664   0.177
11786WAT     H137460   6.020   2.719   0.242
11786WAT     H237461   6.025   2.582   0.178
11787WAT      O37462   5.698   2.943   0.922
11787WAT     H137463   5.731   2.857   0.899
11787WAT     H237464   5.741   2.964   1.005
11788WAT      O37465   6.157   2.776   0.688
11788WAT     H137466   6.127   2.764   0.778
11788WAT     H237467   6.147   2.691   0.647
11789WAT      O37468   5.747   3.030   1.196
11789WAT     H137469   5.703   3.048   1.279
11789WAT     H237470   5.804   3.106   1.182
11790WAT      O37471   7.310   2.980   1.625
11790WAT     H137472   7.250   2.986   1.550
11790WAT     H237473   7.323   2.886   1.638
11791WAT      O37474   7.380   2.429   0.409
11791WAT     H137475   7.456   2.486   0.419
11791WAT     H237476   7.382   2.372   0.486
11792WAT      O37477   5.730   2.281   0.832
11792WAT     H137478   5.665   2.254   0.767
11792WAT     H237479   5.814   2.270   0.787
11793WAT      O37480   7.481   2.514   0.893
11793WAT     H137481   7.518   2.436   0.852
11793WAT     H237482   7.545   2.583   0.875
11794WAT      O37483   7.179   2.653   1.434
11794WAT     H137484   7.098   2.696   1.461
11794WAT     H237485   7.220   2.714   1.373
11795WAT      O37486   7.025   1.761   0.254
11795WAT     H137487   7.067   1.742   0.170
11795WAT     H237488   6.994   1.675   0.285
11796WAT      O37489   7.375   2.252   0.624
11796WAT     H137490   7.337   2.175   0.580
11796WAT     H237491   7.302   2.290   0.672
11797WAT      O37492   5.834   2.320   1.286
11797WAT     H137493   5.871   2.311   1.374
11797WAT     H237494   5.777   2.243   1.276
11798WAT      O37495   5.789   2.011   1.676
11798WAT     H137496   5.699   2.008   1.710
11798WAT     H237497   5.843   2.031   1.753
11799WAT      O37498   5.651   2.002   0.426
11799WAT     H137499   5.561   2.029   0.409
11799WAT     H237500   5.700   2.029   0.348
11800WAT      O37501   7.302   2.074   0.954
11800WAT     H137502   7.355   2.025   0.891
11800WAT     H237503   7.361   2.088   1.028
11801WAT      O37504   7.320   2.083   1.306
11801WAT     H137505   7.225   2.079   1.317
11801WAT     H237506   7.338   2.174   1.282
11802WAT      O37507   7.251   2.000   0.548
11802WAT     H137508   7.301   1.977   0.626
11802WAT     H237509   7.231   1.916   0.506
11803WAT      O37510   5.839   1.438   1.111
11803WAT     H137511   5.904   1.383   1.067
11803WAT     H237512   5.881   1.464   1.193
11804WAT      O37513   7.394   1.864   0.801
11804WAT     H137514   7.383   1.848   0.895
11804WAT     H237515   7.470   1.811   0.777
11805WAT      O37516   7.229   1.458   1.447
11805WAT     H137517   7.293   1.519   1.483
11805WAT     H237518   7.244   1.461   1.352
11806WAT      O37519   7.490   1.724   0.388
11806WAT     H137520   7.411   1.717   0.441
11806WAT     H237521   7.511   1.818   0.387
11807WAT      O37522   7.185   3.128   0.787
11807WAT     H137523   7.244   3.096   0.719
11807WAT     H237524   7.210   3.081   0.866
11808WAT      O37525   5.815   1.454   1.385
11808WAT     H137526   5.780   1.500   1.462
11808WAT     H237527   5.782   1.364   1.394
11809WAT      O37528   5.975   2.771   1.802
11809WAT     H137529   5.971   2.734   1.890
11809WAT     H237530   5.988   2.865   1.816
11810WAT      O37531   6.345   2.927   1.362
11810WAT     H137532   6.321   2.953   1.273
11810WAT     H237533   6.439   2.944   1.368
11811WAT      O37534   6.566   1.573   1.738
11811WAT     H137535   6.560   1.632   1.813
11811WAT     H237536   6.660   1.562   1.723
11812WAT      O37537   6.830   1.539   1.702
11812WAT     H137538   6.891   1.571   1.635
11812WAT     H237539   6.884   1.490   1.764
11813WAT      O37540   7.471   3.129   1.442
11813WAT     H137541   7.422   3.168   1.370
11813WAT     H237542   7.411   3.066   1.482
11814WAT      O37543   5.882   1.407   1.713
11814WAT     H137544   5.937   1.389   1.637
11814WAT     H237545   5.888   1.328   1.767
11815WAT      O37546   5.959   3.066   1.514
11815WAT     H137547   5.900   3.053   1.588
11815WAT     H237548   5.958   2.982   1.467
11816WAT      O37549   6.904   1.395   1.334
11816WAT     H137550   6.816   1.428   1.314
11816WAT     H237551   6.893   1.348   1.417
11817WAT      O37552   6.994   1.616   1.473
11817WAT     H137553   6.962   1.534   1.435
11817WAT     H237554   7.089   1.611   1.460
11818WAT      O37555   7.240   3.193   1.170
11818WAT     H137556   7.194   3.268   1.133
11818WAT     H237557   7.177   3.121   1.164
11819WAT      O37558   5.922   2.802   1.409
11819WAT     H137559   5.850   2.740   1.402
11819WAT     H237560   5.928   2.842   1.322
11820WAT      O37561   6.283   3.024   1.088
11820WAT     H137562   6.334   2.963   1.035
11820WAT     H237563   6.348   3.074   1.137
11821WAT      O37564   6.557   3.113   1.170
11821WAT     H137565   6.585   3.087   1.083
11821WAT     H237566   6.608   3.058   1.229
11822WAT      O37567   6.678   1.487   1.228
11822WAT     H137568   6.600   1.534   1.256
11822WAT     H237569   6.649   1.396   1.217
11823WAT      O37570   7.134   1.557   1.033
11823WAT     H137571   7.178   1.551   0.948
11823WAT     H237572   7.107   1.649   1.040
11824WAT      O37573   7.320   1.520   0.834
11824WAT     H137574   7.314   1.426   0.819
11824WAT     H237575   7.398   1.531   0.888
11825WAT      O37576   5.751   3.134   0.730
11825WAT     H137577   5.734   3.071   0.800
11825WAT     H237578   5.664   3.155   0.695
11826WAT      O37579   5.813   1.517   0.480
11826WAT     H137580   5.889   1.528   0.423
11826WAT     H237581   5.767   1.601   0.476
11827WAT      O37582   6.467   1.729   0.779
11827WAT     H137583   6.386   1.691   0.745
11827WAT     H237584   6.517   1.653   0.810
11828WAT      O37585   6.917   1.395   0.903
11828WAT     H137586   6.978   1.452   0.951
11828WAT     H237587   6.843   1.451   0.881
11829WAT      O37588   7.232   1.435   0.431
11829WAT     H137589   7.251   1.525   0.457
11829WAT     H237590   7.153   1.412   0.480
11830WAT      O37591   5.911   3.003   0.474
11830WAT     H137592   5.859   3.041   0.404
11830WAT     H237593   5.904   3.066   0.547
11831WAT      O37594   6.050   1.570   0.334
11831WAT     H137595   6.103   1.491   0.321
11831WAT     H237596   6.113   1.638   0.358
11832WAT      O37597   6.270   1.544   0.640
11832WAT     H137598   6.207   1.473   0.656
11832WAT     H237599   6.216   1.620   0.618
11833WAT      O37600   6.563   3.205   1.907
11833WAT     H137601   6.656   3.181   1.911
11833WAT     H237602   6.562   3.288   1.859
11834WAT      O37603   7.387   3.159   0.607
11834WAT     H137604   7.404   3.091   0.542
11834WAT     H237605   7.317   3.212   0.567
11835WAT      O37606   6.282   1.471   1.883
11835WAT     H137607   6.254   1.522   1.807
11835WAT     H237608   6.320   1.392   1.847
11836WAT      O37609   6.171   3.198   0.362
11836WAT     H137610   6.244   3.170   0.307
11836WAT     H237611   6.197   3.174   0.451
11837WAT      O37612   6.087   2.810   0.362
11837WAT     H137613   6.024   2.857   0.417
11837WAT     H237614   6.099   2.725   0.406
11838WAT      O37615   6.942   1.413   1.941
11838WAT     H137616   6.931   1.445   2.031
11838WAT     H237617   7.024   1.453   1.911
11839WAT      O37618   7.220   3.128   1.889
11839WAT     H137619   7.299   3.078   1.869
11839WAT     H237620   7.250   3.196   1.950
11840WAT      O37621   6.833   0.337   6.487
11840WAT     H137622   6.825   0.246   6.460
11840WAT     H237623   6.791   0.387   6.417
11841WAT      O37624   6.646   0.515   6.675
11841WAT     H137625   6.568   0.467   6.704
11841WAT     H237626   6.711   0.447   6.658
11842WAT      O37627   6.048   0.546   6.763
11842WAT     H137628   5.964   0.521   6.803
11842WAT     H237629   6.108   0.554   6.837
11843WAT      O37630   7.048   0.956   6.553
11843WAT     H137631   7.002   0.879   6.586
11843WAT     H237632   7.129   0.959   6.604
11844WAT      O37633   6.046   0.950   6.783
11844WAT     H137634   6.076   0.861   6.765
11844WAT     H237635   6.120   1.006   6.760
11845WAT      O37636   5.685   0.303   6.730
11845WAT     H137637   5.742   0.226   6.730
11845WAT     H237638   5.685   0.332   6.639
11846WAT      O37639   6.671   1.184   6.515
11846WAT     H137640   6.609   1.230   6.458
11846WAT     H237641   6.756   1.200   6.475
11847WAT      O37642   6.590   0.783   6.676
11847WAT     H137643   6.583   0.689   6.660
11847WAT     H237644   6.666   0.792   6.733
11848WAT      O37645   6.757   0.673   6.255
11848WAT     H137646   6.695   0.719   6.198
11848WAT     H237647   6.809   0.742   6.296
11849WAT      O37648   6.244   0.626   6.922
11849WAT     H137649   6.210   0.688   6.987
11849WAT     H237650   6.261   0.678   6.845
11850WAT      O37651   6.165   0.822   7.104
11850WAT     H137652   6.227   0.890   7.076
11850WAT     H237653   6.079   0.863   7.095
11851WAT      O37654   5.694   0.741   5.992
11851WAT     H137655   5.656   0.790   5.919
11851WAT     H237656   5.720   0.809   6.055
11852WAT      O37657   7.257   0.969   6.896
11852WAT     H137658   7.188   1.036   6.895
11852WAT     H237659   7.311   0.989   6.819
11853WAT      O37660   7.010   1.153   6.767
11853WAT     H137661   7.011   1.113   6.680
11853WAT     H237662   6.955   1.231   6.757
11854WAT      O37663   7.140   0.825   6.276
11854WAT     H137664   7.129   0.731   6.288
11854WAT     H237665   7.139   0.862   6.365
11855WAT      O37666   6.950   0.644   6.900
11855WAT     H137667   6.992   0.622   6.816
11855WAT     H237668   7.022   0.669   6.957
11856WAT      O37669   6.694   0.388   6.212
11856WAT     H137670   6.601   0.381   6.234
11856WAT     H237671   6.709   0.482   6.200
11857WAT      O37672   7.345   0.483   6.909
11857WAT     H137673   7.262   0.490   6.861
11857WAT     H237674   7.404   0.542   6.862
11858WAT      O37675   7.097   0.544   6.262
11858WAT     H137676   7.035   0.510   6.197
11858WAT     H237677   7.095   0.480   6.333
11859WAT      O37678   6.254   0.441   6.490
11859WAT     H137679   6.214   0.369   6.440
11859WAT     H237680   6.263   0.406   6.579
11860WAT      O37681   6.301   0.809   6.706
11860WAT     H137682   6.272   0.749   6.638
11860WAT     H237683   6.396   0.813   6.695
11861WAT      O37684   7.110   1.167   7.072
11861WAT     H137685   7.062   1.247   7.053
11861WAT     H237686   7.042   1.101   7.088
11862WAT      O37687   6.210   0.783   7.371
11862WAT     H137688   6.121   0.806   7.396
11862WAT     H237689   6.213   0.796   7.276
11863WAT      O37690   6.914   0.468   5.963
11863WAT     H137691   6.958   0.384   5.948
11863WAT     H237692   6.986   0.531   5.971
11864WAT      O37693   6.093   0.470   7.229
11864WAT     H137694   6.079   0.558   7.266
11864WAT     H237695   6.005   0.436   7.214
11865WAT      O37696   6.725   0.962   6.359
11865WAT     H137697   6.769   1.036   6.318
11865WAT     H237698   6.719   0.986   6.452
11866WAT      O37699   6.273   1.065   7.450
11866WAT     H137700   6.270   1.105   7.363
11866WAT     H237701   6.257   0.972   7.433
11867WAT      O37702   5.924   0.330   6.240
11867WAT     H137703   5.912   0.403   6.179
11867WAT     H237704   5.893   0.253   6.192
11868WAT      O37705   5.688   0.647   6.820
11868WAT     H137706   5.696   0.661   6.726
11868WAT     H237707   5.750   0.576   6.840
11869WAT      O37708   5.813   0.817   6.462
11869WAT     H137709   5.772   0.831   6.376
11869WAT     H237710   5.902   0.789   6.441
11870WAT      O37711   7.408   0.862   7.295
11870WAT     H137712   7.421   0.838   7.203
11870WAT     H237713   7.413   0.779   7.342
11871WAT      O37714   6.795   1.232   7.152
11871WAT     H137715   6.846   1.223   7.232
11871WAT     H237716   6.710   1.267   7.181
11872WAT      O37717   6.992   1.261   6.095
11872WAT     H137718   6.976   1.232   6.185
11872WAT     H237719   6.976   1.183   6.041
11873WAT      O37720   6.240   1.239   6.273
11873WAT     H137721   6.222   1.147   6.251
11873WAT     H237722   6.155   1.275   6.297
11874WAT      O37723   6.962   1.012   5.951
11874WAT     H137724   6.893   1.011   5.885
11874WAT     H237725   7.037   0.969   5.908
11875WAT      O37726   6.919   1.174   6.358
11875WAT     H137727   6.964   1.096   6.390
11875WAT     H237728   6.953   1.245   6.413
11876WAT      O37729   5.694   0.751   7.074
11876WAT     H137730   5.710   0.704   6.993
11876WAT     H237731   5.740   0.701   7.141
11877WAT      O37732   6.809   0.223   7.461
11877WAT     H137733   6.842   0.140   7.427
11877WAT     H237734   6.888   0.276   7.476
11878WAT      O37735   6.150   0.177   6.351
11878WAT     H137736   6.128   0.155   6.441
11878WAT     H237737   6.072   0.220   6.316
11879WAT      O37738   6.873   0.177   6.211
11879WAT     H137739   6.813   0.250   6.192
11879WAT     H237740   6.928   0.171   6.132
11880WAT      O37741   6.394   0.267   7.417
11880WAT     H137742   6.385   0.173   7.402
11880WAT     H237743   6.479   0.289   7.378
11881WAT      O37744   6.792   0.300   6.823
11881WAT     H137745   6.719   0.351   6.858
11881WAT     H237746   6.753   0.218   6.793
11882WAT      O37747   6.344   0.299   5.903
11882WAT     H137748   6.287   0.254   5.840
11882WAT     H237749   6.414   0.335   5.849
11883WAT      O37750   5.851   0.689   7.290
11883WAT     H137751   5.813   0.625   7.350
11883WAT     H237752   5.882   0.759   7.347
11884WAT      O37753   6.466   0.374   6.838
11884WAT     H137754   6.503   0.326   6.913
11884WAT     H237755   6.447   0.461   6.873
11885WAT      O37756   6.245   0.278   7.070
11885WAT     H137757   6.215   0.366   7.093
11885WAT     H237758   6.341   0.284   7.074
11886WAT      O37759   6.098   0.698   6.130
11886WAT     H137760   6.021   0.644   6.114
11886WAT     H237761   6.171   0.646   6.096
11887WAT      O37762   7.174   0.598   6.709
11887WAT     H137763   7.246   0.648   6.670
11887WAT     H237764   7.154   0.530   6.645
11888WAT      O37765   6.712   0.605   7.298
11888WAT     H137766   6.706   0.513   7.272
11888WAT     H237767   6.649   0.615   7.369
11889WAT      O37768   6.102   0.665   6.494
11889WAT     H137769   6.154   0.585   6.488
11889WAT     H237770   6.057   0.659   6.578
11890WAT      O37771   6.591   0.792   6.021
11890WAT     H137772   6.625   0.866   5.971
11890WAT     H237773   6.508   0.823   6.057
11891WAT      O37774   5.851   0.362   7.185
11891WAT     H137775   5.815   0.428   7.244
11891WAT     H237776   5.821   0.279   7.222
11892WAT      O37777   6.171   0.408   7.473
11892WAT     H137778   6.141   0.422   7.384
11892WAT     H237779   6.248   0.352   7.464
11893WAT      O37780   6.705   0.887   7.273
11893WAT     H137781   6.707   0.794   7.251
11893WAT     H237782   6.635   0.896   7.337
11894WAT      O37783   7.219   0.306   5.900
11894WAT     H137784   7.210   0.349   5.815
11894WAT     H237785   7.291   0.352   5.943
11895WAT      O37786   7.326   0.551   7.208
11895WAT     H137787   7.254   0.611   7.188
11895WAT     H237788   7.379   0.551   7.128
11896WAT      O37789   7.322   0.991   6.173
11896WAT     H137790   7.257   0.926   6.200
11896WAT     H237791   7.283   1.032   6.095
11897WAT      O37792   6.879   0.724   6.557
11897WAT     H137793   6.915   0.664   6.491
11897WAT     H237794   6.791   0.691   6.575
11898WAT      O37795   6.488   0.800   6.298
11898WAT     H137796   6.557   0.855   6.336
11898WAT     H237797   6.409   0.854   6.302
11899WAT      O37798   5.702   0.362   5.847
11899WAT     H137799   5.789   0.390   5.876
11899WAT     H237800   5.653   0.443   5.836
11900WAT      O37801   6.418   0.500   6.259
11900WAT     H137802   6.464   0.582   6.282
11900WAT     H237803   6.383   0.469   6.343
11901WAT      O37804   6.649   1.052   6.982
11901WAT     H137805   6.713   1.072   7.050
11901WAT     H237806   6.685   0.975   6.937
11902WAT      O37807   6.776   0.852   6.854
11902WAT     H137808   6.840   0.782   6.865
11902WAT     H237809   6.828   0.930   6.836
11903WAT      O37810   7.161   0.880   5.827
11903WAT     H137811   7.138   0.809   5.886
11903WAT     H237812   7.121   0.855   5.743
11904WAT      O37813   6.953   0.932   7.174
11904WAT     H137814   6.987   0.990   7.242
11904WAT     H237815   6.861   0.919   7.197
11905WAT      O37816   5.739   1.283   5.904
11905WAT     H137817   5.775   1.343   5.839
11905WAT     H237818   5.725   1.338   5.981
11906WAT      O37819   7.119   0.672   5.993
11906WAT     H137820   7.090   0.718   6.071
11906WAT     H237821   7.198   0.626   6.019
11907WAT      O37822   5.737   1.110   7.351
11907WAT     H137823   5.748   1.016   7.337
11907WAT     H237824   5.672   1.136   7.287
11908WAT      O37825   6.340   1.021   5.986
11908WAT     H137826   6.339   1.095   5.924
11908WAT     H237827   6.248   0.997   5.995
11909WAT      O37828   5.900   0.543   6.060
11909WAT     H137829   5.840   0.617   6.061
11909WAT     H237830   5.948   0.552   5.978
11910WAT      O37831   6.639   1.028   5.852
11910WAT     H137832   6.649   1.007   5.759
11910WAT     H237833   6.549   1.002   5.872
11911WAT      O37834   6.554   0.225   7.050
11911WAT     H137835   6.604   0.273   7.117
11911WAT     H237836   6.568   0.133   7.071
11912WAT      O37837   6.503   1.279   6.321
11912WAT     H137838   6.529   1.276   6.229
11912WAT     H237839   6.408   1.267   6.321
11913WAT      O37840   7.104   0.371   6.479
11913WAT     H137841   7.010   0.373   6.496
11913WAT     H237842   7.135   0.293   6.524
11914WAT      O37843   6.102   0.540   5.835
11914WAT     H137844   6.178   0.528   5.891
11914WAT     H237845   6.109   0.470   5.770
11915WAT      O37846   5.971   0.283   5.903
11915WAT     H137847   5.979   0.188   5.915
11915WAT     H237848   6.060   0.316   5.914
11916WAT      O37849   7.304   1.088   6.647
11916WAT     H137850   7.316   1.171   6.694
11916WAT     H237851   7.391   1.067   6.612
11917WAT      O37852   6.051   1.298   6.614
11917WAT     H137853   6.125   1.243   6.641
11917WAT     H237854   6.090   1.384   6.600
11918WAT      O37855   5.740   0.905   6.201
11918WAT     H137856   5.647   0.929   6.200
11918WAT     H237857   5.786   0.987   6.189
11919WAT      O37858   6.362   1.215   5.796
11919WAT     H137859   6.441   1.244   5.751
11919WAT     H237860   6.310   1.172   5.728
11920WAT      O37861   6.978   1.200   7.388
11920WAT     H137862   7.074   1.191   7.383
11920WAT     H237863   6.964   1.266   7.456
11921WAT      O37864   7.267   1.138   5.938
11921WAT     H137865   7.239   1.096   5.857
11921WAT     H237866   7.248   1.231   5.926
11922WAT      O37867   5.724   0.465   7.427
11922WAT     H137868   5.774   0.407   7.484
11922WAT     H237869   5.650   0.493   7.481
11923WAT      O37870   6.414   0.737   5.782
11923WAT     H137871   6.403   0.676   5.855
11923WAT     H237872   6.397   0.685   5.704
11924WAT      O37873   6.429   0.606   7.380
11924WAT     H137874   6.353   0.663   7.372
11924WAT     H237875   6.447   0.576   7.291
11925WAT      O37876   6.738   0.643   5.843
11925WAT     H137877   6.683   0.688   5.907
11925WAT     H237878   6.800   0.593   5.895
11926WAT      O37879   7.143   0.779   7.436
11926WAT     H137880   7.217   0.813   7.386
11926WAT     H237881   7.067   0.796   7.381
11927WAT      O37882   6.305   0.539   6.032
11927WAT     H137883   6.347   0.523   6.117
11927WAT     H237884   6.317   0.458   5.983
11928WAT      O37885   6.556   0.442   5.757
11928WAT     H137886   6.608   0.370   5.721
11928WAT     H237887   6.621   0.505   5.787
11929WAT      O37888   7.011   0.584   7.290
11929WAT     H137889   7.052   0.599   7.375
11929WAT     H237890   6.917   0.596   7.306
11930WAT      O37891   7.058   0.318   7.490
11930WAT     H137892   7.116   0.242   7.481
11930WAT     H237893   7.076   0.371   7.412
11931WAT      O37894   6.487   0.579   7.087
11931WAT     H137895   6.529   0.663   7.069
11931WAT     H237896   6.395   0.593   7.064
11932WAT      O37897   6.721   0.352   7.225
11932WAT     H137898   6.732   0.293   7.299
11932WAT     H237899   6.806   0.356   7.183
11933WAT      O37900   6.954   0.408   7.083
11933WAT     H137901   6.902   0.460   7.022
11933WAT     H237902   6.989   0.471   7.146
11934WAT      O37903   6.272   1.210   7.198
11934WAT     H137904   6.218   1.282   7.166
11934WAT     H237905   6.297   1.162   7.119
11935WAT      O37906   6.558   1.333   7.224
11935WAT     H137907   6.550   1.423   7.255
11935WAT     H237908   6.467   1.301   7.221
11936WAT      O37909   6.612   1.250   5.986
11936WAT     H137910   6.702   1.284   5.988
11936WAT     H237911   6.616   1.178   5.924
11937WAT      O37912   5.976   0.787   5.809
11937WAT     H137913   6.020   0.841   5.875
11937WAT     H237914   6.025   0.704   5.810
11938WAT      O37915   5.698   1.066   6.554
11938WAT     H137916   5.731   0.979   6.531
11938WAT     H237917   5.741   1.086   6.637
11939WAT      O37918   6.157   0.899   6.320
11939WAT     H137919   6.127   0.887   6.410
11939WAT     H237920   6.147   0.813   6.280
11940WAT      O37921   5.747   1.153   6.828
11940WAT     H137922   5.703   1.171   6.911
11940WAT     H237923   5.804   1.228   6.814
11941WAT      O37924   7.310   1.103   7.257
11941WAT     H137925   7.250   1.109   7.183
11941WAT     H237926   7.323   1.009   7.270
11942WAT      O37927   7.434   0.877   5.791
11942WAT     H137928   7.351   0.884   5.838
11942WAT     H237929   7.452   0.966   5.760
11943WAT      O37930   7.380   0.551   6.041
11943WAT     H137931   7.456   0.608   6.052
11943WAT     H237932   7.382   0.495   6.118
11944WAT      O37933   5.730   0.404   6.464
11944WAT     H137934   5.665   0.377   6.400
11944WAT     H237935   5.814   0.393   6.419
11945WAT      O37936   7.481   0.637   6.525
11945WAT     H137937   7.518   0.559   6.485
11945WAT     H237938   7.545   0.706   6.508
11946WAT      O37939   7.179   0.775   7.067
11946WAT     H137940   7.098   0.818   7.093
11946WAT     H237941   7.220   0.836   7.005
11947WAT      O37942   7.385   0.581   5.757
11947WAT     H137943   7.413   0.672   5.744
11947WAT     H237944   7.366   0.574   5.850
11948WAT      O37945   7.375   0.374   6.256
11948WAT     H137946   7.337   0.298   6.213
11948WAT     H237947   7.302   0.413   6.305
11949WAT      O37948   5.834   0.442   6.918
11949WAT     H137949   5.871   0.434   7.006
11949WAT     H237950   5.777   0.366   6.908
11950WAT      O37951   7.314   0.289   7.219
11950WAT     H137952   7.291   0.266   7.129
11950WAT     H237953   7.340   0.381   7.215
11951WAT      O37954   7.302   0.197   6.586
11951WAT     H137955   7.355   0.148   6.523
11951WAT     H237956   7.361   0.211   6.661
11952WAT      O37957   7.320   0.205   6.938
11952WAT     H137958   7.225   0.202   6.950
11952WAT     H237959   7.338   0.296   6.915
11953WAT      O37960   7.185   1.250   6.419
11953WAT     H137961   7.244   1.218   6.352
11953WAT     H237962   7.210   1.203   6.499
11954WAT      O37963   6.345   1.049   6.994
11954WAT     H137964   6.321   1.076   6.906
11954WAT     H237965   6.439   1.066   7.000
11955WAT      O37966   7.471   1.251   7.074
11955WAT     H137967   7.422   1.291   7.003
11955WAT     H237968   7.411   1.189   7.114
11956WAT      O37969   5.959   1.188   7.146
11956WAT     H137970   5.900   1.175   7.220
11956WAT     H237971   5.958   1.105   7.100
11957WAT      O37972   7.240   1.315   6.802
11957WAT     H137973   7.194   1.391   6.765
11957WAT     H237974   7.177   1.243   6.796
11958WAT      O37975   5.922   0.925   7.041
11958WAT     H137976   5.850   0.863   7.035
11958WAT     H237977   5.928   0.964   6.954
11959WAT      O37978   6.283   1.146   6.720
11959WAT     H137979   6.334   1.085   6.667
11959WAT     H237980   6.348   1.197   6.769
11960WAT      O37981   6.557   1.235   6.803
11960WAT     H137982   6.585   1.210   6.715
11960WAT     H237983   6.608   1.180   6.862
11961WAT      O37984   5.751   1.257   6.362
11961WAT     H137985   5.734   1.193   6.432
11961WAT     H237986   5.664   1.277   6.327
11962WAT      O37987   5.911   1.126   6.107
11962WAT     H137988   5.859   1.164   6.036
11962WAT     H237989   5.904   1.188   6.179
11963WAT      O37990   7.387   1.282   6.239
11963WAT     H137991   7.404   1.213   6.175
11963WAT     H237992   7.317   1.334   6.200
11964WAT      O37993   6.171   1.321   5.994
11964WAT     H137994   6.244   1.292   5.940
11964WAT     H237995   6.197   1.297   6.083
11965WAT      O37996   6.087   0.932   5.995
11965WAT     H137997   6.024   0.979   6.050
11965WAT     H237998   6.099   0.848   6.038
11966WAT      O37999   6.833   0.337   4.610
11966WAT     H138000   6.825   0.246   4.583
11966WAT     H238001   6.791   0.387   4.539
11967WAT      O38002   6.646   0.515   4.798
11967WAT     H138003   6.568   0.467   4.827
11967WAT     H238004   6.711   0.447   4.780
11968WAT      O38005   6.048   0.546   4.886
11968WAT     H138006   5.964   0.521   4.926
11968WAT     H238007   6.108   0.554   4.959
11969WAT      O38008   7.048   0.956   4.676
11969WAT     H138009   7.002   0.879   4.709
11969WAT     H238010   7.129   0.959   4.726
11970WAT      O38011   6.046   0.950   4.905
11970WAT     H138012   6.076   0.861   4.887
11970WAT     H238013   6.120   1.006   4.882
11971WAT      O38014   5.685   0.303   4.852
11971WAT     H138015   5.742   0.226   4.852
11971WAT     H238016   5.685   0.332   4.762
11972WAT      O38017   6.671   1.184   4.638
11972WAT     H138018   6.609   1.230   4.581
11972WAT     H238019   6.756   1.200   4.598
11973WAT      O38020   6.590   0.783   4.799
11973WAT     H138021   6.583   0.689   4.782
11973WAT     H238022   6.666   0.792   4.856
11974WAT      O38023   6.757   0.673   4.377
11974WAT     H138024   6.695   0.719   4.321
11974WAT     H238025   6.809   0.742   4.419
11975WAT      O38026   6.244   0.626   5.045
11975WAT     H138027   6.210   0.688   5.109
11975WAT     H238028   6.261   0.678   4.967
11976WAT      O38029   6.165   0.822   5.227
11976WAT     H138030   6.227   0.890   5.198
11976WAT     H238031   6.079   0.863   5.217
11977WAT      O38032   5.694   0.741   4.115
11977WAT     H138033   5.656   0.790   4.041
11977WAT     H238034   5.720   0.809   4.178
11978WAT      O38035   7.257   0.969   5.018
11978WAT     H138036   7.188   1.036   5.017
11978WAT     H238037   7.311   0.989   4.942
11979WAT      O38038   7.010   1.153   4.890
11979WAT     H138039   7.011   1.113   4.803
11979WAT     H238040   6.955   1.231   4.879
11980WAT      O38041   7.140   0.825   4.398
11980WAT     H138042   7.129   0.731   4.411
11980WAT     H238043   7.139   0.862   4.487
11981WAT      O38044   6.950   0.644   5.022
11981WAT     H138045   6.992   0.622   4.939
11981WAT     H238046   7.022   0.669   5.079
11982WAT      O38047   6.694   0.388   4.334
11982WAT     H138048   6.601   0.381   4.357
11982WAT     H238049   6.709   0.482   4.323
11983WAT      O38050   7.345   0.483   5.032
11983WAT     H138051   7.262   0.490   4.984
11983WAT     H238052   7.404   0.542   4.985
11984WAT      O38053   7.097   0.544   4.384
11984WAT     H138054   7.035   0.510   4.320
11984WAT     H238055   7.095   0.480   4.455
11985WAT      O38056   6.254   0.441   4.612
11985WAT     H138057   6.214   0.369   4.563
11985WAT     H238058   6.263   0.406   4.701
11986WAT      O38059   6.301   0.809   4.829
11986WAT     H138060   6.272   0.749   4.761
11986WAT     H238061   6.396   0.813   4.818
11987WAT      O38062   7.110   1.167   5.195
11987WAT     H138063   7.062   1.247   5.176
11987WAT     H238064   7.042   1.101   5.210
11988WAT      O38065   6.210   0.783   5.494
11988WAT     H138066   6.121   0.806   5.518
11988WAT     H238067   6.213   0.796   5.399
11989WAT      O38068   6.914   0.468   4.085
11989WAT     H138069   6.958   0.384   4.071
11989WAT     H238070   6.986   0.531   4.094
11990WAT      O38071   6.093   0.470   5.351
11990WAT     H138072   6.079   0.558   5.388
11990WAT     H238073   6.005   0.436   5.337
11991WAT      O38074   6.725   0.962   4.482
11991WAT     H138075   6.769   1.036   4.441
11991WAT     H238076   6.719   0.986   4.574
11992WAT      O38077   6.273   1.065   5.572
11992WAT     H138078   6.270   1.105   5.485
11992WAT     H238079   6.257   0.972   5.556
11993WAT      O38080   5.924   0.330   4.362
11993WAT     H138081   5.912   0.403   4.301
11993WAT     H238082   5.893   0.253   4.315
11994WAT      O38083   7.468   1.143   5.702
11994WAT     H138084   7.516   1.191   5.770
11994WAT     H238085   7.530   1.136   5.629
11995WAT      O38086   5.688   0.647   4.943
11995WAT     H138087   5.696   0.661   4.849
11995WAT     H238088   5.750   0.576   4.962
11996WAT      O38089   5.813   0.817   4.584
11996WAT     H138090   5.772   0.831   4.499
11996WAT     H238091   5.902   0.789   4.564
11997WAT      O38092   7.408   0.862   5.418
11997WAT     H138093   7.421   0.838   5.326
11997WAT     H238094   7.413   0.779   5.465
11998WAT      O38095   6.795   1.232   5.275
11998WAT     H138096   6.846   1.223   5.355
11998WAT     H238097   6.710   1.267   5.304
11999WAT      O38098   6.992   1.261   4.218
11999WAT     H138099   6.976   1.232   4.307
11999WAT     H238100   6.976   1.183   4.164
12000WAT      O38101   6.240   1.239   4.395
12000WAT     H138102   6.222   1.147   4.374
12000WAT     H238103   6.155   1.275   4.419
12001WAT      O38104   6.962   1.012   4.074
12001WAT     H138105   6.893   1.011   4.008
12001WAT     H238106   7.037   0.969   4.031
12002WAT      O38107   6.919   1.174   4.481
12002WAT     H138108   6.964   1.096   4.512
12002WAT     H238109   6.953   1.245   4.535
12003WAT      O38110   5.694   0.751   5.197
12003WAT     H138111   5.710   0.704   5.115
12003WAT     H238112   5.740   0.701   5.263
12004WAT      O38113   6.809   0.223   5.584
12004WAT     H138114   6.842   0.140   5.550
12004WAT     H238115   6.888   0.276   5.599
12005WAT      O38116   6.150   0.177   4.473
12005WAT     H138117   6.128   0.155   4.564
12005WAT     H238118   6.072   0.220   4.439
12006WAT      O38119   6.873   0.177   4.333
12006WAT     H138120   6.813   0.250   4.315
12006WAT     H238121   6.928   0.171   4.255
12007WAT      O38122   6.394   0.267   5.540
12007WAT     H138123   6.385   0.173   5.525
12007WAT     H238124   6.479   0.289   5.500
12008WAT      O38125   6.792   0.300   4.946
12008WAT     H138126   6.719   0.351   4.981
12008WAT     H238127   6.753   0.218   4.916
12009WAT      O38128   6.344   0.299   4.025
12009WAT     H138129   6.287   0.254   3.963
12009WAT     H238130   6.414   0.335   3.972
12010WAT      O38131   5.851   0.689   5.413
12010WAT     H138132   5.813   0.625   5.473
12010WAT     H238133   5.882   0.759   5.470
12011WAT      O38134   6.466   0.374   4.961
12011WAT     H138135   6.503   0.326   5.036
12011WAT     H238136   6.447   0.461   4.995
12012WAT      O38137   6.245   0.278   5.193
12012WAT     H138138   6.215   0.366   5.215
12012WAT     H238139   6.341   0.284   5.196
12013WAT      O38140   6.098   0.698   4.253
12013WAT     H138141   6.021   0.644   4.237
12013WAT     H238142   6.171   0.646   4.219
12014WAT      O38143   7.174   0.598   4.832
12014WAT     H138144   7.246   0.648   4.793
12014WAT     H238145   7.154   0.530   4.767
12015WAT      O38146   6.712   0.605   5.420
12015WAT     H138147   6.706   0.513   5.395
12015WAT     H238148   6.649   0.615   5.492
12016WAT      O38149   6.102   0.665   4.616
12016WAT     H138150   6.154   0.585   4.611
12016WAT     H238151   6.057   0.659   4.700
12017WAT      O38152   6.591   0.792   4.144
12017WAT     H138153   6.625   0.866   4.094
12017WAT     H238154   6.508   0.823   4.180
12018WAT      O38155   5.851   0.362   5.308
12018WAT     H138156   5.815   0.428   5.366
12018WAT     H238157   5.821   0.279   5.345
12019WAT      O38158   6.171   0.408   5.596
12019WAT     H138159   6.141   0.422   5.506
12019WAT     H238160   6.248   0.352   5.587
12020WAT      O38161   6.705   0.887   5.396
12020WAT     H138162   6.707   0.794   5.374
12020WAT     H238163   6.635   0.896   5.459
12021WAT      O38164   7.219   0.306   4.022
12021WAT     H138165   7.210   0.349   3.937
12021WAT     H238166   7.291   0.352   4.066
12022WAT      O38167   7.326   0.551   5.330
12022WAT     H138168   7.254   0.611   5.310
12022WAT     H238169   7.379   0.551   5.250
12023WAT      O38170   7.322   0.991   4.295
12023WAT     H138171   7.257   0.926   4.323
12023WAT     H238172   7.283   1.032   4.218
12024WAT      O38173   6.879   0.724   4.680
12024WAT     H138174   6.915   0.664   4.614
12024WAT     H238175   6.791   0.691   4.697
12025WAT      O38176   6.488   0.800   4.421
12025WAT     H138177   6.557   0.855   4.459
12025WAT     H238178   6.409   0.854   4.424
12026WAT      O38179   5.702   0.362   3.970
12026WAT     H138180   5.789   0.390   3.998
12026WAT     H238181   5.653   0.443   3.958
12027WAT      O38182   6.418   0.500   4.382
12027WAT     H138183   6.464   0.582   4.405
12027WAT     H238184   6.383   0.469   4.465
12028WAT      O38185   6.649   1.052   5.105
12028WAT     H138186   6.713   1.072   5.173
12028WAT     H238187   6.685   0.975   5.060
12029WAT      O38188   6.776   0.852   4.977
12029WAT     H138189   6.840   0.782   4.988
12029WAT     H238190   6.828   0.930   4.959
12030WAT      O38191   7.161   0.880   3.949
12030WAT     H138192   7.138   0.809   4.008
12030WAT     H238193   7.121   0.855   3.865
12031WAT      O38194   6.953   0.932   5.297
12031WAT     H138195   6.987   0.990   5.365
12031WAT     H238196   6.861   0.919   5.320
12032WAT      O38197   5.739   1.283   4.027
12032WAT     H138198   5.775   1.343   3.961
12032WAT     H238199   5.725   1.338   4.104
12033WAT      O38200   7.119   0.672   4.115
12033WAT     H138201   7.090   0.718   4.194
12033WAT     H238202   7.198   0.626   4.142
12034WAT      O38203   5.737   1.110   5.474
12034WAT     H138204   5.748   1.016   5.460
12034WAT     H238205   5.672   1.136   5.409
12035WAT      O38206   6.536   0.937   5.614
12035WAT     H138207   6.504   0.865   5.668
12035WAT     H238208   6.469   1.004   5.621
12036WAT      O38209   6.340   1.021   4.108
12036WAT     H138210   6.339   1.095   4.047
12036WAT     H238211   6.248   0.997   4.118
12037WAT      O38212   5.900   0.543   4.183
12037WAT     H138213   5.840   0.617   4.184
12037WAT     H238214   5.948   0.552   4.100
12038WAT      O38215   6.639   1.028   3.975
12038WAT     H138216   6.649   1.007   3.882
12038WAT     H238217   6.549   1.002   3.995
12039WAT      O38218   6.554   0.225   5.173
12039WAT     H138219   6.604   0.273   5.239
12039WAT     H238220   6.568   0.133   5.193
12040WAT      O38221   6.503   1.279   4.444
12040WAT     H138222   6.529   1.276   4.352
12040WAT     H238223   6.408   1.267   4.443
12041WAT      O38224   7.104   0.371   4.602
12041WAT     H138225   7.010   0.373   4.619
12041WAT     H238226   7.135   0.293   4.646
12042WAT      O38227   6.102   0.540   3.958
12042WAT     H138228   6.178   0.528   4.014
12042WAT     H238229   6.109   0.470   3.892
12043WAT      O38230   5.971   0.283   4.026
12043WAT     H138231   5.979   0.188   4.037
12043WAT     H238232   6.060   0.316   4.037
12044WAT      O38233   7.304   1.088   4.769
12044WAT     H138234   7.316   1.171   4.816
12044WAT     H238235   7.391   1.067   4.734
12045WAT      O38236   6.051   1.298   4.736
12045WAT     H138237   6.125   1.243   4.763
12045WAT     H238238   6.090   1.384   4.722
12046WAT      O38239   5.740   0.905   4.324
12046WAT     H138240   5.647   0.929   4.323
12046WAT     H238241   5.786   0.987   4.312
12047WAT      O38242   5.952   1.216   5.655
12047WAT     H138243   6.032   1.248   5.696
12047WAT     H238244   5.900   1.180   5.727
12048WAT      O38245   6.362   1.215   3.919
12048WAT     H138246   6.441   1.244   3.873
12048WAT     H238247   6.310   1.172   3.851
12049WAT      O38248   6.835   0.827   5.650
12049WAT     H138249   6.775   0.829   5.576
12049WAT     H238250   6.805   0.754   5.704
12050WAT      O38251   6.978   1.200   5.511
12050WAT     H138252   7.074   1.191   5.506
12050WAT     H238253   6.964   1.266   5.578
12051WAT      O38254   7.267   1.138   4.061
12051WAT     H138255   7.239   1.096   3.979
12051WAT     H238256   7.248   1.231   4.049
12052WAT      O38257   5.724   0.465   5.550
12052WAT     H138258   5.774   0.407   5.607
12052WAT     H238259   5.650   0.493   5.603
12053WAT      O38260   6.414   0.737   3.905
12053WAT     H138261   6.403   0.676   3.978
12053WAT     H238262   6.397   0.685   3.827
12054WAT      O38263   6.429   0.606   5.503
12054WAT     H138264   6.353   0.663   5.494
12054WAT     H238265   6.447   0.576   5.414
12055WAT      O38266   6.738   0.643   3.965
12055WAT     H138267   6.683   0.688   4.030
12055WAT     H238268   6.800   0.593   4.018
12056WAT      O38269   7.143   0.779   5.559
12056WAT     H138270   7.217   0.813   5.508
12056WAT     H238271   7.067   0.796   5.503
12057WAT      O38272   5.927   0.279   5.639
12057WAT     H138273   5.931   0.249   5.730
12057WAT     H238274   6.012   0.319   5.623
12058WAT      O38275   6.305   0.539   4.155
12058WAT     H138276   6.347   0.523   4.239
12058WAT     H238277   6.317   0.458   4.106
12059WAT      O38278   6.556   0.442   3.880
12059WAT     H138279   6.608   0.370   3.843
12059WAT     H238280   6.621   0.505   3.910
12060WAT      O38281   7.011   0.584   5.412
12060WAT     H138282   7.052   0.599   5.497
12060WAT     H238283   6.917   0.596   5.428
12061WAT      O38284   7.058   0.318   5.613
12061WAT     H138285   7.116   0.242   5.604
12061WAT     H238286   7.076   0.371   5.535
12062WAT      O38287   6.487   0.579   5.209
12062WAT     H138288   6.529   0.663   5.192
12062WAT     H238289   6.395   0.593   5.186
12063WAT      O38290   6.721   0.352   5.348
12063WAT     H138291   6.732   0.293   5.421
12063WAT     H238292   6.806   0.356   5.306
12064WAT      O38293   6.954   0.408   5.205
12064WAT     H138294   6.902   0.460   5.145
12064WAT     H238295   6.989   0.471   5.268
12065WAT      O38296   6.272   1.210   5.321
12065WAT     H138297   6.218   1.282   5.289
12065WAT     H238298   6.297   1.162   5.242
12066WAT      O38299   6.558   1.333   5.347
12066WAT     H138300   6.550   1.423   5.377
12066WAT     H238301   6.467   1.301   5.344
12067WAT      O38302   6.612   1.250   4.109
12067WAT     H138303   6.702   1.284   4.111
12067WAT     H238304   6.616   1.178   4.046
12068WAT      O38305   5.976   0.787   3.932
12068WAT     H138306   6.020   0.841   3.997
12068WAT     H238307   6.025   0.704   3.933
12069WAT      O38308   5.698   1.066   4.677
12069WAT     H138309   5.731   0.979   4.654
12069WAT     H238310   5.741   1.086   4.760
12070WAT      O38311   6.157   0.899   4.443
12070WAT     H138312   6.127   0.887   4.533
12070WAT     H238313   6.147   0.813   4.402
12071WAT      O38314   5.747   1.153   4.951
12071WAT     H138315   5.703   1.171   5.034
12071WAT     H238316   5.804   1.228   4.937
12072WAT      O38317   7.310   1.103   5.379
12072WAT     H138318   7.250   1.109   5.305
12072WAT     H238319   7.323   1.009   5.392
12073WAT      O38320   7.434   0.877   3.913
12073WAT     H138321   7.351   0.884   3.960
12073WAT     H238322   7.452   0.966   3.883
12074WAT      O38323   7.380   0.551   4.164
12074WAT     H138324   7.456   0.608   4.174
12074WAT     H238325   7.382   0.495   4.241
12075WAT      O38326   5.730   0.404   4.587
12075WAT     H138327   5.665   0.377   4.522
12075WAT     H238328   5.814   0.393   4.542
12076WAT      O38329   7.481   0.637   4.648
12076WAT     H138330   7.518   0.559   4.607
12076WAT     H238331   7.545   0.706   4.630
12077WAT      O38332   7.179   0.775   5.189
12077WAT     H138333   7.098   0.818   5.216
12077WAT     H238334   7.220   0.836   5.128
12078WAT      O38335   7.385   0.581   3.879
12078WAT     H138336   7.413   0.672   3.866
12078WAT     H238337   7.366   0.574   3.973
12079WAT      O38338   7.375   0.374   4.379
12079WAT     H138339   7.337   0.298   4.335
12079WAT     H238340   7.302   0.413   4.427
12080WAT      O38341   5.834   0.442   5.041
12080WAT     H138342   5.871   0.434   5.129
12080WAT     H238343   5.777   0.366   5.031
12081WAT      O38344   7.314   0.289   5.342
12081WAT     H138345   7.291   0.266   5.252
12081WAT     H238346   7.340   0.381   5.337
12082WAT      O38347   7.302   0.197   4.709
12082WAT     H138348   7.355   0.148   4.646
12082WAT     H238349   7.361   0.211   4.783
12083WAT      O38350   7.320   0.205   5.061
12083WAT     H138351   7.225   0.202   5.072
12083WAT     H238352   7.338   0.296   5.037
12084WAT      O38353   7.185   1.250   4.542
12084WAT     H138354   7.244   1.218   4.474
12084WAT     H238355   7.210   1.203   4.621
12085WAT      O38356   5.975   0.894   5.557
12085WAT     H138357   5.971   0.857   5.645
12085WAT     H238358   5.988   0.987   5.571
12086WAT      O38359   6.345   1.049   5.117
12086WAT     H138360   6.321   1.076   5.028
12086WAT     H238361   6.439   1.066   5.122
12087WAT      O38362   7.471   1.251   5.197
12087WAT     H138363   7.422   1.291   5.125
12087WAT     H238364   7.411   1.189   5.236
12088WAT      O38365   5.959   1.188   5.269
12088WAT     H138366   5.900   1.175   5.343
12088WAT     H238367   5.958   1.105   5.222
12089WAT      O38368   7.240   1.315   4.925
12089WAT     H138369   7.194   1.391   4.887
12089WAT     H238370   7.177   1.243   4.919
12090WAT      O38371   5.922   0.925   5.164
12090WAT     H138372   5.850   0.863   5.157
12090WAT     H238373   5.928   0.964   5.077
12091WAT      O38374   6.283   1.146   4.842
12091WAT     H138375   6.334   1.085   4.790
12091WAT     H238376   6.348   1.197   4.892
12092WAT      O38377   6.557   1.235   4.925
12092WAT     H138378   6.585   1.210   4.837
12092WAT     H238379   6.608   1.180   4.984
12093WAT      O38380   5.751   1.257   4.485
12093WAT     H138381   5.734   1.193   4.555
12093WAT     H238382   5.664   1.277   4.450
12094WAT      O38383   5.911   1.126   4.229
12094WAT     H138384   5.859   1.164   4.159
12094WAT     H238385   5.904   1.188   4.301
12095WAT      O38386   6.563   1.328   5.662
12095WAT     H138387   6.656   1.304   5.666
12095WAT     H238388   6.562   1.410   5.614
12096WAT      O38389   7.387   1.282   4.362
12096WAT     H138390   7.404   1.213   4.297
12096WAT     H238391   7.317   1.334   4.322
12097WAT      O38392   6.171   1.321   4.117
12097WAT     H138393   6.244   1.292   4.062
12097WAT     H238394   6.197   1.297   4.206
12098WAT      O38395   6.087   0.932   4.117
12098WAT     H138396   6.024   0.979   4.172
12098WAT     H238397   6.099   0.848   4.161
12099WAT      O38398   7.220   1.250   5.644
12099WAT     H138399   7.299   1.201   5.623
12099WAT     H238400   7.250   1.318   5.705
12100WAT      O38401   6.833   0.337   2.732
12100WAT     H138402   6.825   0.246   2.705
12100WAT     H238403   6.791   0.387   2.662
12101WAT      O38404   6.646   0.515   2.920
12101WAT     H138405   6.568   0.467   2.949
12101WAT     H238406   6.711   0.447   2.903
12102WAT      O38407   6.048   0.546   3.008
12102WAT     H138408   5.964   0.521   3.048
12102WAT     H238409   6.108   0.554   3.082
12103WAT      O38410   7.048   0.956   2.798
12103WAT     H138411   7.002   0.879   2.831
12103WAT     H238412   7.129   0.959   2.849
12104WAT      O38413   6.046   0.950   3.028
12104WAT     H138414   6.076   0.861   3.010
12104WAT     H238415   6.120   1.006   3.005
12105WAT      O38416   5.685   0.303   2.975
12105WAT     H138417   5.742   0.226   2.975
12105WAT     H238418   5.685   0.332   2.884
12106WAT      O38419   6.671   1.184   2.760
12106WAT     H138420   6.609   1.230   2.703
12106WAT     H238421   6.756   1.200   2.720
12107WAT      O38422   6.590   0.783   2.921
12107WAT     H138423   6.583   0.689   2.905
12107WAT     H238424   6.666   0.792   2.978
12108WAT      O38425   6.757   0.673   2.500
12108WAT     H138426   6.695   0.719   2.443
12108WAT     H238427   6.809   0.742   2.541
12109WAT      O38428   6.244   0.626   3.168
12109WAT     H138429   6.210   0.688   3.232
12109WAT     H238430   6.261   0.678   3.090
12110WAT      O38431   6.165   0.822   3.349
12110WAT     H138432   6.227   0.890   3.321
12110WAT     H238433   6.079   0.863   3.340
12111WAT      O38434   5.694   0.741   2.237
12111WAT     H138435   5.656   0.790   2.164
12111WAT     H238436   5.720   0.809   2.300
12112WAT      O38437   7.257   0.969   3.141
12112WAT     H138438   7.188   1.036   3.140
12112WAT     H238439   7.311   0.989   3.064
12113WAT      O38440   7.010   1.153   3.012
12113WAT     H138441   7.011   1.113   2.925
12113WAT     H238442   6.955   1.231   3.002
12114WAT      O38443   7.140   0.825   2.521
12114WAT     H138444   7.129   0.731   2.534
12114WAT     H238445   7.139   0.862   2.610
12115WAT      O38446   6.950   0.644   3.145
12115WAT     H138447   6.992   0.622   3.061
12115WAT     H238448   7.022   0.669   3.202
12116WAT      O38449   6.694   0.388   2.457
12116WAT     H138450   6.601   0.381   2.480
12116WAT     H238451   6.709   0.482   2.445
12117WAT      O38452   7.345   0.483   3.154
12117WAT     H138453   7.262   0.490   3.107
12117WAT     H238454   7.404   0.542   3.107
12118WAT      O38455   7.097   0.544   2.507
12118WAT     H138456   7.035   0.510   2.442
12118WAT     H238457   7.095   0.480   2.578
12119WAT      O38458   6.254   0.441   2.735
12119WAT     H138459   6.214   0.369   2.685
12119WAT     H238460   6.263   0.406   2.824
12120WAT      O38461   6.301   0.809   2.951
12120WAT     H138462   6.272   0.749   2.883
12120WAT     H238463   6.396   0.813   2.940
12121WAT      O38464   7.110   1.167   3.317
12121WAT     H138465   7.062   1.247   3.298
12121WAT     H238466   7.042   1.101   3.333
12122WAT      O38467   6.210   0.783   3.616
12122WAT     H138468   6.121   0.806   3.641
12122WAT     H238469   6.213   0.796   3.521
12123WAT      O38470   6.914   0.468   2.208
12123WAT     H138471   6.958   0.384   2.193
12123WAT     H238472   6.986   0.531   2.216
12124WAT      O38473   6.093   0.470   3.474
12124WAT     H138474   6.079   0.558   3.511
12124WAT     H238475   6.005   0.436   3.459
12125WAT      O38476   6.725   0.962   2.605
12125WAT     H138477   6.769   1.036   2.563
12125WAT     H238478   6.719   0.986   2.697
12126WAT      O38479   6.273   1.065   3.695
12126WAT     H138480   6.270   1.105   3.608
12126WAT     H238481   6.257   0.972   3.678
12127WAT      O38482   5.924   0.330   2.485
12127WAT     H138483   5.912   0.403   2.424
12127WAT     H238484   5.893   0.253   2.437
12128WAT      O38485   7.468   1.143   3.824
12128WAT     H138486   7.516   1.191   3.892
12128WAT     H238487   7.530   1.136   3.752
12129WAT      O38488   5.688   0.647   3.066
12129WAT     H138489   5.696   0.661   2.971
12129WAT     H238490   5.750   0.576   3.085
12130WAT      O38491   5.813   0.817   2.707
12130WAT     H138492   5.772   0.831   2.621
12130WAT     H238493   5.902   0.789   2.686
12131WAT      O38494   7.408   0.862   3.540
12131WAT     H138495   7.421   0.838   3.449
12131WAT     H238496   7.413   0.779   3.588
12132WAT      O38497   6.795   1.232   3.397
12132WAT     H138498   6.846   1.223   3.478
12132WAT     H238499   6.710   1.267   3.427
12133WAT      O38500   6.992   1.261   2.340
12133WAT     H138501   6.976   1.232   2.430
12133WAT     H238502   6.976   1.183   2.287
12134WAT      O38503   6.240   1.239   2.518
12134WAT     H138504   6.222   1.147   2.497
12134WAT     H238505   6.155   1.275   2.542
12135WAT      O38506   6.962   1.012   2.196
12135WAT     H138507   6.893   1.011   2.130
12135WAT     H238508   7.037   0.969   2.153
12136WAT      O38509   6.919   1.174   2.604
12136WAT     H138510   6.964   1.096   2.635
12136WAT     H238511   6.953   1.245   2.658
12137WAT      O38512   5.694   0.751   3.320
12137WAT     H138513   5.710   0.704   3.238
12137WAT     H238514   5.740   0.701   3.386
12138WAT      O38515   6.809   0.223   3.706
12138WAT     H138516   6.842   0.140   3.672
12138WAT     H238517   6.888   0.276   3.721
12139WAT      O38518   6.150   0.177   2.596
12139WAT     H138519   6.128   0.155   2.686
12139WAT     H238520   6.072   0.220   2.561
12140WAT      O38521   6.873   0.177   2.456
12140WAT     H138522   6.813   0.250   2.437
12140WAT     H238523   6.928   0.171   2.378
12141WAT      O38524   6.394   0.267   3.663
12141WAT     H138525   6.385   0.173   3.648
12141WAT     H238526   6.479   0.289   3.623
12142WAT      O38527   6.792   0.300   3.068
12142WAT     H138528   6.719   0.351   3.103
12142WAT     H238529   6.753   0.218   3.038
12143WAT      O38530   6.344   0.299   2.148
12143WAT     H138531   6.287   0.254   2.085
12143WAT     H238532   6.414   0.335   2.094
12144WAT      O38533   5.851   0.689   3.535
12144WAT     H138534   5.813   0.625   3.595
12144WAT     H238535   5.882   0.759   3.592
12145WAT      O38536   6.466   0.374   3.084
12145WAT     H138537   6.503   0.326   3.158
12145WAT     H238538   6.447   0.461   3.118
12146WAT      O38539   6.245   0.278   3.315
12146WAT     H138540   6.215   0.366   3.338
12146WAT     H238541   6.341   0.284   3.319
12147WAT      O38542   6.098   0.698   2.375
12147WAT     H138543   6.021   0.644   2.359
12147WAT     H238544   6.171   0.646   2.341
12148WAT      O38545   7.174   0.598   2.954
12148WAT     H138546   7.246   0.648   2.915
12148WAT     H238547   7.154   0.530   2.890
12149WAT      O38548   6.712   0.605   3.543
12149WAT     H138549   6.706   0.513   3.518
12149WAT     H238550   6.649   0.615   3.614
12150WAT      O38551   6.102   0.665   2.739
12150WAT     H138552   6.154   0.585   2.733
12150WAT     H238553   6.057   0.659   2.823
12151WAT      O38554   6.591   0.792   2.266
12151WAT     H138555   6.625   0.866   2.217
12151WAT     H238556   6.508   0.823   2.302
12152WAT      O38557   5.851   0.362   3.430
12152WAT     H138558   5.815   0.428   3.489
12152WAT     H238559   5.821   0.279   3.467
12153WAT      O38560   6.171   0.408   3.719
12153WAT     H138561   6.141   0.422   3.629
12153WAT     H238562   6.248   0.352   3.709
12154WAT      O38563   6.705   0.887   3.518
12154WAT     H138564   6.707   0.794   3.496
12154WAT     H238565   6.635   0.896   3.582
12155WAT      O38566   7.219   0.306   2.145
12155WAT     H138567   7.210   0.349   2.060
12155WAT     H238568   7.291   0.352   2.188
12156WAT      O38569   7.326   0.551   3.453
12156WAT     H138570   7.254   0.611   3.433
12156WAT     H238571   7.379   0.551   3.373
12157WAT      O38572   7.322   0.991   2.418
12157WAT     H138573   7.257   0.926   2.445
12157WAT     H238574   7.283   1.032   2.340
12158WAT      O38575   6.879   0.724   2.803
12158WAT     H138576   6.915   0.664   2.737
12158WAT     H238577   6.791   0.691   2.820
12159WAT      O38578   6.488   0.800   2.543
12159WAT     H138579   6.557   0.855   2.581
12159WAT     H238580   6.409   0.854   2.547
12160WAT      O38581   5.702   0.362   2.092
12160WAT     H138582   5.789   0.390   2.121
12160WAT     H238583   5.653   0.443   2.081
12161WAT      O38584   6.418   0.500   2.505
12161WAT     H138585   6.464   0.582   2.527
12161WAT     H238586   6.383   0.469   2.588
12162WAT      O38587   6.649   1.052   3.227
12162WAT     H138588   6.713   1.072   3.295
12162WAT     H238589   6.685   0.975   3.182
12163WAT      O38590   6.776   0.852   3.099
12163WAT     H138591   6.840   0.782   3.111
12163WAT     H238592   6.828   0.930   3.081
12164WAT      O38593   7.161   0.880   2.072
12164WAT     H138594   7.138   0.809   2.131
12164WAT     H238595   7.121   0.855   1.988
12165WAT      O38596   6.953   0.932   3.420
12165WAT     H138597   6.987   0.990   3.487
12165WAT     H238598   6.861   0.919   3.443
12166WAT      O38599   5.739   1.283   2.149
12166WAT     H138600   5.775   1.343   2.084
12166WAT     H238601   5.725   1.338   2.226
12167WAT      O38602   7.119   0.672   2.238
12167WAT     H138603   7.090   0.718   2.317
12167WAT     H238604   7.198   0.626   2.265
12168WAT      O38605   5.737   1.110   3.597
12168WAT     H138606   5.748   1.016   3.582
12168WAT     H238607   5.672   1.136   3.532
12169WAT      O38608   6.536   0.937   3.736
12169WAT     H138609   6.504   0.865   3.791
12169WAT     H238610   6.469   1.004   3.744
12170WAT      O38611   6.340   1.021   2.231
12170WAT     H138612   6.339   1.095   2.169
12170WAT     H238613   6.248   0.997   2.240
12171WAT      O38614   5.900   0.543   2.305
12171WAT     H138615   5.840   0.617   2.306
12171WAT     H238616   5.948   0.552   2.223
12172WAT      O38617   6.639   1.028   2.097
12172WAT     H138618   6.649   1.007   2.004
12172WAT     H238619   6.549   1.002   2.118
12173WAT      O38620   6.554   0.225   3.295
12173WAT     H138621   6.604   0.273   3.362
12173WAT     H238622   6.568   0.133   3.316
12174WAT      O38623   6.503   1.279   2.567
12174WAT     H138624   6.529   1.276   2.474
12174WAT     H238625   6.408   1.267   2.566
12175WAT      O38626   7.104   0.371   2.724
12175WAT     H138627   7.010   0.373   2.742
12175WAT     H238628   7.135   0.293   2.769
12176WAT      O38629   6.102   0.540   2.080
12176WAT     H138630   6.178   0.528   2.136
12176WAT     H238631   6.109   0.470   2.015
12177WAT      O38632   5.971   0.283   2.149
12177WAT     H138633   5.979   0.188   2.160
12177WAT     H238634   6.060   0.316   2.159
12178WAT      O38635   7.304   1.088   2.892
12178WAT     H138636   7.316   1.171   2.939
12178WAT     H238637   7.391   1.067   2.857
12179WAT      O38638   6.051   1.298   2.859
12179WAT     H138639   6.125   1.243   2.886
12179WAT     H238640   6.090   1.384   2.845
12180WAT      O38641   5.740   0.905   2.446
12180WAT     H138642   5.647   0.929   2.445
12180WAT     H238643   5.786   0.987   2.434
12181WAT      O38644   5.952   1.216   3.778
12181WAT     H138645   6.032   1.248   3.819
12181WAT     H238646   5.900   1.180   3.850
12182WAT      O38647   6.362   1.215   2.041
12182WAT     H138648   6.441   1.244   1.996
12182WAT     H238649   6.310   1.172   1.973
12183WAT      O38650   6.835   0.827   3.772
12183WAT     H138651   6.775   0.829   3.698
12183WAT     H238652   6.805   0.754   3.826
12184WAT      O38653   6.978   1.200   3.634
12184WAT     H138654   7.074   1.191   3.629
12184WAT     H238655   6.964   1.266   3.701
12185WAT      O38656   7.267   1.138   2.183
12185WAT     H138657   7.239   1.096   2.102
12185WAT     H238658   7.248   1.231   2.171
12186WAT      O38659   5.724   0.465   3.672
12186WAT     H138660   5.774   0.407   3.729
12186WAT     H238661   5.650   0.493   3.726
12187WAT      O38662   6.414   0.737   2.028
12187WAT     H138663   6.403   0.676   2.100
12187WAT     H238664   6.397   0.685   1.949
12188WAT      O38665   6.429   0.606   3.625
12188WAT     H138666   6.353   0.663   3.617
12188WAT     H238667   6.447   0.576   3.536
12189WAT      O38668   6.738   0.643   2.088
12189WAT     H138669   6.683   0.688   2.152
12189WAT     H238670   6.800   0.593   2.140
12190WAT      O38671   7.143   0.779   3.681
12190WAT     H138672   7.217   0.813   3.631
12190WAT     H238673   7.067   0.796   3.626
12191WAT      O38674   5.927   0.279   3.762
12191WAT     H138675   5.931   0.249   3.852
12191WAT     H238676   6.012   0.319   3.746
12192WAT      O38677   6.305   0.539   2.278
12192WAT     H138678   6.347   0.523   2.362
12192WAT     H238679   6.317   0.458   2.228
12193WAT      O38680   6.556   0.442   2.002
12193WAT     H138681   6.608   0.370   1.966
12193WAT     H238682   6.621   0.505   2.032
12194WAT      O38683   7.011   0.584   3.535
12194WAT     H138684   7.052   0.599   3.620
12194WAT     H238685   6.917   0.596   3.551
12195WAT      O38686   7.058   0.318   3.735
12195WAT     H138687   7.116   0.242   3.726
12195WAT     H238688   7.076   0.371   3.657
12196WAT      O38689   6.487   0.579   3.332
12196WAT     H138690   6.529   0.663   3.314
12196WAT     H238691   6.395   0.593   3.309
12197WAT      O38692   6.721   0.352   3.470
12197WAT     H138693   6.732   0.293   3.544
12197WAT     H238694   6.806   0.356   3.428
12198WAT      O38695   6.954   0.408   3.328
12198WAT     H138696   6.902   0.460   3.267
12198WAT     H238697   6.989   0.471   3.391
12199WAT      O38698   6.272   1.210   3.443
12199WAT     H138699   6.218   1.282   3.411
12199WAT     H238700   6.297   1.162   3.364
12200WAT      O38701   6.558   1.333   3.469
12200WAT     H138702   6.550   1.423   3.500
12200WAT     H238703   6.467   1.301   3.466
12201WAT      O38704   6.612   1.250   2.231
12201WAT     H138705   6.702   1.284   2.234
12201WAT     H238706   6.616   1.178   2.169
12202WAT      O38707   5.976   0.787   2.054
12202WAT     H138708   6.020   0.841   2.120
12202WAT     H238709   6.025   0.704   2.055
12203WAT      O38710   5.698   1.066   2.799
12203WAT     H138711   5.731   0.979   2.776
12203WAT     H238712   5.741   1.086   2.883
12204WAT      O38713   6.157   0.899   2.565
12204WAT     H138714   6.127   0.887   2.656
12204WAT     H238715   6.147   0.813   2.525
12205WAT      O38716   5.747   1.153   3.073
12205WAT     H138717   5.703   1.171   3.157
12205WAT     H238718   5.804   1.228   3.059
12206WAT      O38719   7.310   1.103   3.502
12206WAT     H138720   7.250   1.109   3.428
12206WAT     H238721   7.323   1.009   3.515
12207WAT      O38722   7.434   0.877   2.036
12207WAT     H138723   7.351   0.884   2.083
12207WAT     H238724   7.452   0.966   2.005
12208WAT      O38725   7.380   0.551   2.286
12208WAT     H138726   7.456   0.608   2.297
12208WAT     H238727   7.382   0.495   2.363
12209WAT      O38728   5.730   0.404   2.709
12209WAT     H138729   5.665   0.377   2.645
12209WAT     H238730   5.814   0.393   2.664
12210WAT      O38731   7.481   0.637   2.771
12210WAT     H138732   7.518   0.559   2.730
12210WAT     H238733   7.545   0.706   2.753
12211WAT      O38734   7.179   0.775   3.312
12211WAT     H138735   7.098   0.818   3.338
12211WAT     H238736   7.220   0.836   3.251
12212WAT      O38737   7.385   0.581   2.002
12212WAT     H138738   7.413   0.672   1.989
12212WAT     H238739   7.366   0.574   2.095
12213WAT      O38740   7.375   0.374   2.501
12213WAT     H138741   7.337   0.298   2.458
12213WAT     H238742   7.302   0.413   2.550
12214WAT      O38743   5.834   0.442   3.163
12214WAT     H138744   5.871   0.434   3.251
12214WAT     H238745   5.777   0.366   3.153
12215WAT      O38746   7.314   0.289   3.465
12215WAT     H138747   7.291   0.266   3.374
12215WAT     H238748   7.340   0.381   3.460
12216WAT      O38749   7.302   0.197   2.831
12216WAT     H138750   7.355   0.148   2.768
12216WAT     H238751   7.361   0.211   2.906
12217WAT      O38752   7.320   0.205   3.183
12217WAT     H138753   7.225   0.202   3.195
12217WAT     H238754   7.338   0.296   3.160
12218WAT      O38755   7.185   1.250   2.665
12218WAT     H138756   7.244   1.218   2.597
12218WAT     H238757   7.210   1.203   2.744
12219WAT      O38758   5.975   0.894   3.679
12219WAT     H138759   5.971   0.857   3.768
12219WAT     H238760   5.988   0.987   3.693
12220WAT      O38761   6.345   1.049   3.240
12220WAT     H138762   6.321   1.076   3.151
12220WAT     H238763   6.439   1.066   3.245
12221WAT      O38764   5.959   1.188   3.391
12221WAT     H138765   5.900   1.175   3.465
12221WAT     H238766   5.958   1.105   3.345
12222WAT      O38767   7.240   1.315   3.047
12222WAT     H138768   7.194   1.391   3.010
12222WAT     H238769   7.177   1.243   3.042
12223WAT      O38770   5.922   0.925   3.286
12223WAT     H138771   5.850   0.863   3.280
12223WAT     H238772   5.928   0.964   3.199
12224WAT      O38773   6.283   1.146   2.965
12224WAT     H138774   6.334   1.085   2.912
12224WAT     H238775   6.348   1.197   3.014
12225WAT      O38776   6.557   1.235   3.048
12225WAT     H138777   6.585   1.210   2.960
12225WAT     H238778   6.608   1.180   3.107
12226WAT      O38779   5.751   1.257   2.607
12226WAT     H138780   5.734   1.193   2.677
12226WAT     H238781   5.664   1.277   2.572
12227WAT      O38782   5.911   1.126   2.352
12227WAT     H138783   5.859   1.164   2.282
12227WAT     H238784   5.904   1.188   2.424
12228WAT      O38785   6.563   1.328   3.784
12228WAT     H138786   6.656   1.304   3.789
12228WAT     H238787   6.562   1.410   3.736
12229WAT      O38788   7.387   1.282   2.484
12229WAT     H138789   7.404   1.213   2.420
12229WAT     H238790   7.317   1.334   2.445
12230WAT      O38791   6.171   1.321   2.239
12230WAT     H138792   6.244   1.292   2.185
12230WAT     H238793   6.197   1.297   2.328
12231WAT      O38794   6.087   0.932   2.240
12231WAT     H138795   6.024   0.979   2.295
12231WAT     H238796   6.099   0.848   2.283
12232WAT      O38797   7.220   1.250   3.767
12232WAT     H138798   7.299   1.201   3.746
12232WAT     H238799   7.250   1.318   3.827
12233WAT      O38800   6.833   0.337   0.855
12233WAT     H138801   6.825   0.246   0.828
12233WAT     H238802   6.791   0.387   0.784
12234WAT      O38803   6.646   0.515   1.043
12234WAT     H138804   6.568   0.467   1.072
12234WAT     H238805   6.711   0.447   1.026
12235WAT      O38806   6.048   0.546   1.131
12235WAT     H138807   5.964   0.521   1.171
12235WAT     H238808   6.108   0.554   1.204
12236WAT      O38809   7.048   0.956   0.921
12236WAT     H138810   7.002   0.879   0.954
12236WAT     H238811   7.129   0.959   0.972
12237WAT      O38812   6.046   0.950   1.150
12237WAT     H138813   6.076   0.861   1.132
12237WAT     H238814   6.120   1.006   1.128
12238WAT      O38815   5.685   0.303   1.098
12238WAT     H138816   5.742   0.226   1.098
12238WAT     H238817   5.685   0.332   1.007
12239WAT      O38818   6.671   1.184   0.883
12239WAT     H138819   6.609   1.230   0.826
12239WAT     H238820   6.756   1.200   0.843
12240WAT      O38821   6.590   0.783   1.044
12240WAT     H138822   6.583   0.689   1.028
12240WAT     H238823   6.666   0.792   1.101
12241WAT      O38824   6.757   0.673   0.622
12241WAT     H138825   6.695   0.719   0.566
12241WAT     H238826   6.809   0.742   0.664
12242WAT      O38827   6.244   0.626   1.290
12242WAT     H138828   6.210   0.688   1.354
12242WAT     H238829   6.261   0.678   1.212
12243WAT      O38830   6.165   0.822   1.472
12243WAT     H138831   6.227   0.890   1.444
12243WAT     H238832   6.079   0.863   1.463
12244WAT      O38833   5.694   0.741   0.360
12244WAT     H138834   5.656   0.790   0.287
12244WAT     H238835   5.720   0.809   0.423
12245WAT      O38836   7.257   0.969   1.263
12245WAT     H138837   7.188   1.036   1.262
12245WAT     H238838   7.311   0.989   1.187
12246WAT      O38839   7.010   1.153   1.135
12246WAT     H138840   7.011   1.113   1.048
12246WAT     H238841   6.955   1.231   1.124
12247WAT      O38842   7.140   0.825   0.644
12247WAT     H138843   7.129   0.731   0.656
12247WAT     H238844   7.139   0.862   0.732
12248WAT      O38845   6.950   0.644   1.267
12248WAT     H138846   6.992   0.622   1.184
12248WAT     H238847   7.022   0.669   1.325
12249WAT      O38848   6.694   0.388   0.579
12249WAT     H138849   6.601   0.381   0.602
12249WAT     H238850   6.709   0.482   0.568
12250WAT      O38851   7.345   0.483   1.277
12250WAT     H138852   7.262   0.490   1.229
12250WAT     H238853   7.404   0.542   1.230
12251WAT      O38854   7.097   0.544   0.630
12251WAT     H138855   7.035   0.510   0.565
12251WAT     H238856   7.095   0.480   0.700
12252WAT      O38857   6.254   0.441   0.857
12252WAT     H138858   6.214   0.369   0.808
12252WAT     H238859   6.263   0.406   0.946
12253WAT      O38860   6.301   0.809   1.074
12253WAT     H138861   6.272   0.749   1.006
12253WAT     H238862   6.396   0.813   1.063
12254WAT      O38863   7.110   1.167   1.440
12254WAT     H138864   7.062   1.247   1.421
12254WAT     H238865   7.042   1.101   1.455
12255WAT      O38866   6.210   0.783   1.739
12255WAT     H138867   6.121   0.806   1.764
12255WAT     H238868   6.213   0.796   1.644
12256WAT      O38869   6.914   0.468   0.330
12256WAT     H138870   6.958   0.384   0.316
12256WAT     H238871   6.986   0.531   0.339
12257WAT      O38872   6.093   0.470   1.596
12257WAT     H138873   6.079   0.558   1.633
12257WAT     H238874   6.005   0.436   1.582
12258WAT      O38875   6.725   0.962   0.727
12258WAT     H138876   6.769   1.036   0.686
12258WAT     H238877   6.719   0.986   0.819
12259WAT      O38878   6.273   1.065   1.817
12259WAT     H138879   6.270   1.105   1.731
12259WAT     H238880   6.257   0.972   1.801
12260WAT      O38881   5.924   0.330   0.607
12260WAT     H138882   5.912   0.403   0.546
12260WAT     H238883   5.893   0.253   0.560
12261WAT      O38884   7.468   1.143   1.947
12261WAT     H138885   7.516   1.191   2.015
12261WAT     H238886   7.530   1.136   1.874
12262WAT      O38887   5.688   0.647   1.188
12262WAT     H138888   5.696   0.661   1.094
12262WAT     H238889   5.750   0.576   1.207
12263WAT      O38890   5.813   0.817   0.829
12263WAT     H138891   5.772   0.831   0.744
12263WAT     H238892   5.902   0.789   0.809
12264WAT      O38893   7.408   0.862   1.663
12264WAT     H138894   7.421   0.838   1.571
12264WAT     H238895   7.413   0.779   1.710
12265WAT      O38896   6.795   1.232   1.520
12265WAT     H138897   6.846   1.223   1.600
12265WAT     H238898   6.710   1.267   1.549
12266WAT      O38899   6.992   1.261   0.463
12266WAT     H138900   6.976   1.232   0.553
12266WAT     H238901   6.976   1.183   0.409
12267WAT      O38902   6.240   1.239   0.640
12267WAT     H138903   6.222   1.147   0.619
12267WAT     H238904   6.155   1.275   0.664
12268WAT      O38905   6.962   1.012   0.319
12268WAT     H138906   6.893   1.011   0.253
12268WAT     H238907   7.037   0.969   0.276
12269WAT      O38908   6.919   1.174   0.726
12269WAT     H138909   6.964   1.096   0.758
12269WAT     H238910   6.953   1.245   0.781
12270WAT      O38911   5.694   0.751   1.442
12270WAT     H138912   5.710   0.704   1.360
12270WAT     H238913   5.740   0.701   1.509
12271WAT      O38914   6.809   0.223   1.829
12271WAT     H138915   6.842   0.140   1.795
12271WAT     H238916   6.888   0.276   1.844
12272WAT      O38917   6.150   0.177   0.719
12272WAT     H138918   6.128   0.155   0.809
12272WAT     H238919   6.072   0.220   0.684
12273WAT      O38920   6.873   0.177   0.578
12273WAT     H138921   6.813   0.250   0.560
12273WAT     H238922   6.928   0.171   0.500
12274WAT      O38923   6.394   0.267   1.785
12274WAT     H138924   6.385   0.173   1.770
12274WAT     H238925   6.479   0.289   1.746
12275WAT      O38926   6.792   0.300   1.191
12275WAT     H138927   6.719   0.351   1.226
12275WAT     H238928   6.753   0.218   1.161
12276WAT      O38929   6.344   0.299   0.270
12276WAT     H138930   6.287   0.254   0.208
12276WAT     H238931   6.414   0.335   0.217
12277WAT      O38932   5.851   0.689   1.658
12277WAT     H138933   5.813   0.625   1.718
12277WAT     H238934   5.882   0.759   1.715
12278WAT      O38935   6.466   0.374   1.206
12278WAT     H138936   6.503   0.326   1.281
12278WAT     H238937   6.447   0.461   1.240
12279WAT      O38938   6.245   0.278   1.438
12279WAT     H138939   6.215   0.366   1.460
12279WAT     H238940   6.341   0.284   1.442
12280WAT      O38941   6.098   0.698   0.498
12280WAT     H138942   6.021   0.644   0.482
12280WAT     H238943   6.171   0.646   0.464
12281WAT      O38944   7.174   0.598   1.077
12281WAT     H138945   7.246   0.648   1.038
12281WAT     H238946   7.154   0.530   1.012
12282WAT      O38947   6.712   0.605   1.666
12282WAT     H138948   6.706   0.513   1.640
12282WAT     H238949   6.649   0.615   1.737
12283WAT      O38950   6.102   0.665   0.861
12283WAT     H138951   6.154   0.585   0.856
12283WAT     H238952   6.057   0.659   0.946
12284WAT      O38953   6.591   0.792   0.389
12284WAT     H138954   6.625   0.866   0.339
12284WAT     H238955   6.508   0.823   0.425
12285WAT      O38956   5.851   0.362   1.553
12285WAT     H138957   5.815   0.428   1.611
12285WAT     H238958   5.821   0.279   1.590
12286WAT      O38959   6.171   0.408   1.841
12286WAT     H138960   6.141   0.422   1.751
12286WAT     H238961   6.248   0.352   1.832
12287WAT      O38962   6.705   0.887   1.641
12287WAT     H138963   6.707   0.794   1.619
12287WAT     H238964   6.635   0.896   1.705
12288WAT      O38965   7.219   0.306   0.268
12288WAT     H138966   7.210   0.349   0.183
12288WAT     H238967   7.291   0.352   0.311
12289WAT      O38968   7.326   0.551   1.575
12289WAT     H138969   7.254   0.611   1.556
12289WAT     H238970   7.379   0.551   1.495
12290WAT      O38971   7.322   0.991   0.540
12290WAT     H138972   7.257   0.926   0.568
12290WAT     H238973   7.283   1.032   0.463
12291WAT      O38974   6.879   0.724   0.925
12291WAT     H138975   6.915   0.664   0.859
12291WAT     H238976   6.791   0.691   0.942
12292WAT      O38977   6.488   0.800   0.666
12292WAT     H138978   6.557   0.855   0.704
12292WAT     H238979   6.409   0.854   0.669
12293WAT      O38980   5.702   0.362   0.215
12293WAT     H138981   5.789   0.390   0.243
12293WAT     H238982   5.653   0.443   0.204
12294WAT      O38983   6.418   0.500   0.627
12294WAT     H138984   6.464   0.582   0.650
12294WAT     H238985   6.383   0.469   0.710
12295WAT      O38986   6.649   1.052   1.350
12295WAT     H138987   6.713   1.072   1.418
12295WAT     H238988   6.685   0.975   1.305
12296WAT      O38989   6.776   0.852   1.222
12296WAT     H138990   6.840   0.782   1.233
12296WAT     H238991   6.828   0.930   1.204
12297WAT      O38992   6.953   0.932   1.542
12297WAT     H138993   6.987   0.990   1.610
12297WAT     H238994   6.861   0.919   1.565
12298WAT      O38995   5.739   1.283   0.272
12298WAT     H138996   5.775   1.343   0.206
12298WAT     H238997   5.725   1.338   0.349
12299WAT      O38998   7.119   0.672   0.360
12299WAT     H138999   7.090   0.718   0.439
12299WAT     H239000   7.198   0.626   0.387
12300WAT      O39001   5.737   1.110   1.719
12300WAT     H139002   5.748   1.016   1.705
12300WAT     H239003   5.672   1.136   1.654
12301WAT      O39004   6.536   0.937   1.859
12301WAT     H139005   6.504   0.865   1.914
12301WAT     H239006   6.469   1.004   1.866
12302WAT      O39007   6.340   1.021   0.353
12302WAT     H139008   6.339   1.095   0.292
12302WAT     H239009   6.248   0.997   0.363
12303WAT      O39010   5.900   0.543   0.428
12303WAT     H139011   5.840   0.617   0.429
12303WAT     H239012   5.948   0.552   0.345
12304WAT      O39013   6.554   0.225   1.418
12304WAT     H139014   6.604   0.273   1.484
12304WAT     H239015   6.568   0.133   1.439
12305WAT      O39016   6.503   1.279   0.689
12305WAT     H139017   6.529   1.276   0.597
12305WAT     H239018   6.408   1.267   0.688
12306WAT      O39019   7.104   0.371   0.847
12306WAT     H139020   7.010   0.373   0.864
12306WAT     H239021   7.135   0.293   0.891
12307WAT      O39022   5.971   0.283   0.271
12307WAT     H139023   5.979   0.188   0.282
12307WAT     H239024   6.060   0.316   0.282
12308WAT      O39025   7.304   1.088   1.014
12308WAT     H139026   7.316   1.171   1.061
12308WAT     H239027   7.391   1.067   0.979
12309WAT      O39028   6.051   1.298   0.981
12309WAT     H139029   6.125   1.243   1.009
12309WAT     H239030   6.090   1.384   0.967
12310WAT      O39031   5.740   0.905   0.569
12310WAT     H139032   5.647   0.929   0.568
12310WAT     H239033   5.786   0.987   0.557
12311WAT      O39034   5.952   1.216   1.900
12311WAT     H139035   6.032   1.248   1.942
12311WAT     H239036   5.900   1.180   1.972
12312WAT      O39037   6.835   0.827   1.895
12312WAT     H139038   6.775   0.829   1.821
12312WAT     H239039   6.805   0.754   1.949
12313WAT      O39040   6.978   1.200   1.756
12313WAT     H139041   7.074   1.191   1.751
12313WAT     H239042   6.964   1.266   1.823
12314WAT      O39043   7.267   1.138   0.306
12314WAT     H139044   7.239   1.096   0.225
12314WAT     H239045   7.248   1.231   0.294
12315WAT      O39046   5.724   0.465   1.795
12315WAT     H139047   5.774   0.407   1.852
12315WAT     H239048   5.650   0.493   1.848
12316WAT      O39049   6.429   0.606   1.748
12316WAT     H139050   6.353   0.663   1.740
12316WAT     H239051   6.447   0.576   1.659
12317WAT      O39052   6.738   0.643   0.211
12317WAT     H139053   6.683   0.688   0.275
12317WAT     H239054   6.800   0.593   0.263
12318WAT      O39055   7.143   0.779   1.804
12318WAT     H139056   7.217   0.813   1.753
12318WAT     H239057   7.067   0.796   1.748
12319WAT      O39058   5.927   0.279   1.884
12319WAT     H139059   5.931   0.249   1.975
12319WAT     H239060   6.012   0.319   1.868
12320WAT      O39061   6.305   0.539   0.400
12320WAT     H139062   6.347   0.523   0.484
12320WAT     H239063   6.317   0.458   0.351
12321WAT      O39064   7.011   0.584   1.657
12321WAT     H139065   7.052   0.599   1.742
12321WAT     H239066   6.917   0.596   1.674
12322WAT      O39067   7.058   0.318   1.858
12322WAT     H139068   7.116   0.242   1.849
12322WAT     H239069   7.076   0.371   1.780
12323WAT      O39070   6.487   0.579   1.454
12323WAT     H139071   6.529   0.663   1.437
12323WAT     H239072   6.395   0.593   1.431
12324WAT      O39073   6.721   0.352   1.593
12324WAT     H139074   6.732   0.293   1.667
12324WAT     H239075   6.806   0.356   1.551
12325WAT      O39076   6.954   0.408   1.450
12325WAT     H139077   6.902   0.460   1.390
12325WAT     H239078   6.989   0.471   1.513
12326WAT      O39079   6.272   1.210   1.566
12326WAT     H139080   6.218   1.282   1.534
12326WAT     H239081   6.297   1.162   1.487
12327WAT      O39082   6.558   1.333   1.592
12327WAT     H139083   6.550   1.423   1.622
12327WAT     H239084   6.467   1.301   1.589
12328WAT      O39085   6.612   1.250   0.354
12328WAT     H139086   6.702   1.284   0.356
12328WAT     H239087   6.616   1.178   0.291
12329WAT      O39088   5.976   0.787   0.177
12329WAT     H139089   6.020   0.841   0.242
12329WAT     H239090   6.025   0.704   0.178
12330WAT      O39091   5.698   1.066   0.922
12330WAT     H139092   5.731   0.979   0.899
12330WAT     H239093   5.741   1.086   1.005
12331WAT      O39094   6.157   0.899   0.688
12331WAT     H139095   6.127   0.887   0.778
12331WAT     H239096   6.147   0.813   0.647
12332WAT      O39097   5.747   1.153   1.196
12332WAT     H139098   5.703   1.171   1.279
12332WAT     H239099   5.804   1.228   1.182
12333WAT      O39100   7.310   1.103   1.625
12333WAT     H139101   7.250   1.109   1.550
12333WAT     H239102   7.323   1.009   1.638
12334WAT      O39103   7.380   0.551   0.409
12334WAT     H139104   7.456   0.608   0.419
12334WAT     H239105   7.382   0.495   0.486
12335WAT      O39106   5.730   0.404   0.832
12335WAT     H139107   5.665   0.377   0.767
12335WAT     H239108   5.814   0.393   0.787
12336WAT      O39109   7.481   0.637   0.893
12336WAT     H139110   7.518   0.559   0.852
12336WAT     H239111   7.545   0.706   0.875
12337WAT      O39112   7.179   0.775   1.434
12337WAT     H139113   7.098   0.818   1.461
12337WAT     H239114   7.220   0.836   1.373
12338WAT      O39115   7.375   0.374   0.624
12338WAT     H139116   7.337   0.298   0.580
12338WAT     H239117   7.302   0.413   0.672
12339WAT      O39118   5.834   0.442   1.286
12339WAT     H139119   5.871   0.434   1.374
12339WAT     H239120   5.777   0.366   1.276
12340WAT      O39121   7.314   0.289   1.587
12340WAT     H139122   7.291   0.266   1.497
12340WAT     H239123   7.340   0.381   1.583
12341WAT      O39124   7.302   0.197   0.954
12341WAT     H139125   7.355   0.148   0.891
12341WAT     H239126   7.361   0.211   1.028
12342WAT      O39127   7.320   0.205   1.306
12342WAT     H139128   7.225   0.202   1.317
12342WAT     H239129   7.338   0.296   1.282
12343WAT      O39130   7.185   1.250   0.787
12343WAT     H139131   7.244   1.218   0.719
12343WAT     H239132   7.210   1.203   0.866
12344WAT      O39133   5.975   0.894   1.802
12344WAT     H139134   5.971   0.857   1.890
12344WAT     H239135   5.988   0.987   1.816
12345WAT      O39136   6.345   1.049   1.362
12345WAT     H139137   6.321   1.076   1.273
12345WAT     H239138   6.439   1.066   1.368
12346WAT      O39139   7.471   1.251   1.442
12346WAT     H139140   7.422   1.291   1.370
12346WAT     H239141   7.411   1.189   1.482
12347WAT      O39142   5.959   1.188   1.514
12347WAT     H139143   5.900   1.175   1.588
12347WAT     H239144   5.958   1.105   1.467
12348WAT      O39145   7.240   1.315   1.170
12348WAT     H139146   7.194   1.391   1.133
12348WAT     H239147   7.177   1.243   1.164
12349WAT      O39148   5.922   0.925   1.409
12349WAT     H139149   5.850   0.863   1.402
12349WAT     H239150   5.928   0.964   1.322
12350WAT      O39151   6.283   1.146   1.088
12350WAT     H139152   6.334   1.085   1.035
12350WAT     H239153   6.348   1.197   1.137
12351WAT      O39154   6.557   1.235   1.170
12351WAT     H139155   6.585   1.210   1.083
12351WAT     H239156   6.608   1.180   1.229
12352WAT      O39157   5.751   1.257   0.730
12352WAT     H139158   5.734   1.193   0.800
12352WAT     H239159   5.664   1.277   0.695
12353WAT      O39160   5.911   1.126   0.474
12353WAT     H139161   5.859   1.164   0.404
12353WAT     H239162   5.904   1.188   0.547
12354WAT      O39163   6.563   1.328   1.907
12354WAT     H139164   6.656   1.304   1.911
12354WAT     H239165   6.562   1.410   1.859
12355WAT      O39166   7.387   1.282   0.607
12355WAT     H139167   7.404   1.213   0.542
12355WAT     H239168   7.317   1.334   0.567
12356WAT      O39169   6.171   1.321   0.362
12356WAT     H139170   6.244   1.292   0.307
12356WAT     H239171   6.197   1.297   0.451
12357WAT      O39172   6.087   0.932   0.362
12357WAT     H139173   6.024   0.979   0.417
12357WAT     H239174   6.099   0.848   0.406
12358WAT      O39175   7.220   1.250   1.889
12358WAT     H139176   7.299   1.201   1.869
12358WAT     H239177   7.250   1.318   1.950
12359WAT      O39178   4.955   9.725   6.487
12359WAT     H139179   4.947   9.633   6.460
12359WAT     H239180   4.914   9.774   6.417
12360WAT      O39181   4.769   9.902   6.675
12360WAT     H139182   4.691   9.854   6.704
12360WAT     H239183   4.834   9.834   6.658
12361WAT      O39184   4.170   9.934   6.763
12361WAT     H139185   4.087   9.908   6.803
12361WAT     H239186   4.231   9.941   6.837
12362WAT      O39187   4.011   9.430   6.141
12362WAT     H139188   3.922   9.464   6.131
12362WAT     H239189   4.040   9.410   6.052
12363WAT      O39190   3.807   9.690   6.730
12363WAT     H139191   3.865   9.613   6.730
12363WAT     H239192   3.807   9.720   6.639
12364WAT      O39193   3.932   9.231   6.909
12364WAT     H139194   3.914   9.141   6.937
12364WAT     H239195   3.892   9.285   6.976
12365WAT      O39196   4.816   9.451   6.699
12365WAT     H139197   4.853   9.363   6.687
12365WAT     H239198   4.806   9.484   6.610
12366WAT      O39199   4.229   9.288   6.245
12366WAT     H139200   4.239   9.378   6.276
12366WAT     H239201   4.138   9.283   6.216
12367WAT      O39202   5.194   9.200   6.392
12367WAT     H139203   5.276   9.151   6.396
12367WAT     H239204   5.197   9.259   6.467
12368WAT      O39205   3.994   9.480   6.769
12368WAT     H139206   4.062   9.507   6.831
12368WAT     H239207   3.962   9.396   6.803
12369WAT      O39208   4.413   9.585   6.678
12369WAT     H139209   4.464   9.635   6.742
12369WAT     H239210   4.466   9.507   6.661
12370WAT      O39211   5.623   9.402   7.048
12370WAT     H139212   5.552   9.441   6.997
12370WAT     H239213   5.650   9.471   7.109
12371WAT      O39214   4.241   9.049   7.105
12371WAT     H139215   4.241   9.101   7.024
12371WAT     H239216   4.158   9.001   7.102
12372WAT      O39217   4.366  10.013   6.922
12372WAT     H139218   4.333  10.075   6.987
12372WAT     H239219   4.384  10.065   6.845
12373WAT      O39220   5.218   9.394   6.669
12373WAT     H139221   5.147   9.423   6.727
12373WAT     H239222   5.254   9.475   6.633
12374WAT      O39223   4.209   9.220   6.905
12374WAT     H139224   4.243   9.304   6.876
12374WAT     H239225   4.115   9.235   6.917
12375WAT      O39226   5.524   9.339   6.708
12375WAT     H139227   5.430   9.342   6.721
12375WAT     H239228   5.557   9.420   6.747
12376WAT      O39229   4.578   8.969   6.538
12376WAT     H139230   4.608   8.913   6.466
12376WAT     H239231   4.485   8.982   6.520
12377WAT      O39232   5.073  10.031   6.900
12377WAT     H139233   5.114  10.009   6.816
12377WAT     H239234   5.145  10.056   6.957
12378WAT      O39235   4.816   9.775   6.212
12378WAT     H139236   4.724   9.769   6.234
12378WAT     H239237   4.832   9.869   6.200
12379WAT      O39238   4.815   9.402   5.911
12379WAT     H139239   4.721   9.419   5.920
12379WAT     H239240   4.847   9.474   5.857
12380WAT      O39241   5.467   9.871   6.909
12380WAT     H139242   5.384   9.878   6.861
12380WAT     H239243   5.527   9.929   6.862
12381WAT      O39244   5.219   9.931   6.262
12381WAT     H139245   5.158   9.898   6.197
12381WAT     H239246   5.218   9.867   6.333
12382WAT      O39247   5.164   9.549   7.004
12382WAT     H139248   5.122   9.632   7.029
12382WAT     H239249   5.090   9.491   6.984
12383WAT      O39250   4.377   9.828   6.490
12383WAT     H139251   4.337   9.757   6.440
12383WAT     H239252   4.386   9.793   6.579
12384WAT      O39253   4.248   9.505   6.868
12384WAT     H139254   4.303   9.516   6.790
12384WAT     H239255   4.300   9.543   6.939
12385WAT      O39256   5.037   9.855   5.963
12385WAT     H139257   5.081   9.772   5.948
12385WAT     H239258   5.108   9.919   5.971
12386WAT      O39259   4.216   9.857   7.229
12386WAT     H139260   4.202   9.945   7.266
12386WAT     H239261   4.128   9.823   7.214
12387WAT      O39262   5.395   8.981   5.794
12387WAT     H139263   5.364   8.990   5.884
12387WAT     H239264   5.471   9.039   5.789
12388WAT      O39265   4.047   9.717   6.240
12388WAT     H139266   4.035   9.790   6.179
12388WAT     H239267   4.016   9.640   6.192
12389WAT      O39268   3.811  10.034   6.820
12389WAT     H139269   3.819  10.048   6.726
12389WAT     H239270   3.872   9.964   6.840
12390WAT      O39271   5.516   9.454   7.392
12390WAT     H139272   5.455   9.505   7.339
12390WAT     H239273   5.484   9.364   7.386
12391WAT      O39274   4.294   9.052   6.578
12391WAT     H139275   4.249   9.130   6.545
12391WAT     H239276   4.350   9.084   6.649
12392WAT      O39277   4.722   9.338   7.138
12392WAT     H139278   4.676   9.359   7.220
12392WAT     H239279   4.682   9.257   7.108
12393WAT      O39280   5.222   9.460   7.251
12393WAT     H139281   5.137   9.431   7.283
12393WAT     H239282   5.206   9.485   7.160
12394WAT      O39283   4.932   9.610   7.461
12394WAT     H139284   4.964   9.527   7.427
12394WAT     H239285   5.011   9.663   7.476
12395WAT      O39286   4.605   9.014   6.066
12395WAT     H139287   4.543   9.013   6.139
12395WAT     H239288   4.597   8.927   6.026
12396WAT      O39289   4.497   9.106   6.764
12396WAT     H139290   4.527   9.197   6.756
12396WAT     H239291   4.552   9.057   6.702
12397WAT      O39292   4.273   9.564   6.351
12397WAT     H139293   4.250   9.542   6.441
12397WAT     H239294   4.195   9.607   6.316
12398WAT      O39295   4.996   9.565   6.211
12398WAT     H139296   4.936   9.637   6.192
12398WAT     H239297   5.051   9.558   6.132
12399WAT      O39298   4.517   9.654   7.417
12399WAT     H139299   4.507   9.560   7.402
12399WAT     H239300   4.601   9.676   7.378
12400WAT      O39301   4.856   9.428   6.414
12400WAT     H139302   4.896   9.460   6.332
12400WAT     H239303   4.893   9.340   6.425
12401WAT      O39304   4.030   9.295   7.233
12401WAT     H139305   3.991   9.380   7.253
12401WAT     H239306   3.961   9.231   7.252
12402WAT      O39307   3.760   9.087   6.636
12402WAT     H139308   3.731   9.144   6.707
12402WAT     H239309   3.835   9.039   6.672
12403WAT      O39310   3.779   9.481   5.757
12403WAT     H139311   3.771   9.576   5.771
12403WAT     H239312   3.744   9.467   5.669
12404WAT      O39313   4.915   9.687   6.823
12404WAT     H139314   4.842   9.738   6.858
12404WAT     H239315   4.875   9.606   6.793
12405WAT      O39316   4.559   9.355   6.664
12405WAT     H139317   4.559   9.311   6.579
12405WAT     H239318   4.648   9.387   6.675
12406WAT      O39319   4.144   9.343   6.560
12406WAT     H139320   4.110   9.391   6.635
12406WAT     H239321   4.068   9.298   6.524
12407WAT      O39322   4.565   9.455   5.963
12407WAT     H139323   4.577   9.451   6.058
12407WAT     H239324   4.526   9.541   5.947
12408WAT      O39325   4.961   9.233   6.764
12408WAT     H139326   4.963   9.278   6.849
12408WAT     H239327   4.936   9.143   6.786
12409WAT      O39328   4.466   9.686   5.903
12409WAT     H139329   4.409   9.641   5.840
12409WAT     H239330   4.537   9.722   5.849
12410WAT      O39331   5.304   8.974   7.348
12410WAT     H139332   5.336   8.901   7.401
12410WAT     H239333   5.308   8.942   7.258
12411WAT      O39334   4.589   9.761   6.838
12411WAT     H139335   4.626   9.713   6.913
12411WAT     H239336   4.570   9.848   6.873
12412WAT      O39337   3.875   9.235   6.451
12412WAT     H139338   3.847   9.199   6.535
12412WAT     H239339   3.869   9.162   6.390
12413WAT      O39340   4.368   9.665   7.070
12413WAT     H139341   4.337   9.753   7.093
12413WAT     H239342   4.463   9.671   7.074
12414WAT      O39343   4.221  10.086   6.130
12414WAT     H139344   4.143  10.032   6.114
12414WAT     H239345   4.294  10.034   6.096
12415WAT      O39346   5.297   9.985   6.709
12415WAT     H139347   5.369  10.035   6.670
12415WAT     H239348   5.276   9.917   6.645
12416WAT      O39349   4.843   9.125   6.124
12416WAT     H139350   4.761   9.075   6.116
12416WAT     H239351   4.823   9.209   6.082
12417WAT      O39352   4.835   9.992   7.298
12417WAT     H139353   4.828   9.900   7.272
12417WAT     H239354   4.772  10.002   7.369
12418WAT      O39355   5.114   9.562   5.953
12418WAT     H139356   5.203   9.593   5.936
12418WAT     H239357   5.111   9.475   5.914
12419WAT      O39358   4.225  10.052   6.494
12419WAT     H139359   4.277   9.972   6.488
12419WAT     H239360   4.180  10.046   6.578
12420WAT      O39361   3.973   9.749   7.185
12420WAT     H139362   3.938   9.816   7.244
12420WAT     H239363   3.944   9.666   7.222
12421WAT      O39364   4.294   9.795   7.473
12421WAT     H139365   4.264   9.809   7.384
12421WAT     H239366   4.371   9.739   7.464
12422WAT      O39367   5.341   9.693   5.900
12422WAT     H139368   5.333   9.736   5.815
12422WAT     H239369   5.413   9.739   5.943
12423WAT      O39370   5.449   9.939   7.208
12423WAT     H139371   5.376   9.998   7.188
12423WAT     H239372   5.502   9.938   7.128
12424WAT      O39373   3.825   9.749   5.847
12424WAT     H139374   3.911   9.777   5.876
12424WAT     H239375   3.775   9.830   5.836
12425WAT      O39376   4.541   9.888   6.259
12425WAT     H139377   4.587   9.969   6.282
12425WAT     H239378   4.506   9.856   6.343
12426WAT      O39379   4.131   8.922   6.307
12426WAT     H139380   4.118   8.921   6.402
12426WAT     H239381   4.049   8.956   6.272
12427WAT      O39382   3.831   9.098   7.253
12427WAT     H139383   3.760   9.118   7.313
12427WAT     H239384   3.873   9.020   7.290
12428WAT      O39385   4.023   9.931   6.060
12428WAT     H139386   3.962  10.005   6.061
12428WAT     H239387   4.071   9.940   5.978
12429WAT      O39388   4.980   9.347   7.028
12429WAT     H139389   5.017   9.265   7.061
12429WAT     H239390   4.894   9.353   7.069
12430WAT      O39391   5.317   9.243   6.109
12430WAT     H139392   5.254   9.253   6.037
12430WAT     H239393   5.267   9.265   6.188
12431WAT      O39394   4.514   9.471   6.250
12431WAT     H139395   4.443   9.517   6.294
12431WAT     H239396   4.542   9.405   6.314
12432WAT      O39397   4.676   9.613   7.050
12432WAT     H139398   4.726   9.660   7.117
12432WAT     H239399   4.691   9.520   7.071
12433WAT      O39400   4.917   9.143   6.394
12433WAT     H139401   4.905   9.145   6.299
12433WAT     H239402   5.012   9.148   6.406
12434WAT      O39403   4.334   9.301   5.988
12434WAT     H139404   4.419   9.345   5.981
12434WAT     H239405   4.297   9.333   6.070
12435WAT      O39406   5.397   9.234   7.134
12435WAT     H139407   5.347   9.308   7.168
12435WAT     H239408   5.479   9.273   7.103
12436WAT      O39409   5.226   9.759   6.479
12436WAT     H139410   5.132   9.760   6.496
12436WAT     H239411   5.258   9.680   6.524
12437WAT      O39412   4.224   9.927   5.835
12437WAT     H139413   4.301   9.916   5.891
12437WAT     H239414   4.232   9.857   5.770
12438WAT      O39415   4.094   9.670   5.903
12438WAT     H139416   4.102   9.575   5.915
12438WAT     H239417   4.183   9.703   5.914
12439WAT      O39418   3.846   9.852   7.427
12439WAT     H139419   3.897   9.794   7.484
12439WAT     H239420   3.772   9.881   7.481
12440WAT      O39421   4.552   9.993   7.380
12440WAT     H139422   4.475  10.050   7.372
12440WAT     H239423   4.570   9.964   7.291
12441WAT      O39424   4.861  10.031   5.843
12441WAT     H139425   4.806  10.075   5.907
12441WAT     H239426   4.923   9.980   5.895
12442WAT      O39427   4.427   9.926   6.032
12442WAT     H139428   4.469   9.910   6.117
12442WAT     H239429   4.440   9.845   5.983
12443WAT      O39430   4.244   9.524   7.313
12443WAT     H139431   4.190   9.475   7.250
12443WAT     H239432   4.310   9.567   7.260
12444WAT      O39433   4.679   9.829   5.757
12444WAT     H139434   4.731   9.757   5.721
12444WAT     H239435   4.743   9.893   5.787
12445WAT      O39436   5.133   9.971   7.290
12445WAT     H139437   5.175   9.987   7.375
12445WAT     H239438   5.040   9.984   7.306
12446WAT      O39439   5.181   9.705   7.490
12446WAT     H139440   5.239   9.630   7.481
12446WAT     H239441   5.198   9.758   7.412
12447WAT      O39442   4.292   9.221   7.321
12447WAT     H139443   4.283   9.159   7.249
12447WAT     H239444   4.234   9.294   7.298
12448WAT      O39445   4.569   9.077   7.024
12448WAT     H139446   4.524   9.079   6.940
12448WAT     H239447   4.506   9.037   7.084
12449WAT      O39448   4.609   9.966   7.087
12449WAT     H139449   4.651  10.051   7.069
12449WAT     H239450   4.518   9.980   7.064
12450WAT      O39451   4.843   9.739   7.225
12450WAT     H139452   4.855   9.680   7.299
12450WAT     H239453   4.929   9.743   7.183
12451WAT      O39454   5.077   9.795   7.083
12451WAT     H139455   5.024   9.847   7.022
12451WAT     H239456   5.111   9.858   7.146
12452WAT      O39457   4.317   9.534   5.727
12452WAT     H139458   4.297   9.447   5.763
12452WAT     H239459   4.300   9.525   5.633
12453WAT      O39460   4.520   9.394   7.351
12453WAT     H139461   4.579   9.363   7.419
12453WAT     H239462   4.438   9.346   7.366
12454WAT      O39463   5.002   9.355   7.374
12454WAT     H139464   4.933   9.289   7.368
12454WAT     H239465   5.074   9.311   7.419
12455WAT      O39466   5.065   9.015   5.980
12455WAT     H139467   5.093   8.931   6.016
12455WAT     H239468   4.987   9.038   6.031
12456WAT      O39469   4.197   9.244   5.726
12456WAT     H139470   4.227   9.244   5.635
12456WAT     H239471   4.271   9.209   5.776
12457WAT      O39472   4.519   9.138   5.824
12457WAT     H139473   4.484   9.070   5.766
12457WAT     H239474   4.539   9.092   5.906
12458WAT      O39475   5.503   9.939   6.041
12458WAT     H139476   5.579   9.996   6.052
12458WAT     H239477   5.504   9.882   6.118
12459WAT      O39478   3.853   9.791   6.464
12459WAT     H139479   3.787   9.764   6.400
12459WAT     H239480   3.936   9.780   6.419
12460WAT      O39481   5.508   9.968   5.757
12460WAT     H139482   5.535  10.059   5.744
12460WAT     H239483   5.489   9.962   5.850
12461WAT      O39484   5.147   9.270   5.886
12461WAT     H139485   5.189   9.252   5.802
12461WAT     H239486   5.117   9.185   5.917
12462WAT      O39487   5.497   9.762   6.256
12462WAT     H139488   5.460   9.685   6.213
12462WAT     H239489   5.424   9.800   6.305
12463WAT      O39490   3.956   9.830   6.918
12463WAT     H139491   3.993   9.821   7.006
12463WAT     H239492   3.899   9.753   6.908
12464WAT      O39493   5.436   9.676   7.219
12464WAT     H139494   5.413   9.653   7.129
12464WAT     H239495   5.462   9.768   7.215
12465WAT      O39496   3.911   9.521   7.309
12465WAT     H139497   3.822   9.517   7.343
12465WAT     H239498   3.965   9.540   7.385
12466WAT      O39499   3.774   9.512   6.058
12466WAT     H139500   3.684   9.538   6.041
12466WAT     H239501   3.822   9.539   5.980
12467WAT      O39502   5.425   9.584   6.586
12467WAT     H139503   5.477   9.535   6.523
12467WAT     H239504   5.483   9.598   6.661
12468WAT      O39505   5.443   9.593   6.938
12468WAT     H139506   5.348   9.589   6.950
12468WAT     H239507   5.461   9.684   6.915
12469WAT      O39508   4.028   9.418   5.849
12469WAT     H139509   4.099   9.375   5.801
12469WAT     H239510   3.957   9.424   5.786
12470WAT      O39511   3.993   9.023   5.753
12470WAT     H139512   4.065   9.077   5.785
12470WAT     H239513   4.020   8.996   5.666
12471WAT      O39514   5.374   9.510   6.180
12471WAT     H139515   5.423   9.487   6.258
12471WAT     H239516   5.354   9.426   6.138
12472WAT      O39517   3.962   8.948   6.743
12472WAT     H139518   4.027   8.893   6.699
12472WAT     H239519   4.004   8.974   6.826
12473WAT      O39520   5.517   9.374   6.433
12473WAT     H139521   5.506   9.358   6.527
12473WAT     H239522   5.593   9.321   6.409
12474WAT      O39523   5.351   8.967   7.079
12474WAT     H139524   5.415   9.029   7.116
12474WAT     H239525   5.366   8.971   6.985
12475WAT      O39526   5.606   9.157   5.757
12475WAT     H139527   5.698   9.143   5.737
12475WAT     H239528   5.603   9.165   5.853
12476WAT      O39529   5.613   9.234   6.020
12476WAT     H139530   5.534   9.227   6.073
12476WAT     H239531   5.633   9.327   6.019
12477WAT      O39532   3.937   8.964   7.018
12477WAT     H139533   3.902   9.009   7.094
12477WAT     H239534   3.904   8.874   7.026
12478WAT      O39535   4.688   9.083   7.370
12478WAT     H139536   4.682   9.142   7.445
12478WAT     H239537   4.782   9.072   7.355
12479WAT      O39538   4.952   9.048   7.334
12479WAT     H139539   5.014   9.080   7.268
12479WAT     H239540   5.007   9.000   7.396
12480WAT      O39541   4.004   8.916   7.345
12480WAT     H139542   4.059   8.898   7.269
12480WAT     H239543   4.011   8.837   7.399
12481WAT      O39544   5.026   8.905   6.967
12481WAT     H139545   4.939   8.938   6.946
12481WAT     H239546   5.015   8.858   7.049
12482WAT      O39547   5.117   9.125   7.105
12482WAT     H139548   5.084   9.044   7.067
12482WAT     H239549   5.212   9.121   7.093
12483WAT      O39550   4.801   8.996   6.860
12483WAT     H139551   4.723   9.044   6.888
12483WAT     H239552   4.772   8.906   6.850
12484WAT      O39553   5.256   9.067   6.665
12484WAT     H139554   5.300   9.061   6.580
12484WAT     H239555   5.229   9.158   6.672
12485WAT      O39556   5.443   9.030   6.466
12485WAT     H139557   5.437   8.935   6.451
12485WAT     H239558   5.521   9.041   6.521
12486WAT      O39559   3.935   9.027   6.113
12486WAT     H139560   4.011   9.038   6.055
12486WAT     H239561   3.889   9.111   6.108
12487WAT      O39562   4.590   9.238   6.412
12487WAT     H139563   4.508   9.201   6.378
12487WAT     H239564   4.640   9.163   6.442
12488WAT      O39565   5.040   8.905   6.535
12488WAT     H139566   5.100   8.962   6.583
12488WAT     H239567   4.966   8.961   6.513
12489WAT      O39568   5.354   8.945   6.063
12489WAT     H139569   5.374   9.035   6.090
12489WAT     H239570   5.275   8.922   6.112
12490WAT      O39571   4.173   9.080   5.967
12490WAT     H139572   4.226   9.001   5.954
12490WAT     H239573   4.236   9.147   5.990
12491WAT      O39574   4.392   9.053   6.272
12491WAT     H139575   4.329   8.983   6.289
12491WAT     H239576   4.338   9.129   6.250
12492WAT      O39577   4.955   9.725   4.610
12492WAT     H139578   4.947   9.633   4.583
12492WAT     H239579   4.914   9.774   4.539
12493WAT      O39580   4.769   9.902   4.798
12493WAT     H139581   4.691   9.854   4.827
12493WAT     H239582   4.834   9.834   4.780
12494WAT      O39583   4.170   9.934   4.886
12494WAT     H139584   4.087   9.908   4.926
12494WAT     H239585   4.231   9.941   4.959
12495WAT      O39586   4.011   9.430   4.264
12495WAT     H139587   3.922   9.464   4.254
12495WAT     H239588   4.040   9.410   4.175
12496WAT      O39589   3.807   9.690   4.852
12496WAT     H139590   3.865   9.613   4.852
12496WAT     H239591   3.807   9.720   4.762
12497WAT      O39592   3.932   9.231   5.031
12497WAT     H139593   3.914   9.141   5.059
12497WAT     H239594   3.892   9.285   5.099
12498WAT      O39595   4.816   9.451   4.821
12498WAT     H139596   4.853   9.363   4.810
12498WAT     H239597   4.806   9.484   4.732
12499WAT      O39598   4.229   9.288   4.367
12499WAT     H139599   4.239   9.378   4.398
12499WAT     H239600   4.138   9.283   4.338
12500WAT      O39601   5.194   9.200   4.515
12500WAT     H139602   5.276   9.151   4.519
12500WAT     H239603   5.197   9.259   4.590
12501WAT      O39604   3.994   9.480   4.892
12501WAT     H139605   4.062   9.507   4.954
12501WAT     H239606   3.962   9.396   4.925
12502WAT      O39607   4.413   9.585   4.801
12502WAT     H139608   4.464   9.635   4.865
12502WAT     H239609   4.466   9.507   4.783
12503WAT      O39610   5.623   9.402   5.171
12503WAT     H139611   5.552   9.441   5.119
12503WAT     H239612   5.650   9.471   5.231
12504WAT      O39613   4.241   9.049   5.227
12504WAT     H139614   4.241   9.101   5.147
12504WAT     H239615   4.158   9.001   5.225
12505WAT      O39616   4.366  10.013   5.045
12505WAT     H139617   4.333  10.075   5.109
12505WAT     H239618   4.384  10.065   4.967
12506WAT      O39619   5.218   9.394   4.792
12506WAT     H139620   5.147   9.423   4.850
12506WAT     H239621   5.254   9.475   4.756
12507WAT      O39622   4.209   9.220   5.028
12507WAT     H139623   4.243   9.304   4.999
12507WAT     H239624   4.115   9.235   5.040
12508WAT      O39625   5.524   9.339   4.831
12508WAT     H139626   5.430   9.342   4.844
12508WAT     H239627   5.557   9.420   4.869
12509WAT      O39628   4.578   8.969   4.660
12509WAT     H139629   4.608   8.913   4.589
12509WAT     H239630   4.485   8.982   4.642
12510WAT      O39631   5.073  10.031   5.022
12510WAT     H139632   5.114  10.009   4.939
12510WAT     H239633   5.145  10.056   5.079
12511WAT      O39634   4.816   9.775   4.334
12511WAT     H139635   4.724   9.769   4.357
12511WAT     H239636   4.832   9.869   4.323
12512WAT      O39637   4.815   9.402   4.034
12512WAT     H139638   4.721   9.419   4.042
12512WAT     H239639   4.847   9.474   3.979
12513WAT      O39640   5.467   9.871   5.032
12513WAT     H139641   5.384   9.878   4.984
12513WAT     H239642   5.527   9.929   4.985
12514WAT      O39643   5.219   9.931   4.384
12514WAT     H139644   5.158   9.898   4.320
12514WAT     H239645   5.218   9.867   4.455
12515WAT      O39646   5.164   9.549   5.126
12515WAT     H139647   5.122   9.632   5.151
12515WAT     H239648   5.090   9.491   5.107
12516WAT      O39649   4.377   9.828   4.612
12516WAT     H139650   4.337   9.757   4.563
12516WAT     H239651   4.386   9.793   4.701
12517WAT      O39652   4.248   9.505   4.990
12517WAT     H139653   4.303   9.516   4.913
12517WAT     H239654   4.300   9.543   5.062
12518WAT      O39655   5.037   9.855   4.085
12518WAT     H139656   5.081   9.772   4.071
12518WAT     H239657   5.108   9.919   4.094
12519WAT      O39658   4.216   9.857   5.351
12519WAT     H139659   4.202   9.945   5.388
12519WAT     H239660   4.128   9.823   5.337
12520WAT      O39661   5.395   8.981   3.917
12520WAT     H139662   5.364   8.990   4.007
12520WAT     H239663   5.471   9.039   3.912
12521WAT      O39664   4.047   9.717   4.362
12521WAT     H139665   4.035   9.790   4.301
12521WAT     H239666   4.016   9.640   4.315
12522WAT      O39667   3.811  10.034   4.943
12522WAT     H139668   3.819  10.048   4.849
12522WAT     H239669   3.872   9.964   4.962
12523WAT      O39670   5.516   9.454   5.514
12523WAT     H139671   5.455   9.505   5.461
12523WAT     H239672   5.484   9.364   5.509
12524WAT      O39673   4.294   9.052   4.701
12524WAT     H139674   4.249   9.130   4.667
12524WAT     H239675   4.350   9.084   4.771
12525WAT      O39676   4.722   9.338   5.261
12525WAT     H139677   4.676   9.359   5.342
12525WAT     H239678   4.682   9.257   5.231
12526WAT      O39679   5.222   9.460   5.374
12526WAT     H139680   5.137   9.431   5.406
12526WAT     H239681   5.206   9.485   5.283
12527WAT      O39682   4.932   9.610   5.584
12527WAT     H139683   4.964   9.527   5.550
12527WAT     H239684   5.011   9.663   5.599
12528WAT      O39685   4.605   9.014   4.189
12528WAT     H139686   4.543   9.013   4.261
12528WAT     H239687   4.597   8.927   4.149
12529WAT      O39688   4.497   9.106   4.886
12529WAT     H139689   4.527   9.197   4.878
12529WAT     H239690   4.552   9.057   4.825
12530WAT      O39691   4.273   9.564   4.473
12530WAT     H139692   4.250   9.542   4.564
12530WAT     H239693   4.195   9.607   4.439
12531WAT      O39694   4.996   9.565   4.333
12531WAT     H139695   4.936   9.637   4.315
12531WAT     H239696   5.051   9.558   4.255
12532WAT      O39697   4.517   9.654   5.540
12532WAT     H139698   4.507   9.560   5.525
12532WAT     H239699   4.601   9.676   5.500
12533WAT      O39700   4.856   9.428   4.536
12533WAT     H139701   4.896   9.460   4.455
12533WAT     H239702   4.893   9.340   4.548
12534WAT      O39703   4.030   9.295   5.355
12534WAT     H139704   3.991   9.380   5.376
12534WAT     H239705   3.961   9.231   5.374
12535WAT      O39706   4.687   9.303   5.662
12535WAT     H139707   4.618   9.284   5.726
12535WAT     H239708   4.762   9.332   5.716
12536WAT      O39709   3.760   9.087   4.759
12536WAT     H139710   3.731   9.144   4.830
12536WAT     H239711   3.835   9.039   4.795
12537WAT      O39712   3.779   9.481   3.880
12537WAT     H139713   3.771   9.576   3.894
12537WAT     H239714   3.744   9.467   3.792
12538WAT      O39715   4.915   9.687   4.946
12538WAT     H139716   4.842   9.738   4.981
12538WAT     H239717   4.875   9.606   4.916
12539WAT      O39718   4.559   9.355   4.786
12539WAT     H139719   4.559   9.311   4.701
12539WAT     H239720   4.648   9.387   4.797
12540WAT      O39721   4.144   9.343   4.682
12540WAT     H139722   4.110   9.391   4.758
12540WAT     H239723   4.068   9.298   4.646
12541WAT      O39724   4.565   9.455   4.085
12541WAT     H139725   4.577   9.451   4.180
12541WAT     H239726   4.526   9.541   4.070
12542WAT      O39727   4.961   9.233   4.887
12542WAT     H139728   4.963   9.278   4.971
12542WAT     H239729   4.936   9.143   4.908
12543WAT      O39730   4.466   9.686   4.025
12543WAT     H139731   4.409   9.641   3.963
12543WAT     H239732   4.537   9.722   3.972
12544WAT      O39733   5.304   8.974   5.471
12544WAT     H139734   5.336   8.901   5.524
12544WAT     H239735   5.308   8.942   5.381
12545WAT      O39736   4.589   9.761   4.961
12545WAT     H139737   4.626   9.713   5.036
12545WAT     H239738   4.570   9.848   4.995
12546WAT      O39739   3.875   9.235   4.574
12546WAT     H139740   3.847   9.199   4.658
12546WAT     H239741   3.869   9.162   4.513
12547WAT      O39742   4.368   9.665   5.193
12547WAT     H139743   4.337   9.753   5.215
12547WAT     H239744   4.463   9.671   5.196
12548WAT      O39745   4.221  10.086   4.253
12548WAT     H139746   4.143  10.032   4.237
12548WAT     H239747   4.294  10.034   4.219
12549WAT      O39748   5.297   9.985   4.832
12549WAT     H139749   5.369  10.035   4.793
12549WAT     H239750   5.276   9.917   4.767
12550WAT      O39751   4.843   9.125   4.246
12550WAT     H139752   4.761   9.075   4.239
12550WAT     H239753   4.823   9.209   4.204
12551WAT      O39754   4.835   9.992   5.420
12551WAT     H139755   4.828   9.900   5.395
12551WAT     H239756   4.772  10.002   5.492
12552WAT      O39757   5.114   9.562   4.076
12552WAT     H139758   5.203   9.593   4.058
12552WAT     H239759   5.111   9.475   4.037
12553WAT      O39760   4.225  10.052   4.616
12553WAT     H139761   4.277   9.972   4.611
12553WAT     H239762   4.180  10.046   4.700
12554WAT      O39763   3.973   9.749   5.308
12554WAT     H139764   3.938   9.816   5.366
12554WAT     H239765   3.944   9.666   5.345
12555WAT      O39766   4.294   9.795   5.596
12555WAT     H139767   4.264   9.809   5.506
12555WAT     H239768   4.371   9.739   5.587
12556WAT      O39769   5.341   9.693   4.022
12556WAT     H139770   5.333   9.736   3.937
12556WAT     H239771   5.413   9.739   4.066
12557WAT      O39772   5.449   9.939   5.330
12557WAT     H139773   5.376   9.998   5.310
12557WAT     H239774   5.502   9.938   5.250
12558WAT      O39775   3.825   9.749   3.970
12558WAT     H139776   3.911   9.777   3.998
12558WAT     H239777   3.775   9.830   3.958
12559WAT      O39778   4.541   9.888   4.382
12559WAT     H139779   4.587   9.969   4.405
12559WAT     H239780   4.506   9.856   4.465
12560WAT      O39781   4.131   8.922   4.429
12560WAT     H139782   4.118   8.921   4.524
12560WAT     H239783   4.049   8.956   4.394
12561WAT      O39784   3.831   9.098   5.375
12561WAT     H139785   3.760   9.118   5.436
12561WAT     H239786   3.873   9.020   5.412
12562WAT      O39787   4.023   9.931   4.183
12562WAT     H139788   3.962  10.005   4.184
12562WAT     H239789   4.071   9.940   4.100
12563WAT      O39790   4.980   9.347   5.150
12563WAT     H139791   5.017   9.265   5.183
12563WAT     H239792   4.894   9.353   5.192
12564WAT      O39793   5.317   9.243   4.231
12564WAT     H139794   5.254   9.253   4.160
12564WAT     H239795   5.267   9.265   4.310
12565WAT      O39796   4.514   9.471   4.373
12565WAT     H139797   4.443   9.517   4.417
12565WAT     H239798   4.542   9.405   4.436
12566WAT      O39799   4.676   9.613   5.173
12566WAT     H139800   4.726   9.660   5.239
12566WAT     H239801   4.691   9.520   5.193
12567WAT      O39802   4.917   9.143   4.517
12567WAT     H139803   4.905   9.145   4.422
12567WAT     H239804   5.012   9.148   4.529
12568WAT      O39805   4.334   9.301   4.110
12568WAT     H139806   4.419   9.345   4.104
12568WAT     H239807   4.297   9.333   4.193
12569WAT      O39808   5.397   9.234   5.257
12569WAT     H139809   5.347   9.308   5.291
12569WAT     H239810   5.479   9.273   5.225
12570WAT      O39811   5.226   9.759   4.602
12570WAT     H139812   5.132   9.760   4.619
12570WAT     H239813   5.258   9.680   4.646
12571WAT      O39814   4.224   9.927   3.958
12571WAT     H139815   4.301   9.916   4.014
12571WAT     H239816   4.232   9.857   3.892
12572WAT      O39817   4.094   9.670   4.026
12572WAT     H139818   4.102   9.575   4.037
12572WAT     H239819   4.183   9.703   4.037
12573WAT      O39820   3.846   9.852   5.550
12573WAT     H139821   3.897   9.794   5.607
12573WAT     H239822   3.772   9.881   5.603
12574WAT      O39823   4.552   9.993   5.503
12574WAT     H139824   4.475  10.050   5.494
12574WAT     H239825   4.570   9.964   5.414
12575WAT      O39826   4.861  10.031   3.965
12575WAT     H139827   4.806  10.075   4.030
12575WAT     H239828   4.923   9.980   4.018
12576WAT      O39829   4.049   9.666   5.639
12576WAT     H139830   4.054   9.637   5.730
12576WAT     H239831   4.135   9.707   5.623
12577WAT      O39832   4.427   9.926   4.155
12577WAT     H139833   4.469   9.910   4.239
12577WAT     H239834   4.440   9.845   4.106
12578WAT      O39835   4.244   9.524   5.436
12578WAT     H139836   4.190   9.475   5.373
12578WAT     H239837   4.310   9.567   5.382
12579WAT      O39838   4.679   9.829   3.880
12579WAT     H139839   4.731   9.757   3.843
12579WAT     H239840   4.743   9.893   3.910
12580WAT      O39841   5.133   9.971   5.412
12580WAT     H139842   5.175   9.987   5.497
12580WAT     H239843   5.040   9.984   5.428
12581WAT      O39844   5.181   9.705   5.613
12581WAT     H139845   5.239   9.630   5.604
12581WAT     H239846   5.198   9.758   5.535
12582WAT      O39847   4.292   9.221   5.444
12582WAT     H139848   4.283   9.159   5.371
12582WAT     H239849   4.234   9.294   5.421
12583WAT      O39850   4.569   9.077   5.147
12583WAT     H139851   4.524   9.079   5.062
12583WAT     H239852   4.506   9.037   5.207
12584WAT      O39853   4.609   9.966   5.209
12584WAT     H139854   4.651  10.051   5.192
12584WAT     H239855   4.518   9.980   5.186
12585WAT      O39856   4.843   9.739   5.348
12585WAT     H139857   4.855   9.680   5.421
12585WAT     H239858   4.929   9.743   5.306
12586WAT      O39859   5.077   9.795   5.205
12586WAT     H139860   5.024   9.847   5.145
12586WAT     H239861   5.111   9.858   5.268
12587WAT      O39862   4.317   9.534   3.850
12587WAT     H139863   4.297   9.447   3.886
12587WAT     H239864   4.300   9.525   3.756
12588WAT      O39865   4.520   9.394   5.473
12588WAT     H139866   4.579   9.363   5.542
12588WAT     H239867   4.438   9.346   5.489
12589WAT      O39868   5.002   9.355   5.497
12589WAT     H139869   4.933   9.289   5.490
12589WAT     H239870   5.074   9.311   5.541
12590WAT      O39871   5.065   9.015   4.102
12590WAT     H139872   5.093   8.931   4.138
12590WAT     H239873   4.987   9.038   4.154
12591WAT      O39874   4.197   9.244   3.848
12591WAT     H139875   4.227   9.244   3.758
12591WAT     H239876   4.271   9.209   3.898
12592WAT      O39877   4.519   9.138   3.947
12592WAT     H139878   4.484   9.070   3.889
12592WAT     H239879   4.539   9.092   4.028
12593WAT      O39880   5.503   9.939   4.164
12593WAT     H139881   5.579   9.996   4.174
12593WAT     H239882   5.504   9.882   4.241
12594WAT      O39883   3.853   9.791   4.587
12594WAT     H139884   3.787   9.764   4.522
12594WAT     H239885   3.936   9.780   4.542
12595WAT      O39886   5.508   9.968   3.879
12595WAT     H139887   5.535  10.059   3.866
12595WAT     H239888   5.489   9.962   3.973
12596WAT      O39889   5.147   9.270   4.009
12596WAT     H139890   5.189   9.252   3.925
12596WAT     H239891   5.117   9.185   4.040
12597WAT      O39892   5.497   9.762   4.379
12597WAT     H139893   5.460   9.685   4.335
12597WAT     H239894   5.424   9.800   4.427
12598WAT      O39895   3.956   9.830   5.041
12598WAT     H139896   3.993   9.821   5.129
12598WAT     H239897   3.899   9.753   5.031
12599WAT      O39898   5.436   9.676   5.342
12599WAT     H139899   5.413   9.653   5.252
12599WAT     H239900   5.462   9.768   5.337
12600WAT      O39901   3.911   9.521   5.431
12600WAT     H139902   3.822   9.517   5.465
12600WAT     H239903   3.965   9.540   5.508
12601WAT      O39904   5.280   9.199   5.620
12601WAT     H139905   5.368   9.200   5.658
12601WAT     H239906   5.281   9.125   5.559
12602WAT      O39907   3.774   9.512   4.181
12602WAT     H139908   3.684   9.538   4.163
12602WAT     H239909   3.822   9.539   4.103
12603WAT      O39910   5.425   9.584   4.709
12603WAT     H139911   5.477   9.535   4.646
12603WAT     H239912   5.483   9.598   4.783
12604WAT      O39913   5.443   9.593   5.061
12604WAT     H139914   5.348   9.589   5.072
12604WAT     H239915   5.461   9.684   5.037
12605WAT      O39916   4.028   9.418   3.972
12605WAT     H139917   4.099   9.375   3.923
12605WAT     H239918   3.957   9.424   3.909
12606WAT      O39919   3.993   9.023   3.876
12606WAT     H139920   4.065   9.077   3.908
12606WAT     H239921   4.020   8.996   3.788
12607WAT      O39922   5.374   9.510   4.303
12607WAT     H139923   5.423   9.487   4.381
12607WAT     H239924   5.354   9.426   4.261
12608WAT      O39925   3.962   8.948   4.866
12608WAT     H139926   4.027   8.893   4.822
12608WAT     H239927   4.004   8.974   4.948
12609WAT      O39928   5.517   9.374   4.556
12609WAT     H139929   5.506   9.358   4.650
12609WAT     H239930   5.593   9.321   4.532
12610WAT      O39931   5.351   8.967   5.202
12610WAT     H139932   5.415   9.029   5.238
12610WAT     H239933   5.366   8.971   5.107
12611WAT      O39934   5.606   9.157   3.880
12611WAT     H139935   5.698   9.143   3.859
12611WAT     H239936   5.603   9.165   3.975
12612WAT      O39937   5.613   9.234   4.143
12612WAT     H139938   5.534   9.227   4.195
12612WAT     H239939   5.633   9.327   4.141
12613WAT      O39940   3.937   8.964   5.140
12613WAT     H139941   3.902   9.009   5.217
12613WAT     H239942   3.904   8.874   5.149
12614WAT      O39943   4.688   9.083   5.493
12614WAT     H139944   4.682   9.142   5.567
12614WAT     H239945   4.782   9.072   5.478
12615WAT      O39946   4.952   9.048   5.456
12615WAT     H139947   5.014   9.080   5.390
12615WAT     H239948   5.007   9.000   5.518
12616WAT      O39949   4.004   8.916   5.468
12616WAT     H139950   4.059   8.898   5.391
12616WAT     H239951   4.011   8.837   5.521
12617WAT      O39952   5.026   8.905   5.089
12617WAT     H139953   4.939   8.938   5.069
12617WAT     H239954   5.015   8.858   5.172
12618WAT      O39955   5.117   9.125   5.228
12618WAT     H139956   5.084   9.044   5.190
12618WAT     H239957   5.212   9.121   5.215
12619WAT      O39958   4.801   8.996   4.983
12619WAT     H139959   4.723   9.044   5.011
12619WAT     H239960   4.772   8.906   4.972
12620WAT      O39961   5.256   9.067   4.788
12620WAT     H139962   5.300   9.061   4.703
12620WAT     H239963   5.229   9.158   4.795
12621WAT      O39964   5.443   9.030   4.589
12621WAT     H139965   5.437   8.935   4.574
12621WAT     H239966   5.521   9.041   4.643
12622WAT      O39967   3.935   9.027   4.235
12622WAT     H139968   4.011   9.038   4.178
12622WAT     H239969   3.889   9.111   4.231
12623WAT      O39970   4.590   9.238   4.534
12623WAT     H139971   4.508   9.201   4.500
12623WAT     H239972   4.640   9.163   4.564
12624WAT      O39973   5.040   8.905   4.658
12624WAT     H139974   5.100   8.962   4.706
12624WAT     H239975   4.966   8.961   4.636
12625WAT      O39976   5.354   8.945   4.185
12625WAT     H139977   5.374   9.035   4.212
12625WAT     H239978   5.275   8.922   4.235
12626WAT      O39979   4.173   9.080   4.089
12626WAT     H139980   4.226   9.001   4.076
12626WAT     H239981   4.236   9.147   4.113
12627WAT      O39982   4.392   9.053   4.395
12627WAT     H139983   4.329   8.983   4.411
12627WAT     H239984   4.338   9.129   4.373
12628WAT      O39985   4.405   8.981   5.638
12628WAT     H139986   4.376   9.032   5.562
12628WAT     H239987   4.443   8.901   5.602
12629WAT      O39988   5.065   8.923   5.696
12629WAT     H139989   5.053   8.955   5.786
12629WAT     H239990   5.146   8.963   5.666
12630WAT      O39991   4.955   9.725   2.732
12630WAT     H139992   4.947   9.633   2.705
12630WAT     H239993   4.914   9.774   2.662
12631WAT      O39994   4.769   9.902   2.920
12631WAT     H139995   4.691   9.854   2.949
12631WAT     H239996   4.834   9.834   2.903
12632WAT      O39997   4.170   9.934   3.008
12632WAT     H139998   4.087   9.908   3.048
12632WAT     H239999   4.231   9.941   3.082
12633WAT      O40000   4.011   9.430   2.387
12633WAT     H140001   3.922   9.464   2.376
12633WAT     H240002   4.040   9.410   2.297
12634WAT      O40003   3.807   9.690   2.975
12634WAT     H140004   3.865   9.613   2.975
12634WAT     H240005   3.807   9.720   2.884
12635WAT      O40006   3.932   9.231   3.154
12635WAT     H140007   3.914   9.141   3.182
12635WAT     H240008   3.892   9.285   3.221
12636WAT      O40009   4.816   9.451   2.944
12636WAT     H140010   4.853   9.363   2.933
12636WAT     H240011   4.806   9.484   2.855
12637WAT      O40012   4.229   9.288   2.490
12637WAT     H140013   4.239   9.378   2.521
12637WAT     H240014   4.138   9.283   2.461
12638WAT      O40015   5.194   9.200   2.637
12638WAT     H140016   5.276   9.151   2.641
12638WAT     H240017   5.197   9.259   2.712
12639WAT      O40018   3.994   9.480   3.015
12639WAT     H140019   4.062   9.507   3.076
12639WAT     H240020   3.962   9.396   3.048
12640WAT      O40021   4.413   9.585   2.923
12640WAT     H140022   4.464   9.635   2.987
12640WAT     H240023   4.466   9.507   2.906
12641WAT      O40024   5.623   9.402   3.294
12641WAT     H140025   5.552   9.441   3.242
12641WAT     H240026   5.650   9.471   3.354
12642WAT      O40027   4.241   9.049   3.350
12642WAT     H140028   4.241   9.101   3.269
12642WAT     H240029   4.158   9.001   3.348
12643WAT      O40030   4.366  10.013   3.168
12643WAT     H140031   4.333  10.075   3.232
12643WAT     H240032   4.384  10.065   3.090
12644WAT      O40033   5.218   9.394   2.914
12644WAT     H140034   5.147   9.423   2.972
12644WAT     H240035   5.254   9.475   2.878
12645WAT      O40036   4.209   9.220   3.151
12645WAT     H140037   4.243   9.304   3.121
12645WAT     H240038   4.115   9.235   3.162
12646WAT      O40039   5.524   9.339   2.953
12646WAT     H140040   5.430   9.342   2.967
12646WAT     H240041   5.557   9.420   2.992
12647WAT      O40042   4.578   8.969   2.783
12647WAT     H140043   4.608   8.913   2.711
12647WAT     H240044   4.485   8.982   2.765
12648WAT      O40045   5.073  10.031   3.145
12648WAT     H140046   5.114  10.009   3.061
12648WAT     H240047   5.145  10.056   3.202
12649WAT      O40048   4.816   9.775   2.457
12649WAT     H140049   4.724   9.769   2.480
12649WAT     H240050   4.832   9.869   2.445
12650WAT      O40051   4.815   9.402   2.156
12650WAT     H140052   4.721   9.419   2.165
12650WAT     H240053   4.847   9.474   2.102
12651WAT      O40054   5.467   9.871   3.154
12651WAT     H140055   5.384   9.878   3.107
12651WAT     H240056   5.527   9.929   3.107
12652WAT      O40057   5.219   9.931   2.507
12652WAT     H140058   5.158   9.898   2.442
12652WAT     H240059   5.218   9.867   2.578
12653WAT      O40060   5.164   9.549   3.249
12653WAT     H140061   5.122   9.632   3.274
12653WAT     H240062   5.090   9.491   3.229
12654WAT      O40063   4.377   9.828   2.735
12654WAT     H140064   4.337   9.757   2.685
12654WAT     H240065   4.386   9.793   2.824
12655WAT      O40066   4.248   9.505   3.113
12655WAT     H140067   4.303   9.516   3.035
12655WAT     H240068   4.300   9.543   3.184
12656WAT      O40069   5.037   9.855   2.208
12656WAT     H140070   5.081   9.772   2.193
12656WAT     H240071   5.108   9.919   2.216
12657WAT      O40072   4.216   9.857   3.474
12657WAT     H140073   4.202   9.945   3.511
12657WAT     H240074   4.128   9.823   3.459
12658WAT      O40075   5.395   8.981   2.039
12658WAT     H140076   5.364   8.990   2.129
12658WAT     H240077   5.471   9.039   2.034
12659WAT      O40078   4.047   9.717   2.485
12659WAT     H140079   4.035   9.790   2.424
12659WAT     H240080   4.016   9.640   2.437
12660WAT      O40081   3.811  10.034   3.066
12660WAT     H140082   3.819  10.048   2.971
12660WAT     H240083   3.872   9.964   3.085
12661WAT      O40084   5.516   9.454   3.637
12661WAT     H140085   5.455   9.505   3.584
12661WAT     H240086   5.484   9.364   3.631
12662WAT      O40087   4.294   9.052   2.823
12662WAT     H140088   4.249   9.130   2.790
12662WAT     H240089   4.350   9.084   2.894
12663WAT      O40090   4.722   9.338   3.383
12663WAT     H140091   4.676   9.359   3.465
12663WAT     H240092   4.682   9.257   3.353
12664WAT      O40093   5.222   9.460   3.496
12664WAT     H140094   5.137   9.431   3.529
12664WAT     H240095   5.206   9.485   3.405
12665WAT      O40096   4.932   9.610   3.706
12665WAT     H140097   4.964   9.527   3.672
12665WAT     H240098   5.011   9.663   3.721
12666WAT      O40099   4.605   9.014   2.311
12666WAT     H140100   4.543   9.013   2.384
12666WAT     H240101   4.597   8.927   2.272
12667WAT      O40102   4.497   9.106   3.009
12667WAT     H140103   4.527   9.197   3.001
12667WAT     H240104   4.552   9.057   2.948
12668WAT      O40105   4.273   9.564   2.596
12668WAT     H140106   4.250   9.542   2.686
12668WAT     H240107   4.195   9.607   2.561
12669WAT      O40108   4.996   9.565   2.456
12669WAT     H140109   4.936   9.637   2.437
12669WAT     H240110   5.051   9.558   2.378
12670WAT      O40111   4.517   9.654   3.663
12670WAT     H140112   4.507   9.560   3.648
12670WAT     H240113   4.601   9.676   3.623
12671WAT      O40114   4.856   9.428   2.659
12671WAT     H140115   4.896   9.460   2.578
12671WAT     H240116   4.893   9.340   2.670
12672WAT      O40117   4.030   9.295   3.478
12672WAT     H140118   3.991   9.380   3.499
12672WAT     H240119   3.961   9.231   3.497
12673WAT      O40120   4.687   9.303   3.785
12673WAT     H140121   4.618   9.284   3.848
12673WAT     H240122   4.762   9.332   3.838
12674WAT      O40123   3.760   9.087   2.881
12674WAT     H140124   3.731   9.144   2.952
12674WAT     H240125   3.835   9.039   2.917
12675WAT      O40126   3.779   9.481   2.002
12675WAT     H140127   3.771   9.576   2.016
12675WAT     H240128   3.744   9.467   1.914
12676WAT      O40129   4.915   9.687   3.068
12676WAT     H140130   4.842   9.738   3.103
12676WAT     H240131   4.875   9.606   3.038
12677WAT      O40132   4.559   9.355   2.909
12677WAT     H140133   4.559   9.311   2.824
12677WAT     H240134   4.648   9.387   2.920
12678WAT      O40135   4.144   9.343   2.805
12678WAT     H140136   4.110   9.391   2.881
12678WAT     H240137   4.068   9.298   2.769
12679WAT      O40138   4.565   9.455   2.208
12679WAT     H140139   4.577   9.451   2.303
12679WAT     H240140   4.526   9.541   2.192
12680WAT      O40141   4.961   9.233   3.010
12680WAT     H140142   4.963   9.278   3.094
12680WAT     H240143   4.936   9.143   3.031
12681WAT      O40144   4.466   9.686   2.148
12681WAT     H140145   4.409   9.641   2.085
12681WAT     H240146   4.537   9.722   2.094
12682WAT      O40147   5.304   8.974   3.593
12682WAT     H140148   5.336   8.901   3.646
12682WAT     H240149   5.308   8.942   3.503
12683WAT      O40150   4.589   9.761   3.084
12683WAT     H140151   4.626   9.713   3.158
12683WAT     H240152   4.570   9.848   3.118
12684WAT      O40153   3.875   9.235   2.697
12684WAT     H140154   3.847   9.199   2.780
12684WAT     H240155   3.869   9.162   2.635
12685WAT      O40156   4.368   9.665   3.315
12685WAT     H140157   4.337   9.753   3.338
12685WAT     H240158   4.463   9.671   3.319
12686WAT      O40159   4.221  10.086   2.375
12686WAT     H140160   4.143  10.032   2.359
12686WAT     H240161   4.294  10.034   2.341
12687WAT      O40162   5.297   9.985   2.954
12687WAT     H140163   5.369  10.035   2.915
12687WAT     H240164   5.276   9.917   2.890
12688WAT      O40165   4.843   9.125   2.369
12688WAT     H140166   4.761   9.075   2.361
12688WAT     H240167   4.823   9.209   2.327
12689WAT      O40168   4.835   9.992   3.543
12689WAT     H140169   4.828   9.900   3.518
12689WAT     H240170   4.772  10.002   3.614
12690WAT      O40171   5.114   9.562   2.198
12690WAT     H140172   5.203   9.593   2.181
12690WAT     H240173   5.111   9.475   2.159
12691WAT      O40174   4.225  10.052   2.739
12691WAT     H140175   4.277   9.972   2.733
12691WAT     H240176   4.180  10.046   2.823
12692WAT      O40177   3.973   9.749   3.430
12692WAT     H140178   3.938   9.816   3.489
12692WAT     H240179   3.944   9.666   3.467
12693WAT      O40180   4.294   9.795   3.719
12693WAT     H140181   4.264   9.809   3.629
12693WAT     H240182   4.371   9.739   3.709
12694WAT      O40183   5.341   9.693   2.145
12694WAT     H140184   5.333   9.736   2.060
12694WAT     H240185   5.413   9.739   2.188
12695WAT      O40186   5.449   9.939   3.453
12695WAT     H140187   5.376   9.998   3.433
12695WAT     H240188   5.502   9.938   3.373
12696WAT      O40189   3.825   9.749   2.092
12696WAT     H140190   3.911   9.777   2.121
12696WAT     H240191   3.775   9.830   2.081
12697WAT      O40192   4.541   9.888   2.505
12697WAT     H140193   4.587   9.969   2.527
12697WAT     H240194   4.506   9.856   2.588
12698WAT      O40195   4.131   8.922   2.552
12698WAT     H140196   4.118   8.921   2.647
12698WAT     H240197   4.049   8.956   2.517
12699WAT      O40198   3.831   9.098   3.498
12699WAT     H140199   3.760   9.118   3.558
12699WAT     H240200   3.873   9.020   3.535
12700WAT      O40201   4.023   9.931   2.305
12700WAT     H140202   3.962  10.005   2.306
12700WAT     H240203   4.071   9.940   2.223
12701WAT      O40204   4.980   9.347   3.273
12701WAT     H140205   5.017   9.265   3.306
12701WAT     H240206   4.894   9.353   3.314
12702WAT      O40207   5.317   9.243   2.354
12702WAT     H140208   5.254   9.253   2.282
12702WAT     H240209   5.267   9.265   2.433
12703WAT      O40210   4.514   9.471   2.495
12703WAT     H140211   4.443   9.517   2.539
12703WAT     H240212   4.542   9.405   2.559
12704WAT      O40213   4.676   9.613   3.295
12704WAT     H140214   4.726   9.660   3.362
12704WAT     H240215   4.691   9.520   3.316
12705WAT      O40216   4.917   9.143   2.639
12705WAT     H140217   4.905   9.145   2.544
12705WAT     H240218   5.012   9.148   2.651
12706WAT      O40219   4.334   9.301   2.233
12706WAT     H140220   4.419   9.345   2.226
12706WAT     H240221   4.297   9.333   2.316
12707WAT      O40222   5.397   9.234   3.380
12707WAT     H140223   5.347   9.308   3.413
12707WAT     H240224   5.479   9.273   3.348
12708WAT      O40225   5.226   9.759   2.724
12708WAT     H140226   5.132   9.760   2.742
12708WAT     H240227   5.258   9.680   2.769
12709WAT      O40228   4.224   9.927   2.080
12709WAT     H140229   4.301   9.916   2.136
12709WAT     H240230   4.232   9.857   2.015
12710WAT      O40231   4.094   9.670   2.149
12710WAT     H140232   4.102   9.575   2.160
12710WAT     H240233   4.183   9.703   2.159
12711WAT      O40234   3.846   9.852   3.672
12711WAT     H140235   3.897   9.794   3.729
12711WAT     H240236   3.772   9.881   3.726
12712WAT      O40237   4.552   9.993   3.625
12712WAT     H140238   4.475  10.050   3.617
12712WAT     H240239   4.570   9.964   3.536
12713WAT      O40240   4.861  10.031   2.088
12713WAT     H140241   4.806  10.075   2.152
12713WAT     H240242   4.923   9.980   2.140
12714WAT      O40243   4.049   9.666   3.762
12714WAT     H140244   4.054   9.637   3.852
12714WAT     H240245   4.135   9.707   3.746
12715WAT      O40246   4.427   9.926   2.278
12715WAT     H140247   4.469   9.910   2.362
12715WAT     H240248   4.440   9.845   2.228
12716WAT      O40249   4.244   9.524   3.558
12716WAT     H140250   4.190   9.475   3.496
12716WAT     H240251   4.310   9.567   3.505
12717WAT      O40252   4.679   9.829   2.002
12717WAT     H140253   4.731   9.757   1.966
12717WAT     H240254   4.743   9.893   2.032
12718WAT      O40255   5.133   9.971   3.535
12718WAT     H140256   5.175   9.987   3.620
12718WAT     H240257   5.040   9.984   3.551
12719WAT      O40258   5.181   9.705   3.735
12719WAT     H140259   5.239   9.630   3.726
12719WAT     H240260   5.198   9.758   3.657
12720WAT      O40261   4.292   9.221   3.566
12720WAT     H140262   4.283   9.159   3.494
12720WAT     H240263   4.234   9.294   3.544
12721WAT      O40264   4.569   9.077   3.270
12721WAT     H140265   4.524   9.079   3.185
12721WAT     H240266   4.506   9.037   3.329
12722WAT      O40267   4.609   9.966   3.332
12722WAT     H140268   4.651  10.051   3.314
12722WAT     H240269   4.518   9.980   3.309
12723WAT      O40270   4.843   9.739   3.470
12723WAT     H140271   4.855   9.680   3.544
12723WAT     H240272   4.929   9.743   3.428
12724WAT      O40273   5.077   9.795   3.328
12724WAT     H140274   5.024   9.847   3.267
12724WAT     H240275   5.111   9.858   3.391
12725WAT      O40276   4.317   9.534   1.972
12725WAT     H140277   4.297   9.447   2.008
12725WAT     H240278   4.300   9.525   1.878
12726WAT      O40279   4.520   9.394   3.596
12726WAT     H140280   4.579   9.363   3.665
12726WAT     H240281   4.438   9.346   3.611
12727WAT      O40282   5.002   9.355   3.619
12727WAT     H140283   4.933   9.289   3.613
12727WAT     H240284   5.074   9.311   3.664
12728WAT      O40285   5.065   9.015   2.225
12728WAT     H140286   5.093   8.931   2.261
12728WAT     H240287   4.987   9.038   2.276
12729WAT      O40288   4.197   9.244   1.971
12729WAT     H140289   4.227   9.244   1.880
12729WAT     H240290   4.271   9.209   2.021
12730WAT      O40291   4.519   9.138   2.070
12730WAT     H140292   4.484   9.070   2.012
12730WAT     H240293   4.539   9.092   2.151
12731WAT      O40294   5.503   9.939   2.286
12731WAT     H140295   5.579   9.996   2.297
12731WAT     H240296   5.504   9.882   2.363
12732WAT      O40297   3.853   9.791   2.709
12732WAT     H140298   3.787   9.764   2.645
12732WAT     H240299   3.936   9.780   2.664
12733WAT      O40300   5.508   9.968   2.002
12733WAT     H140301   5.535  10.059   1.989
12733WAT     H240302   5.489   9.962   2.095
12734WAT      O40303   5.147   9.270   2.131
12734WAT     H140304   5.189   9.252   2.047
12734WAT     H240305   5.117   9.185   2.162
12735WAT      O40306   5.497   9.762   2.501
12735WAT     H140307   5.460   9.685   2.458
12735WAT     H240308   5.424   9.800   2.550
12736WAT      O40309   3.956   9.830   3.163
12736WAT     H140310   3.993   9.821   3.251
12736WAT     H240311   3.899   9.753   3.153
12737WAT      O40312   5.436   9.676   3.465
12737WAT     H140313   5.413   9.653   3.374
12737WAT     H240314   5.462   9.768   3.460
12738WAT      O40315   3.911   9.521   3.554
12738WAT     H140316   3.822   9.517   3.588
12738WAT     H240317   3.965   9.540   3.630
12739WAT      O40318   5.280   9.199   3.742
12739WAT     H140319   5.368   9.200   3.781
12739WAT     H240320   5.281   9.125   3.681
12740WAT      O40321   3.774   9.512   2.303
12740WAT     H140322   3.684   9.538   2.286
12740WAT     H240323   3.822   9.539   2.225
12741WAT      O40324   5.425   9.584   2.831
12741WAT     H140325   5.477   9.535   2.768
12741WAT     H240326   5.483   9.598   2.906
12742WAT      O40327   5.443   9.593   3.183
12742WAT     H140328   5.348   9.589   3.195
12742WAT     H240329   5.461   9.684   3.160
12743WAT      O40330   4.028   9.418   2.094
12743WAT     H140331   4.099   9.375   2.046
12743WAT     H240332   3.957   9.424   2.031
12744WAT      O40333   3.993   9.023   1.998
12744WAT     H140334   4.065   9.077   2.030
12744WAT     H240335   4.020   8.996   1.911
12745WAT      O40336   5.374   9.510   2.425
12745WAT     H140337   5.423   9.487   2.504
12745WAT     H240338   5.354   9.426   2.383
12746WAT      O40339   3.962   8.948   2.989
12746WAT     H140340   4.027   8.893   2.945
12746WAT     H240341   4.004   8.974   3.071
12747WAT      O40342   5.517   9.374   2.678
12747WAT     H140343   5.506   9.358   2.772
12747WAT     H240344   5.593   9.321   2.654
12748WAT      O40345   5.351   8.967   3.324
12748WAT     H140346   5.415   9.029   3.361
12748WAT     H240347   5.366   8.971   3.230
12749WAT      O40348   5.606   9.157   2.003
12749WAT     H140349   5.698   9.143   1.982
12749WAT     H240350   5.603   9.165   2.098
12750WAT      O40351   5.613   9.234   2.265
12750WAT     H140352   5.534   9.227   2.318
12750WAT     H240353   5.633   9.327   2.264
12751WAT      O40354   3.937   8.964   3.263
12751WAT     H140355   3.902   9.009   3.339
12751WAT     H240356   3.904   8.874   3.271
12752WAT      O40357   4.688   9.083   3.615
12752WAT     H140358   4.682   9.142   3.690
12752WAT     H240359   4.782   9.072   3.601
12753WAT      O40360   4.952   9.048   3.579
12753WAT     H140361   5.014   9.080   3.513
12753WAT     H240362   5.007   9.000   3.641
12754WAT      O40363   4.004   8.916   3.590
12754WAT     H140364   4.059   8.898   3.514
12754WAT     H240365   4.011   8.837   3.644
12755WAT      O40366   5.026   8.905   3.212
12755WAT     H140367   4.939   8.938   3.191
12755WAT     H240368   5.015   8.858   3.294
12756WAT      O40369   5.117   9.125   3.350
12756WAT     H140370   5.084   9.044   3.312
12756WAT     H240371   5.212   9.121   3.338
12757WAT      O40372   4.801   8.996   3.106
12757WAT     H140373   4.723   9.044   3.134
12757WAT     H240374   4.772   8.906   3.095
12758WAT      O40375   5.256   9.067   2.910
12758WAT     H140376   5.300   9.061   2.825
12758WAT     H240377   5.229   9.158   2.917
12759WAT      O40378   5.443   9.030   2.711
12759WAT     H140379   5.437   8.935   2.697
12759WAT     H240380   5.521   9.041   2.766
12760WAT      O40381   3.935   9.027   2.358
12760WAT     H140382   4.011   9.038   2.300
12760WAT     H240383   3.889   9.111   2.353
12761WAT      O40384   4.590   9.238   2.657
12761WAT     H140385   4.508   9.201   2.623
12761WAT     H240386   4.640   9.163   2.687
12762WAT      O40387   5.040   8.905   2.781
12762WAT     H140388   5.100   8.962   2.828
12762WAT     H240389   4.966   8.961   2.758
12763WAT      O40390   5.354   8.945   2.308
12763WAT     H140391   5.374   9.035   2.335
12763WAT     H240392   5.275   8.922   2.357
12764WAT      O40393   4.173   9.080   2.212
12764WAT     H140394   4.226   9.001   2.199
12764WAT     H240395   4.236   9.147   2.235
12765WAT      O40396   4.392   9.053   2.517
12765WAT     H140397   4.329   8.983   2.534
12765WAT     H240398   4.338   9.129   2.496
12766WAT      O40399   4.405   8.981   3.761
12766WAT     H140400   4.376   9.032   3.684
12766WAT     H240401   4.443   8.901   3.724
12767WAT      O40402   5.065   8.923   3.819
12767WAT     H140403   5.053   8.955   3.908
12767WAT     H240404   5.146   8.963   3.789
12768WAT      O40405   4.955   9.725   0.855
12768WAT     H140406   4.947   9.633   0.828
12768WAT     H240407   4.914   9.774   0.784
12769WAT      O40408   4.769   9.902   1.043
12769WAT     H140409   4.691   9.854   1.072
12769WAT     H240410   4.834   9.834   1.026
12770WAT      O40411   4.170   9.934   1.131
12770WAT     H140412   4.087   9.908   1.171
12770WAT     H240413   4.231   9.941   1.204
12771WAT      O40414   4.011   9.430   0.509
12771WAT     H140415   3.922   9.464   0.499
12771WAT     H240416   4.040   9.410   0.420
12772WAT      O40417   3.807   9.690   1.098
12772WAT     H140418   3.865   9.613   1.098
12772WAT     H240419   3.807   9.720   1.007
12773WAT      O40420   3.932   9.231   1.276
12773WAT     H140421   3.914   9.141   1.304
12773WAT     H240422   3.892   9.285   1.344
12774WAT      O40423   4.816   9.451   1.066
12774WAT     H140424   4.853   9.363   1.055
12774WAT     H240425   4.806   9.484   0.977
12775WAT      O40426   4.229   9.288   0.613
12775WAT     H140427   4.239   9.378   0.643
12775WAT     H240428   4.138   9.283   0.584
12776WAT      O40429   5.194   9.200   0.760
12776WAT     H140430   5.276   9.151   0.764
12776WAT     H240431   5.197   9.259   0.835
12777WAT      O40432   3.994   9.480   1.137
12777WAT     H140433   4.062   9.507   1.199
12777WAT     H240434   3.962   9.396   1.170
12778WAT      O40435   4.413   9.585   1.046
12778WAT     H140436   4.464   9.635   1.110
12778WAT     H240437   4.466   9.507   1.028
12779WAT      O40438   5.623   9.402   1.416
12779WAT     H140439   5.552   9.441   1.364
12779WAT     H240440   5.650   9.471   1.476
12780WAT      O40441   4.241   9.049   1.472
12780WAT     H140442   4.241   9.101   1.392
12780WAT     H240443   4.158   9.001   1.470
12781WAT      O40444   4.366  10.013   1.290
12781WAT     H140445   4.333  10.075   1.354
12781WAT     H240446   4.384  10.065   1.212
12782WAT      O40447   5.218   9.394   1.037
12782WAT     H140448   5.147   9.423   1.095
12782WAT     H240449   5.254   9.475   1.001
12783WAT      O40450   4.209   9.220   1.273
12783WAT     H140451   4.243   9.304   1.244
12783WAT     H240452   4.115   9.235   1.285
12784WAT      O40453   5.524   9.339   1.076
12784WAT     H140454   5.430   9.342   1.089
12784WAT     H240455   5.557   9.420   1.115
12785WAT      O40456   4.578   8.969   0.906
12785WAT     H140457   4.608   8.913   0.834
12785WAT     H240458   4.485   8.982   0.887
12786WAT      O40459   5.073  10.031   1.267
12786WAT     H140460   5.114  10.009   1.184
12786WAT     H240461   5.145  10.056   1.325
12787WAT      O40462   4.816   9.775   0.579
12787WAT     H140463   4.724   9.769   0.602
12787WAT     H240464   4.832   9.869   0.568
12788WAT      O40465   4.815   9.402   0.279
12788WAT     H140466   4.721   9.419   0.287
12788WAT     H240467   4.847   9.474   0.224
12789WAT      O40468   5.467   9.871   1.277
12789WAT     H140469   5.384   9.878   1.229
12789WAT     H240470   5.527   9.929   1.230
12790WAT      O40471   5.219   9.931   0.630
12790WAT     H140472   5.158   9.898   0.565
12790WAT     H240473   5.218   9.867   0.700
12791WAT      O40474   5.164   9.549   1.371
12791WAT     H140475   5.122   9.632   1.397
12791WAT     H240476   5.090   9.491   1.352
12792WAT      O40477   4.377   9.828   0.857
12792WAT     H140478   4.337   9.757   0.808
12792WAT     H240479   4.386   9.793   0.946
12793WAT      O40480   4.248   9.505   1.235
12793WAT     H140481   4.303   9.516   1.158
12793WAT     H240482   4.300   9.543   1.307
12794WAT      O40483   5.037   9.855   0.330
12794WAT     H140484   5.081   9.772   0.316
12794WAT     H240485   5.108   9.919   0.339
12795WAT      O40486   4.216   9.857   1.596
12795WAT     H140487   4.202   9.945   1.633
12795WAT     H240488   4.128   9.823   1.582
12796WAT      O40489   4.047   9.717   0.607
12796WAT     H140490   4.035   9.790   0.546
12796WAT     H240491   4.016   9.640   0.560
12797WAT      O40492   3.811  10.034   1.188
12797WAT     H140493   3.819  10.048   1.094
12797WAT     H240494   3.872   9.964   1.207
12798WAT      O40495   5.516   9.454   1.759
12798WAT     H140496   5.455   9.505   1.707
12798WAT     H240497   5.484   9.364   1.754
12799WAT      O40498   4.294   9.052   0.946
12799WAT     H140499   4.249   9.130   0.913
12799WAT     H240500   4.350   9.084   1.016
12800WAT      O40501   4.722   9.338   1.506
12800WAT     H140502   4.676   9.359   1.587
12800WAT     H240503   4.682   9.257   1.476
12801WAT      O40504   5.222   9.460   1.619
12801WAT     H140505   5.137   9.431   1.651
12801WAT     H240506   5.206   9.485   1.528
12802WAT      O40507   4.932   9.610   1.829
12802WAT     H140508   4.964   9.527   1.795
12802WAT     H240509   5.011   9.663   1.844
12803WAT      O40510   4.605   9.014   0.434
12803WAT     H140511   4.543   9.013   0.506
12803WAT     H240512   4.597   8.927   0.394
12804WAT      O40513   4.497   9.106   1.132
12804WAT     H140514   4.527   9.197   1.124
12804WAT     H240515   4.552   9.057   1.070
12805WAT      O40516   4.273   9.564   0.719
12805WAT     H140517   4.250   9.542   0.809
12805WAT     H240518   4.195   9.607   0.684
12806WAT      O40519   4.996   9.565   0.578
12806WAT     H140520   4.936   9.637   0.560
12806WAT     H240521   5.051   9.558   0.500
12807WAT      O40522   4.517   9.654   1.785
12807WAT     H140523   4.507   9.560   1.770
12807WAT     H240524   4.601   9.676   1.746
12808WAT      O40525   4.856   9.428   0.781
12808WAT     H140526   4.896   9.460   0.700
12808WAT     H240527   4.893   9.340   0.793
12809WAT      O40528   4.030   9.295   1.600
12809WAT     H140529   3.991   9.380   1.621
12809WAT     H240530   3.961   9.231   1.620
12810WAT      O40531   4.687   9.303   1.907
12810WAT     H140532   4.618   9.284   1.971
12810WAT     H240533   4.762   9.332   1.961
12811WAT      O40534   3.760   9.087   1.004
12811WAT     H140535   3.731   9.144   1.075
12811WAT     H240536   3.835   9.039   1.040
12812WAT      O40537   4.915   9.687   1.191
12812WAT     H140538   4.842   9.738   1.226
12812WAT     H240539   4.875   9.606   1.161
12813WAT      O40540   4.559   9.355   1.031
12813WAT     H140541   4.559   9.311   0.947
12813WAT     H240542   4.648   9.387   1.042
12814WAT      O40543   4.144   9.343   0.927
12814WAT     H140544   4.110   9.391   1.003
12814WAT     H240545   4.068   9.298   0.891
12815WAT      O40546   4.565   9.455   0.331
12815WAT     H140547   4.577   9.451   0.425
12815WAT     H240548   4.526   9.541   0.315
12816WAT      O40549   4.961   9.233   1.132
12816WAT     H140550   4.963   9.278   1.217
12816WAT     H240551   4.936   9.143   1.154
12817WAT      O40552   4.466   9.686   0.270
12817WAT     H140553   4.409   9.641   0.208
12817WAT     H240554   4.537   9.722   0.217
12818WAT      O40555   5.304   8.974   1.716
12818WAT     H140556   5.336   8.901   1.769
12818WAT     H240557   5.308   8.942   1.626
12819WAT      O40558   4.589   9.761   1.206
12819WAT     H140559   4.626   9.713   1.281
12819WAT     H240560   4.570   9.848   1.240
12820WAT      O40561   3.875   9.235   0.819
12820WAT     H140562   3.847   9.199   0.903
12820WAT     H240563   3.869   9.162   0.758
12821WAT      O40564   4.368   9.665   1.438
12821WAT     H140565   4.337   9.753   1.460
12821WAT     H240566   4.463   9.671   1.442
12822WAT      O40567   4.221  10.086   0.498
12822WAT     H140568   4.143  10.032   0.482
12822WAT     H240569   4.294  10.034   0.464
12823WAT      O40570   5.297   9.985   1.077
12823WAT     H140571   5.369  10.035   1.038
12823WAT     H240572   5.276   9.917   1.012
12824WAT      O40573   4.843   9.125   0.491
12824WAT     H140574   4.761   9.075   0.484
12824WAT     H240575   4.823   9.209   0.450
12825WAT      O40576   4.835   9.992   1.666
12825WAT     H140577   4.828   9.900   1.640
12825WAT     H240578   4.772  10.002   1.737
12826WAT      O40579   5.114   9.562   0.321
12826WAT     H140580   5.203   9.593   0.303
12826WAT     H240581   5.111   9.475   0.282
12827WAT      O40582   4.225  10.052   0.861
12827WAT     H140583   4.277   9.972   0.856
12827WAT     H240584   4.180  10.046   0.946
12828WAT      O40585   3.973   9.749   1.553
12828WAT     H140586   3.938   9.816   1.611
12828WAT     H240587   3.944   9.666   1.590
12829WAT      O40588   4.294   9.795   1.841
12829WAT     H140589   4.264   9.809   1.751
12829WAT     H240590   4.371   9.739   1.832
12830WAT      O40591   5.341   9.693   0.268
12830WAT     H140592   5.333   9.736   0.183
12830WAT     H240593   5.413   9.739   0.311
12831WAT      O40594   5.449   9.939   1.575
12831WAT     H140595   5.376   9.998   1.556
12831WAT     H240596   5.502   9.938   1.495
12832WAT      O40597   3.825   9.749   0.215
12832WAT     H140598   3.911   9.777   0.243
12832WAT     H240599   3.775   9.830   0.204
12833WAT      O40600   4.541   9.888   0.627
12833WAT     H140601   4.587   9.969   0.650
12833WAT     H240602   4.506   9.856   0.710
12834WAT      O40603   4.131   8.922   0.674
12834WAT     H140604   4.118   8.921   0.769
12834WAT     H240605   4.049   8.956   0.639
12835WAT      O40606   3.831   9.098   1.620
12835WAT     H140607   3.760   9.118   1.681
12835WAT     H240608   3.873   9.020   1.658
12836WAT      O40609   4.023   9.931   0.428
12836WAT     H140610   3.962  10.005   0.429
12836WAT     H240611   4.071   9.940   0.345
12837WAT      O40612   4.980   9.347   1.395
12837WAT     H140613   5.017   9.265   1.428
12837WAT     H240614   4.894   9.353   1.437
12838WAT      O40615   5.317   9.243   0.476
12838WAT     H140616   5.254   9.253   0.405
12838WAT     H240617   5.267   9.265   0.555
12839WAT      O40618   4.514   9.471   0.618
12839WAT     H140619   4.443   9.517   0.662
12839WAT     H240620   4.542   9.405   0.681
12840WAT      O40621   4.676   9.613   1.418
12840WAT     H140622   4.726   9.660   1.484
12840WAT     H240623   4.691   9.520   1.439
12841WAT      O40624   4.917   9.143   0.762
12841WAT     H140625   4.905   9.145   0.667
12841WAT     H240626   5.012   9.148   0.774
12842WAT      O40627   4.334   9.301   0.355
12842WAT     H140628   4.419   9.345   0.349
12842WAT     H240629   4.297   9.333   0.438
12843WAT      O40630   5.397   9.234   1.502
12843WAT     H140631   5.347   9.308   1.536
12843WAT     H240632   5.479   9.273   1.470
12844WAT      O40633   5.226   9.759   0.847
12844WAT     H140634   5.132   9.760   0.864
12844WAT     H240635   5.258   9.680   0.891
12845WAT      O40636   4.094   9.670   0.271
12845WAT     H140637   4.102   9.575   0.282
12845WAT     H240638   4.183   9.703   0.282
12846WAT      O40639   3.846   9.852   1.795
12846WAT     H140640   3.897   9.794   1.852
12846WAT     H240641   3.772   9.881   1.848
12847WAT      O40642   4.552   9.993   1.748
12847WAT     H140643   4.475  10.050   1.740
12847WAT     H240644   4.570   9.964   1.659
12848WAT      O40645   4.861  10.031   0.211
12848WAT     H140646   4.806  10.075   0.275
12848WAT     H240647   4.923   9.980   0.263
12849WAT      O40648   4.049   9.666   1.884
12849WAT     H140649   4.054   9.637   1.975
12849WAT     H240650   4.135   9.707   1.868
12850WAT      O40651   4.427   9.926   0.400
12850WAT     H140652   4.469   9.910   0.484
12850WAT     H240653   4.440   9.845   0.351
12851WAT      O40654   4.244   9.524   1.681
12851WAT     H140655   4.190   9.475   1.618
12851WAT     H240656   4.310   9.567   1.627
12852WAT      O40657   5.133   9.971   1.657
12852WAT     H140658   5.175   9.987   1.742
12852WAT     H240659   5.040   9.984   1.674
12853WAT      O40660   5.181   9.705   1.858
12853WAT     H140661   5.239   9.630   1.849
12853WAT     H240662   5.198   9.758   1.780
12854WAT      O40663   4.292   9.221   1.689
12854WAT     H140664   4.283   9.159   1.616
12854WAT     H240665   4.234   9.294   1.666
12855WAT      O40666   4.569   9.077   1.392
12855WAT     H140667   4.524   9.079   1.308
12855WAT     H240668   4.506   9.037   1.452
12856WAT      O40669   4.609   9.966   1.454
12856WAT     H140670   4.651  10.051   1.437
12856WAT     H240671   4.518   9.980   1.431
12857WAT      O40672   4.843   9.739   1.593
12857WAT     H140673   4.855   9.680   1.667
12857WAT     H240674   4.929   9.743   1.551
12858WAT      O40675   5.077   9.795   1.450
12858WAT     H140676   5.024   9.847   1.390
12858WAT     H240677   5.111   9.858   1.513
12859WAT      O40678   4.520   9.394   1.718
12859WAT     H140679   4.579   9.363   1.787
12859WAT     H240680   4.438   9.346   1.734
12860WAT      O40681   5.002   9.355   1.742
12860WAT     H140682   4.933   9.289   1.735
12860WAT     H240683   5.074   9.311   1.786
12861WAT      O40684   5.065   9.015   0.348
12861WAT     H140685   5.093   8.931   0.383
12861WAT     H240686   4.987   9.038   0.399
12862WAT      O40687   5.503   9.939   0.409
12862WAT     H140688   5.579   9.996   0.419
12862WAT     H240689   5.504   9.882   0.486
12863WAT      O40690   3.853   9.791   0.832
12863WAT     H140691   3.787   9.764   0.767
12863WAT     H240692   3.936   9.780   0.787
12864WAT      O40693   5.147   9.270   0.254
12864WAT     H140694   5.189   9.252   0.170
12864WAT     H240695   5.117   9.185   0.285
12865WAT      O40696   5.497   9.762   0.624
12865WAT     H140697   5.460   9.685   0.580
12865WAT     H240698   5.424   9.800   0.672
12866WAT      O40699   3.956   9.830   1.286
12866WAT     H140700   3.993   9.821   1.374
12866WAT     H240701   3.899   9.753   1.276
12867WAT      O40702   5.436   9.676   1.587
12867WAT     H140703   5.413   9.653   1.497
12867WAT     H240704   5.462   9.768   1.583
12868WAT      O40705   3.911   9.521   1.676
12868WAT     H140706   3.822   9.517   1.710
12868WAT     H240707   3.965   9.540   1.753
12869WAT      O40708   5.280   9.199   1.865
12869WAT     H140709   5.368   9.200   1.903
12869WAT     H240710   5.281   9.125   1.804
12870WAT      O40711   3.774   9.512   0.426
12870WAT     H140712   3.684   9.538   0.409
12870WAT     H240713   3.822   9.539   0.348
12871WAT      O40714   5.425   9.584   0.954
12871WAT     H140715   5.477   9.535   0.891
12871WAT     H240716   5.483   9.598   1.028
12872WAT      O40717   5.443   9.593   1.306
12872WAT     H140718   5.348   9.589   1.317
12872WAT     H240719   5.461   9.684   1.282
12873WAT      O40720   5.374   9.510   0.548
12873WAT     H140721   5.423   9.487   0.626
12873WAT     H240722   5.354   9.426   0.506
12874WAT      O40723   3.962   8.948   1.111
12874WAT     H140724   4.027   8.893   1.067
12874WAT     H240725   4.004   8.974   1.193
12875WAT      O40726   5.517   9.374   0.801
12875WAT     H140727   5.506   9.358   0.895
12875WAT     H240728   5.593   9.321   0.777
12876WAT      O40729   5.351   8.967   1.447
12876WAT     H140730   5.415   9.029   1.483
12876WAT     H240731   5.366   8.971   1.352
12877WAT      O40732   5.613   9.234   0.388
12877WAT     H140733   5.534   9.227   0.441
12877WAT     H240734   5.633   9.327   0.387
12878WAT      O40735   3.937   8.964   1.385
12878WAT     H140736   3.902   9.009   1.462
12878WAT     H240737   3.904   8.874   1.394
12879WAT      O40738   4.688   9.083   1.738
12879WAT     H140739   4.682   9.142   1.813
12879WAT     H240740   4.782   9.072   1.723
12880WAT      O40741   4.952   9.048   1.702
12880WAT     H140742   5.014   9.080   1.635
12880WAT     H240743   5.007   9.000   1.764
12881WAT      O40744   4.004   8.916   1.713
12881WAT     H140745   4.059   8.898   1.637
12881WAT     H240746   4.011   8.837   1.767
12882WAT      O40747   5.026   8.905   1.334
12882WAT     H140748   4.939   8.938   1.314
12882WAT     H240749   5.015   8.858   1.417
12883WAT      O40750   5.117   9.125   1.473
12883WAT     H140751   5.084   9.044   1.435
12883WAT     H240752   5.212   9.121   1.460
12884WAT      O40753   4.801   8.996   1.228
12884WAT     H140754   4.723   9.044   1.256
12884WAT     H240755   4.772   8.906   1.217
12885WAT      O40756   5.256   9.067   1.033
12885WAT     H140757   5.300   9.061   0.948
12885WAT     H240758   5.229   9.158   1.040
12886WAT      O40759   5.443   9.030   0.834
12886WAT     H140760   5.437   8.935   0.819
12886WAT     H240761   5.521   9.041   0.888
12887WAT      O40762   3.935   9.027   0.480
12887WAT     H140763   4.011   9.038   0.423
12887WAT     H240764   3.889   9.111   0.476
12888WAT      O40765   4.590   9.238   0.779
12888WAT     H140766   4.508   9.201   0.745
12888WAT     H240767   4.640   9.163   0.810
12889WAT      O40768   5.040   8.905   0.903
12889WAT     H140769   5.100   8.962   0.951
12889WAT     H240770   4.966   8.961   0.881
12890WAT      O40771   5.354   8.945   0.431
12890WAT     H140772   5.374   9.035   0.457
12890WAT     H240773   5.275   8.922   0.480
12891WAT      O40774   4.173   9.080   0.334
12891WAT     H140775   4.226   9.001   0.321
12891WAT     H240776   4.236   9.147   0.358
12892WAT      O40777   4.392   9.053   0.640
12892WAT     H140778   4.329   8.983   0.656
12892WAT     H240779   4.338   9.129   0.618
12893WAT      O40780   4.405   8.981   1.883
12893WAT     H140781   4.376   9.032   1.807
12893WAT     H240782   4.443   8.901   1.847
12894WAT      O40783   5.065   8.923   1.941
12894WAT     H140784   5.053   8.955   2.031
12894WAT     H240785   5.146   8.963   1.911
12895WAT      O40786   4.955   7.847   6.487
12895WAT     H140787   4.947   7.756   6.460
12895WAT     H240788   4.914   7.897   6.417
12896WAT      O40789   4.769   8.025   6.675
12896WAT     H140790   4.691   7.977   6.704
12896WAT     H240791   4.834   7.957   6.658
12897WAT      O40792   4.170   8.056   6.763
12897WAT     H140793   4.087   8.031   6.803
12897WAT     H240794   4.231   8.063   6.837
12898WAT      O40795   5.171   8.466   6.553
12898WAT     H140796   5.124   8.388   6.586
12898WAT     H240797   5.252   8.468   6.604
12899WAT      O40798   4.168   8.460   6.783
12899WAT     H140799   4.198   8.371   6.765
12899WAT     H240800   4.243   8.515   6.760
12900WAT      O40801   4.011   7.552   6.141
12900WAT     H140802   3.922   7.586   6.131
12900WAT     H240803   4.040   7.532   6.052
12901WAT      O40804   3.807   7.812   6.730
12901WAT     H140805   3.865   7.735   6.730
12901WAT     H240806   3.807   7.842   6.639
12902WAT      O40807   4.793   8.694   6.515
12902WAT     H140808   4.731   8.740   6.458
12902WAT     H240809   4.879   8.710   6.475
12903WAT      O40810   4.713   8.293   6.676
12903WAT     H140811   4.706   8.198   6.660
12903WAT     H240812   4.789   8.302   6.733
12904WAT      O40813   3.932   7.353   6.909
12904WAT     H140814   3.914   7.263   6.937
12904WAT     H240815   3.892   7.408   6.976
12905WAT      O40816   4.816   7.573   6.699
12905WAT     H140817   4.853   7.486   6.687
12905WAT     H240818   4.806   7.607   6.610
12906WAT      O40819   4.229   7.411   6.245
12906WAT     H140820   4.239   7.501   6.276
12906WAT     H240821   4.138   7.406   6.216
12907WAT      O40822   5.194   7.323   6.392
12907WAT     H140823   5.276   7.274   6.396
12907WAT     H240824   5.197   7.382   6.467
12908WAT      O40825   3.994   7.603   6.769
12908WAT     H140826   4.062   7.629   6.831
12908WAT     H240827   3.962   7.519   6.803
12909WAT      O40828   4.413   7.707   6.678
12909WAT     H140829   4.464   7.757   6.742
12909WAT     H240830   4.466   7.630   6.661
12910WAT      O40831   5.623   7.524   7.048
12910WAT     H140832   5.552   7.563   6.997
12910WAT     H240833   5.650   7.594   7.109
12911WAT      O40834   4.241   7.171   7.105
12911WAT     H140835   4.241   7.223   7.024
12911WAT     H240836   4.158   7.124   7.102
12912WAT      O40837   4.880   8.183   6.255
12912WAT     H140838   4.818   8.229   6.198
12912WAT     H240839   4.931   8.252   6.296
12913WAT      O40840   4.366   8.135   6.922
12913WAT     H140841   4.333   8.198   6.987
12913WAT     H240842   4.384   8.188   6.845
12914WAT      O40843   5.218   7.517   6.669
12914WAT     H140844   5.147   7.546   6.727
12914WAT     H240845   5.254   7.598   6.633
12915WAT      O40846   4.209   7.342   6.905
12915WAT     H140847   4.243   7.427   6.876
12915WAT     H240848   4.115   7.357   6.917
12916WAT      O40849   4.287   8.332   7.104
12916WAT     H140850   4.349   8.400   7.076
12916WAT     H240851   4.201   8.373   7.095
12917WAT      O40852   3.817   8.251   5.992
12917WAT     H140853   3.779   8.300   5.919
12917WAT     H240854   3.842   8.318   6.055
12918WAT      O40855   5.379   8.479   6.896
12918WAT     H140856   5.311   8.546   6.895
12918WAT     H240857   5.433   8.498   6.819
12919WAT      O40858   5.524   7.461   6.708
12919WAT     H140859   5.430   7.465   6.721
12919WAT     H240860   5.557   7.543   6.747
12920WAT      O40861   4.578   7.091   6.538
12920WAT     H140862   4.608   7.036   6.466
12920WAT     H240863   4.485   7.105   6.520
12921WAT      O40864   5.133   8.663   6.767
12921WAT     H140865   5.134   8.623   6.680
12921WAT     H240866   5.078   8.740   6.757
12922WAT      O40867   5.262   8.335   6.276
12922WAT     H140868   5.251   8.241   6.288
12922WAT     H240869   5.262   8.371   6.365
12923WAT      O40870   5.073   8.153   6.900
12923WAT     H140871   5.114   8.132   6.816
12923WAT     H240872   5.145   8.179   6.957
12924WAT      O40873   4.816   7.898   6.212
12924WAT     H140874   4.724   7.891   6.234
12924WAT     H240875   4.832   7.992   6.200
12925WAT      O40876   4.815   7.525   5.911
12925WAT     H140877   4.721   7.541   5.920
12925WAT     H240878   4.847   7.597   5.857
12926WAT      O40879   5.467   7.993   6.909
12926WAT     H140880   5.384   8.000   6.861
12926WAT     H240881   5.527   8.052   6.862
12927WAT      O40882   5.219   8.054   6.262
12927WAT     H140883   5.158   8.020   6.197
12927WAT     H240884   5.218   7.990   6.333
12928WAT      O40885   5.164   7.672   7.004
12928WAT     H140886   5.122   7.754   7.029
12928WAT     H240887   5.090   7.613   6.984
12929WAT      O40888   4.377   7.950   6.490
12929WAT     H140889   4.337   7.879   6.440
12929WAT     H240890   4.386   7.916   6.579
12930WAT      O40891   4.424   8.319   6.706
12930WAT     H140892   4.394   8.259   6.638
12930WAT     H240893   4.519   8.323   6.695
12931WAT      O40894   4.248   7.628   6.868
12931WAT     H140895   4.303   7.639   6.790
12931WAT     H240896   4.300   7.665   6.939
12932WAT      O40897   5.233   8.676   7.072
12932WAT     H140898   5.185   8.757   7.053
12932WAT     H240899   5.164   8.611   7.088
12933WAT      O40900   4.333   8.293   7.371
12933WAT     H140901   4.243   8.315   7.396
12933WAT     H240902   4.336   8.305   7.276
12934WAT      O40903   5.037   7.978   5.963
12934WAT     H140904   5.081   7.894   5.948
12934WAT     H240905   5.108   8.041   5.971
12935WAT      O40906   4.216   7.980   7.229
12935WAT     H140907   4.202   8.067   7.266
12935WAT     H240908   4.128   7.946   7.214
12936WAT      O40909   4.848   8.472   6.359
12936WAT     H140910   4.892   8.546   6.318
12936WAT     H240911   4.842   8.496   6.452
12937WAT      O40912   4.395   8.574   7.450
12937WAT     H140913   4.393   8.615   7.363
12937WAT     H240914   4.379   8.481   7.433
12938WAT      O40915   5.395   7.103   5.794
12938WAT     H140916   5.364   7.113   5.884
12938WAT     H240917   5.471   7.161   5.789
12939WAT      O40918   4.047   7.840   6.240
12939WAT     H140919   4.035   7.913   6.179
12939WAT     H240920   4.016   7.763   6.192
12940WAT      O40921   3.811   8.157   6.820
12940WAT     H140922   3.819   8.171   6.726
12940WAT     H240923   3.872   8.086   6.840
12941WAT      O40924   3.935   8.327   6.462
12941WAT     H140925   3.895   8.341   6.376
12941WAT     H240926   4.024   8.299   6.441
12942WAT      O40927   5.531   8.372   7.295
12942WAT     H140928   5.544   8.348   7.203
12942WAT     H240929   5.535   8.289   7.342
12943WAT      O40930   4.917   8.742   7.152
12943WAT     H140931   4.969   8.733   7.232
12943WAT     H240932   4.833   8.777   7.181
12944WAT      O40933   5.115   8.771   6.095
12944WAT     H140934   5.099   8.742   6.185
12944WAT     H240935   5.098   8.693   6.041
12945WAT      O40936   4.363   8.748   6.273
12945WAT     H140937   4.345   8.657   6.251
12945WAT     H240938   4.277   8.784   6.297
12946WAT      O40939   5.085   8.521   5.951
12946WAT     H140940   5.016   8.521   5.885
12946WAT     H240941   5.159   8.479   5.908
12947WAT      O40942   5.041   8.684   6.358
12947WAT     H140943   5.087   8.606   6.390
12947WAT     H240944   5.075   8.755   6.413
12948WAT      O40945   5.516   7.577   7.392
12948WAT     H140946   5.455   7.628   7.339
12948WAT     H240947   5.484   7.487   7.386
12949WAT      O40948   3.816   8.261   7.074
12949WAT     H140949   3.833   8.214   6.993
12949WAT     H240950   3.863   8.210   7.141
12950WAT      O40951   4.294   7.174   6.578
12950WAT     H140952   4.249   7.252   6.545
12950WAT     H240953   4.350   7.207   6.649
12951WAT      O40954   4.722   7.461   7.138
12951WAT     H140955   4.676   7.482   7.220
12951WAT     H240956   4.682   7.380   7.108
12952WAT      O40957   5.222   7.583   7.251
12952WAT     H140958   5.137   7.553   7.283
12952WAT     H240959   5.206   7.607   7.160
12953WAT      O40960   4.932   7.733   7.461
12953WAT     H140961   4.964   7.650   7.427
12953WAT     H240962   5.011   7.785   7.476
12954WAT      O40963   4.605   7.136   6.066
12954WAT     H140964   4.543   7.136   6.139
12954WAT     H240965   4.597   7.050   6.026
12955WAT      O40966   4.497   7.229   6.764
12955WAT     H140967   4.527   7.319   6.756
12955WAT     H240968   4.552   7.180   6.702
12956WAT      O40969   4.273   7.687   6.351
12956WAT     H140970   4.250   7.665   6.441
12956WAT     H240971   4.195   7.730   6.316
12957WAT      O40972   4.996   7.687   6.211
12957WAT     H140973   4.936   7.760   6.192
12957WAT     H240974   5.051   7.681   6.132
12958WAT      O40975   4.517   7.776   7.417
12958WAT     H140976   4.507   7.682   7.402
12958WAT     H240977   4.601   7.799   7.378
12959WAT      O40978   4.856   7.551   6.414
12959WAT     H140979   4.896   7.583   6.332
12959WAT     H240980   4.893   7.463   6.425
12960WAT      O40981   4.030   7.418   7.233
12960WAT     H140982   3.991   7.502   7.253
12960WAT     H240983   3.961   7.354   7.252
12961WAT      O40984   3.760   7.210   6.636
12961WAT     H140985   3.731   7.267   6.707
12961WAT     H240986   3.835   7.162   6.672
12962WAT      O40987   3.779   7.604   5.757
12962WAT     H140988   3.771   7.698   5.771
12962WAT     H240989   3.744   7.590   5.669
12963WAT      O40990   4.915   7.810   6.823
12963WAT     H140991   4.842   7.861   6.858
12963WAT     H240992   4.875   7.728   6.793
12964WAT      O40993   4.559   7.477   6.664
12964WAT     H140994   4.559   7.433   6.579
12964WAT     H240995   4.648   7.510   6.675
12965WAT      O40996   4.144   7.466   6.560
12965WAT     H140997   4.110   7.513   6.635
12965WAT     H240998   4.068   7.420   6.524
12966WAT      O40999   4.565   7.578   5.963
12966WAT     H141000   4.577   7.573   6.058
12966WAT     H241001   4.526   7.664   5.947
12967WAT      O41002   4.961   7.355   6.764
12967WAT     H141003   4.963   7.400   6.849
12967WAT     H241004   4.936   7.265   6.786
12968WAT      O41005   4.466   7.809   5.903
12968WAT     H141006   4.409   7.764   5.840
12968WAT     H241007   4.537   7.844   5.849
12969WAT      O41008   5.304   7.097   7.348
12969WAT     H141009   5.336   7.023   7.401
12969WAT     H241010   5.308   7.065   7.258
12970WAT      O41011   3.974   8.199   7.290
12970WAT     H141012   3.935   8.135   7.350
12970WAT     H241013   4.005   8.269   7.347
12971WAT      O41014   4.589   7.883   6.838
12971WAT     H141015   4.626   7.836   6.913
12971WAT     H241016   4.570   7.971   6.873
12972WAT      O41017   3.875   7.358   6.451
12972WAT     H141018   3.847   7.321   6.535
12972WAT     H241019   3.869   7.285   6.390
12973WAT      O41020   4.368   7.788   7.070
12973WAT     H141021   4.337   7.875   7.093
12973WAT     H241022   4.463   7.794   7.074
12974WAT      O41023   4.221   8.208   6.130
12974WAT     H141024   4.143   8.154   6.114
12974WAT     H241025   4.294   8.156   6.096
12975WAT      O41026   5.297   8.108   6.709
12975WAT     H141027   5.369   8.157   6.670
12975WAT     H241028   5.276   8.040   6.645
12976WAT      O41029   4.843   7.247   6.124
12976WAT     H141030   4.761   7.197   6.116
12976WAT     H241031   4.823   7.331   6.082
12977WAT      O41032   4.835   8.115   7.298
12977WAT     H141033   4.828   8.023   7.272
12977WAT     H241034   4.772   8.125   7.369
12978WAT      O41035   5.114   7.684   5.953
12978WAT     H141036   5.203   7.716   5.936
12978WAT     H241037   5.111   7.597   5.914
12979WAT      O41038   4.225   8.175   6.494
12979WAT     H141039   4.277   8.095   6.488
12979WAT     H241040   4.180   8.169   6.578
12980WAT      O41041   4.714   8.302   6.021
12980WAT     H141042   4.748   8.376   5.971
12980WAT     H241043   4.631   8.333   6.057
12981WAT      O41044   3.973   7.872   7.185
12981WAT     H141045   3.938   7.938   7.244
12981WAT     H241046   3.944   7.788   7.222
12982WAT      O41047   4.294   7.917   7.473
12982WAT     H141048   4.264   7.932   7.384
12982WAT     H241049   4.371   7.861   7.464
12983WAT      O41050   4.828   8.397   7.273
12983WAT     H141051   4.829   8.304   7.251
12983WAT     H241052   4.757   8.406   7.337
12984WAT      O41053   5.341   7.816   5.900
12984WAT     H141054   5.333   7.859   5.815
12984WAT     H241055   5.413   7.861   5.943
12985WAT      O41056   5.449   8.061   7.208
12985WAT     H141057   5.376   8.120   7.188
12985WAT     H241058   5.502   8.060   7.128
12986WAT      O41059   5.444   8.501   6.173
12986WAT     H141060   5.380   8.435   6.200
12986WAT     H241061   5.405   8.541   6.095
12987WAT      O41062   5.002   8.234   6.557
12987WAT     H141063   5.037   8.174   6.491
12987WAT     H241064   4.914   8.201   6.575
12988WAT      O41065   4.611   8.310   6.298
12988WAT     H141066   4.679   8.364   6.336
12988WAT     H241067   4.532   8.364   6.302
12989WAT      O41068   3.825   7.871   5.847
12989WAT     H141069   3.911   7.900   5.876
12989WAT     H241070   3.775   7.953   5.836
12990WAT      O41071   4.541   8.010   6.259
12990WAT     H141072   4.587   8.091   6.282
12990WAT     H241073   4.506   7.978   6.343
12991WAT      O41074   4.771   8.561   6.982
12991WAT     H141075   4.836   8.582   7.050
12991WAT     H241076   4.808   8.485   6.937
12992WAT      O41077   4.131   7.045   6.307
12992WAT     H141078   4.118   7.044   6.402
12992WAT     H241079   4.049   7.078   6.272
12993WAT      O41080   4.899   8.362   6.854
12993WAT     H141081   4.963   8.292   6.865
12993WAT     H241082   4.951   8.440   6.836
12994WAT      O41083   5.283   8.390   5.827
12994WAT     H141084   5.260   8.318   5.886
12994WAT     H241085   5.244   8.365   5.743
12995WAT      O41086   5.076   8.442   7.174
12995WAT     H141087   5.109   8.500   7.242
12995WAT     H241088   4.984   8.428   7.197
12996WAT      O41089   3.861   8.793   5.904
12996WAT     H141090   3.897   8.853   5.839
12996WAT     H241091   3.847   8.847   5.981
12997WAT      O41092   3.831   7.221   7.253
12997WAT     H141093   3.760   7.240   7.313
12997WAT     H241094   3.873   7.143   7.290
12998WAT      O41095   5.241   8.182   5.993
12998WAT     H141096   5.212   8.228   6.071
12998WAT     H241097   5.321   8.136   6.019
12999WAT      O41098   3.860   8.619   7.351
12999WAT     H141099   3.871   8.525   7.337
12999WAT     H241100   3.794   8.646   7.287
13000WAT      O41101   4.463   8.531   5.986
13000WAT     H141102   4.462   8.604   5.924
13000WAT     H241103   4.371   8.506   5.995
13001WAT      O41104   4.023   8.053   6.060
13001WAT     H141105   3.962   8.127   6.061
13001WAT     H241106   4.071   8.062   5.978
13002WAT      O41107   4.980   7.470   7.028
13002WAT     H141108   5.017   7.388   7.061
13002WAT     H241109   4.894   7.476   7.069
13003WAT      O41110   5.317   7.365   6.109
13003WAT     H141111   5.254   7.376   6.037
13003WAT     H241112   5.267   7.387   6.188
13004WAT      O41113   4.762   8.537   5.852
13004WAT     H141114   4.772   8.517   5.759
13004WAT     H241115   4.672   8.512   5.872
13005WAT      O41116   4.514   7.593   6.250
13005WAT     H141117   4.443   7.640   6.294
13005WAT     H241118   4.542   7.527   6.314
13006WAT      O41119   4.676   7.735   7.050
13006WAT     H141120   4.726   7.783   7.117
13006WAT     H241121   4.691   7.643   7.071
13007WAT      O41122   4.917   7.266   6.394
13007WAT     H141123   4.905   7.268   6.299
13007WAT     H241124   5.012   7.270   6.406
13008WAT      O41125   4.626   8.789   6.321
13008WAT     H141126   4.651   8.785   6.229
13008WAT     H241127   4.531   8.777   6.321
13009WAT      O41128   4.334   7.424   5.988
13009WAT     H141129   4.419   7.468   5.981
13009WAT     H241130   4.297   7.455   6.070
13010WAT      O41131   5.397   7.357   7.134
13010WAT     H141132   5.347   7.431   7.168
13010WAT     H241133   5.479   7.396   7.103
13011WAT      O41134   5.226   7.881   6.479
13011WAT     H141135   5.132   7.883   6.496
13011WAT     H241136   5.258   7.802   6.524
13012WAT      O41137   4.224   8.049   5.835
13012WAT     H141138   4.301   8.038   5.891
13012WAT     H241139   4.232   7.980   5.770
13013WAT      O41140   4.094   7.793   5.903
13013WAT     H141141   4.102   7.698   5.915
13013WAT     H241142   4.183   7.826   5.914
13014WAT      O41143   5.427   8.598   6.647
13014WAT     H141144   5.439   8.681   6.694
13014WAT     H241145   5.513   8.577   6.612
13015WAT      O41146   4.174   8.808   6.614
13015WAT     H141147   4.247   8.753   6.641
13015WAT     H241148   4.212   8.894   6.600
13016WAT      O41149   3.862   8.414   6.201
13016WAT     H141150   3.770   8.438   6.200
13016WAT     H241151   3.909   8.497   6.189
13017WAT      O41152   4.485   8.725   5.796
13017WAT     H141153   4.564   8.754   5.751
13017WAT     H241154   4.433   8.682   5.728
13018WAT      O41155   5.101   8.710   7.388
13018WAT     H141156   5.196   8.701   7.383
13018WAT     H241157   5.086   8.776   7.456
13019WAT      O41158   5.390   8.648   5.938
13019WAT     H141159   5.361   8.606   5.857
13019WAT     H241160   5.370   8.740   5.926
13020WAT      O41161   3.846   7.975   7.427
13020WAT     H141162   3.897   7.917   7.484
13020WAT     H241163   3.772   8.003   7.481
13021WAT      O41164   4.536   8.247   5.782
13021WAT     H141165   4.526   8.185   5.855
13021WAT     H241166   4.520   8.195   5.704
13022WAT      O41167   4.552   8.115   7.380
13022WAT     H141168   4.475   8.172   7.372
13022WAT     H241169   4.570   8.086   7.291
13023WAT      O41170   4.861   8.153   5.843
13023WAT     H141171   4.806   8.198   5.907
13023WAT     H241172   4.923   8.103   5.895
13024WAT      O41173   5.266   8.288   7.436
13024WAT     H141174   5.340   8.322   7.386
13024WAT     H241175   5.190   8.305   7.381
13025WAT      O41176   4.427   8.049   6.032
13025WAT     H141177   4.469   8.032   6.117
13025WAT     H241178   4.440   7.968   5.983
13026WAT      O41179   4.244   7.647   7.313
13026WAT     H141180   4.190   7.598   7.250
13026WAT     H241181   4.310   7.690   7.260
13027WAT      O41182   4.679   7.951   5.757
13027WAT     H141183   4.731   7.880   5.721
13027WAT     H241184   4.743   8.015   5.787
13028WAT      O41185   5.133   8.094   7.290
13028WAT     H141186   5.175   8.109   7.375
13028WAT     H241187   5.040   8.106   7.306
13029WAT      O41188   5.181   7.828   7.490
13029WAT     H141189   5.239   7.752   7.481
13029WAT     H241190   5.198   7.881   7.412
13030WAT      O41191   4.292   7.344   7.321
13030WAT     H141192   4.283   7.282   7.249
13030WAT     H241193   4.234   7.416   7.298
13031WAT      O41194   4.569   7.199   7.024
13031WAT     H141195   4.524   7.202   6.940
13031WAT     H241196   4.506   7.159   7.084
13032WAT      O41197   4.609   8.089   7.087
13032WAT     H141198   4.651   8.173   7.069
13032WAT     H241199   4.518   8.103   7.064
13033WAT      O41200   4.843   7.862   7.225
13033WAT     H141201   4.855   7.802   7.299
13033WAT     H241202   4.929   7.866   7.183
13034WAT      O41203   5.077   7.917   7.083
13034WAT     H141204   5.024   7.970   7.022
13034WAT     H241205   5.111   7.981   7.146
13035WAT      O41206   4.317   7.656   5.727
13035WAT     H141207   4.297   7.570   5.763
13035WAT     H241208   4.300   7.648   5.633
13036WAT      O41209   4.395   8.719   7.198
13036WAT     H141210   4.341   8.792   7.166
13036WAT     H241211   4.420   8.672   7.119
13037WAT      O41212   4.520   7.516   7.351
13037WAT     H141213   4.579   7.485   7.419
13037WAT     H241214   4.438   7.469   7.366
13038WAT      O41215   5.002   7.478   7.374
13038WAT     H141216   4.933   7.412   7.368
13038WAT     H241217   5.074   7.433   7.419
13039WAT      O41218   5.065   7.137   5.980
13039WAT     H141219   5.093   7.053   6.016
13039WAT     H241220   4.987   7.161   6.031
13040WAT      O41221   4.197   7.366   5.726
13040WAT     H141222   4.227   7.367   5.635
13040WAT     H241223   4.271   7.331   5.776
13041WAT      O41224   4.680   8.843   7.224
13041WAT     H141225   4.673   8.933   7.255
13041WAT     H241226   4.590   8.811   7.221
13042WAT      O41227   4.519   7.261   5.824
13042WAT     H141228   4.484   7.193   5.766
13042WAT     H241229   4.539   7.215   5.906
13043WAT      O41230   4.735   8.759   5.986
13043WAT     H141231   4.825   8.793   5.988
13043WAT     H241232   4.738   8.687   5.924
13044WAT      O41233   4.099   8.297   5.809
13044WAT     H141234   4.143   8.351   5.875
13044WAT     H241235   4.147   8.214   5.810
13045WAT      O41236   3.820   8.576   6.554
13045WAT     H141237   3.853   8.489   6.531
13045WAT     H241238   3.863   8.596   6.637
13046WAT      O41239   4.280   8.409   6.320
13046WAT     H141240   4.250   8.396   6.410
13046WAT     H241241   4.269   8.323   6.280
13047WAT      O41242   3.869   8.662   6.828
13047WAT     H141243   3.826   8.680   6.911
13047WAT     H241244   3.926   8.738   6.814
13048WAT      O41245   5.433   8.613   7.257
13048WAT     H141246   5.373   8.618   7.183
13048WAT     H241247   5.446   8.519   7.270
13049WAT      O41248   5.557   8.387   5.791
13049WAT     H141249   5.474   8.393   5.838
13049WAT     H241250   5.575   8.476   5.760
13050WAT      O41251   5.503   8.061   6.041
13050WAT     H141252   5.579   8.118   6.052
13050WAT     H241253   5.504   8.004   6.118
13051WAT      O41254   3.853   7.914   6.464
13051WAT     H141255   3.787   7.887   6.400
13051WAT     H241256   3.936   7.903   6.419
13052WAT      O41257   5.603   8.147   6.525
13052WAT     H141258   5.640   8.068   6.485
13052WAT     H241259   5.667   8.216   6.508
13053WAT      O41260   5.301   8.285   7.067
13053WAT     H141261   5.220   8.328   7.093
13053WAT     H241262   5.342   8.346   7.005
13054WAT      O41263   5.508   8.091   5.757
13054WAT     H141264   5.535   8.181   5.744
13054WAT     H241265   5.489   8.084   5.850
13055WAT      O41266   5.147   7.393   5.886
13055WAT     H141267   5.189   7.374   5.802
13055WAT     H241268   5.117   7.308   5.917
13056WAT      O41269   5.497   7.884   6.256
13056WAT     H141270   5.460   7.807   6.213
13056WAT     H241271   5.424   7.922   6.305
13057WAT      O41272   3.956   7.952   6.918
13057WAT     H141273   3.993   7.943   7.006
13057WAT     H241274   3.899   7.876   6.908
13058WAT      O41275   5.436   7.799   7.219
13058WAT     H141276   5.413   7.776   7.129
13058WAT     H241277   5.462   7.891   7.215
13059WAT      O41278   3.911   7.643   7.309
13059WAT     H141279   3.822   7.640   7.343
13059WAT     H241280   3.965   7.663   7.385
13060WAT      O41281   3.774   7.635   6.058
13060WAT     H141282   3.684   7.661   6.041
13060WAT     H241283   3.822   7.662   5.980
13061WAT      O41284   5.425   7.707   6.586
13061WAT     H141285   5.477   7.657   6.523
13061WAT     H241286   5.483   7.720   6.661
13062WAT      O41287   5.443   7.715   6.938
13062WAT     H141288   5.348   7.712   6.950
13062WAT     H241289   5.461   7.806   6.915
13063WAT      O41290   4.028   7.540   5.849
13063WAT     H141291   4.099   7.498   5.801
13063WAT     H241292   3.957   7.547   5.786
13064WAT      O41293   3.993   7.146   5.753
13064WAT     H141294   4.065   7.200   5.785
13064WAT     H241295   4.020   7.118   5.666
13065WAT      O41296   5.374   7.633   6.180
13065WAT     H141297   5.423   7.609   6.258
13065WAT     H241298   5.354   7.549   6.138
13066WAT      O41299   3.962   7.071   6.743
13066WAT     H141300   4.027   7.016   6.699
13066WAT     H241301   4.004   7.096   6.826
13067WAT      O41302   5.517   7.496   6.433
13067WAT     H141303   5.506   7.481   6.527
13067WAT     H241304   5.593   7.443   6.409
13068WAT      O41305   5.351   7.090   7.079
13068WAT     H141306   5.415   7.151   7.116
13068WAT     H241307   5.366   7.094   6.985
13069WAT      O41308   5.606   7.279   5.757
13069WAT     H141309   5.698   7.266   5.737
13069WAT     H241310   5.603   7.287   5.853
13070WAT      O41311   5.613   7.356   6.020
13070WAT     H141312   5.534   7.350   6.073
13070WAT     H241313   5.633   7.450   6.019
13071WAT      O41314   5.307   8.760   6.419
13071WAT     H141315   5.367   8.728   6.352
13071WAT     H241316   5.333   8.713   6.499
13072WAT      O41317   3.937   7.086   7.018
13072WAT     H141318   3.902   7.132   7.094
13072WAT     H241319   3.904   6.997   7.026
13073WAT      O41320   4.468   8.559   6.994
13073WAT     H141321   4.444   8.586   6.906
13073WAT     H241322   4.562   8.576   7.000
13074WAT      O41323   4.688   7.205   7.370
13074WAT     H141324   4.682   7.265   7.445
13074WAT     H241325   4.782   7.195   7.355
13075WAT      O41326   4.952   7.171   7.334
13075WAT     H141327   5.014   7.203   7.268
13075WAT     H241328   5.007   7.123   7.396
13076WAT      O41329   5.594   8.761   7.074
13076WAT     H141330   5.545   8.801   7.003
13076WAT     H241331   5.533   8.698   7.114
13077WAT      O41332   4.004   7.039   7.345
13077WAT     H141333   4.059   7.021   7.269
13077WAT     H241334   4.011   6.960   7.399
13078WAT      O41335   4.082   8.698   7.146
13078WAT     H141336   4.022   8.685   7.220
13078WAT     H241337   4.081   8.614   7.100
13079WAT      O41338   5.026   7.027   6.967
13079WAT     H141339   4.939   7.061   6.946
13079WAT     H241340   5.015   6.980   7.049
13080WAT      O41341   5.117   7.248   7.105
13080WAT     H141342   5.084   7.167   7.067
13080WAT     H241343   5.212   7.244   7.093
13081WAT      O41344   5.362   8.825   6.802
13081WAT     H141345   5.316   8.900   6.765
13081WAT     H241346   5.299   8.753   6.796
13082WAT      O41347   4.045   8.435   7.041
13082WAT     H141348   3.972   8.373   7.035
13082WAT     H241349   4.051   8.474   6.954
13083WAT      O41350   4.405   8.656   6.720
13083WAT     H141351   4.457   8.595   6.667
13083WAT     H241352   4.470   8.706   6.769
13084WAT      O41353   4.679   8.745   6.803
13084WAT     H141354   4.708   8.720   6.715
13084WAT     H241355   4.730   8.690   6.862
13085WAT      O41356   4.801   7.119   6.860
13085WAT     H141357   4.723   7.166   6.888
13085WAT     H241358   4.772   7.029   6.850
13086WAT      O41359   5.256   7.189   6.665
13086WAT     H141360   5.300   7.184   6.580
13086WAT     H241361   5.229   7.281   6.672
13087WAT      O41362   5.443   7.152   6.466
13087WAT     H141363   5.437   7.058   6.451
13087WAT     H241364   5.521   7.163   6.521
13088WAT      O41365   3.873   8.766   6.362
13088WAT     H141366   3.856   8.703   6.432
13088WAT     H241367   3.787   8.787   6.327
13089WAT      O41368   3.935   7.150   6.113
13089WAT     H141369   4.011   7.161   6.055
13089WAT     H241370   3.889   7.233   6.108
13090WAT      O41371   4.590   7.361   6.412
13090WAT     H141372   4.508   7.323   6.378
13090WAT     H241373   4.640   7.285   6.442
13091WAT      O41374   5.040   7.027   6.535
13091WAT     H141375   5.100   7.085   6.583
13091WAT     H241376   4.966   7.084   6.513
13092WAT      O41377   5.354   7.068   6.063
13092WAT     H141378   5.374   7.157   6.090
13092WAT     H241379   5.275   7.044   6.112
13093WAT      O41380   4.034   8.636   6.107
13093WAT     H141381   3.981   8.674   6.036
13093WAT     H241382   4.026   8.698   6.179
13094WAT      O41383   4.173   7.202   5.967
13094WAT     H141384   4.226   7.123   5.954
13094WAT     H241385   4.236   7.270   5.990
13095WAT      O41386   4.392   7.176   6.272
13095WAT     H141387   4.329   7.106   6.289
13095WAT     H241388   4.338   7.252   6.250
13096WAT      O41389   5.509   8.792   6.239
13096WAT     H141390   5.527   8.723   6.175
13096WAT     H241391   5.440   8.844   6.200
13097WAT      O41392   4.294   8.831   5.994
13097WAT     H141393   4.367   8.802   5.940
13097WAT     H241394   4.320   8.807   6.083
13098WAT      O41395   4.210   8.442   5.995
13098WAT     H141396   4.147   8.489   6.050
13098WAT     H241397   4.221   8.358   6.038
13099WAT      O41398   4.955   7.847   4.610
13099WAT     H141399   4.947   7.756   4.583
13099WAT     H241400   4.914   7.897   4.539
13100WAT      O41401   4.769   8.025   4.798
13100WAT     H141402   4.691   7.977   4.827
13100WAT     H241403   4.834   7.957   4.780
13101WAT      O41404   4.170   8.056   4.886
13101WAT     H141405   4.087   8.031   4.926
13101WAT     H241406   4.231   8.063   4.959
13102WAT      O41407   5.171   8.466   4.676
13102WAT     H141408   5.124   8.388   4.709
13102WAT     H241409   5.252   8.468   4.726
13103WAT      O41410   4.168   8.460   4.905
13103WAT     H141411   4.198   8.371   4.887
13103WAT     H241412   4.243   8.515   4.882
13104WAT      O41413   4.011   7.552   4.264
13104WAT     H141414   3.922   7.586   4.254
13104WAT     H241415   4.040   7.532   4.175
13105WAT      O41416   3.807   7.812   4.852
13105WAT     H141417   3.865   7.735   4.852
13105WAT     H241418   3.807   7.842   4.762
13106WAT      O41419   4.793   8.694   4.638
13106WAT     H141420   4.731   8.740   4.581
13106WAT     H241421   4.879   8.710   4.598
13107WAT      O41422   4.713   8.293   4.799
13107WAT     H141423   4.706   8.198   4.782
13107WAT     H241424   4.789   8.302   4.856
13108WAT      O41425   3.932   7.353   5.031
13108WAT     H141426   3.914   7.263   5.059
13108WAT     H241427   3.892   7.408   5.099
13109WAT      O41428   4.816   7.573   4.821
13109WAT     H141429   4.853   7.486   4.810
13109WAT     H241430   4.806   7.607   4.732
13110WAT      O41431   4.229   7.411   4.367
13110WAT     H141432   4.239   7.501   4.398
13110WAT     H241433   4.138   7.406   4.338
13111WAT      O41434   5.194   7.323   4.515
13111WAT     H141435   5.276   7.274   4.519
13111WAT     H241436   5.197   7.382   4.590
13112WAT      O41437   3.994   7.603   4.892
13112WAT     H141438   4.062   7.629   4.954
13112WAT     H241439   3.962   7.519   4.925
13113WAT      O41440   4.413   7.707   4.801
13113WAT     H141441   4.464   7.757   4.865
13113WAT     H241442   4.466   7.630   4.783
13114WAT      O41443   5.623   7.524   5.171
13114WAT     H141444   5.552   7.563   5.119
13114WAT     H241445   5.650   7.594   5.231
13115WAT      O41446   4.241   7.171   5.227
13115WAT     H141447   4.241   7.223   5.147
13115WAT     H241448   4.158   7.124   5.225
13116WAT      O41449   4.880   8.183   4.377
13116WAT     H141450   4.818   8.229   4.321
13116WAT     H241451   4.931   8.252   4.419
13117WAT      O41452   4.366   8.135   5.045
13117WAT     H141453   4.333   8.198   5.109
13117WAT     H241454   4.384   8.188   4.967
13118WAT      O41455   5.218   7.517   4.792
13118WAT     H141456   5.147   7.546   4.850
13118WAT     H241457   5.254   7.598   4.756
13119WAT      O41458   4.209   7.342   5.028
13119WAT     H141459   4.243   7.427   4.999
13119WAT     H241460   4.115   7.357   5.040
13120WAT      O41461   4.287   8.332   5.227
13120WAT     H141462   4.349   8.400   5.198
13120WAT     H241463   4.201   8.373   5.217
13121WAT      O41464   3.817   8.251   4.115
13121WAT     H141465   3.779   8.300   4.041
13121WAT     H241466   3.842   8.318   4.178
13122WAT      O41467   5.379   8.479   5.018
13122WAT     H141468   5.311   8.546   5.017
13122WAT     H241469   5.433   8.498   4.942
13123WAT      O41470   5.524   7.461   4.831
13123WAT     H141471   5.430   7.465   4.844
13123WAT     H241472   5.557   7.543   4.869
13124WAT      O41473   4.578   7.091   4.660
13124WAT     H141474   4.608   7.036   4.589
13124WAT     H241475   4.485   7.105   4.642
13125WAT      O41476   5.133   8.663   4.890
13125WAT     H141477   5.134   8.623   4.803
13125WAT     H241478   5.078   8.740   4.879
13126WAT      O41479   5.262   8.335   4.398
13126WAT     H141480   5.251   8.241   4.411
13126WAT     H241481   5.262   8.371   4.487
13127WAT      O41482   5.073   8.153   5.022
13127WAT     H141483   5.114   8.132   4.939
13127WAT     H241484   5.145   8.179   5.079
13128WAT      O41485   4.816   7.898   4.334
13128WAT     H141486   4.724   7.891   4.357
13128WAT     H241487   4.832   7.992   4.323
13129WAT      O41488   4.815   7.525   4.034
13129WAT     H141489   4.721   7.541   4.042
13129WAT     H241490   4.847   7.597   3.979
13130WAT      O41491   5.467   7.993   5.032
13130WAT     H141492   5.384   8.000   4.984
13130WAT     H241493   5.527   8.052   4.985
13131WAT      O41494   5.219   8.054   4.384
13131WAT     H141495   5.158   8.020   4.320
13131WAT     H241496   5.218   7.990   4.455
13132WAT      O41497   5.164   7.672   5.126
13132WAT     H141498   5.122   7.754   5.151
13132WAT     H241499   5.090   7.613   5.107
13133WAT      O41500   4.377   7.950   4.612
13133WAT     H141501   4.337   7.879   4.563
13133WAT     H241502   4.386   7.916   4.701
13134WAT      O41503   4.424   8.319   4.829
13134WAT     H141504   4.394   8.259   4.761
13134WAT     H241505   4.519   8.323   4.818
13135WAT      O41506   4.248   7.628   4.990
13135WAT     H141507   4.303   7.639   4.913
13135WAT     H241508   4.300   7.665   5.062
13136WAT      O41509   5.233   8.676   5.195
13136WAT     H141510   5.185   8.757   5.176
13136WAT     H241511   5.164   8.611   5.210
13137WAT      O41512   4.333   8.293   5.494
13137WAT     H141513   4.243   8.315   5.518
13137WAT     H241514   4.336   8.305   5.399
13138WAT      O41515   5.037   7.978   4.085
13138WAT     H141516   5.081   7.894   4.071
13138WAT     H241517   5.108   8.041   4.094
13139WAT      O41518   4.216   7.980   5.351
13139WAT     H141519   4.202   8.067   5.388
13139WAT     H241520   4.128   7.946   5.337
13140WAT      O41521   4.848   8.472   4.482
13140WAT     H141522   4.892   8.546   4.441
13140WAT     H241523   4.842   8.496   4.574
13141WAT      O41524   4.395   8.574   5.572
13141WAT     H141525   4.393   8.615   5.485
13141WAT     H241526   4.379   8.481   5.556
13142WAT      O41527   5.395   7.103   3.917
13142WAT     H141528   5.364   7.113   4.007
13142WAT     H241529   5.471   7.161   3.912
13143WAT      O41530   4.047   7.840   4.362
13143WAT     H141531   4.035   7.913   4.301
13143WAT     H241532   4.016   7.763   4.315
13144WAT      O41533   5.591   8.653   5.702
13144WAT     H141534   5.638   8.700   5.770
13144WAT     H241535   5.653   8.646   5.629
13145WAT      O41536   3.811   8.157   4.943
13145WAT     H141537   3.819   8.171   4.849
13145WAT     H241538   3.872   8.086   4.962
13146WAT      O41539   3.935   8.327   4.584
13146WAT     H141540   3.895   8.341   4.499
13146WAT     H241541   4.024   8.299   4.564
13147WAT      O41542   5.531   8.372   5.418
13147WAT     H141543   5.544   8.348   5.326
13147WAT     H241544   5.535   8.289   5.465
13148WAT      O41545   4.917   8.742   5.275
13148WAT     H141546   4.969   8.733   5.355
13148WAT     H241547   4.833   8.777   5.304
13149WAT      O41548   5.115   8.771   4.218
13149WAT     H141549   5.099   8.742   4.307
13149WAT     H241550   5.098   8.693   4.164
13150WAT      O41551   4.363   8.748   4.395
13150WAT     H141552   4.345   8.657   4.374
13150WAT     H241553   4.277   8.784   4.419
13151WAT      O41554   5.085   8.521   4.074
13151WAT     H141555   5.016   8.521   4.008
13151WAT     H241556   5.159   8.479   4.031
13152WAT      O41557   5.041   8.684   4.481
13152WAT     H141558   5.087   8.606   4.512
13152WAT     H241559   5.075   8.755   4.535
13153WAT      O41560   5.516   7.577   5.514
13153WAT     H141561   5.455   7.628   5.461
13153WAT     H241562   5.484   7.487   5.509
13154WAT      O41563   3.816   8.261   5.197
13154WAT     H141564   3.833   8.214   5.115
13154WAT     H241565   3.863   8.210   5.263
13155WAT      O41566   4.294   7.174   4.701
13155WAT     H141567   4.249   7.252   4.667
13155WAT     H241568   4.350   7.207   4.771
13156WAT      O41569   4.722   7.461   5.261
13156WAT     H141570   4.676   7.482   5.342
13156WAT     H241571   4.682   7.380   5.231
13157WAT      O41572   5.222   7.583   5.374
13157WAT     H141573   5.137   7.553   5.406
13157WAT     H241574   5.206   7.607   5.283
13158WAT      O41575   4.932   7.733   5.584
13158WAT     H141576   4.964   7.650   5.550
13158WAT     H241577   5.011   7.785   5.599
13159WAT      O41578   4.605   7.136   4.189
13159WAT     H141579   4.543   7.136   4.261
13159WAT     H241580   4.597   7.050   4.149
13160WAT      O41581   4.497   7.229   4.886
13160WAT     H141582   4.527   7.319   4.878
13160WAT     H241583   4.552   7.180   4.825
13161WAT      O41584   4.273   7.687   4.473
13161WAT     H141585   4.250   7.665   4.564
13161WAT     H241586   4.195   7.730   4.439
13162WAT      O41587   4.996   7.687   4.333
13162WAT     H141588   4.936   7.760   4.315
13162WAT     H241589   5.051   7.681   4.255
13163WAT      O41590   4.517   7.776   5.540
13163WAT     H141591   4.507   7.682   5.525
13163WAT     H241592   4.601   7.799   5.500
13164WAT      O41593   4.856   7.551   4.536
13164WAT     H141594   4.896   7.583   4.455
13164WAT     H241595   4.893   7.463   4.548
13165WAT      O41596   4.030   7.418   5.355
13165WAT     H141597   3.991   7.502   5.376
13165WAT     H241598   3.961   7.354   5.374
13166WAT      O41599   4.687   7.426   5.662
13166WAT     H141600   4.618   7.407   5.726
13166WAT     H241601   4.762   7.454   5.716
13167WAT      O41602   4.915   7.810   4.946
13167WAT     H141603   4.842   7.861   4.981
13167WAT     H241604   4.875   7.728   4.916
13168WAT      O41605   4.559   7.477   4.786
13168WAT     H141606   4.559   7.433   4.701
13168WAT     H241607   4.648   7.510   4.797
13169WAT      O41608   4.144   7.466   4.682
13169WAT     H141609   4.110   7.513   4.758
13169WAT     H241610   4.068   7.420   4.646
13170WAT      O41611   4.565   7.578   4.085
13170WAT     H141612   4.577   7.573   4.180
13170WAT     H241613   4.526   7.664   4.070
13171WAT      O41614   4.961   7.355   4.887
13171WAT     H141615   4.963   7.400   4.971
13171WAT     H241616   4.936   7.265   4.908
13172WAT      O41617   4.466   7.809   4.025
13172WAT     H141618   4.409   7.764   3.963
13172WAT     H241619   4.537   7.844   3.972
13173WAT      O41620   5.304   7.097   5.471
13173WAT     H141621   5.336   7.023   5.524
13173WAT     H241622   5.308   7.065   5.381
13174WAT      O41623   3.974   8.199   5.413
13174WAT     H141624   3.935   8.135   5.473
13174WAT     H241625   4.005   8.269   5.470
13175WAT      O41626   4.589   7.883   4.961
13175WAT     H141627   4.626   7.836   5.036
13175WAT     H241628   4.570   7.971   4.995
13176WAT      O41629   4.368   7.788   5.193
13176WAT     H141630   4.337   7.875   5.215
13176WAT     H241631   4.463   7.794   5.196
13177WAT      O41632   4.221   8.208   4.253
13177WAT     H141633   4.143   8.154   4.237
13177WAT     H241634   4.294   8.156   4.219
13178WAT      O41635   5.297   8.108   4.832
13178WAT     H141636   5.369   8.157   4.793
13178WAT     H241637   5.276   8.040   4.767
13179WAT      O41638   4.843   7.247   4.246
13179WAT     H141639   4.761   7.197   4.239
13179WAT     H241640   4.823   7.331   4.204
13180WAT      O41641   4.835   8.115   5.420
13180WAT     H141642   4.828   8.023   5.395
13180WAT     H241643   4.772   8.125   5.492
13181WAT      O41644   5.114   7.684   4.076
13181WAT     H141645   5.203   7.716   4.058
13181WAT     H241646   5.111   7.597   4.037
13182WAT      O41647   4.225   8.175   4.616
13182WAT     H141648   4.277   8.095   4.611
13182WAT     H241649   4.180   8.169   4.700
13183WAT      O41650   4.714   8.302   4.144
13183WAT     H141651   4.748   8.376   4.094
13183WAT     H241652   4.631   8.333   4.180
13184WAT      O41653   3.973   7.872   5.308
13184WAT     H141654   3.938   7.938   5.366
13184WAT     H241655   3.944   7.788   5.345
13185WAT      O41656   4.294   7.917   5.596
13185WAT     H141657   4.264   7.932   5.506
13185WAT     H241658   4.371   7.861   5.587
13186WAT      O41659   4.828   8.397   5.396
13186WAT     H141660   4.829   8.304   5.374
13186WAT     H241661   4.757   8.406   5.459
13187WAT      O41662   5.341   7.816   4.022
13187WAT     H141663   5.333   7.859   3.937
13187WAT     H241664   5.413   7.861   4.066
13188WAT      O41665   5.449   8.061   5.330
13188WAT     H141666   5.376   8.120   5.310
13188WAT     H241667   5.502   8.060   5.250
13189WAT      O41668   5.444   8.501   4.295
13189WAT     H141669   5.380   8.435   4.323
13189WAT     H241670   5.405   8.541   4.218
13190WAT      O41671   5.002   8.234   4.680
13190WAT     H141672   5.037   8.174   4.614
13190WAT     H241673   4.914   8.201   4.697
13191WAT      O41674   4.611   8.310   4.421
13191WAT     H141675   4.679   8.364   4.459
13191WAT     H241676   4.532   8.364   4.424
13192WAT      O41677   4.541   8.010   4.382
13192WAT     H141678   4.587   8.091   4.405
13192WAT     H241679   4.506   7.978   4.465
13193WAT      O41680   4.771   8.561   5.105
13193WAT     H141681   4.836   8.582   5.173
13193WAT     H241682   4.808   8.485   5.060
13194WAT      O41683   4.899   8.362   4.977
13194WAT     H141684   4.963   8.292   4.988
13194WAT     H241685   4.951   8.440   4.959
13195WAT      O41686   5.283   8.390   3.949
13195WAT     H141687   5.260   8.318   4.008
13195WAT     H241688   5.244   8.365   3.865
13196WAT      O41689   5.076   8.442   5.297
13196WAT     H141690   5.109   8.500   5.365
13196WAT     H241691   4.984   8.428   5.320
13197WAT      O41692   3.861   8.793   4.027
13197WAT     H141693   3.897   8.853   3.961
13197WAT     H241694   3.847   8.847   4.104
13198WAT      O41695   3.831   7.221   5.375
13198WAT     H141696   3.760   7.240   5.436
13198WAT     H241697   3.873   7.143   5.412
13199WAT      O41698   5.241   8.182   4.115
13199WAT     H141699   5.212   8.228   4.194
13199WAT     H241700   5.321   8.136   4.142
13200WAT      O41701   3.860   8.619   5.474
13200WAT     H141702   3.871   8.525   5.460
13200WAT     H241703   3.794   8.646   5.409
13201WAT      O41704   4.659   8.446   5.614
13201WAT     H141705   4.627   8.375   5.668
13201WAT     H241706   4.591   8.514   5.621
13202WAT      O41707   4.463   8.531   4.108
13202WAT     H141708   4.462   8.604   4.047
13202WAT     H241709   4.371   8.506   4.118
13203WAT      O41710   4.023   8.053   4.183
13203WAT     H141711   3.962   8.127   4.184
13203WAT     H241712   4.071   8.062   4.100
13204WAT      O41713   4.980   7.470   5.150
13204WAT     H141714   5.017   7.388   5.183
13204WAT     H241715   4.894   7.476   5.192
13205WAT      O41716   5.317   7.365   4.231
13205WAT     H141717   5.254   7.376   4.160
13205WAT     H241718   5.267   7.387   4.310
13206WAT      O41719   4.762   8.537   3.975
13206WAT     H141720   4.772   8.517   3.882
13206WAT     H241721   4.672   8.512   3.995
13207WAT      O41722   4.514   7.593   4.373
13207WAT     H141723   4.443   7.640   4.417
13207WAT     H241724   4.542   7.527   4.436
13208WAT      O41725   4.676   7.735   5.173
13208WAT     H141726   4.726   7.783   5.239
13208WAT     H241727   4.691   7.643   5.193
13209WAT      O41728   4.917   7.266   4.517
13209WAT     H141729   4.905   7.268   4.422
13209WAT     H241730   5.012   7.270   4.529
13210WAT      O41731   4.626   8.789   4.444
13210WAT     H141732   4.651   8.785   4.352
13210WAT     H241733   4.531   8.777   4.443
13211WAT      O41734   4.334   7.424   4.110
13211WAT     H141735   4.419   7.468   4.104
13211WAT     H241736   4.297   7.455   4.193
13212WAT      O41737   5.397   7.357   5.257
13212WAT     H141738   5.347   7.431   5.291
13212WAT     H241739   5.479   7.396   5.225
13213WAT      O41740   5.226   7.881   4.602
13213WAT     H141741   5.132   7.883   4.619
13213WAT     H241742   5.258   7.802   4.646
13214WAT      O41743   4.224   8.049   3.958
13214WAT     H141744   4.301   8.038   4.014
13214WAT     H241745   4.232   7.980   3.892
13215WAT      O41746   4.094   7.793   4.026
13215WAT     H141747   4.102   7.698   4.037
13215WAT     H241748   4.183   7.826   4.037
13216WAT      O41749   5.427   8.598   4.769
13216WAT     H141750   5.439   8.681   4.816
13216WAT     H241751   5.513   8.577   4.734
13217WAT      O41752   4.174   8.808   4.736
13217WAT     H141753   4.247   8.753   4.763
13217WAT     H241754   4.212   8.894   4.722
13218WAT      O41755   3.862   8.414   4.324
13218WAT     H141756   3.770   8.438   4.323
13218WAT     H241757   3.909   8.497   4.312
13219WAT      O41758   4.074   8.726   5.655
13219WAT     H141759   4.154   8.758   5.696
13219WAT     H241760   4.023   8.690   5.727
13220WAT      O41761   4.485   8.725   3.919
13220WAT     H141762   4.564   8.754   3.873
13220WAT     H241763   4.433   8.682   3.851
13221WAT      O41764   4.958   8.337   5.650
13221WAT     H141765   4.897   8.339   5.576
13221WAT     H241766   4.927   8.264   5.704
13222WAT      O41767   5.101   8.710   5.511
13222WAT     H141768   5.196   8.701   5.506
13222WAT     H241769   5.086   8.776   5.578
13223WAT      O41770   5.390   8.648   4.061
13223WAT     H141771   5.361   8.606   3.979
13223WAT     H241772   5.370   8.740   4.049
13224WAT      O41773   3.846   7.975   5.550
13224WAT     H141774   3.897   7.917   5.607
13224WAT     H241775   3.772   8.003   5.603
13225WAT      O41776   4.536   8.247   3.905
13225WAT     H141777   4.526   8.185   3.978
13225WAT     H241778   4.520   8.195   3.827
13226WAT      O41779   4.552   8.115   5.503
13226WAT     H141780   4.475   8.172   5.494
13226WAT     H241781   4.570   8.086   5.414
13227WAT      O41782   4.861   8.153   3.965
13227WAT     H141783   4.806   8.198   4.030
13227WAT     H241784   4.923   8.103   4.018
13228WAT      O41785   5.266   8.288   5.559
13228WAT     H141786   5.340   8.322   5.508
13228WAT     H241787   5.190   8.305   5.503
13229WAT      O41788   4.049   7.789   5.639
13229WAT     H141789   4.054   7.759   5.730
13229WAT     H241790   4.135   7.829   5.623
13230WAT      O41791   4.427   8.049   4.155
13230WAT     H141792   4.469   8.032   4.239
13230WAT     H241793   4.440   7.968   4.106
13231WAT      O41794   4.244   7.647   5.436
13231WAT     H141795   4.190   7.598   5.373
13231WAT     H241796   4.310   7.690   5.382
13232WAT      O41797   4.679   7.951   3.880
13232WAT     H141798   4.731   7.880   3.843
13232WAT     H241799   4.743   8.015   3.910
13233WAT      O41800   5.133   8.094   5.412
13233WAT     H141801   5.175   8.109   5.497
13233WAT     H241802   5.040   8.106   5.428
13234WAT      O41803   5.181   7.828   5.613
13234WAT     H141804   5.239   7.752   5.604
13234WAT     H241805   5.198   7.881   5.535
13235WAT      O41806   4.292   7.344   5.444
13235WAT     H141807   4.283   7.282   5.371
13235WAT     H241808   4.234   7.416   5.421
13236WAT      O41809   4.569   7.199   5.147
13236WAT     H141810   4.524   7.202   5.062
13236WAT     H241811   4.506   7.159   5.207
13237WAT      O41812   4.609   8.089   5.209
13237WAT     H141813   4.651   8.173   5.192
13237WAT     H241814   4.518   8.103   5.186
13238WAT      O41815   4.843   7.862   5.348
13238WAT     H141816   4.855   7.802   5.421
13238WAT     H241817   4.929   7.866   5.306
13239WAT      O41818   5.077   7.917   5.205
13239WAT     H141819   5.024   7.970   5.145
13239WAT     H241820   5.111   7.981   5.268
13240WAT      O41821   4.317   7.656   3.850
13240WAT     H141822   4.297   7.570   3.886
13240WAT     H241823   4.300   7.648   3.756
13241WAT      O41824   4.395   8.719   5.321
13241WAT     H141825   4.341   8.792   5.289
13241WAT     H241826   4.420   8.672   5.242
13242WAT      O41827   4.520   7.516   5.473
13242WAT     H141828   4.579   7.485   5.542
13242WAT     H241829   4.438   7.469   5.489
13243WAT      O41830   5.002   7.478   5.497
13243WAT     H141831   4.933   7.412   5.490
13243WAT     H241832   5.074   7.433   5.541
13244WAT      O41833   5.065   7.137   4.102
13244WAT     H141834   5.093   7.053   4.138
13244WAT     H241835   4.987   7.161   4.154
13245WAT      O41836   4.197   7.366   3.848
13245WAT     H141837   4.227   7.367   3.758
13245WAT     H241838   4.271   7.331   3.898
13246WAT      O41839   4.680   8.843   5.347
13246WAT     H141840   4.673   8.933   5.377
13246WAT     H241841   4.590   8.811   5.344
13247WAT      O41842   4.519   7.261   3.947
13247WAT     H141843   4.484   7.193   3.889
13247WAT     H241844   4.539   7.215   4.028
13248WAT      O41845   4.735   8.759   4.109
13248WAT     H141846   4.825   8.793   4.111
13248WAT     H241847   4.738   8.687   4.046
13249WAT      O41848   4.099   8.297   3.932
13249WAT     H141849   4.143   8.351   3.997
13249WAT     H241850   4.147   8.214   3.933
13250WAT      O41851   3.820   8.576   4.677
13250WAT     H141852   3.853   8.489   4.654
13250WAT     H241853   3.863   8.596   4.760
13251WAT      O41854   4.280   8.409   4.443
13251WAT     H141855   4.250   8.396   4.533
13251WAT     H241856   4.269   8.323   4.402
13252WAT      O41857   3.869   8.662   4.951
13252WAT     H141858   3.826   8.680   5.034
13252WAT     H241859   3.926   8.738   4.937
13253WAT      O41860   5.433   8.613   5.379
13253WAT     H141861   5.373   8.618   5.305
13253WAT     H241862   5.446   8.519   5.392
13254WAT      O41863   5.557   8.387   3.913
13254WAT     H141864   5.474   8.393   3.960
13254WAT     H241865   5.575   8.476   3.883
13255WAT      O41866   5.503   8.061   4.164
13255WAT     H141867   5.579   8.118   4.174
13255WAT     H241868   5.504   8.004   4.241
13256WAT      O41869   3.853   7.914   4.587
13256WAT     H141870   3.787   7.887   4.522
13256WAT     H241871   3.936   7.903   4.542
13257WAT      O41872   5.603   8.147   4.648
13257WAT     H141873   5.640   8.068   4.607
13257WAT     H241874   5.667   8.216   4.630
13258WAT      O41875   5.301   8.285   5.189
13258WAT     H141876   5.220   8.328   5.216
13258WAT     H241877   5.342   8.346   5.128
13259WAT      O41878   5.508   8.091   3.879
13259WAT     H141879   5.535   8.181   3.866
13259WAT     H241880   5.489   8.084   3.973
13260WAT      O41881   5.147   7.393   4.009
13260WAT     H141882   5.189   7.374   3.925
13260WAT     H241883   5.117   7.308   4.040
13261WAT      O41884   5.497   7.884   4.379
13261WAT     H141885   5.460   7.807   4.335
13261WAT     H241886   5.424   7.922   4.427
13262WAT      O41887   3.956   7.952   5.041
13262WAT     H141888   3.993   7.943   5.129
13262WAT     H241889   3.899   7.876   5.031
13263WAT      O41890   5.436   7.799   5.342
13263WAT     H141891   5.413   7.776   5.252
13263WAT     H241892   5.462   7.891   5.337
13264WAT      O41893   3.911   7.643   5.431
13264WAT     H141894   3.822   7.640   5.465
13264WAT     H241895   3.965   7.663   5.508
13265WAT      O41896   5.280   7.321   5.620
13265WAT     H141897   5.368   7.322   5.658
13265WAT     H241898   5.281   7.248   5.559
13266WAT      O41899   5.425   7.707   4.709
13266WAT     H141900   5.477   7.657   4.646
13266WAT     H241901   5.483   7.720   4.783
13267WAT      O41902   5.443   7.715   5.061
13267WAT     H141903   5.348   7.712   5.072
13267WAT     H241904   5.461   7.806   5.037
13268WAT      O41905   4.028   7.540   3.972
13268WAT     H141906   4.099   7.498   3.923
13268WAT     H241907   3.957   7.547   3.909
13269WAT      O41908   5.374   7.633   4.303
13269WAT     H141909   5.423   7.609   4.381
13269WAT     H241910   5.354   7.549   4.261
13270WAT      O41911   3.962   7.071   4.866
13270WAT     H141912   4.027   7.016   4.822
13270WAT     H241913   4.004   7.096   4.948
13271WAT      O41914   5.517   7.496   4.556
13271WAT     H141915   5.506   7.481   4.650
13271WAT     H241916   5.593   7.443   4.532
13272WAT      O41917   5.351   7.090   5.202
13272WAT     H141918   5.415   7.151   5.238
13272WAT     H241919   5.366   7.094   5.107
13273WAT      O41920   5.606   7.279   3.880
13273WAT     H141921   5.698   7.266   3.859
13273WAT     H241922   5.603   7.287   3.975
13274WAT      O41923   5.613   7.356   4.143
13274WAT     H141924   5.534   7.350   4.195
13274WAT     H241925   5.633   7.450   4.141
13275WAT      O41926   5.307   8.760   4.542
13275WAT     H141927   5.367   8.728   4.474
13275WAT     H241928   5.333   8.713   4.621
13276WAT      O41929   3.937   7.086   5.140
13276WAT     H141930   3.902   7.132   5.217
13276WAT     H241931   3.904   6.997   5.149
13277WAT      O41932   4.098   8.403   5.557
13277WAT     H141933   4.094   8.366   5.645
13277WAT     H241934   4.111   8.497   5.571
13278WAT      O41935   4.468   8.559   5.117
13278WAT     H141936   4.444   8.586   5.028
13278WAT     H241937   4.562   8.576   5.122
13279WAT      O41938   4.688   7.205   5.493
13279WAT     H141939   4.682   7.265   5.567
13279WAT     H241940   4.782   7.195   5.478
13280WAT      O41941   4.952   7.171   5.456
13280WAT     H141942   5.014   7.203   5.390
13280WAT     H241943   5.007   7.123   5.518
13281WAT      O41944   5.594   8.761   5.197
13281WAT     H141945   5.545   8.801   5.125
13281WAT     H241946   5.533   8.698   5.236
13282WAT      O41947   4.004   7.039   5.468
13282WAT     H141948   4.059   7.021   5.391
13282WAT     H241949   4.011   6.960   5.521
13283WAT      O41950   4.082   8.698   5.269
13283WAT     H141951   4.022   8.685   5.343
13283WAT     H241952   4.081   8.614   5.222
13284WAT      O41953   5.026   7.027   5.089
13284WAT     H141954   4.939   7.061   5.069
13284WAT     H241955   5.015   6.980   5.172
13285WAT      O41956   5.117   7.248   5.228
13285WAT     H141957   5.084   7.167   5.190
13285WAT     H241958   5.212   7.244   5.215
13286WAT      O41959   5.362   8.825   4.925
13286WAT     H141960   5.316   8.900   4.887
13286WAT     H241961   5.299   8.753   4.919
13287WAT      O41962   4.045   8.435   5.164
13287WAT     H141963   3.972   8.373   5.157
13287WAT     H241964   4.051   8.474   5.077
13288WAT      O41965   4.405   8.656   4.842
13288WAT     H141966   4.457   8.595   4.790
13288WAT     H241967   4.470   8.706   4.892
13289WAT      O41968   4.679   8.745   4.925
13289WAT     H141969   4.708   8.720   4.837
13289WAT     H241970   4.730   8.690   4.984
13290WAT      O41971   4.801   7.119   4.983
13290WAT     H141972   4.723   7.166   5.011
13290WAT     H241973   4.772   7.029   4.972
13291WAT      O41974   5.256   7.189   4.788
13291WAT     H141975   5.300   7.184   4.703
13291WAT     H241976   5.229   7.281   4.795
13292WAT      O41977   5.443   7.152   4.589
13292WAT     H141978   5.437   7.058   4.574
13292WAT     H241979   5.521   7.163   4.643
13293WAT      O41980   3.873   8.766   4.485
13293WAT     H141981   3.856   8.703   4.555
13293WAT     H241982   3.787   8.787   4.450
13294WAT      O41983   4.590   7.361   4.534
13294WAT     H141984   4.508   7.323   4.500
13294WAT     H241985   4.640   7.285   4.564
13295WAT      O41986   5.040   7.027   4.658
13295WAT     H141987   5.100   7.085   4.706
13295WAT     H241988   4.966   7.084   4.636
13296WAT      O41989   5.354   7.068   4.185
13296WAT     H141990   5.374   7.157   4.212
13296WAT     H241991   5.275   7.044   4.235
13297WAT      O41992   4.034   8.636   4.229
13297WAT     H141993   3.981   8.674   4.159
13297WAT     H241994   4.026   8.698   4.301
13298WAT      O41995   4.173   7.202   4.089
13298WAT     H141996   4.226   7.123   4.076
13298WAT     H241997   4.236   7.270   4.113
13299WAT      O41998   4.392   7.176   4.395
13299WAT     H141999   4.329   7.106   4.411
13299WAT     H242000   4.338   7.252   4.373
13300WAT      O42001   4.686   8.837   5.662
13300WAT     H142002   4.779   8.814   5.666
13300WAT     H242003   4.684   8.920   5.614
13301WAT      O42004   5.509   8.792   4.362
13301WAT     H142005   5.527   8.723   4.297
13301WAT     H242006   5.440   8.844   4.322
13302WAT      O42007   4.405   7.104   5.638
13302WAT     H142008   4.376   7.154   5.562
13302WAT     H242009   4.443   7.024   5.602
13303WAT      O42010   4.294   8.831   4.117
13303WAT     H142011   4.367   8.802   4.062
13303WAT     H242012   4.320   8.807   4.206
13304WAT      O42013   4.210   8.442   4.117
13304WAT     H142014   4.147   8.489   4.172
13304WAT     H242015   4.221   8.358   4.161
13305WAT      O42016   5.065   7.045   5.696
13305WAT     H142017   5.053   7.077   5.786
13305WAT     H242018   5.146   7.085   5.666
13306WAT      O42019   5.343   8.760   5.644
13306WAT     H142020   5.422   8.710   5.623
13306WAT     H242021   5.372   8.828   5.705
13307WAT      O42022   4.955   7.847   2.732
13307WAT     H142023   4.947   7.756   2.705
13307WAT     H242024   4.914   7.897   2.662
13308WAT      O42025   4.769   8.025   2.920
13308WAT     H142026   4.691   7.977   2.949
13308WAT     H242027   4.834   7.957   2.903
13309WAT      O42028   5.171   8.466   2.798
13309WAT     H142029   5.124   8.388   2.831
13309WAT     H242030   5.252   8.468   2.849
13310WAT      O42031   4.168   8.460   3.028
13310WAT     H142032   4.198   8.371   3.010
13310WAT     H242033   4.243   8.515   3.005
13311WAT      O42034   4.011   7.552   2.387
13311WAT     H142035   3.922   7.586   2.376
13311WAT     H242036   4.040   7.532   2.297
13312WAT      O42037   4.793   8.694   2.760
13312WAT     H142038   4.731   8.740   2.703
13312WAT     H242039   4.879   8.710   2.720
13313WAT      O42040   4.713   8.293   2.921
13313WAT     H142041   4.706   8.198   2.905
13313WAT     H242042   4.789   8.302   2.978
13314WAT      O42043   4.816   7.573   2.944
13314WAT     H142044   4.853   7.486   2.933
13314WAT     H242045   4.806   7.607   2.855
13315WAT      O42046   4.229   7.411   2.490
13315WAT     H142047   4.239   7.501   2.521
13315WAT     H242048   4.138   7.406   2.461
13316WAT      O42049   5.194   7.323   2.637
13316WAT     H142050   5.276   7.274   2.641
13316WAT     H242051   5.197   7.382   2.712
13317WAT      O42052   4.413   7.707   2.923
13317WAT     H142053   4.464   7.757   2.987
13317WAT     H242054   4.466   7.630   2.906
13318WAT      O42055   5.623   7.524   3.294
13318WAT     H142056   5.552   7.563   3.242
13318WAT     H242057   5.650   7.594   3.354
13319WAT      O42058   4.880   8.183   2.500
13319WAT     H142059   4.818   8.229   2.443
13319WAT     H242060   4.931   8.252   2.541
13320WAT      O42061   5.218   7.517   2.914
13320WAT     H142062   5.147   7.546   2.972
13320WAT     H242063   5.254   7.598   2.878
13321WAT      O42064   3.817   8.251   2.237
13321WAT     H142065   3.779   8.300   2.164
13321WAT     H242066   3.842   8.318   2.300
13322WAT      O42067   5.379   8.479   3.141
13322WAT     H142068   5.311   8.546   3.140
13322WAT     H242069   5.433   8.498   3.064
13323WAT      O42070   5.524   7.461   2.953
13323WAT     H142071   5.430   7.465   2.967
13323WAT     H242072   5.557   7.543   2.992
13324WAT      O42073   4.578   7.091   2.783
13324WAT     H142074   4.608   7.036   2.711
13324WAT     H242075   4.485   7.105   2.765
13325WAT      O42076   5.133   8.663   3.012
13325WAT     H142077   5.134   8.623   2.925
13325WAT     H242078   5.078   8.740   3.002
13326WAT      O42079   5.262   8.335   2.521
13326WAT     H142080   5.251   8.241   2.534
13326WAT     H242081   5.262   8.371   2.610
13327WAT      O42082   5.073   8.153   3.145
13327WAT     H142083   5.114   8.132   3.061
13327WAT     H242084   5.145   8.179   3.202
13328WAT      O42085   4.816   7.898   2.457
13328WAT     H142086   4.724   7.891   2.480
13328WAT     H242087   4.832   7.992   2.445
13329WAT      O42088   4.815   7.525   2.156
13329WAT     H142089   4.721   7.541   2.165
13329WAT     H242090   4.847   7.597   2.102
13330WAT      O42091   5.467   7.993   3.154
13330WAT     H142092   5.384   8.000   3.107
13330WAT     H242093   5.527   8.052   3.107
13331WAT      O42094   5.219   8.054   2.507
13331WAT     H142095   5.158   8.020   2.442
13331WAT     H242096   5.218   7.990   2.578
13332WAT      O42097   5.164   7.672   3.249
13332WAT     H142098   5.122   7.754   3.274
13332WAT     H242099   5.090   7.613   3.229
13333WAT      O42100   4.377   7.950   2.735
13333WAT     H142101   4.337   7.879   2.685
13333WAT     H242102   4.386   7.916   2.824
13334WAT      O42103   4.424   8.319   2.951
13334WAT     H142104   4.394   8.259   2.883
13334WAT     H242105   4.519   8.323   2.940
13335WAT      O42106   5.233   8.676   3.317
13335WAT     H142107   5.185   8.757   3.298
13335WAT     H242108   5.164   8.611   3.333
13336WAT      O42109   5.037   7.978   2.208
13336WAT     H142110   5.081   7.894   2.193
13336WAT     H242111   5.108   8.041   2.216
13337WAT      O42112   4.848   8.472   2.605
13337WAT     H142113   4.892   8.546   2.563
13337WAT     H242114   4.842   8.496   2.697
13338WAT      O42115   4.395   8.574   3.695
13338WAT     H142116   4.393   8.615   3.608
13338WAT     H242117   4.379   8.481   3.678
13339WAT      O42118   5.395   7.103   2.039
13339WAT     H142119   5.364   7.113   2.129
13339WAT     H242120   5.471   7.161   2.034
13340WAT      O42121   4.047   7.840   2.485
13340WAT     H142122   4.035   7.913   2.424
13340WAT     H242123   4.016   7.763   2.437
13341WAT      O42124   5.591   8.653   3.824
13341WAT     H142125   5.638   8.700   3.892
13341WAT     H242126   5.653   8.646   3.752
13342WAT      O42127   3.935   8.327   2.707
13342WAT     H142128   3.895   8.341   2.621
13342WAT     H242129   4.024   8.299   2.686
13343WAT      O42130   5.531   8.372   3.540
13343WAT     H142131   5.544   8.348   3.449
13343WAT     H242132   5.535   8.289   3.588
13344WAT      O42133   4.917   8.742   3.397
13344WAT     H142134   4.969   8.733   3.478
13344WAT     H242135   4.833   8.777   3.427
13345WAT      O42136   5.115   8.771   2.340
13345WAT     H142137   5.099   8.742   2.430
13345WAT     H242138   5.098   8.693   2.287
13346WAT      O42139   4.363   8.748   2.518
13346WAT     H142140   4.345   8.657   2.497
13346WAT     H242141   4.277   8.784   2.542
13347WAT      O42142   5.085   8.521   2.196
13347WAT     H142143   5.016   8.521   2.130
13347WAT     H242144   5.159   8.479   2.153
13348WAT      O42145   5.041   8.684   2.604
13348WAT     H142146   5.087   8.606   2.635
13348WAT     H242147   5.075   8.755   2.658
13349WAT      O42148   5.516   7.577   3.637
13349WAT     H142149   5.455   7.628   3.584
13349WAT     H242150   5.484   7.487   3.631
13350WAT      O42151   4.294   7.174   2.823
13350WAT     H142152   4.249   7.252   2.790
13350WAT     H242153   4.350   7.207   2.894
13351WAT      O42154   4.722   7.461   3.383
13351WAT     H142155   4.676   7.482   3.465
13351WAT     H242156   4.682   7.380   3.353
13352WAT      O42157   5.222   7.583   3.496
13352WAT     H142158   5.137   7.553   3.529
13352WAT     H242159   5.206   7.607   3.405
13353WAT      O42160   4.932   7.733   3.706
13353WAT     H142161   4.964   7.650   3.672
13353WAT     H242162   5.011   7.785   3.721
13354WAT      O42163   4.605   7.136   2.311
13354WAT     H142164   4.543   7.136   2.384
13354WAT     H242165   4.597   7.050   2.272
13355WAT      O42166   4.497   7.229   3.009
13355WAT     H142167   4.527   7.319   3.001
13355WAT     H242168   4.552   7.180   2.948
13356WAT      O42169   4.273   7.687   2.596
13356WAT     H142170   4.250   7.665   2.686
13356WAT     H242171   4.195   7.730   2.561
13357WAT      O42172   4.996   7.687   2.456
13357WAT     H142173   4.936   7.760   2.437
13357WAT     H242174   5.051   7.681   2.378
13358WAT      O42175   4.517   7.776   3.663
13358WAT     H142176   4.507   7.682   3.648
13358WAT     H242177   4.601   7.799   3.623
13359WAT      O42178   4.856   7.551   2.659
13359WAT     H142179   4.896   7.583   2.578
13359WAT     H242180   4.893   7.463   2.670
13360WAT      O42181   4.687   7.426   3.785
13360WAT     H142182   4.618   7.407   3.848
13360WAT     H242183   4.762   7.454   3.838
13361WAT      O42184   3.779   7.604   2.002
13361WAT     H142185   3.771   7.698   2.016
13361WAT     H242186   3.744   7.590   1.914
13362WAT      O42187   4.915   7.810   3.068
13362WAT     H142188   4.842   7.861   3.103
13362WAT     H242189   4.875   7.728   3.038
13363WAT      O42190   4.559   7.477   2.909
13363WAT     H142191   4.559   7.433   2.824
13363WAT     H242192   4.648   7.510   2.920
13364WAT      O42193   4.565   7.578   2.208
13364WAT     H142194   4.577   7.573   2.303
13364WAT     H242195   4.526   7.664   2.192
13365WAT      O42196   4.961   7.355   3.010
13365WAT     H142197   4.963   7.400   3.094
13365WAT     H242198   4.936   7.265   3.031
13366WAT      O42199   4.466   7.809   2.148
13366WAT     H142200   4.409   7.764   2.085
13366WAT     H242201   4.537   7.844   2.094
13367WAT      O42202   5.304   7.097   3.593
13367WAT     H142203   5.336   7.023   3.646
13367WAT     H242204   5.308   7.065   3.503
13368WAT      O42205   4.589   7.883   3.084
13368WAT     H142206   4.626   7.836   3.158
13368WAT     H242207   4.570   7.971   3.118
13369WAT      O42208   4.221   8.208   2.375
13369WAT     H142209   4.143   8.154   2.359
13369WAT     H242210   4.294   8.156   2.341
13370WAT      O42211   5.297   8.108   2.954
13370WAT     H142212   5.369   8.157   2.915
13370WAT     H242213   5.276   8.040   2.890
13371WAT      O42214   4.843   7.247   2.369
13371WAT     H142215   4.761   7.197   2.361
13371WAT     H242216   4.823   7.331   2.327
13372WAT      O42217   4.835   8.115   3.543
13372WAT     H142218   4.828   8.023   3.518
13372WAT     H242219   4.772   8.125   3.614
13373WAT      O42220   5.114   7.684   2.198
13373WAT     H142221   5.203   7.716   2.181
13373WAT     H242222   5.111   7.597   2.159
13374WAT      O42223   4.225   8.175   2.739
13374WAT     H142224   4.277   8.095   2.733
13374WAT     H242225   4.180   8.169   2.823
13375WAT      O42226   4.714   8.302   2.266
13375WAT     H142227   4.748   8.376   2.217
13375WAT     H242228   4.631   8.333   2.302
13376WAT      O42229   4.828   8.397   3.518
13376WAT     H142230   4.829   8.304   3.496
13376WAT     H242231   4.757   8.406   3.582
13377WAT      O42232   5.341   7.816   2.145
13377WAT     H142233   5.333   7.859   2.060
13377WAT     H242234   5.413   7.861   2.188
13378WAT      O42235   5.449   8.061   3.453
13378WAT     H142236   5.376   8.120   3.433
13378WAT     H242237   5.502   8.060   3.373
13379WAT      O42238   5.444   8.501   2.418
13379WAT     H142239   5.380   8.435   2.445
13379WAT     H242240   5.405   8.541   2.340
13380WAT      O42241   5.002   8.234   2.803
13380WAT     H142242   5.037   8.174   2.737
13380WAT     H242243   4.914   8.201   2.820
13381WAT      O42244   4.611   8.310   2.543
13381WAT     H142245   4.679   8.364   2.581
13381WAT     H242246   4.532   8.364   2.547
13382WAT      O42247   3.825   7.871   2.092
13382WAT     H142248   3.911   7.900   2.121
13382WAT     H242249   3.775   7.953   2.081
13383WAT      O42250   4.541   8.010   2.505
13383WAT     H142251   4.587   8.091   2.527
13383WAT     H242252   4.506   7.978   2.588
13384WAT      O42253   4.771   8.561   3.227
13384WAT     H142254   4.836   8.582   3.295
13384WAT     H242255   4.808   8.485   3.182
13385WAT      O42256   4.131   7.045   2.552
13385WAT     H142257   4.118   7.044   2.647
13385WAT     H242258   4.049   7.078   2.517
13386WAT      O42259   4.899   8.362   3.099
13386WAT     H142260   4.963   8.292   3.111
13386WAT     H242261   4.951   8.440   3.081
13387WAT      O42262   5.283   8.390   2.072
13387WAT     H142263   5.260   8.318   2.131
13387WAT     H242264   5.244   8.365   1.988
13388WAT      O42265   5.076   8.442   3.420
13388WAT     H142266   5.109   8.500   3.487
13388WAT     H242267   4.984   8.428   3.443
13389WAT      O42268   3.861   8.793   2.149
13389WAT     H142269   3.897   8.853   2.084
13389WAT     H242270   3.847   8.847   2.226
13390WAT      O42271   5.241   8.182   2.238
13390WAT     H142272   5.212   8.228   2.317
13390WAT     H242273   5.321   8.136   2.265
13391WAT      O42274   3.860   8.619   3.597
13391WAT     H142275   3.871   8.525   3.582
13391WAT     H242276   3.794   8.646   3.532
13392WAT      O42277   4.659   8.446   3.736
13392WAT     H142278   4.627   8.375   3.791
13392WAT     H242279   4.591   8.514   3.744
13393WAT      O42280   4.463   8.531   2.231
13393WAT     H142281   4.462   8.604   2.169
13393WAT     H242282   4.371   8.506   2.240
13394WAT      O42283   4.023   8.053   2.305
13394WAT     H142284   3.962   8.127   2.306
13394WAT     H242285   4.071   8.062   2.223
13395WAT      O42286   4.980   7.470   3.273
13395WAT     H142287   5.017   7.388   3.306
13395WAT     H242288   4.894   7.476   3.314
13396WAT      O42289   5.317   7.365   2.354
13396WAT     H142290   5.254   7.376   2.282
13396WAT     H242291   5.267   7.387   2.433
13397WAT      O42292   4.762   8.537   2.097
13397WAT     H142293   4.772   8.517   2.004
13397WAT     H242294   4.672   8.512   2.118
13398WAT      O42295   4.514   7.593   2.495
13398WAT     H142296   4.443   7.640   2.539
13398WAT     H242297   4.542   7.527   2.559
13399WAT      O42298   4.676   7.735   3.295
13399WAT     H142299   4.726   7.783   3.362
13399WAT     H242300   4.691   7.643   3.316
13400WAT      O42301   4.917   7.266   2.639
13400WAT     H142302   4.905   7.268   2.544
13400WAT     H242303   5.012   7.270   2.651
13401WAT      O42304   4.626   8.789   2.567
13401WAT     H142305   4.651   8.785   2.474
13401WAT     H242306   4.531   8.777   2.566
13402WAT      O42307   4.334   7.424   2.233
13402WAT     H142308   4.419   7.468   2.226
13402WAT     H242309   4.297   7.455   2.316
13403WAT      O42310   5.397   7.357   3.380
13403WAT     H142311   5.347   7.431   3.413
13403WAT     H242312   5.479   7.396   3.348
13404WAT      O42313   5.226   7.881   2.724
13404WAT     H142314   5.132   7.883   2.742
13404WAT     H242315   5.258   7.802   2.769
13405WAT      O42316   4.224   8.049   2.080
13405WAT     H142317   4.301   8.038   2.136
13405WAT     H242318   4.232   7.980   2.015
13406WAT      O42319   4.094   7.793   2.149
13406WAT     H142320   4.102   7.698   2.160
13406WAT     H242321   4.183   7.826   2.159
13407WAT      O42322   5.427   8.598   2.892
13407WAT     H142323   5.439   8.681   2.939
13407WAT     H242324   5.513   8.577   2.857
13408WAT      O42325   4.174   8.808   2.859
13408WAT     H142326   4.247   8.753   2.886
13408WAT     H242327   4.212   8.894   2.845
13409WAT      O42328   3.862   8.414   2.446
13409WAT     H142329   3.770   8.438   2.445
13409WAT     H242330   3.909   8.497   2.434
13410WAT      O42331   4.074   8.726   3.778
13410WAT     H142332   4.154   8.758   3.819
13410WAT     H242333   4.023   8.690   3.850
13411WAT      O42334   4.485   8.725   2.041
13411WAT     H142335   4.564   8.754   1.996
13411WAT     H242336   4.433   8.682   1.973
13412WAT      O42337   4.958   8.337   3.772
13412WAT     H142338   4.897   8.339   3.698
13412WAT     H242339   4.927   8.264   3.826
13413WAT      O42340   5.101   8.710   3.634
13413WAT     H142341   5.196   8.701   3.629
13413WAT     H242342   5.086   8.776   3.701
13414WAT      O42343   5.390   8.648   2.183
13414WAT     H142344   5.361   8.606   2.102
13414WAT     H242345   5.370   8.740   2.171
13415WAT      O42346   4.536   8.247   2.028
13415WAT     H142347   4.526   8.185   2.100
13415WAT     H242348   4.520   8.195   1.949
13416WAT      O42349   4.552   8.115   3.625
13416WAT     H142350   4.475   8.172   3.617
13416WAT     H242351   4.570   8.086   3.536
13417WAT      O42352   4.861   8.153   2.088
13417WAT     H142353   4.806   8.198   2.152
13417WAT     H242354   4.923   8.103   2.140
13418WAT      O42355   5.266   8.288   3.681
13418WAT     H142356   5.340   8.322   3.631
13418WAT     H242357   5.190   8.305   3.626
13419WAT      O42358   4.427   8.049   2.278
13419WAT     H142359   4.469   8.032   2.362
13419WAT     H242360   4.440   7.968   2.228
13420WAT      O42361   4.679   7.951   2.002
13420WAT     H142362   4.731   7.880   1.966
13420WAT     H242363   4.743   8.015   2.032
13421WAT      O42364   5.133   8.094   3.535
13421WAT     H142365   5.175   8.109   3.620
13421WAT     H242366   5.040   8.106   3.551
13422WAT      O42367   5.181   7.828   3.735
13422WAT     H142368   5.239   7.752   3.726
13422WAT     H242369   5.198   7.881   3.657
13423WAT      O42370   4.292   7.344   3.566
13423WAT     H142371   4.283   7.282   3.494
13423WAT     H242372   4.234   7.416   3.544
13424WAT      O42373   4.569   7.199   3.270
13424WAT     H142374   4.524   7.202   3.185
13424WAT     H242375   4.506   7.159   3.329
13425WAT      O42376   4.609   8.089   3.332
13425WAT     H142377   4.651   8.173   3.314
13425WAT     H242378   4.518   8.103   3.309
13426WAT      O42379   4.843   7.862   3.470
13426WAT     H142380   4.855   7.802   3.544
13426WAT     H242381   4.929   7.866   3.428
13427WAT      O42382   5.077   7.917   3.328
13427WAT     H142383   5.024   7.970   3.267
13427WAT     H242384   5.111   7.981   3.391
13428WAT      O42385   4.317   7.656   1.972
13428WAT     H142386   4.297   7.570   2.008
13428WAT     H242387   4.300   7.648   1.878
13429WAT      O42388   4.395   8.719   3.443
13429WAT     H142389   4.341   8.792   3.411
13429WAT     H242390   4.420   8.672   3.364
13430WAT      O42391   4.520   7.516   3.596
13430WAT     H142392   4.579   7.485   3.665
13430WAT     H242393   4.438   7.469   3.611
13431WAT      O42394   5.002   7.478   3.619
13431WAT     H142395   4.933   7.412   3.613
13431WAT     H242396   5.074   7.433   3.664
13432WAT      O42397   5.065   7.137   2.225
13432WAT     H142398   5.093   7.053   2.261
13432WAT     H242399   4.987   7.161   2.276
13433WAT      O42400   4.680   8.843   3.469
13433WAT     H142401   4.673   8.933   3.500
13433WAT     H242402   4.590   8.811   3.466
13434WAT      O42403   4.519   7.261   2.070
13434WAT     H142404   4.484   7.193   2.012
13434WAT     H242405   4.539   7.215   2.151
13435WAT      O42406   4.735   8.759   2.231
13435WAT     H142407   4.825   8.793   2.234
13435WAT     H242408   4.738   8.687   2.169
13436WAT      O42409   4.099   8.297   2.054
13436WAT     H142410   4.143   8.351   2.120
13436WAT     H242411   4.147   8.214   2.055
13437WAT      O42412   3.820   8.576   2.799
13437WAT     H142413   3.853   8.489   2.776
13437WAT     H242414   3.863   8.596   2.883
13438WAT      O42415   4.280   8.409   2.565
13438WAT     H142416   4.250   8.396   2.656
13438WAT     H242417   4.269   8.323   2.525
13439WAT      O42418   3.869   8.662   3.073
13439WAT     H142419   3.826   8.680   3.157
13439WAT     H242420   3.926   8.738   3.059
13440WAT      O42421   5.433   8.613   3.502
13440WAT     H142422   5.373   8.618   3.428
13440WAT     H242423   5.446   8.519   3.515
13441WAT      O42424   5.557   8.387   2.036
13441WAT     H142425   5.474   8.393   2.083
13441WAT     H242426   5.575   8.476   2.005
13442WAT      O42427   5.503   8.061   2.286
13442WAT     H142428   5.579   8.118   2.297
13442WAT     H242429   5.504   8.004   2.363
13443WAT      O42430   5.603   8.147   2.771
13443WAT     H142431   5.640   8.068   2.730
13443WAT     H242432   5.667   8.216   2.753
13444WAT      O42433   5.301   8.285   3.312
13444WAT     H142434   5.220   8.328   3.338
13444WAT     H242435   5.342   8.346   3.251
13445WAT      O42436   5.508   8.091   2.002
13445WAT     H142437   5.535   8.181   1.989
13445WAT     H242438   5.489   8.084   2.095
13446WAT      O42439   5.147   7.393   2.131
13446WAT     H142440   5.189   7.374   2.047
13446WAT     H242441   5.117   7.308   2.162
13447WAT      O42442   5.497   7.884   2.501
13447WAT     H142443   5.460   7.807   2.458
13447WAT     H242444   5.424   7.922   2.550
13448WAT      O42445   5.436   7.799   3.465
13448WAT     H142446   5.413   7.776   3.374
13448WAT     H242447   5.462   7.891   3.460
13449WAT      O42448   5.280   7.321   3.742
13449WAT     H142449   5.368   7.322   3.781
13449WAT     H242450   5.281   7.248   3.681
13450WAT      O42451   3.774   7.635   2.303
13450WAT     H142452   3.684   7.661   2.286
13450WAT     H242453   3.822   7.662   2.225
13451WAT      O42454   5.425   7.707   2.831
13451WAT     H142455   5.477   7.657   2.768
13451WAT     H242456   5.483   7.720   2.906
13452WAT      O42457   5.443   7.715   3.183
13452WAT     H142458   5.348   7.712   3.195
13452WAT     H242459   5.461   7.806   3.160
13453WAT      O42460   5.374   7.633   2.425
13453WAT     H142461   5.423   7.609   2.504
13453WAT     H242462   5.354   7.549   2.383
13454WAT      O42463   5.517   7.496   2.678
13454WAT     H142464   5.506   7.481   2.772
13454WAT     H242465   5.593   7.443   2.654
13455WAT      O42466   5.351   7.090   3.324
13455WAT     H142467   5.415   7.151   3.361
13455WAT     H242468   5.366   7.094   3.230
13456WAT      O42469   5.606   7.279   2.003
13456WAT     H142470   5.698   7.266   1.982
13456WAT     H242471   5.603   7.287   2.098
13457WAT      O42472   5.613   7.356   2.265
13457WAT     H142473   5.534   7.350   2.318
13457WAT     H242474   5.633   7.450   2.264
13458WAT      O42475   5.307   8.760   2.665
13458WAT     H142476   5.367   8.728   2.597
13458WAT     H242477   5.333   8.713   2.744
13459WAT      O42478   4.468   8.559   3.240
13459WAT     H142479   4.444   8.586   3.151
13459WAT     H242480   4.562   8.576   3.245
13460WAT      O42481   4.688   7.205   3.615
13460WAT     H142482   4.682   7.265   3.690
13460WAT     H242483   4.782   7.195   3.601
13461WAT      O42484   4.952   7.171   3.579
13461WAT     H142485   5.014   7.203   3.513
13461WAT     H242486   5.007   7.123   3.641
13462WAT      O42487   5.594   8.761   3.320
13462WAT     H142488   5.545   8.801   3.248
13462WAT     H242489   5.533   8.698   3.359
13463WAT      O42490   4.082   8.698   3.391
13463WAT     H142491   4.022   8.685   3.465
13463WAT     H242492   4.081   8.614   3.345
13464WAT      O42493   5.026   7.027   3.212
13464WAT     H142494   4.939   7.061   3.191
13464WAT     H242495   5.015   6.980   3.294
13465WAT      O42496   5.117   7.248   3.350
13465WAT     H142497   5.084   7.167   3.312
13465WAT     H242498   5.212   7.244   3.338
13466WAT      O42499   5.362   8.825   3.047
13466WAT     H142500   5.316   8.900   3.010
13466WAT     H242501   5.299   8.753   3.042
13467WAT      O42502   4.045   8.435   3.286
13467WAT     H142503   3.972   8.373   3.280
13467WAT     H242504   4.051   8.474   3.199
13468WAT      O42505   4.405   8.656   2.965
13468WAT     H142506   4.457   8.595   2.912
13468WAT     H242507   4.470   8.706   3.014
13469WAT      O42508   4.679   8.745   3.048
13469WAT     H142509   4.708   8.720   2.960
13469WAT     H242510   4.730   8.690   3.107
13470WAT      O42511   4.801   7.119   3.106
13470WAT     H142512   4.723   7.166   3.134
13470WAT     H242513   4.772   7.029   3.095
13471WAT      O42514   5.256   7.189   2.910
13471WAT     H142515   5.300   7.184   2.825
13471WAT     H242516   5.229   7.281   2.917
13472WAT      O42517   5.443   7.152   2.711
13472WAT     H142518   5.437   7.058   2.697
13472WAT     H242519   5.521   7.163   2.766
13473WAT      O42520   3.873   8.766   2.607
13473WAT     H142521   3.856   8.703   2.677
13473WAT     H242522   3.787   8.787   2.572
13474WAT      O42523   4.590   7.361   2.657
13474WAT     H142524   4.508   7.323   2.623
13474WAT     H242525   4.640   7.285   2.687
13475WAT      O42526   5.040   7.027   2.781
13475WAT     H142527   5.100   7.085   2.828
13475WAT     H242528   4.966   7.084   2.758
13476WAT      O42529   5.354   7.068   2.308
13476WAT     H142530   5.374   7.157   2.335
13476WAT     H242531   5.275   7.044   2.357
13477WAT      O42532   4.034   8.636   2.352
13477WAT     H142533   3.981   8.674   2.282
13477WAT     H242534   4.026   8.698   2.424
13478WAT      O42535   4.392   7.176   2.517
13478WAT     H142536   4.329   7.106   2.534
13478WAT     H242537   4.338   7.252   2.496
13479WAT      O42538   4.686   8.837   3.784
13479WAT     H142539   4.779   8.814   3.789
13479WAT     H242540   4.684   8.920   3.736
13480WAT      O42541   5.509   8.792   2.484
13480WAT     H142542   5.527   8.723   2.420
13480WAT     H242543   5.440   8.844   2.445
13481WAT      O42544   4.405   7.104   3.761
13481WAT     H142545   4.376   7.154   3.684
13481WAT     H242546   4.443   7.024   3.724
13482WAT      O42547   4.294   8.831   2.239
13482WAT     H142548   4.367   8.802   2.185
13482WAT     H242549   4.320   8.807   2.328
13483WAT      O42550   4.210   8.442   2.240
13483WAT     H142551   4.147   8.489   2.295
13483WAT     H242552   4.221   8.358   2.283
13484WAT      O42553   5.065   7.045   3.819
13484WAT     H142554   5.053   7.077   3.908
13484WAT     H242555   5.146   7.085   3.789
13485WAT      O42556   5.343   8.760   3.767
13485WAT     H142557   5.422   8.710   3.746
13485WAT     H242558   5.372   8.828   3.827
13486WAT      O42559   4.955   7.847   0.855
13486WAT     H142560   4.947   7.756   0.828
13486WAT     H242561   4.914   7.897   0.784
13487WAT      O42562   4.769   8.025   1.043
13487WAT     H142563   4.691   7.977   1.072
13487WAT     H242564   4.834   7.957   1.026
13488WAT      O42565   4.170   8.056   1.131
13488WAT     H142566   4.087   8.031   1.171
13488WAT     H242567   4.231   8.063   1.204
13489WAT      O42568   5.171   8.466   0.921
13489WAT     H142569   5.124   8.388   0.954
13489WAT     H242570   5.252   8.468   0.972
13490WAT      O42571   4.168   8.460   1.150
13490WAT     H142572   4.198   8.371   1.132
13490WAT     H242573   4.243   8.515   1.128
13491WAT      O42574   4.011   7.552   0.509
13491WAT     H142575   3.922   7.586   0.499
13491WAT     H242576   4.040   7.532   0.420
13492WAT      O42577   3.807   7.812   1.098
13492WAT     H142578   3.865   7.735   1.098
13492WAT     H242579   3.807   7.842   1.007
13493WAT      O42580   4.793   8.694   0.883
13493WAT     H142581   4.731   8.740   0.826
13493WAT     H242582   4.879   8.710   0.843
13494WAT      O42583   4.713   8.293   1.044
13494WAT     H142584   4.706   8.198   1.028
13494WAT     H242585   4.789   8.302   1.101
13495WAT      O42586   4.816   7.573   1.066
13495WAT     H142587   4.853   7.486   1.055
13495WAT     H242588   4.806   7.607   0.977
13496WAT      O42589   4.229   7.411   0.613
13496WAT     H142590   4.239   7.501   0.643
13496WAT     H242591   4.138   7.406   0.584
13497WAT      O42592   5.194   7.323   0.760
13497WAT     H142593   5.276   7.274   0.764
13497WAT     H242594   5.197   7.382   0.835
13498WAT      O42595   3.994   7.603   1.137
13498WAT     H142596   4.062   7.629   1.199
13498WAT     H242597   3.962   7.519   1.170
13499WAT      O42598   4.413   7.707   1.046
13499WAT     H142599   4.464   7.757   1.110
13499WAT     H242600   4.466   7.630   1.028
13500WAT      O42601   5.623   7.524   1.416
13500WAT     H142602   5.552   7.563   1.364
13500WAT     H242603   5.650   7.594   1.476
13501WAT      O42604   4.880   8.183   0.622
13501WAT     H142605   4.818   8.229   0.566
13501WAT     H242606   4.931   8.252   0.664
13502WAT      O42607   4.366   8.135   1.290
13502WAT     H142608   4.333   8.198   1.354
13502WAT     H242609   4.384   8.188   1.212
13503WAT      O42610   5.218   7.517   1.037
13503WAT     H142611   5.147   7.546   1.095
13503WAT     H242612   5.254   7.598   1.001
13504WAT      O42613   4.209   7.342   1.273
13504WAT     H142614   4.243   7.427   1.244
13504WAT     H242615   4.115   7.357   1.285
13505WAT      O42616   4.287   8.332   1.472
13505WAT     H142617   4.349   8.400   1.444
13505WAT     H242618   4.201   8.373   1.463
13506WAT      O42619   3.817   8.251   0.360
13506WAT     H142620   3.779   8.300   0.287
13506WAT     H242621   3.842   8.318   0.423
13507WAT      O42622   5.379   8.479   1.263
13507WAT     H142623   5.311   8.546   1.262
13507WAT     H242624   5.433   8.498   1.187
13508WAT      O42625   5.524   7.461   1.076
13508WAT     H142626   5.430   7.465   1.089
13508WAT     H242627   5.557   7.543   1.115
13509WAT      O42628   4.578   7.091   0.906
13509WAT     H142629   4.608   7.036   0.834
13509WAT     H242630   4.485   7.105   0.887
13510WAT      O42631   5.133   8.663   1.135
13510WAT     H142632   5.134   8.623   1.048
13510WAT     H242633   5.078   8.740   1.124
13511WAT      O42634   5.262   8.335   0.644
13511WAT     H142635   5.251   8.241   0.656
13511WAT     H242636   5.262   8.371   0.732
13512WAT      O42637   5.073   8.153   1.267
13512WAT     H142638   5.114   8.132   1.184
13512WAT     H242639   5.145   8.179   1.325
13513WAT      O42640   4.816   7.898   0.579
13513WAT     H142641   4.724   7.891   0.602
13513WAT     H242642   4.832   7.992   0.568
13514WAT      O42643   4.815   7.525   0.279
13514WAT     H142644   4.721   7.541   0.287
13514WAT     H242645   4.847   7.597   0.224
13515WAT      O42646   5.467   7.993   1.277
13515WAT     H142647   5.384   8.000   1.229
13515WAT     H242648   5.527   8.052   1.230
13516WAT      O42649   5.219   8.054   0.630
13516WAT     H142650   5.158   8.020   0.565
13516WAT     H242651   5.218   7.990   0.700
13517WAT      O42652   5.164   7.672   1.371
13517WAT     H142653   5.122   7.754   1.397
13517WAT     H242654   5.090   7.613   1.352
13518WAT      O42655   4.377   7.950   0.857
13518WAT     H142656   4.337   7.879   0.808
13518WAT     H242657   4.386   7.916   0.946
13519WAT      O42658   4.424   8.319   1.074
13519WAT     H142659   4.394   8.259   1.006
13519WAT     H242660   4.519   8.323   1.063
13520WAT      O42661   4.248   7.628   1.235
13520WAT     H142662   4.303   7.639   1.158
13520WAT     H242663   4.300   7.665   1.307
13521WAT      O42664   5.233   8.676   1.440
13521WAT     H142665   5.185   8.757   1.421
13521WAT     H242666   5.164   8.611   1.455
13522WAT      O42667   4.333   8.293   1.739
13522WAT     H142668   4.243   8.315   1.764
13522WAT     H242669   4.336   8.305   1.644
13523WAT      O42670   5.037   7.978   0.330
13523WAT     H142671   5.081   7.894   0.316
13523WAT     H242672   5.108   8.041   0.339
13524WAT      O42673   4.216   7.980   1.596
13524WAT     H142674   4.202   8.067   1.633
13524WAT     H242675   4.128   7.946   1.582
13525WAT      O42676   4.848   8.472   0.727
13525WAT     H142677   4.892   8.546   0.686
13525WAT     H242678   4.842   8.496   0.819
13526WAT      O42679   4.395   8.574   1.817
13526WAT     H142680   4.393   8.615   1.731
13526WAT     H242681   4.379   8.481   1.801
13527WAT      O42682   4.047   7.840   0.607
13527WAT     H142683   4.035   7.913   0.546
13527WAT     H242684   4.016   7.763   0.560
13528WAT      O42685   5.591   8.653   1.947
13528WAT     H142686   5.638   8.700   2.015
13528WAT     H242687   5.653   8.646   1.874
13529WAT      O42688   3.811   8.157   1.188
13529WAT     H142689   3.819   8.171   1.094
13529WAT     H242690   3.872   8.086   1.207
13530WAT      O42691   3.935   8.327   0.829
13530WAT     H142692   3.895   8.341   0.744
13530WAT     H242693   4.024   8.299   0.809
13531WAT      O42694   5.531   8.372   1.663
13531WAT     H142695   5.544   8.348   1.571
13531WAT     H242696   5.535   8.289   1.710
13532WAT      O42697   4.917   8.742   1.520
13532WAT     H142698   4.969   8.733   1.600
13532WAT     H242699   4.833   8.777   1.549
13533WAT      O42700   5.115   8.771   0.463
13533WAT     H142701   5.099   8.742   0.553
13533WAT     H242702   5.098   8.693   0.409
13534WAT      O42703   4.363   8.748   0.640
13534WAT     H142704   4.345   8.657   0.619
13534WAT     H242705   4.277   8.784   0.664
13535WAT      O42706   5.085   8.521   0.319
13535WAT     H142707   5.016   8.521   0.253
13535WAT     H242708   5.159   8.479   0.276
13536WAT      O42709   5.041   8.684   0.726
13536WAT     H142710   5.087   8.606   0.758
13536WAT     H242711   5.075   8.755   0.781
13537WAT      O42712   5.516   7.577   1.759
13537WAT     H142713   5.455   7.628   1.707
13537WAT     H242714   5.484   7.487   1.754
13538WAT      O42715   3.816   8.261   1.442
13538WAT     H142716   3.833   8.214   1.360
13538WAT     H242717   3.863   8.210   1.509
13539WAT      O42718   4.294   7.174   0.946
13539WAT     H142719   4.249   7.252   0.913
13539WAT     H242720   4.350   7.207   1.016
13540WAT      O42721   4.722   7.461   1.506
13540WAT     H142722   4.676   7.482   1.587
13540WAT     H242723   4.682   7.380   1.476
13541WAT      O42724   5.222   7.583   1.619
13541WAT     H142725   5.137   7.553   1.651
13541WAT     H242726   5.206   7.607   1.528
13542WAT      O42727   4.932   7.733   1.829
13542WAT     H142728   4.964   7.650   1.795
13542WAT     H242729   5.011   7.785   1.844
13543WAT      O42730   4.605   7.136   0.434
13543WAT     H142731   4.543   7.136   0.506
13543WAT     H242732   4.597   7.050   0.394
13544WAT      O42733   4.497   7.229   1.132
13544WAT     H142734   4.527   7.319   1.124
13544WAT     H242735   4.552   7.180   1.070
13545WAT      O42736   4.273   7.687   0.719
13545WAT     H142737   4.250   7.665   0.809
13545WAT     H242738   4.195   7.730   0.684
13546WAT      O42739   4.996   7.687   0.578
13546WAT     H142740   4.936   7.760   0.560
13546WAT     H242741   5.051   7.681   0.500
13547WAT      O42742   4.517   7.776   1.785
13547WAT     H142743   4.507   7.682   1.770
13547WAT     H242744   4.601   7.799   1.746
13548WAT      O42745   4.856   7.551   0.781
13548WAT     H142746   4.896   7.583   0.700
13548WAT     H242747   4.893   7.463   0.793
13549WAT      O42748   4.687   7.426   1.907
13549WAT     H142749   4.618   7.407   1.971
13549WAT     H242750   4.762   7.454   1.961
13550WAT      O42751   3.760   7.210   1.004
13550WAT     H142752   3.731   7.267   1.075
13550WAT     H242753   3.835   7.162   1.040
13551WAT      O42754   4.915   7.810   1.191
13551WAT     H142755   4.842   7.861   1.226
13551WAT     H242756   4.875   7.728   1.161
13552WAT      O42757   4.559   7.477   1.031
13552WAT     H142758   4.559   7.433   0.947
13552WAT     H242759   4.648   7.510   1.042
13553WAT      O42760   4.144   7.466   0.927
13553WAT     H142761   4.110   7.513   1.003
13553WAT     H242762   4.068   7.420   0.891
13554WAT      O42763   4.565   7.578   0.331
13554WAT     H142764   4.577   7.573   0.425
13554WAT     H242765   4.526   7.664   0.315
13555WAT      O42766   4.961   7.355   1.132
13555WAT     H142767   4.963   7.400   1.217
13555WAT     H242768   4.936   7.265   1.154
13556WAT      O42769   4.466   7.809   0.270
13556WAT     H142770   4.409   7.764   0.208
13556WAT     H242771   4.537   7.844   0.217
13557WAT      O42772   5.304   7.097   1.716
13557WAT     H142773   5.336   7.023   1.769
13557WAT     H242774   5.308   7.065   1.626
13558WAT      O42775   3.974   8.199   1.658
13558WAT     H142776   3.935   8.135   1.718
13558WAT     H242777   4.005   8.269   1.715
13559WAT      O42778   4.589   7.883   1.206
13559WAT     H142779   4.626   7.836   1.281
13559WAT     H242780   4.570   7.971   1.240
13560WAT      O42781   3.875   7.358   0.819
13560WAT     H142782   3.847   7.321   0.903
13560WAT     H242783   3.869   7.285   0.758
13561WAT      O42784   4.368   7.788   1.438
13561WAT     H142785   4.337   7.875   1.460
13561WAT     H242786   4.463   7.794   1.442
13562WAT      O42787   4.221   8.208   0.498
13562WAT     H142788   4.143   8.154   0.482
13562WAT     H242789   4.294   8.156   0.464
13563WAT      O42790   5.297   8.108   1.077
13563WAT     H142791   5.369   8.157   1.038
13563WAT     H242792   5.276   8.040   1.012
13564WAT      O42793   4.843   7.247   0.491
13564WAT     H142794   4.761   7.197   0.484
13564WAT     H242795   4.823   7.331   0.450
13565WAT      O42796   4.835   8.115   1.666
13565WAT     H142797   4.828   8.023   1.640
13565WAT     H242798   4.772   8.125   1.737
13566WAT      O42799   5.114   7.684   0.321
13566WAT     H142800   5.203   7.716   0.303
13566WAT     H242801   5.111   7.597   0.282
13567WAT      O42802   4.225   8.175   0.861
13567WAT     H142803   4.277   8.095   0.856
13567WAT     H242804   4.180   8.169   0.946
13568WAT      O42805   4.714   8.302   0.389
13568WAT     H142806   4.748   8.376   0.339
13568WAT     H242807   4.631   8.333   0.425
13569WAT      O42808   3.973   7.872   1.553
13569WAT     H142809   3.938   7.938   1.611
13569WAT     H242810   3.944   7.788   1.590
13570WAT      O42811   4.294   7.917   1.841
13570WAT     H142812   4.264   7.932   1.751
13570WAT     H242813   4.371   7.861   1.832
13571WAT      O42814   4.828   8.397   1.641
13571WAT     H142815   4.829   8.304   1.619
13571WAT     H242816   4.757   8.406   1.705
13572WAT      O42817   5.341   7.816   0.268
13572WAT     H142818   5.333   7.859   0.183
13572WAT     H242819   5.413   7.861   0.311
13573WAT      O42820   5.449   8.061   1.575
13573WAT     H142821   5.376   8.120   1.556
13573WAT     H242822   5.502   8.060   1.495
13574WAT      O42823   5.444   8.501   0.540
13574WAT     H142824   5.380   8.435   0.568
13574WAT     H242825   5.405   8.541   0.463
13575WAT      O42826   5.002   8.234   0.925
13575WAT     H142827   5.037   8.174   0.859
13575WAT     H242828   4.914   8.201   0.942
13576WAT      O42829   4.611   8.310   0.666
13576WAT     H142830   4.679   8.364   0.704
13576WAT     H242831   4.532   8.364   0.669
13577WAT      O42832   3.825   7.871   0.215
13577WAT     H142833   3.911   7.900   0.243
13577WAT     H242834   3.775   7.953   0.204
13578WAT      O42835   4.541   8.010   0.627
13578WAT     H142836   4.587   8.091   0.650
13578WAT     H242837   4.506   7.978   0.710
13579WAT      O42838   4.771   8.561   1.350
13579WAT     H142839   4.836   8.582   1.418
13579WAT     H242840   4.808   8.485   1.305
13580WAT      O42841   4.131   7.045   0.674
13580WAT     H142842   4.118   7.044   0.769
13580WAT     H242843   4.049   7.078   0.639
13581WAT      O42844   4.899   8.362   1.222
13581WAT     H142845   4.963   8.292   1.233
13581WAT     H242846   4.951   8.440   1.204
13582WAT      O42847   5.076   8.442   1.542
13582WAT     H142848   5.109   8.500   1.610
13582WAT     H242849   4.984   8.428   1.565
13583WAT      O42850   3.861   8.793   0.272
13583WAT     H142851   3.897   8.853   0.206
13583WAT     H242852   3.847   8.847   0.349
13584WAT      O42853   5.241   8.182   0.360
13584WAT     H142854   5.212   8.228   0.439
13584WAT     H242855   5.321   8.136   0.387
13585WAT      O42856   3.860   8.619   1.719
13585WAT     H142857   3.871   8.525   1.705
13585WAT     H242858   3.794   8.646   1.654
13586WAT      O42859   4.659   8.446   1.859
13586WAT     H142860   4.627   8.375   1.914
13586WAT     H242861   4.591   8.514   1.866
13587WAT      O42862   4.463   8.531   0.353
13587WAT     H142863   4.462   8.604   0.292
13587WAT     H242864   4.371   8.506   0.363
13588WAT      O42865   4.023   8.053   0.428
13588WAT     H142866   3.962   8.127   0.429
13588WAT     H242867   4.071   8.062   0.345
13589WAT      O42868   4.980   7.470   1.395
13589WAT     H142869   5.017   7.388   1.428
13589WAT     H242870   4.894   7.476   1.437
13590WAT      O42871   5.317   7.365   0.476
13590WAT     H142872   5.254   7.376   0.405
13590WAT     H242873   5.267   7.387   0.555
13591WAT      O42874   4.514   7.593   0.618
13591WAT     H142875   4.443   7.640   0.662
13591WAT     H242876   4.542   7.527   0.681
13592WAT      O42877   4.676   7.735   1.418
13592WAT     H142878   4.726   7.783   1.484
13592WAT     H242879   4.691   7.643   1.439
13593WAT      O42880   4.917   7.266   0.762
13593WAT     H142881   4.905   7.268   0.667
13593WAT     H242882   5.012   7.270   0.774
13594WAT      O42883   4.626   8.789   0.689
13594WAT     H142884   4.651   8.785   0.597
13594WAT     H242885   4.531   8.777   0.688
13595WAT      O42886   4.334   7.424   0.355
13595WAT     H142887   4.419   7.468   0.349
13595WAT     H242888   4.297   7.455   0.438
13596WAT      O42889   5.397   7.357   1.502
13596WAT     H142890   5.347   7.431   1.536
13596WAT     H242891   5.479   7.396   1.470
13597WAT      O42892   5.226   7.881   0.847
13597WAT     H142893   5.132   7.883   0.864
13597WAT     H242894   5.258   7.802   0.891
13598WAT      O42895   4.094   7.793   0.271
13598WAT     H142896   4.102   7.698   0.282
13598WAT     H242897   4.183   7.826   0.282
13599WAT      O42898   5.427   8.598   1.014
13599WAT     H142899   5.439   8.681   1.061
13599WAT     H242900   5.513   8.577   0.979
13600WAT      O42901   4.174   8.808   0.981
13600WAT     H142902   4.247   8.753   1.009
13600WAT     H242903   4.212   8.894   0.967
13601WAT      O42904   3.862   8.414   0.569
13601WAT     H142905   3.770   8.438   0.568
13601WAT     H242906   3.909   8.497   0.557
13602WAT      O42907   4.074   8.726   1.900
13602WAT     H142908   4.154   8.758   1.942
13602WAT     H242909   4.023   8.690   1.972
13603WAT      O42910   4.958   8.337   1.895
13603WAT     H142911   4.897   8.339   1.821
13603WAT     H242912   4.927   8.264   1.949
13604WAT      O42913   5.101   8.710   1.756
13604WAT     H142914   5.196   8.701   1.751
13604WAT     H242915   5.086   8.776   1.823
13605WAT      O42916   5.390   8.648   0.306
13605WAT     H142917   5.361   8.606   0.225
13605WAT     H242918   5.370   8.740   0.294
13606WAT      O42919   3.846   7.975   1.795
13606WAT     H142920   3.897   7.917   1.852
13606WAT     H242921   3.772   8.003   1.848
13607WAT      O42922   4.552   8.115   1.748
13607WAT     H142923   4.475   8.172   1.740
13607WAT     H242924   4.570   8.086   1.659
13608WAT      O42925   4.861   8.153   0.211
13608WAT     H142926   4.806   8.198   0.275
13608WAT     H242927   4.923   8.103   0.263
13609WAT      O42928   5.266   8.288   1.804
13609WAT     H142929   5.340   8.322   1.753
13609WAT     H242930   5.190   8.305   1.748
13610WAT      O42931   4.049   7.789   1.884
13610WAT     H142932   4.054   7.759   1.975
13610WAT     H242933   4.135   7.829   1.868
13611WAT      O42934   4.427   8.049   0.400
13611WAT     H142935   4.469   8.032   0.484
13611WAT     H242936   4.440   7.968   0.351
13612WAT      O42937   4.244   7.647   1.681
13612WAT     H142938   4.190   7.598   1.618
13612WAT     H242939   4.310   7.690   1.627
13613WAT      O42940   5.133   8.094   1.657
13613WAT     H142941   5.175   8.109   1.742
13613WAT     H242942   5.040   8.106   1.674
13614WAT      O42943   5.181   7.828   1.858
13614WAT     H142944   5.239   7.752   1.849
13614WAT     H242945   5.198   7.881   1.780
13615WAT      O42946   4.569   7.199   1.392
13615WAT     H142947   4.524   7.202   1.308
13615WAT     H242948   4.506   7.159   1.452
13616WAT      O42949   4.609   8.089   1.454
13616WAT     H142950   4.651   8.173   1.437
13616WAT     H242951   4.518   8.103   1.431
13617WAT      O42952   4.843   7.862   1.593
13617WAT     H142953   4.855   7.802   1.667
13617WAT     H242954   4.929   7.866   1.551
13618WAT      O42955   5.077   7.917   1.450
13618WAT     H142956   5.024   7.970   1.390
13618WAT     H242957   5.111   7.981   1.513
13619WAT      O42958   4.395   8.719   1.566
13619WAT     H142959   4.341   8.792   1.534
13619WAT     H242960   4.420   8.672   1.487
13620WAT      O42961   4.520   7.516   1.718
13620WAT     H142962   4.579   7.485   1.787
13620WAT     H242963   4.438   7.469   1.734
13621WAT      O42964   5.002   7.478   1.742
13621WAT     H142965   4.933   7.412   1.735
13621WAT     H242966   5.074   7.433   1.786
13622WAT      O42967   5.065   7.137   0.348
13622WAT     H142968   5.093   7.053   0.383
13622WAT     H242969   4.987   7.161   0.399
13623WAT      O42970   4.680   8.843   1.592
13623WAT     H142971   4.673   8.933   1.622
13623WAT     H242972   4.590   8.811   1.589
13624WAT      O42973   4.735   8.759   0.354
13624WAT     H142974   4.825   8.793   0.356
13624WAT     H242975   4.738   8.687   0.291
13625WAT      O42976   4.099   8.297   0.177
13625WAT     H142977   4.143   8.351   0.242
13625WAT     H242978   4.147   8.214   0.178
13626WAT      O42979   3.820   8.576   0.922
13626WAT     H142980   3.853   8.489   0.899
13626WAT     H242981   3.863   8.596   1.005
13627WAT      O42982   4.280   8.409   0.688
13627WAT     H142983   4.250   8.396   0.778
13627WAT     H242984   4.269   8.323   0.647
13628WAT      O42985   3.869   8.662   1.196
13628WAT     H142986   3.826   8.680   1.279
13628WAT     H242987   3.926   8.738   1.182
13629WAT      O42988   5.433   8.613   1.625
13629WAT     H142989   5.373   8.618   1.550
13629WAT     H242990   5.446   8.519   1.638
13630WAT      O42991   5.503   8.061   0.409
13630WAT     H142992   5.579   8.118   0.419
13630WAT     H242993   5.504   8.004   0.486
13631WAT      O42994   3.853   7.914   0.832
13631WAT     H142995   3.787   7.887   0.767
13631WAT     H242996   3.936   7.903   0.787
13632WAT      O42997   5.603   8.147   0.893
13632WAT     H142998   5.640   8.068   0.852
13632WAT     H242999   5.667   8.216   0.875
13633WAT      O43000   5.301   8.285   1.434
13633WAT     H143001   5.220   8.328   1.461
13633WAT     H243002   5.342   8.346   1.373
13634WAT      O43003   5.147   7.393   0.254
13634WAT     H143004   5.189   7.374   0.170
13634WAT     H243005   5.117   7.308   0.285
13635WAT      O43006   5.497   7.884   0.624
13635WAT     H143007   5.460   7.807   0.580
13635WAT     H243008   5.424   7.922   0.672
13636WAT      O43009   3.956   7.952   1.286
13636WAT     H143010   3.993   7.943   1.374
13636WAT     H243011   3.899   7.876   1.276
13637WAT      O43012   5.436   7.799   1.587
13637WAT     H143013   5.413   7.776   1.497
13637WAT     H243014   5.462   7.891   1.583
13638WAT      O43015   5.280   7.321   1.865
13638WAT     H143016   5.368   7.322   1.903
13638WAT     H243017   5.281   7.248   1.804
13639WAT      O43018   3.774   7.635   0.426
13639WAT     H143019   3.684   7.661   0.409
13639WAT     H243020   3.822   7.662   0.348
13640WAT      O43021   5.425   7.707   0.954
13640WAT     H143022   5.477   7.657   0.891
13640WAT     H243023   5.483   7.720   1.028
13641WAT      O43024   5.443   7.715   1.306
13641WAT     H143025   5.348   7.712   1.317
13641WAT     H243026   5.461   7.806   1.282
13642WAT      O43027   5.374   7.633   0.548
13642WAT     H143028   5.423   7.609   0.626
13642WAT     H243029   5.354   7.549   0.506
13643WAT      O43030   3.962   7.071   1.111
13643WAT     H143031   4.027   7.016   1.067
13643WAT     H243032   4.004   7.096   1.193
13644WAT      O43033   5.517   7.496   0.801
13644WAT     H143034   5.506   7.481   0.895
13644WAT     H243035   5.593   7.443   0.777
13645WAT      O43036   5.351   7.090   1.447
13645WAT     H143037   5.415   7.151   1.483
13645WAT     H243038   5.366   7.094   1.352
13646WAT      O43039   5.613   7.356   0.388
13646WAT     H143040   5.534   7.350   0.441
13646WAT     H243041   5.633   7.450   0.387
13647WAT      O43042   5.307   8.760   0.787
13647WAT     H143043   5.367   8.728   0.719
13647WAT     H243044   5.333   8.713   0.866
13648WAT      O43045   4.098   8.403   1.802
13648WAT     H143046   4.094   8.366   1.890
13648WAT     H243047   4.111   8.497   1.816
13649WAT      O43048   4.468   8.559   1.362
13649WAT     H143049   4.444   8.586   1.273
13649WAT     H243050   4.562   8.576   1.368
13650WAT      O43051   4.688   7.205   1.738
13650WAT     H143052   4.682   7.265   1.813
13650WAT     H243053   4.782   7.195   1.723
13651WAT      O43054   4.952   7.171   1.702
13651WAT     H143055   5.014   7.203   1.635
13651WAT     H243056   5.007   7.123   1.764
13652WAT      O43057   5.594   8.761   1.442
13652WAT     H143058   5.545   8.801   1.370
13652WAT     H243059   5.533   8.698   1.482
13653WAT      O43060   4.082   8.698   1.514
13653WAT     H143061   4.022   8.685   1.588
13653WAT     H243062   4.081   8.614   1.467
13654WAT      O43063   5.026   7.027   1.334
13654WAT     H143064   4.939   7.061   1.314
13654WAT     H243065   5.015   6.980   1.417
13655WAT      O43066   5.117   7.248   1.473
13655WAT     H143067   5.084   7.167   1.435
13655WAT     H243068   5.212   7.244   1.460
13656WAT      O43069   5.362   8.825   1.170
13656WAT     H143070   5.316   8.900   1.133
13656WAT     H243071   5.299   8.753   1.164
13657WAT      O43072   4.045   8.435   1.409
13657WAT     H143073   3.972   8.373   1.402
13657WAT     H243074   4.051   8.474   1.322
13658WAT      O43075   4.405   8.656   1.088
13658WAT     H143076   4.457   8.595   1.035
13658WAT     H243077   4.470   8.706   1.137
13659WAT      O43078   4.679   8.745   1.170
13659WAT     H143079   4.708   8.720   1.083
13659WAT     H243080   4.730   8.690   1.229
13660WAT      O43081   4.801   7.119   1.228
13660WAT     H143082   4.723   7.166   1.256
13660WAT     H243083   4.772   7.029   1.217
13661WAT      O43084   5.256   7.189   1.033
13661WAT     H143085   5.300   7.184   0.948
13661WAT     H243086   5.229   7.281   1.040
13662WAT      O43087   5.443   7.152   0.834
13662WAT     H143088   5.437   7.058   0.819
13662WAT     H243089   5.521   7.163   0.888
13663WAT      O43090   3.873   8.766   0.730
13663WAT     H143091   3.856   8.703   0.800
13663WAT     H243092   3.787   8.787   0.695
13664WAT      O43093   3.935   7.150   0.480
13664WAT     H143094   4.011   7.161   0.423
13664WAT     H243095   3.889   7.233   0.476
13665WAT      O43096   4.590   7.361   0.779
13665WAT     H143097   4.508   7.323   0.745
13665WAT     H243098   4.640   7.285   0.810
13666WAT      O43099   5.040   7.027   0.903
13666WAT     H143100   5.100   7.085   0.951
13666WAT     H243101   4.966   7.084   0.881
13667WAT      O43102   5.354   7.068   0.431
13667WAT     H143103   5.374   7.157   0.457
13667WAT     H243104   5.275   7.044   0.480
13668WAT      O43105   4.034   8.636   0.474
13668WAT     H143106   3.981   8.674   0.404
13668WAT     H243107   4.026   8.698   0.547
13669WAT      O43108   4.173   7.202   0.334
13669WAT     H143109   4.226   7.123   0.321
13669WAT     H243110   4.236   7.270   0.358
13670WAT      O43111   4.392   7.176   0.640
13670WAT     H143112   4.329   7.106   0.656
13670WAT     H243113   4.338   7.252   0.618
13671WAT      O43114   4.686   8.837   1.907
13671WAT     H143115   4.779   8.814   1.911
13671WAT     H243116   4.684   8.920   1.859
13672WAT      O43117   5.509   8.792   0.607
13672WAT     H143118   5.527   8.723   0.542
13672WAT     H243119   5.440   8.844   0.567
13673WAT      O43120   4.294   8.831   0.362
13673WAT     H143121   4.367   8.802   0.307
13673WAT     H243122   4.320   8.807   0.451
13674WAT      O43123   4.210   8.442   0.362
13674WAT     H143124   4.147   8.489   0.417
13674WAT     H243125   4.221   8.358   0.406
13675WAT      O43126   5.065   7.045   1.941
13675WAT     H143127   5.053   7.077   2.031
13675WAT     H243128   5.146   7.085   1.911
13676WAT      O43129   5.343   8.760   1.889
13676WAT     H143130   5.422   8.710   1.869
13676WAT     H243131   5.372   8.828   1.950
13677WAT      O43132   4.955   5.970   6.487
13677WAT     H143133   4.947   5.878   6.460
13677WAT     H243134   4.914   6.019   6.417
13678WAT      O43135   4.769   6.148   6.675
13678WAT     H143136   4.691   6.100   6.704
13678WAT     H243137   4.834   6.080   6.658
13679WAT      O43138   4.170   6.179   6.763
13679WAT     H143139   4.087   6.153   6.803
13679WAT     H243140   4.231   6.186   6.837
13680WAT      O43141   5.171   6.588   6.553
13680WAT     H143142   5.124   6.511   6.586
13680WAT     H243143   5.252   6.591   6.604
13681WAT      O43144   4.168   6.582   6.783
13681WAT     H143145   4.198   6.493   6.765
13681WAT     H243146   4.243   6.638   6.760
13682WAT      O43147   4.011   5.675   6.141
13682WAT     H143148   3.922   5.709   6.131
13682WAT     H243149   4.040   5.655   6.052
13683WAT      O43150   3.807   5.935   6.730
13683WAT     H143151   3.865   5.858   6.730
13683WAT     H243152   3.807   5.965   6.639
13684WAT      O43153   4.793   6.817   6.515
13684WAT     H143154   4.731   6.862   6.458
13684WAT     H243155   4.879   6.832   6.475
13685WAT      O43156   4.713   6.415   6.676
13685WAT     H143157   4.706   6.321   6.660
13685WAT     H243158   4.789   6.424   6.733
13686WAT      O43159   3.932   5.476   6.909
13686WAT     H143160   3.914   5.386   6.937
13686WAT     H243161   3.892   5.530   6.976
13687WAT      O43162   4.816   5.696   6.699
13687WAT     H143163   4.853   5.609   6.687
13687WAT     H243164   4.806   5.729   6.610
13688WAT      O43165   4.229   5.533   6.245
13688WAT     H143166   4.239   5.623   6.276
13688WAT     H243167   4.138   5.528   6.216
13689WAT      O43168   5.194   5.445   6.392
13689WAT     H143169   5.276   5.396   6.396
13689WAT     H243170   5.197   5.504   6.467
13690WAT      O43171   3.994   5.725   6.769
13690WAT     H143172   4.062   5.752   6.831
13690WAT     H243173   3.962   5.641   6.803
13691WAT      O43174   4.413   5.830   6.678
13691WAT     H143175   4.464   5.880   6.742
13691WAT     H243176   4.466   5.752   6.661
13692WAT      O43177   5.623   5.647   7.048
13692WAT     H143178   5.552   5.686   6.997
13692WAT     H243179   5.650   5.717   7.109
13693WAT      O43180   4.241   5.294   7.105
13693WAT     H143181   4.241   5.346   7.024
13693WAT     H243182   4.158   5.246   7.102
13694WAT      O43183   4.880   6.305   6.255
13694WAT     H143184   4.818   6.352   6.198
13694WAT     H243185   4.931   6.374   6.296
13695WAT      O43186   4.366   6.258   6.922
13695WAT     H143187   4.333   6.321   6.987
13695WAT     H243188   4.384   6.311   6.845
13696WAT      O43189   5.218   5.639   6.669
13696WAT     H143190   5.147   5.668   6.727
13696WAT     H243191   5.254   5.720   6.633
13697WAT      O43192   4.209   5.465   6.905
13697WAT     H143193   4.243   5.549   6.876
13697WAT     H243194   4.115   5.480   6.917
13698WAT      O43195   4.287   6.455   7.104
13698WAT     H143196   4.349   6.522   7.076
13698WAT     H243197   4.201   6.496   7.095
13699WAT      O43198   3.817   6.374   5.992
13699WAT     H143199   3.779   6.423   5.919
13699WAT     H243200   3.842   6.441   6.055
13700WAT      O43201   5.379   6.601   6.896
13700WAT     H143202   5.311   6.668   6.895
13700WAT     H243203   5.433   6.621   6.819
13701WAT      O43204   5.524   5.584   6.708
13701WAT     H143205   5.430   5.587   6.721
13701WAT     H243206   5.557   5.665   6.747
13702WAT      O43207   4.578   5.214   6.538
13702WAT     H143208   4.608   5.158   6.466
13702WAT     H243209   4.485   5.227   6.520
13703WAT      O43210   5.133   6.786   6.767
13703WAT     H143211   5.134   6.745   6.680
13703WAT     H243212   5.078   6.863   6.757
13704WAT      O43213   5.262   6.458   6.276
13704WAT     H143214   5.251   6.363   6.288
13704WAT     H243215   5.262   6.494   6.365
13705WAT      O43216   5.073   6.276   6.900
13705WAT     H143217   5.114   6.254   6.816
13705WAT     H243218   5.145   6.302   6.957
13706WAT      O43219   4.816   6.020   6.212
13706WAT     H143220   4.724   6.014   6.234
13706WAT     H243221   4.832   6.114   6.200
13707WAT      O43222   4.815   5.648   5.911
13707WAT     H143223   4.721   5.664   5.920
13707WAT     H243224   4.847   5.719   5.857
13708WAT      O43225   5.467   6.116   6.909
13708WAT     H143226   5.384   6.123   6.861
13708WAT     H243227   5.527   6.174   6.862
13709WAT      O43228   5.219   6.177   6.262
13709WAT     H143229   5.158   6.143   6.197
13709WAT     H243230   5.218   6.112   6.333
13710WAT      O43231   5.164   5.794   7.004
13710WAT     H143232   5.122   5.877   7.029
13710WAT     H243233   5.090   5.736   6.984
13711WAT      O43234   4.377   6.073   6.490
13711WAT     H143235   4.337   6.002   6.440
13711WAT     H243236   4.386   6.039   6.579
13712WAT      O43237   4.424   6.442   6.706
13712WAT     H143238   4.394   6.381   6.638
13712WAT     H243239   4.519   6.445   6.695
13713WAT      O43240   4.248   5.750   6.868
13713WAT     H143241   4.303   5.761   6.790
13713WAT     H243242   4.300   5.788   6.939
13714WAT      O43243   5.233   6.799   7.072
13714WAT     H143244   5.185   6.880   7.053
13714WAT     H243245   5.164   6.734   7.088
13715WAT      O43246   4.333   6.415   7.371
13715WAT     H143247   4.243   6.438   7.396
13715WAT     H243248   4.336   6.428   7.276
13716WAT      O43249   5.037   6.100   5.963
13716WAT     H143250   5.081   6.017   5.948
13716WAT     H243251   5.108   6.164   5.971
13717WAT      O43252   4.216   6.103   7.229
13717WAT     H143253   4.202   6.190   7.266
13717WAT     H243254   4.128   6.068   7.214
13718WAT      O43255   4.848   6.594   6.359
13718WAT     H143256   4.892   6.669   6.318
13718WAT     H243257   4.842   6.619   6.452
13719WAT      O43258   4.395   6.697   7.450
13719WAT     H143259   4.393   6.737   7.363
13719WAT     H243260   4.379   6.604   7.433
13720WAT      O43261   5.395   5.226   5.794
13720WAT     H143262   5.364   5.235   5.884
13720WAT     H243263   5.471   5.284   5.789
13721WAT      O43264   4.047   5.962   6.240
13721WAT     H143265   4.035   6.035   6.179
13721WAT     H243266   4.016   5.885   6.192
13722WAT      O43267   3.811   6.280   6.820
13722WAT     H143268   3.819   6.293   6.726
13722WAT     H243269   3.872   6.209   6.840
13723WAT      O43270   3.935   6.450   6.462
13723WAT     H143271   3.895   6.464   6.376
13723WAT     H243272   4.024   6.421   6.441
13724WAT      O43273   5.531   6.494   7.295
13724WAT     H143274   5.544   6.470   7.203
13724WAT     H243275   5.535   6.411   7.342
13725WAT      O43276   4.917   6.865   7.152
13725WAT     H143277   4.969   6.856   7.232
13725WAT     H243278   4.833   6.899   7.181
13726WAT      O43279   5.115   6.893   6.095
13726WAT     H143280   5.099   6.864   6.185
13726WAT     H243281   5.098   6.815   6.041
13727WAT      O43282   4.363   6.871   6.273
13727WAT     H143283   4.345   6.779   6.251
13727WAT     H243284   4.277   6.907   6.297
13728WAT      O43285   5.085   6.644   5.951
13728WAT     H143286   5.016   6.644   5.885
13728WAT     H243287   5.159   6.602   5.908
13729WAT      O43288   5.041   6.807   6.358
13729WAT     H143289   5.087   6.728   6.390
13729WAT     H243290   5.075   6.878   6.413
13730WAT      O43291   5.516   5.700   7.392
13730WAT     H143292   5.455   5.750   7.339
13730WAT     H243293   5.484   5.610   7.386
13731WAT      O43294   3.816   6.384   7.074
13731WAT     H143295   3.833   6.337   6.993
13731WAT     H243296   3.863   6.333   7.141
13732WAT      O43297   4.294   5.297   6.578
13732WAT     H143298   4.249   5.375   6.545
13732WAT     H243299   4.350   5.329   6.649
13733WAT      O43300   4.722   5.583   7.138
13733WAT     H143301   4.676   5.604   7.220
13733WAT     H243302   4.682   5.502   7.108
13734WAT      O43303   5.222   5.706   7.251
13734WAT     H143304   5.137   5.676   7.283
13734WAT     H243305   5.206   5.730   7.160
13735WAT      O43306   4.932   5.856   7.461
13735WAT     H143307   4.964   5.772   7.427
13735WAT     H243308   5.011   5.908   7.476
13736WAT      O43309   4.605   5.259   6.066
13736WAT     H143310   4.543   5.259   6.139
13736WAT     H243311   4.597   5.172   6.026
13737WAT      O43312   4.497   5.351   6.764
13737WAT     H143313   4.527   5.442   6.756
13737WAT     H243314   4.552   5.302   6.702
13738WAT      O43315   4.273   5.809   6.351
13738WAT     H143316   4.250   5.788   6.441
13738WAT     H243317   4.195   5.852   6.316
13739WAT      O43318   4.996   5.810   6.211
13739WAT     H143319   4.936   5.882   6.192
13739WAT     H243320   5.051   5.804   6.132
13740WAT      O43321   4.517   5.899   7.417
13740WAT     H143322   4.507   5.805   7.402
13740WAT     H243323   4.601   5.921   7.378
13741WAT      O43324   4.856   5.673   6.414
13741WAT     H143325   4.896   5.705   6.332
13741WAT     H243326   4.893   5.586   6.425
13742WAT      O43327   4.030   5.540   7.233
13742WAT     H143328   3.991   5.625   7.253
13742WAT     H243329   3.961   5.476   7.252
13743WAT      O43330   3.760   5.332   6.636
13743WAT     H143331   3.731   5.389   6.707
13743WAT     H243332   3.835   5.284   6.672
13744WAT      O43333   3.779   5.727   5.757
13744WAT     H143334   3.771   5.821   5.771
13744WAT     H243335   3.744   5.712   5.669
13745WAT      O43336   4.915   5.932   6.823
13745WAT     H143337   4.842   5.983   6.858
13745WAT     H243338   4.875   5.851   6.793
13746WAT      O43339   4.559   5.600   6.664
13746WAT     H143340   4.559   5.556   6.579
13746WAT     H243341   4.648   5.632   6.675
13747WAT      O43342   4.144   5.588   6.560
13747WAT     H143343   4.110   5.636   6.635
13747WAT     H243344   4.068   5.543   6.524
13748WAT      O43345   4.565   5.700   5.963
13748WAT     H143346   4.577   5.696   6.058
13748WAT     H243347   4.526   5.786   5.947
13749WAT      O43348   4.961   5.478   6.764
13749WAT     H143349   4.963   5.523   6.849
13749WAT     H243350   4.936   5.388   6.786
13750WAT      O43351   4.466   5.931   5.903
13750WAT     H143352   4.409   5.886   5.840
13750WAT     H243353   4.537   5.967   5.849
13751WAT      O43354   5.304   5.219   7.348
13751WAT     H143355   5.336   5.146   7.401
13751WAT     H243356   5.308   5.187   7.258
13752WAT      O43357   3.974   6.321   7.290
13752WAT     H143358   3.935   6.257   7.350
13752WAT     H243359   4.005   6.392   7.347
13753WAT      O43360   4.589   6.006   6.838
13753WAT     H143361   4.626   5.959   6.913
13753WAT     H243362   4.570   6.093   6.873
13754WAT      O43363   3.875   5.480   6.451
13754WAT     H143364   3.847   5.444   6.535
13754WAT     H243365   3.869   5.407   6.390
13755WAT      O43366   4.368   5.910   7.070
13755WAT     H143367   4.337   5.998   7.093
13755WAT     H243368   4.463   5.916   7.074
13756WAT      O43369   4.221   6.331   6.130
13756WAT     H143370   4.143   6.277   6.114
13756WAT     H243371   4.294   6.279   6.096
13757WAT      O43372   5.297   6.230   6.709
13757WAT     H143373   5.369   6.280   6.670
13757WAT     H243374   5.276   6.163   6.645
13758WAT      O43375   4.843   5.370   6.124
13758WAT     H143376   4.761   5.320   6.116
13758WAT     H243377   4.823   5.454   6.082
13759WAT      O43378   4.835   6.237   7.298
13759WAT     H143379   4.828   6.145   7.272
13759WAT     H243380   4.772   6.247   7.369
13760WAT      O43381   5.114   5.807   5.953
13760WAT     H143382   5.203   5.838   5.936
13760WAT     H243383   5.111   5.720   5.914
13761WAT      O43384   4.225   6.298   6.494
13761WAT     H143385   4.277   6.217   6.488
13761WAT     H243386   4.180   6.291   6.578
13762WAT      O43387   4.714   6.424   6.021
13762WAT     H143388   4.748   6.499   5.971
13762WAT     H243389   4.631   6.455   6.057
13763WAT      O43390   3.973   5.994   7.185
13763WAT     H143391   3.938   6.061   7.244
13763WAT     H243392   3.944   5.911   7.222
13764WAT      O43393   4.294   6.040   7.473
13764WAT     H143394   4.264   6.055   7.384
13764WAT     H243395   4.371   5.984   7.464
13765WAT      O43396   4.828   6.520   7.273
13765WAT     H143397   4.829   6.426   7.251
13765WAT     H243398   4.757   6.528   7.337
13766WAT      O43399   5.341   5.938   5.900
13766WAT     H143400   5.333   5.981   5.815
13766WAT     H243401   5.413   5.984   5.943
13767WAT      O43402   5.449   6.184   7.208
13767WAT     H143403   5.376   6.243   7.188
13767WAT     H243404   5.502   6.183   7.128
13768WAT      O43405   5.444   6.623   6.173
13768WAT     H143406   5.380   6.558   6.200
13768WAT     H243407   5.405   6.664   6.095
13769WAT      O43408   5.002   6.356   6.557
13769WAT     H143409   5.037   6.297   6.491
13769WAT     H243410   4.914   6.324   6.575
13770WAT      O43411   4.611   6.432   6.298
13770WAT     H143412   4.679   6.487   6.336
13770WAT     H243413   4.532   6.487   6.302
13771WAT      O43414   3.825   5.994   5.847
13771WAT     H143415   3.911   6.022   5.876
13771WAT     H243416   3.775   6.075   5.836
13772WAT      O43417   4.541   6.133   6.259
13772WAT     H143418   4.587   6.214   6.282
13772WAT     H243419   4.506   6.101   6.343
13773WAT      O43420   4.771   6.684   6.982
13773WAT     H143421   4.836   6.704   7.050
13773WAT     H243422   4.808   6.608   6.937
13774WAT      O43423   4.131   5.167   6.307
13774WAT     H143424   4.118   5.166   6.402
13774WAT     H243425   4.049   5.201   6.272
13775WAT      O43426   4.899   6.484   6.854
13775WAT     H143427   4.963   6.414   6.865
13775WAT     H243428   4.951   6.562   6.836
13776WAT      O43429   5.283   6.513   5.827
13776WAT     H143430   5.260   6.441   5.886
13776WAT     H243431   5.244   6.488   5.743
13777WAT      O43432   5.076   6.564   7.174
13777WAT     H143433   5.109   6.623   7.242
13777WAT     H243434   4.984   6.551   7.197
13778WAT      O43435   3.861   6.915   5.904
13778WAT     H143436   3.897   6.975   5.839
13778WAT     H243437   3.847   6.970   5.981
13779WAT      O43438   3.831   5.343   7.253
13779WAT     H143439   3.760   5.363   7.313
13779WAT     H243440   3.873   5.265   7.290
13780WAT      O43441   5.241   6.304   5.993
13780WAT     H143442   5.212   6.350   6.071
13780WAT     H243443   5.321   6.258   6.019
13781WAT      O43444   3.860   6.742   7.351
13781WAT     H143445   3.871   6.648   7.337
13781WAT     H243446   3.794   6.768   7.287
13782WAT      O43447   4.463   6.654   5.986
13782WAT     H143448   4.462   6.727   5.924
13782WAT     H243449   4.371   6.629   5.995
13783WAT      O43450   4.023   6.176   6.060
13783WAT     H143451   3.962   6.250   6.061
13783WAT     H243452   4.071   6.185   5.978
13784WAT      O43453   4.980   5.592   7.028
13784WAT     H143454   5.017   5.510   7.061
13784WAT     H243455   4.894   5.598   7.069
13785WAT      O43456   5.317   5.488   6.109
13785WAT     H143457   5.254   5.498   6.037
13785WAT     H243458   5.267   5.510   6.188
13786WAT      O43459   4.762   6.660   5.852
13786WAT     H143460   4.772   6.640   5.759
13786WAT     H243461   4.672   6.634   5.872
13787WAT      O43462   4.514   5.716   6.250
13787WAT     H143463   4.443   5.763   6.294
13787WAT     H243464   4.542   5.650   6.314
13788WAT      O43465   4.676   5.858   7.050
13788WAT     H143466   4.726   5.905   7.117
13788WAT     H243467   4.691   5.765   7.071
13789WAT      O43468   4.917   5.388   6.394
13789WAT     H143469   4.905   5.390   6.299
13789WAT     H243470   5.012   5.393   6.406
13790WAT      O43471   4.626   6.912   6.321
13790WAT     H143472   4.651   6.908   6.229
13790WAT     H243473   4.531   6.899   6.321
13791WAT      O43474   4.334   5.547   5.988
13791WAT     H143475   4.419   5.590   5.981
13791WAT     H243476   4.297   5.578   6.070
13792WAT      O43477   5.397   5.479   7.134
13792WAT     H143478   5.347   5.553   7.168
13792WAT     H243479   5.479   5.518   7.103
13793WAT      O43480   5.226   6.004   6.479
13793WAT     H143481   5.132   6.005   6.496
13793WAT     H243482   5.258   5.925   6.524
13794WAT      O43483   4.224   6.172   5.835
13794WAT     H143484   4.301   6.161   5.891
13794WAT     H243485   4.232   6.102   5.770
13795WAT      O43486   4.094   5.915   5.903
13795WAT     H143487   4.102   5.820   5.915
13795WAT     H243488   4.183   5.948   5.914
13796WAT      O43489   5.427   6.721   6.647
13796WAT     H143490   5.439   6.803   6.694
13796WAT     H243491   5.513   6.700   6.612
13797WAT      O43492   4.174   6.930   6.614
13797WAT     H143493   4.247   6.875   6.641
13797WAT     H243494   4.212   7.017   6.600
13798WAT      O43495   3.862   6.537   6.201
13798WAT     H143496   3.770   6.561   6.200
13798WAT     H243497   3.909   6.620   6.189
13799WAT      O43498   4.485   6.847   5.796
13799WAT     H143499   4.564   6.876   5.751
13799WAT     H243500   4.433   6.804   5.728
13800WAT      O43501   5.101   6.832   7.388
13800WAT     H143502   5.196   6.824   7.383
13800WAT     H243503   5.086   6.899   7.456
13801WAT      O43504   5.390   6.770   5.938
13801WAT     H143505   5.361   6.729   5.857
13801WAT     H243506   5.370   6.863   5.926
13802WAT      O43507   3.846   6.097   7.427
13802WAT     H143508   3.897   6.039   7.484
13802WAT     H243509   3.772   6.126   7.481
13803WAT      O43510   4.536   6.369   5.782
13803WAT     H143511   4.526   6.308   5.855
13803WAT     H243512   4.520   6.317   5.704
13804WAT      O43513   4.552   6.238   7.380
13804WAT     H143514   4.475   6.295   7.372
13804WAT     H243515   4.570   6.209   7.291
13805WAT      O43516   4.861   6.276   5.843
13805WAT     H143517   4.806   6.320   5.907
13805WAT     H243518   4.923   6.225   5.895
13806WAT      O43519   5.266   6.411   7.436
13806WAT     H143520   5.340   6.445   7.386
13806WAT     H243521   5.190   6.428   7.381
13807WAT      O43522   4.427   6.172   6.032
13807WAT     H143523   4.469   6.155   6.117
13807WAT     H243524   4.440   6.091   5.983
13808WAT      O43525   4.244   5.770   7.313
13808WAT     H143526   4.190   5.720   7.250
13808WAT     H243527   4.310   5.812   7.260
13809WAT      O43528   4.679   6.074   5.757
13809WAT     H143529   4.731   6.002   5.721
13809WAT     H243530   4.743   6.138   5.787
13810WAT      O43531   5.133   6.216   7.290
13810WAT     H143532   5.175   6.232   7.375
13810WAT     H243533   5.040   6.229   7.306
13811WAT      O43534   5.181   5.950   7.490
13811WAT     H143535   5.239   5.875   7.481
13811WAT     H243536   5.198   6.003   7.412
13812WAT      O43537   4.292   5.466   7.321
13812WAT     H143538   4.283   5.404   7.249
13812WAT     H243539   4.234   5.539   7.298
13813WAT      O43540   4.569   5.322   7.024
13813WAT     H143541   4.524   5.324   6.940
13813WAT     H243542   4.506   5.282   7.084
13814WAT      O43543   4.609   6.211   7.087
13814WAT     H143544   4.651   6.296   7.069
13814WAT     H243545   4.518   6.225   7.064
13815WAT      O43546   4.843   5.985   7.225
13815WAT     H143547   4.855   5.925   7.299
13815WAT     H243548   4.929   5.988   7.183
13816WAT      O43549   5.077   6.040   7.083
13816WAT     H143550   5.024   6.092   7.022
13816WAT     H243551   5.111   6.103   7.146
13817WAT      O43552   4.317   5.779   5.727
13817WAT     H143553   4.297   5.693   5.763
13817WAT     H243554   4.300   5.770   5.633
13818WAT      O43555   4.395   6.842   7.198
13818WAT     H143556   4.341   6.914   7.166
13818WAT     H243557   4.420   6.794   7.119
13819WAT      O43558   4.520   5.639   7.351
13819WAT     H143559   4.579   5.608   7.419
13819WAT     H243560   4.438   5.592   7.366
13820WAT      O43561   5.002   5.600   7.374
13820WAT     H143562   4.933   5.534   7.368
13820WAT     H243563   5.074   5.556   7.419
13821WAT      O43564   5.065   5.260   5.980
13821WAT     H143565   5.093   5.176   6.016
13821WAT     H243566   4.987   5.283   6.031
13822WAT      O43567   4.197   5.489   5.726
13822WAT     H143568   4.227   5.490   5.635
13822WAT     H243569   4.271   5.454   5.776
13823WAT      O43570   4.680   6.965   7.224
13823WAT     H143571   4.673   7.056   7.255
13823WAT     H243572   4.590   6.934   7.221
13824WAT      O43573   4.519   5.383   5.824
13824WAT     H143574   4.484   5.315   5.766
13824WAT     H243575   4.539   5.337   5.906
13825WAT      O43576   4.735   6.882   5.986
13825WAT     H143577   4.825   6.916   5.988
13825WAT     H243578   4.738   6.810   5.924
13826WAT      O43579   4.099   6.419   5.809
13826WAT     H143580   4.143   6.474   5.875
13826WAT     H243581   4.147   6.337   5.810
13827WAT      O43582   3.820   6.698   6.554
13827WAT     H143583   3.853   6.611   6.531
13827WAT     H243584   3.863   6.719   6.637
13828WAT      O43585   4.280   6.531   6.320
13828WAT     H143586   4.250   6.519   6.410
13828WAT     H243587   4.269   6.445   6.280
13829WAT      O43588   3.869   6.785   6.828
13829WAT     H143589   3.826   6.803   6.911
13829WAT     H243590   3.926   6.861   6.814
13830WAT      O43591   5.433   6.735   7.257
13830WAT     H143592   5.373   6.741   7.183
13830WAT     H243593   5.446   6.641   7.270
13831WAT      O43594   5.557   6.509   5.791
13831WAT     H143595   5.474   6.516   5.838
13831WAT     H243596   5.575   6.598   5.760
13832WAT      O43597   5.503   6.184   6.041
13832WAT     H143598   5.579   6.241   6.052
13832WAT     H243599   5.504   6.127   6.118
13833WAT      O43600   3.853   6.036   6.464
13833WAT     H143601   3.787   6.009   6.400
13833WAT     H243602   3.936   6.025   6.419
13834WAT      O43603   5.603   6.269   6.525
13834WAT     H143604   5.640   6.191   6.485
13834WAT     H243605   5.667   6.338   6.508
13835WAT      O43606   5.301   6.408   7.067
13835WAT     H143607   5.220   6.451   7.093
13835WAT     H243608   5.342   6.469   7.005
13836WAT      O43609   5.508   6.213   5.757
13836WAT     H143610   5.535   6.304   5.744
13836WAT     H243611   5.489   6.207   5.850
13837WAT      O43612   5.147   5.516   5.886
13837WAT     H143613   5.189   5.497   5.802
13837WAT     H243614   5.117   5.430   5.917
13838WAT      O43615   5.497   6.007   6.256
13838WAT     H143616   5.460   5.930   6.213
13838WAT     H243617   5.424   6.045   6.305
13839WAT      O43618   3.956   6.075   6.918
13839WAT     H143619   3.993   6.066   7.006
13839WAT     H243620   3.899   5.998   6.908
13840WAT      O43621   5.436   5.921   7.219
13840WAT     H143622   5.413   5.899   7.129
13840WAT     H243623   5.462   6.013   7.215
13841WAT      O43624   3.911   5.766   7.309
13841WAT     H143625   3.822   5.762   7.343
13841WAT     H243626   3.965   5.786   7.385
13842WAT      O43627   3.774   5.757   6.058
13842WAT     H143628   3.684   5.783   6.041
13842WAT     H243629   3.822   5.784   5.980
13843WAT      O43630   5.425   5.829   6.586
13843WAT     H143631   5.477   5.780   6.523
13843WAT     H243632   5.483   5.843   6.661
13844WAT      O43633   5.443   5.838   6.938
13844WAT     H143634   5.348   5.834   6.950
13844WAT     H243635   5.461   5.929   6.915
13845WAT      O43636   4.028   5.663   5.849
13845WAT     H143637   4.099   5.621   5.801
13845WAT     H243638   3.957   5.670   5.786
13846WAT      O43639   3.993   5.268   5.753
13846WAT     H143640   4.065   5.322   5.785
13846WAT     H243641   4.020   5.241   5.666
13847WAT      O43642   5.374   5.755   6.180
13847WAT     H143643   5.423   5.732   6.258
13847WAT     H243644   5.354   5.671   6.138
13848WAT      O43645   3.962   5.193   6.743
13848WAT     H143646   4.027   5.138   6.699
13848WAT     H243647   4.004   5.219   6.826
13849WAT      O43648   5.517   5.619   6.433
13849WAT     H143649   5.506   5.603   6.527
13849WAT     H243650   5.593   5.566   6.409
13850WAT      O43651   5.351   5.213   7.079
13850WAT     H143652   5.415   5.274   7.116
13850WAT     H243653   5.366   5.216   6.985
13851WAT      O43654   5.606   5.402   5.757
13851WAT     H143655   5.698   5.389   5.737
13851WAT     H243656   5.603   5.410   5.853
13852WAT      O43657   5.613   5.479   6.020
13852WAT     H143658   5.534   5.472   6.073
13852WAT     H243659   5.633   5.572   6.019
13853WAT      O43660   5.307   6.883   6.419
13853WAT     H143661   5.367   6.851   6.352
13853WAT     H243662   5.333   6.835   6.499
13854WAT      O43663   3.937   5.209   7.018
13854WAT     H143664   3.902   5.254   7.094
13854WAT     H243665   3.904   5.119   7.026
13855WAT      O43666   4.468   6.682   6.994
13855WAT     H143667   4.444   6.708   6.906
13855WAT     H243668   4.562   6.699   7.000
13856WAT      O43669   4.688   5.328   7.370
13856WAT     H143670   4.682   5.387   7.445
13856WAT     H243671   4.782   5.317   7.355
13857WAT      O43672   4.952   5.294   7.334
13857WAT     H143673   5.014   5.325   7.268
13857WAT     H243674   5.007   5.245   7.396
13858WAT      O43675   5.594   6.883   7.074
13858WAT     H143676   5.545   6.923   7.003
13858WAT     H243677   5.533   6.821   7.114
13859WAT      O43678   4.004   5.162   7.345
13859WAT     H143679   4.059   5.143   7.269
13859WAT     H243680   4.011   5.082   7.399
13860WAT      O43681   4.082   6.821   7.146
13860WAT     H143682   4.022   6.807   7.220
13860WAT     H243683   4.081   6.737   7.100
13861WAT      O43684   5.026   5.150   6.967
13861WAT     H143685   4.939   5.183   6.946
13861WAT     H243686   5.015   5.103   7.049
13862WAT      O43687   5.117   5.371   7.105
13862WAT     H143688   5.084   5.289   7.067
13862WAT     H243689   5.212   5.366   7.093
13863WAT      O43690   5.362   6.948   6.802
13863WAT     H143691   5.316   7.023   6.765
13863WAT     H243692   5.299   6.876   6.796
13864WAT      O43693   4.045   6.557   7.041
13864WAT     H143694   3.972   6.495   7.035
13864WAT     H243695   4.051   6.597   6.954
13865WAT      O43696   4.405   6.779   6.720
13865WAT     H143697   4.457   6.717   6.667
13865WAT     H243698   4.470   6.829   6.769
13866WAT      O43699   4.679   6.868   6.803
13866WAT     H143700   4.708   6.842   6.715
13866WAT     H243701   4.730   6.812   6.862
13867WAT      O43702   4.801   5.242   6.860
13867WAT     H143703   4.723   5.289   6.888
13867WAT     H243704   4.772   5.151   6.850
13868WAT      O43705   5.256   5.312   6.665
13868WAT     H143706   5.300   5.306   6.580
13868WAT     H243707   5.229   5.403   6.672
13869WAT      O43708   5.443   5.275   6.466
13869WAT     H143709   5.437   5.181   6.451
13869WAT     H243710   5.521   5.286   6.521
13870WAT      O43711   3.873   6.889   6.362
13870WAT     H143712   3.856   6.826   6.432
13870WAT     H243713   3.787   6.910   6.327
13871WAT      O43714   3.935   5.272   6.113
13871WAT     H143715   4.011   5.283   6.055
13871WAT     H243716   3.889   5.356   6.108
13872WAT      O43717   4.590   5.483   6.412
13872WAT     H143718   4.508   5.446   6.378
13872WAT     H243719   4.640   5.408   6.442
13873WAT      O43720   5.040   5.150   6.535
13873WAT     H143721   5.100   5.207   6.583
13873WAT     H243722   4.966   5.206   6.513
13874WAT      O43723   5.354   5.190   6.063
13874WAT     H143724   5.374   5.280   6.090
13874WAT     H243725   5.275   5.167   6.112
13875WAT      O43726   4.034   6.758   6.107
13875WAT     H143727   3.981   6.796   6.036
13875WAT     H243728   4.026   6.821   6.179
13876WAT      O43729   4.173   5.325   5.967
13876WAT     H143730   4.226   5.246   5.954
13876WAT     H243731   4.236   5.393   5.990
13877WAT      O43732   4.392   5.298   6.272
13877WAT     H143733   4.329   5.228   6.289
13877WAT     H243734   4.338   5.375   6.250
13878WAT      O43735   5.509   6.914   6.239
13878WAT     H143736   5.527   6.845   6.175
13878WAT     H243737   5.440   6.967   6.200
13879WAT      O43738   4.294   6.953   5.994
13879WAT     H143739   4.367   6.925   5.940
13879WAT     H243740   4.320   6.929   6.083
13880WAT      O43741   4.210   6.565   5.995
13880WAT     H143742   4.147   6.612   6.050
13880WAT     H243743   4.221   6.480   6.038
13881WAT      O43744   4.170   6.179   4.886
13881WAT     H143745   4.087   6.153   4.926
13881WAT     H243746   4.231   6.186   4.959
13882WAT      O43747   4.168   6.582   4.905
13882WAT     H143748   4.198   6.493   4.887
13882WAT     H243749   4.243   6.638   4.882
13883WAT      O43750   4.011   5.675   4.264
13883WAT     H143751   3.922   5.709   4.254
13883WAT     H243752   4.040   5.655   4.175
13884WAT      O43753   3.807   5.935   4.852
13884WAT     H143754   3.865   5.858   4.852
13884WAT     H243755   3.807   5.965   4.762
13885WAT      O43756   4.793   6.817   4.638
13885WAT     H143757   4.731   6.862   4.581
13885WAT     H243758   4.879   6.832   4.598
13886WAT      O43759   3.932   5.476   5.031
13886WAT     H143760   3.914   5.386   5.059
13886WAT     H243761   3.892   5.530   5.099
13887WAT      O43762   4.229   5.533   4.367
13887WAT     H143763   4.239   5.623   4.398
13887WAT     H243764   4.138   5.528   4.338
13888WAT      O43765   3.994   5.725   4.892
13888WAT     H143766   4.062   5.752   4.954
13888WAT     H243767   3.962   5.641   4.925
13889WAT      O43768   4.413   5.830   4.801
13889WAT     H143769   4.464   5.880   4.865
13889WAT     H243770   4.466   5.752   4.783
13890WAT      O43771   5.623   5.647   5.171
13890WAT     H143772   5.552   5.686   5.119
13890WAT     H243773   5.650   5.717   5.231
13891WAT      O43774   4.366   6.258   5.045
13891WAT     H143775   4.333   6.321   5.109
13891WAT     H243776   4.384   6.311   4.967
13892WAT      O43777   4.209   5.465   5.028
13892WAT     H143778   4.243   5.549   4.999
13892WAT     H243779   4.115   5.480   5.040
13893WAT      O43780   4.287   6.455   5.227
13893WAT     H143781   4.349   6.522   5.198
13893WAT     H243782   4.201   6.496   5.217
13894WAT      O43783   5.379   6.601   5.018
13894WAT     H143784   5.311   6.668   5.017
13894WAT     H243785   5.433   6.621   4.942
13895WAT      O43786   4.578   5.214   4.660
13895WAT     H143787   4.608   5.158   4.589
13895WAT     H243788   4.485   5.227   4.642
13896WAT      O43789   5.133   6.786   4.890
13896WAT     H143790   5.134   6.745   4.803
13896WAT     H243791   5.078   6.863   4.879
13897WAT      O43792   5.073   6.276   5.022
13897WAT     H143793   5.114   6.254   4.939
13897WAT     H243794   5.145   6.302   5.079
13898WAT      O43795   5.467   6.116   5.032
13898WAT     H143796   5.384   6.123   4.984
13898WAT     H243797   5.527   6.174   4.985
13899WAT      O43798   4.377   6.073   4.612
13899WAT     H143799   4.337   6.002   4.563
13899WAT     H243800   4.386   6.039   4.701
13900WAT      O43801   4.424   6.442   4.829
13900WAT     H143802   4.394   6.381   4.761
13900WAT     H243803   4.519   6.445   4.818
13901WAT      O43804   4.248   5.750   4.990
13901WAT     H143805   4.303   5.761   4.913
13901WAT     H243806   4.300   5.788   5.062
13902WAT      O43807   5.233   6.799   5.195
13902WAT     H143808   5.185   6.880   5.176
13902WAT     H243809   5.164   6.734   5.210
13903WAT      O43810   4.333   6.415   5.494
13903WAT     H143811   4.243   6.438   5.518
13903WAT     H243812   4.336   6.428   5.399
13904WAT      O43813   4.216   6.103   5.351
13904WAT     H143814   4.202   6.190   5.388
13904WAT     H243815   4.128   6.068   5.337
13905WAT      O43816   4.395   6.697   5.572
13905WAT     H143817   4.393   6.737   5.485
13905WAT     H243818   4.379   6.604   5.556
13906WAT      O43819   4.047   5.962   4.362
13906WAT     H143820   4.035   6.035   4.301
13906WAT     H243821   4.016   5.885   4.315
13907WAT      O43822   5.591   6.775   5.702
13907WAT     H143823   5.638   6.823   5.770
13907WAT     H243824   5.653   6.768   5.629
13908WAT      O43825   3.811   6.280   4.943
13908WAT     H143826   3.819   6.293   4.849
13908WAT     H243827   3.872   6.209   4.962
13909WAT      O43828   5.531   6.494   5.418
13909WAT     H143829   5.544   6.470   5.326
13909WAT     H243830   5.535   6.411   5.465
13910WAT      O43831   4.917   6.865   5.275
13910WAT     H143832   4.969   6.856   5.355
13910WAT     H243833   4.833   6.899   5.304
13911WAT      O43834   5.115   6.893   4.218
13911WAT     H143835   5.099   6.864   4.307
13911WAT     H243836   5.098   6.815   4.164
13912WAT      O43837   4.363   6.871   4.395
13912WAT     H143838   4.345   6.779   4.374
13912WAT     H243839   4.277   6.907   4.419
13913WAT      O43840   5.085   6.644   4.074
13913WAT     H143841   5.016   6.644   4.008
13913WAT     H243842   5.159   6.602   4.031
13914WAT      O43843   5.041   6.807   4.481
13914WAT     H143844   5.087   6.728   4.512
13914WAT     H243845   5.075   6.878   4.535
13915WAT      O43846   5.516   5.700   5.514
13915WAT     H143847   5.455   5.750   5.461
13915WAT     H243848   5.484   5.610   5.509
13916WAT      O43849   3.816   6.384   5.197
13916WAT     H143850   3.833   6.337   5.115
13916WAT     H243851   3.863   6.333   5.263
13917WAT      O43852   4.294   5.297   4.701
13917WAT     H143853   4.249   5.375   4.667
13917WAT     H243854   4.350   5.329   4.771
13918WAT      O43855   4.722   5.583   5.261
13918WAT     H143856   4.676   5.604   5.342
13918WAT     H243857   4.682   5.502   5.231
13919WAT      O43858   5.222   5.706   5.374
13919WAT     H143859   5.137   5.676   5.406
13919WAT     H243860   5.206   5.730   5.283
13920WAT      O43861   4.932   5.856   5.584
13920WAT     H143862   4.964   5.772   5.550
13920WAT     H243863   5.011   5.908   5.599
13921WAT      O43864   4.605   5.259   4.189
13921WAT     H143865   4.543   5.259   4.261
13921WAT     H243866   4.597   5.172   4.149
13922WAT      O43867   4.497   5.351   4.886
13922WAT     H143868   4.527   5.442   4.878
13922WAT     H243869   4.552   5.302   4.825
13923WAT      O43870   4.273   5.809   4.473
13923WAT     H143871   4.250   5.788   4.564
13923WAT     H243872   4.195   5.852   4.439
13924WAT      O43873   4.517   5.899   5.540
13924WAT     H143874   4.507   5.805   5.525
13924WAT     H243875   4.601   5.921   5.500
13925WAT      O43876   4.030   5.540   5.355
13925WAT     H143877   3.991   5.625   5.376
13925WAT     H243878   3.961   5.476   5.374
13926WAT      O43879   4.687   5.548   5.662
13926WAT     H143880   4.618   5.529   5.726
13926WAT     H243881   4.762   5.577   5.716
13927WAT      O43882   3.760   5.332   4.759
13927WAT     H143883   3.731   5.389   4.830
13927WAT     H243884   3.835   5.284   4.795
13928WAT      O43885   3.779   5.727   3.880
13928WAT     H143886   3.771   5.821   3.894
13928WAT     H243887   3.744   5.712   3.792
13929WAT      O43888   4.144   5.588   4.682
13929WAT     H143889   4.110   5.636   4.758
13929WAT     H243890   4.068   5.543   4.646
13930WAT      O43891   5.304   5.219   5.471
13930WAT     H143892   5.336   5.146   5.524
13930WAT     H243893   5.308   5.187   5.381
13931WAT      O43894   3.974   6.321   5.413
13931WAT     H143895   3.935   6.257   5.473
13931WAT     H243896   4.005   6.392   5.470
13932WAT      O43897   4.589   6.006   4.961
13932WAT     H143898   4.626   5.959   5.036
13932WAT     H243899   4.570   6.093   4.995
13933WAT      O43900   3.875   5.480   4.574
13933WAT     H143901   3.847   5.444   4.658
13933WAT     H243902   3.869   5.407   4.513
13934WAT      O43903   4.368   5.910   5.193
13934WAT     H143904   4.337   5.998   5.215
13934WAT     H243905   4.463   5.916   5.196
13935WAT      O43906   4.835   6.237   5.420
13935WAT     H143907   4.828   6.145   5.395
13935WAT     H243908   4.772   6.247   5.492
13936WAT      O43909   4.225   6.298   4.616
13936WAT     H143910   4.277   6.217   4.611
13936WAT     H243911   4.180   6.291   4.700
13937WAT      O43912   3.973   5.994   5.308
13937WAT     H143913   3.938   6.061   5.366
13937WAT     H243914   3.944   5.911   5.345
13938WAT      O43915   4.294   6.040   5.596
13938WAT     H143916   4.264   6.055   5.506
13938WAT     H243917   4.371   5.984   5.587
13939WAT      O43918   4.828   6.520   5.396
13939WAT     H143919   4.829   6.426   5.374
13939WAT     H243920   4.757   6.528   5.459
13940WAT      O43921   5.449   6.184   5.330
13940WAT     H143922   5.376   6.243   5.310
13940WAT     H243923   5.502   6.183   5.250
13941WAT      O43924   5.444   6.623   4.295
13941WAT     H143925   5.380   6.558   4.323
13941WAT     H243926   5.405   6.664   4.218
13942WAT      O43927   3.825   5.994   3.970
13942WAT     H143928   3.911   6.022   3.998
13942WAT     H243929   3.775   6.075   3.958
13943WAT      O43930   4.771   6.684   5.105
13943WAT     H143931   4.836   6.704   5.173
13943WAT     H243932   4.808   6.608   5.060
13944WAT      O43933   4.131   5.167   4.429
13944WAT     H143934   4.118   5.166   4.524
13944WAT     H243935   4.049   5.201   4.394
13945WAT      O43936   4.899   6.484   4.977
13945WAT     H143937   4.963   6.414   4.988
13945WAT     H243938   4.951   6.562   4.959
13946WAT      O43939   5.283   6.513   3.949
13946WAT     H143940   5.260   6.441   4.008
13946WAT     H243941   5.244   6.488   3.865
13947WAT      O43942   5.076   6.564   5.297
13947WAT     H143943   5.109   6.623   5.365
13947WAT     H243944   4.984   6.551   5.320
13948WAT      O43945   3.860   6.742   5.474
13948WAT     H143946   3.871   6.648   5.460
13948WAT     H243947   3.794   6.768   5.409
13949WAT      O43948   4.659   6.569   5.614
13949WAT     H143949   4.627   6.497   5.668
13949WAT     H243950   4.591   6.637   5.621
13950WAT      O43951   4.514   5.716   4.373
13950WAT     H143952   4.443   5.763   4.417
13950WAT     H243953   4.542   5.650   4.436
13951WAT      O43954   4.676   5.858   5.173
13951WAT     H143955   4.726   5.905   5.239
13951WAT     H243956   4.691   5.765   5.193
13952WAT      O43957   4.626   6.912   4.444
13952WAT     H143958   4.651   6.908   4.352
13952WAT     H243959   4.531   6.899   4.443
13953WAT      O43960   4.334   5.547   4.110
13953WAT     H143961   4.419   5.590   4.104
13953WAT     H243962   4.297   5.578   4.193
13954WAT      O43963   5.397   5.479   5.257
13954WAT     H143964   5.347   5.553   5.291
13954WAT     H243965   5.479   5.518   5.225
13955WAT      O43966   5.427   6.721   4.769
13955WAT     H143967   5.439   6.803   4.816
13955WAT     H243968   5.513   6.700   4.734
13956WAT      O43969   4.174   6.930   4.736
13956WAT     H143970   4.247   6.875   4.763
13956WAT     H243971   4.212   7.017   4.722
13957WAT      O43972   4.074   6.849   5.655
13957WAT     H143973   4.154   6.881   5.696
13957WAT     H243974   4.023   6.813   5.727
13958WAT      O43975   4.958   6.459   5.650
13958WAT     H143976   4.897   6.462   5.576
13958WAT     H243977   4.927   6.386   5.704
13959WAT      O43978   5.101   6.832   5.511
13959WAT     H143979   5.196   6.824   5.506
13959WAT     H243980   5.086   6.899   5.578
13960WAT      O43981   5.390   6.770   4.061
13960WAT     H143982   5.361   6.729   3.979
13960WAT     H243983   5.370   6.863   4.049
13961WAT      O43984   3.846   6.097   5.550
13961WAT     H143985   3.897   6.039   5.607
13961WAT     H243986   3.772   6.126   5.603
13962WAT      O43987   4.552   6.238   5.503
13962WAT     H143988   4.475   6.295   5.494
13962WAT     H243989   4.570   6.209   5.414
13963WAT      O43990   5.266   6.411   5.559
13963WAT     H143991   5.340   6.445   5.508
13963WAT     H243992   5.190   6.428   5.503
13964WAT      O43993   4.049   5.912   5.639
13964WAT     H143994   4.054   5.882   5.730
13964WAT     H243995   4.135   5.952   5.623
13965WAT      O43996   4.244   5.770   5.436
13965WAT     H143997   4.190   5.720   5.373
13965WAT     H243998   4.310   5.812   5.382
13966WAT      O43999   5.133   6.216   5.412
13966WAT     H144000   5.175   6.232   5.497
13966WAT     H244001   5.040   6.229   5.428
13967WAT      O44002   5.181   5.950   5.613
13967WAT     H144003   5.239   5.875   5.604
13967WAT     H244004   5.198   6.003   5.535
13968WAT      O44005   4.292   5.466   5.444
13968WAT     H144006   4.283   5.404   5.371
13968WAT     H244007   4.234   5.539   5.421
13969WAT      O44008   4.569   5.322   5.147
13969WAT     H144009   4.524   5.324   5.062
13969WAT     H244010   4.506   5.282   5.207
13970WAT      O44011   4.609   6.211   5.209
13970WAT     H144012   4.651   6.296   5.192
13970WAT     H244013   4.518   6.225   5.186
13971WAT      O44014   4.843   5.985   5.348
13971WAT     H144015   4.855   5.925   5.421
13971WAT     H244016   4.929   5.988   5.306
13972WAT      O44017   5.077   6.040   5.205
13972WAT     H144018   5.024   6.092   5.145
13972WAT     H244019   5.111   6.103   5.268
13973WAT      O44020   4.395   6.842   5.321
13973WAT     H144021   4.341   6.914   5.289
13973WAT     H244022   4.420   6.794   5.242
13974WAT      O44023   4.520   5.639   5.473
13974WAT     H144024   4.579   5.608   5.542
13974WAT     H244025   4.438   5.592   5.489
13975WAT      O44026   5.002   5.600   5.497
13975WAT     H144027   4.933   5.534   5.490
13975WAT     H244028   5.074   5.556   5.541
13976WAT      O44029   4.197   5.489   3.848
13976WAT     H144030   4.227   5.490   3.758
13976WAT     H244031   4.271   5.454   3.898
13977WAT      O44032   4.680   6.965   5.347
13977WAT     H144033   4.673   7.056   5.377
13977WAT     H244034   4.590   6.934   5.344
13978WAT      O44035   4.519   5.383   3.947
13978WAT     H144036   4.484   5.315   3.889
13978WAT     H244037   4.539   5.337   4.028
13979WAT      O44038   4.735   6.882   4.109
13979WAT     H144039   4.825   6.916   4.111
13979WAT     H244040   4.738   6.810   4.046
13980WAT      O44041   5.433   6.735   5.379
13980WAT     H144042   5.373   6.741   5.305
13980WAT     H244043   5.446   6.641   5.392
13981WAT      O44044   5.557   6.509   3.913
13981WAT     H144045   5.474   6.516   3.960
13981WAT     H244046   5.575   6.598   3.883
13982WAT      O44047   3.853   6.036   4.587
13982WAT     H144048   3.787   6.009   4.522
13982WAT     H244049   3.936   6.025   4.542
13983WAT      O44050   5.603   6.269   4.648
13983WAT     H144051   5.640   6.191   4.607
13983WAT     H244052   5.667   6.338   4.630
13984WAT      O44053   5.301   6.408   5.189
13984WAT     H144054   5.220   6.451   5.216
13984WAT     H244055   5.342   6.469   5.128
13985WAT      O44056   3.956   6.075   5.041
13985WAT     H144057   3.993   6.066   5.129
13985WAT     H244058   3.899   5.998   5.031
13986WAT      O44059   5.436   5.921   5.342
13986WAT     H144060   5.413   5.899   5.252
13986WAT     H244061   5.462   6.013   5.337
13987WAT      O44062   3.911   5.766   5.431
13987WAT     H144063   3.822   5.762   5.465
13987WAT     H244064   3.965   5.786   5.508
13988WAT      O44065   5.280   5.444   5.620
13988WAT     H144066   5.368   5.445   5.658
13988WAT     H244067   5.281   5.370   5.559
13989WAT      O44068   3.774   5.757   4.181
13989WAT     H144069   3.684   5.783   4.163
13989WAT     H244070   3.822   5.784   4.103
13990WAT      O44071   5.443   5.838   5.061
13990WAT     H144072   5.348   5.834   5.072
13990WAT     H244073   5.461   5.929   5.037
13991WAT      O44074   4.028   5.663   3.972
13991WAT     H144075   4.099   5.621   3.923
13991WAT     H244076   3.957   5.670   3.909
13992WAT      O44077   3.993   5.268   3.876
13992WAT     H144078   4.065   5.322   3.908
13992WAT     H244079   4.020   5.241   3.788
13993WAT      O44080   3.962   5.193   4.866
13993WAT     H144081   4.027   5.138   4.822
13993WAT     H244082   4.004   5.219   4.948
13994WAT      O44083   5.351   5.213   5.202
13994WAT     H144084   5.415   5.274   5.238
13994WAT     H244085   5.366   5.216   5.107
13995WAT      O44086   5.307   6.883   4.542
13995WAT     H144087   5.367   6.851   4.474
13995WAT     H244088   5.333   6.835   4.621
13996WAT      O44089   4.098   6.526   5.557
13996WAT     H144090   4.094   6.489   5.645
13996WAT     H244091   4.111   6.620   5.571
13997WAT      O44092   4.468   6.682   5.117
13997WAT     H144093   4.444   6.708   5.028
13997WAT     H244094   4.562   6.699   5.122
13998WAT      O44095   4.688   5.328   5.493
13998WAT     H144096   4.682   5.387   5.567
13998WAT     H244097   4.782   5.317   5.478
13999WAT      O44098   4.952   5.294   5.456
13999WAT     H144099   5.014   5.325   5.390
13999WAT     H244100   5.007   5.245   5.518
14000WAT      O44101   5.594   6.883   5.197
14000WAT     H144102   5.545   6.923   5.125
14000WAT     H244103   5.533   6.821   5.236
14001WAT      O44104   4.082   6.821   5.269
14001WAT     H144105   4.022   6.807   5.343
14001WAT     H244106   4.081   6.737   5.222
14002WAT      O44107   5.026   5.150   5.089
14002WAT     H144108   4.939   5.183   5.069
14002WAT     H244109   5.015   5.103   5.172
14003WAT      O44110   5.117   5.371   5.228
14003WAT     H144111   5.084   5.289   5.190
14003WAT     H244112   5.212   5.366   5.215
14004WAT      O44113   5.362   6.948   4.925
14004WAT     H144114   5.316   7.023   4.887
14004WAT     H244115   5.299   6.876   4.919
14005WAT      O44116   4.045   6.557   5.164
14005WAT     H144117   3.972   6.495   5.157
14005WAT     H244118   4.051   6.597   5.077
14006WAT      O44119   4.405   6.779   4.842
14006WAT     H144120   4.457   6.717   4.790
14006WAT     H244121   4.470   6.829   4.892
14007WAT      O44122   4.679   6.868   4.925
14007WAT     H144123   4.708   6.842   4.837
14007WAT     H244124   4.730   6.812   4.984
14008WAT      O44125   4.801   5.242   4.983
14008WAT     H144126   4.723   5.289   5.011
14008WAT     H244127   4.772   5.151   4.972
14009WAT      O44128   3.935   5.272   4.235
14009WAT     H144129   4.011   5.283   4.178
14009WAT     H244130   3.889   5.356   4.231
14010WAT      O44131   4.590   5.483   4.534
14010WAT     H144132   4.508   5.446   4.500
14010WAT     H244133   4.640   5.408   4.564
14011WAT      O44134   4.173   5.325   4.089
14011WAT     H144135   4.226   5.246   4.076
14011WAT     H244136   4.236   5.393   4.113
14012WAT      O44137   4.392   5.298   4.395
14012WAT     H144138   4.329   5.228   4.411
14012WAT     H244139   4.338   5.375   4.373
14013WAT      O44140   4.686   6.960   5.662
14013WAT     H144141   4.779   6.936   5.666
14013WAT     H244142   4.684   7.043   5.614
14014WAT      O44143   5.509   6.914   4.362
14014WAT     H144144   5.527   6.845   4.297
14014WAT     H244145   5.440   6.967   4.322
14015WAT      O44146   4.405   5.226   5.638
14015WAT     H144147   4.376   5.277   5.562
14015WAT     H244148   4.443   5.147   5.602
14016WAT      O44149   5.065   5.168   5.696
14016WAT     H144150   5.053   5.200   5.786
14016WAT     H244151   5.146   5.208   5.666
14017WAT      O44152   5.343   6.883   5.644
14017WAT     H144153   5.422   6.833   5.623
14017WAT     H244154   5.372   6.950   5.705
14018WAT      O44155   4.955   5.970   2.732
14018WAT     H144156   4.947   5.878   2.705
14018WAT     H244157   4.914   6.019   2.662
14019WAT      O44158   4.769   6.148   2.920
14019WAT     H144159   4.691   6.100   2.949
14019WAT     H244160   4.834   6.080   2.903
14020WAT      O44161   4.170   6.179   3.008
14020WAT     H144162   4.087   6.153   3.048
14020WAT     H244163   4.231   6.186   3.082
14021WAT      O44164   5.171   6.588   2.798
14021WAT     H144165   5.124   6.511   2.831
14021WAT     H244166   5.252   6.591   2.849
14022WAT      O44167   4.011   5.675   2.387
14022WAT     H144168   3.922   5.709   2.376
14022WAT     H244169   4.040   5.655   2.297
14023WAT      O44170   3.807   5.935   2.975
14023WAT     H144171   3.865   5.858   2.975
14023WAT     H244172   3.807   5.965   2.884
14024WAT      O44173   4.793   6.817   2.760
14024WAT     H144174   4.731   6.862   2.703
14024WAT     H244175   4.879   6.832   2.720
14025WAT      O44176   4.713   6.415   2.921
14025WAT     H144177   4.706   6.321   2.905
14025WAT     H244178   4.789   6.424   2.978
14026WAT      O44179   3.932   5.476   3.154
14026WAT     H144180   3.914   5.386   3.182
14026WAT     H244181   3.892   5.530   3.221
14027WAT      O44182   4.816   5.696   2.944
14027WAT     H144183   4.853   5.609   2.933
14027WAT     H244184   4.806   5.729   2.855
14028WAT      O44185   4.229   5.533   2.490
14028WAT     H144186   4.239   5.623   2.521
14028WAT     H244187   4.138   5.528   2.461
14029WAT      O44188   3.994   5.725   3.015
14029WAT     H144189   4.062   5.752   3.076
14029WAT     H244190   3.962   5.641   3.048
14030WAT      O44191   4.413   5.830   2.923
14030WAT     H144192   4.464   5.880   2.987
14030WAT     H244193   4.466   5.752   2.906
14031WAT      O44194   5.623   5.647   3.294
14031WAT     H144195   5.552   5.686   3.242
14031WAT     H244196   5.650   5.717   3.354
14032WAT      O44197   4.241   5.294   3.350
14032WAT     H144198   4.241   5.346   3.269
14032WAT     H244199   4.158   5.246   3.348
14033WAT      O44200   4.880   6.305   2.500
14033WAT     H144201   4.818   6.352   2.443
14033WAT     H244202   4.931   6.374   2.541
14034WAT      O44203   4.366   6.258   3.168
14034WAT     H144204   4.333   6.321   3.232
14034WAT     H244205   4.384   6.311   3.090
14035WAT      O44206   5.218   5.639   2.914
14035WAT     H144207   5.147   5.668   2.972
14035WAT     H244208   5.254   5.720   2.878
14036WAT      O44209   4.209   5.465   3.151
14036WAT     H144210   4.243   5.549   3.121
14036WAT     H244211   4.115   5.480   3.162
14037WAT      O44212   5.379   6.601   3.141
14037WAT     H144213   5.311   6.668   3.140
14037WAT     H244214   5.433   6.621   3.064
14038WAT      O44215   5.524   5.584   2.953
14038WAT     H144216   5.430   5.587   2.967
14038WAT     H244217   5.557   5.665   2.992
14039WAT      O44218   4.578   5.214   2.783
14039WAT     H144219   4.608   5.158   2.711
14039WAT     H244220   4.485   5.227   2.765
14040WAT      O44221   5.133   6.786   3.012
14040WAT     H144222   5.134   6.745   2.925
14040WAT     H244223   5.078   6.863   3.002
14041WAT      O44224   5.262   6.458   2.521
14041WAT     H144225   5.251   6.363   2.534
14041WAT     H244226   5.262   6.494   2.610
14042WAT      O44227   5.073   6.276   3.145
14042WAT     H144228   5.114   6.254   3.061
14042WAT     H244229   5.145   6.302   3.202
14043WAT      O44230   4.816   6.020   2.457
14043WAT     H144231   4.724   6.014   2.480
14043WAT     H244232   4.832   6.114   2.445
14044WAT      O44233   4.815   5.648   2.156
14044WAT     H144234   4.721   5.664   2.165
14044WAT     H244235   4.847   5.719   2.102
14045WAT      O44236   5.467   6.116   3.154
14045WAT     H144237   5.384   6.123   3.107
14045WAT     H244238   5.527   6.174   3.107
14046WAT      O44239   5.219   6.177   2.507
14046WAT     H144240   5.158   6.143   2.442
14046WAT     H244241   5.218   6.112   2.578
14047WAT      O44242   5.164   5.794   3.249
14047WAT     H144243   5.122   5.877   3.274
14047WAT     H244244   5.090   5.736   3.229
14048WAT      O44245   4.377   6.073   2.735
14048WAT     H144246   4.337   6.002   2.685
14048WAT     H244247   4.386   6.039   2.824
14049WAT      O44248   4.424   6.442   2.951
14049WAT     H144249   4.394   6.381   2.883
14049WAT     H244250   4.519   6.445   2.940
14050WAT      O44251   4.248   5.750   3.113
14050WAT     H144252   4.303   5.761   3.035
14050WAT     H244253   4.300   5.788   3.184
14051WAT      O44254   5.233   6.799   3.317
14051WAT     H144255   5.185   6.880   3.298
14051WAT     H244256   5.164   6.734   3.333
14052WAT      O44257   5.037   6.100   2.208
14052WAT     H144258   5.081   6.017   2.193
14052WAT     H244259   5.108   6.164   2.216
14053WAT      O44260   4.848   6.594   2.605
14053WAT     H144261   4.892   6.669   2.563
14053WAT     H244262   4.842   6.619   2.697
14054WAT      O44263   5.395   5.226   2.039
14054WAT     H144264   5.364   5.235   2.129
14054WAT     H244265   5.471   5.284   2.034
14055WAT      O44266   4.047   5.962   2.485
14055WAT     H144267   4.035   6.035   2.424
14055WAT     H244268   4.016   5.885   2.437
14056WAT      O44269   5.591   6.775   3.824
14056WAT     H144270   5.638   6.823   3.892
14056WAT     H244271   5.653   6.768   3.752
14057WAT      O44272   5.531   6.494   3.540
14057WAT     H144273   5.544   6.470   3.449
14057WAT     H244274   5.535   6.411   3.588
14058WAT      O44275   4.917   6.865   3.397
14058WAT     H144276   4.969   6.856   3.478
14058WAT     H244277   4.833   6.899   3.427
14059WAT      O44278   5.115   6.893   2.340
14059WAT     H144279   5.099   6.864   2.430
14059WAT     H244280   5.098   6.815   2.287
14060WAT      O44281   4.363   6.871   2.518
14060WAT     H144282   4.345   6.779   2.497
14060WAT     H244283   4.277   6.907   2.542
14061WAT      O44284   5.085   6.644   2.196
14061WAT     H144285   5.016   6.644   2.130
14061WAT     H244286   5.159   6.602   2.153
14062WAT      O44287   5.041   6.807   2.604
14062WAT     H144288   5.087   6.728   2.635
14062WAT     H244289   5.075   6.878   2.658
14063WAT      O44290   5.516   5.700   3.637
14063WAT     H144291   5.455   5.750   3.584
14063WAT     H244292   5.484   5.610   3.631
14064WAT      O44293   4.294   5.297   2.823
14064WAT     H144294   4.249   5.375   2.790
14064WAT     H244295   4.350   5.329   2.894
14065WAT      O44296   4.722   5.583   3.383
14065WAT     H144297   4.676   5.604   3.465
14065WAT     H244298   4.682   5.502   3.353
14066WAT      O44299   5.222   5.706   3.496
14066WAT     H144300   5.137   5.676   3.529
14066WAT     H244301   5.206   5.730   3.405
14067WAT      O44302   4.605   5.259   2.311
14067WAT     H144303   4.543   5.259   2.384
14067WAT     H244304   4.597   5.172   2.272
14068WAT      O44305   4.497   5.351   3.009
14068WAT     H144306   4.527   5.442   3.001
14068WAT     H244307   4.552   5.302   2.948
14069WAT      O44308   4.273   5.809   2.596
14069WAT     H144309   4.250   5.788   2.686
14069WAT     H244310   4.195   5.852   2.561
14070WAT      O44311   4.030   5.540   3.478
14070WAT     H144312   3.991   5.625   3.499
14070WAT     H244313   3.961   5.476   3.497
14071WAT      O44314   3.760   5.332   2.881
14071WAT     H144315   3.731   5.389   2.952
14071WAT     H244316   3.835   5.284   2.917
14072WAT      O44317   3.779   5.727   2.002
14072WAT     H144318   3.771   5.821   2.016
14072WAT     H244319   3.744   5.712   1.914
14073WAT      O44320   4.915   5.932   3.068
14073WAT     H144321   4.842   5.983   3.103
14073WAT     H244322   4.875   5.851   3.038
14074WAT      O44323   4.559   5.600   2.909
14074WAT     H144324   4.559   5.556   2.824
14074WAT     H244325   4.648   5.632   2.920
14075WAT      O44326   4.144   5.588   2.805
14075WAT     H144327   4.110   5.636   2.881
14075WAT     H244328   4.068   5.543   2.769
14076WAT      O44329   4.565   5.700   2.208
14076WAT     H144330   4.577   5.696   2.303
14076WAT     H244331   4.526   5.786   2.192
14077WAT      O44332   4.961   5.478   3.010
14077WAT     H144333   4.963   5.523   3.094
14077WAT     H244334   4.936   5.388   3.031
14078WAT      O44335   4.466   5.931   2.148
14078WAT     H144336   4.409   5.886   2.085
14078WAT     H244337   4.537   5.967   2.094
14079WAT      O44338   4.589   6.006   3.084
14079WAT     H144339   4.626   5.959   3.158
14079WAT     H244340   4.570   6.093   3.118
14080WAT      O44341   3.875   5.480   2.697
14080WAT     H144342   3.847   5.444   2.780
14080WAT     H244343   3.869   5.407   2.635
14081WAT      O44344   4.368   5.910   3.315
14081WAT     H144345   4.337   5.998   3.338
14081WAT     H244346   4.463   5.916   3.319
14082WAT      O44347   5.297   6.230   2.954
14082WAT     H144348   5.369   6.280   2.915
14082WAT     H244349   5.276   6.163   2.890
14083WAT      O44350   4.225   6.298   2.739
14083WAT     H144351   4.277   6.217   2.733
14083WAT     H244352   4.180   6.291   2.823
14084WAT      O44353   4.714   6.424   2.266
14084WAT     H144354   4.748   6.499   2.217
14084WAT     H244355   4.631   6.455   2.302
14085WAT      O44356   5.341   5.938   2.145
14085WAT     H144357   5.333   5.981   2.060
14085WAT     H244358   5.413   5.984   2.188
14086WAT      O44359   5.449   6.184   3.453
14086WAT     H144360   5.376   6.243   3.433
14086WAT     H244361   5.502   6.183   3.373
14087WAT      O44362   5.444   6.623   2.418
14087WAT     H144363   5.380   6.558   2.445
14087WAT     H244364   5.405   6.664   2.340
14088WAT      O44365   5.002   6.356   2.803
14088WAT     H144366   5.037   6.297   2.737
14088WAT     H244367   4.914   6.324   2.820
14089WAT      O44368   4.611   6.432   2.543
14089WAT     H144369   4.679   6.487   2.581
14089WAT     H244370   4.532   6.487   2.547
14090WAT      O44371   3.825   5.994   2.092
14090WAT     H144372   3.911   6.022   2.121
14090WAT     H244373   3.775   6.075   2.081
14091WAT      O44374   4.541   6.133   2.505
14091WAT     H144375   4.587   6.214   2.527
14091WAT     H244376   4.506   6.101   2.588
14092WAT      O44377   4.771   6.684   3.227
14092WAT     H144378   4.836   6.704   3.295
14092WAT     H244379   4.808   6.608   3.182
14093WAT      O44380   4.131   5.167   2.552
14093WAT     H144381   4.118   5.166   2.647
14093WAT     H244382   4.049   5.201   2.517
14094WAT      O44383   4.899   6.484   3.099
14094WAT     H144384   4.963   6.414   3.111
14094WAT     H244385   4.951   6.562   3.081
14095WAT      O44386   5.283   6.513   2.072
14095WAT     H144387   5.260   6.441   2.131
14095WAT     H244388   5.244   6.488   1.988
14096WAT      O44389   5.076   6.564   3.420
14096WAT     H144390   5.109   6.623   3.487
14096WAT     H244391   4.984   6.551   3.443
14097WAT      O44392   3.831   5.343   3.498
14097WAT     H144393   3.760   5.363   3.558
14097WAT     H244394   3.873   5.265   3.535
14098WAT      O44395   5.241   6.304   2.238
14098WAT     H144396   5.212   6.350   2.317
14098WAT     H244397   5.321   6.258   2.265
14099WAT      O44398   4.980   5.592   3.273
14099WAT     H144399   5.017   5.510   3.306
14099WAT     H244400   4.894   5.598   3.314
14100WAT      O44401   4.762   6.660   2.097
14100WAT     H144402   4.772   6.640   2.004
14100WAT     H244403   4.672   6.634   2.118
14101WAT      O44404   4.514   5.716   2.495
14101WAT     H144405   4.443   5.763   2.539
14101WAT     H244406   4.542   5.650   2.559
14102WAT      O44407   4.626   6.912   2.567
14102WAT     H144408   4.651   6.908   2.474
14102WAT     H244409   4.531   6.899   2.566
14103WAT      O44410   4.334   5.547   2.233
14103WAT     H144411   4.419   5.590   2.226
14103WAT     H244412   4.297   5.578   2.316
14104WAT      O44413   5.397   5.479   3.380
14104WAT     H144414   5.347   5.553   3.413
14104WAT     H244415   5.479   5.518   3.348
14105WAT      O44416   4.224   6.172   2.080
14105WAT     H144417   4.301   6.161   2.136
14105WAT     H244418   4.232   6.102   2.015
14106WAT      O44419   4.094   5.915   2.149
14106WAT     H144420   4.102   5.820   2.160
14106WAT     H244421   4.183   5.948   2.159
14107WAT      O44422   5.427   6.721   2.892
14107WAT     H144423   5.439   6.803   2.939
14107WAT     H244424   5.513   6.700   2.857
14108WAT      O44425   4.174   6.930   2.859
14108WAT     H144426   4.247   6.875   2.886
14108WAT     H244427   4.212   7.017   2.845
14109WAT      O44428   5.101   6.832   3.634
14109WAT     H144429   5.196   6.824   3.629
14109WAT     H244430   5.086   6.899   3.701
14110WAT      O44431   5.390   6.770   2.183
14110WAT     H144432   5.361   6.729   2.102
14110WAT     H244433   5.370   6.863   2.171
14111WAT      O44434   4.536   6.369   2.028
14111WAT     H144435   4.526   6.308   2.100
14111WAT     H244436   4.520   6.317   1.949
14112WAT      O44437   4.861   6.276   2.088
14112WAT     H144438   4.806   6.320   2.152
14112WAT     H244439   4.923   6.225   2.140
14113WAT      O44440   5.266   6.411   3.681
14113WAT     H144441   5.340   6.445   3.631
14113WAT     H244442   5.190   6.428   3.626
14114WAT      O44443   4.427   6.172   2.278
14114WAT     H144444   4.469   6.155   2.362
14114WAT     H244445   4.440   6.091   2.228
14115WAT      O44446   4.679   6.074   2.002
14115WAT     H144447   4.731   6.002   1.966
14115WAT     H244448   4.743   6.138   2.032
14116WAT      O44449   4.292   5.466   3.566
14116WAT     H144450   4.283   5.404   3.494
14116WAT     H244451   4.234   5.539   3.544
14117WAT      O44452   4.569   5.322   3.270
14117WAT     H144453   4.524   5.324   3.185
14117WAT     H244454   4.506   5.282   3.329
14118WAT      O44455   4.317   5.779   1.972
14118WAT     H144456   4.297   5.693   2.008
14118WAT     H244457   4.300   5.770   1.878
14119WAT      O44458   4.197   5.489   1.971
14119WAT     H144459   4.227   5.490   1.880
14119WAT     H244460   4.271   5.454   2.021
14120WAT      O44461   4.680   6.965   3.469
14120WAT     H144462   4.673   7.056   3.500
14120WAT     H244463   4.590   6.934   3.466
14121WAT      O44464   4.519   5.383   2.070
14121WAT     H144465   4.484   5.315   2.012
14121WAT     H244466   4.539   5.337   2.151
14122WAT      O44467   4.735   6.882   2.231
14122WAT     H144468   4.825   6.916   2.234
14122WAT     H244469   4.738   6.810   2.169
14123WAT      O44470   5.433   6.735   3.502
14123WAT     H144471   5.373   6.741   3.428
14123WAT     H244472   5.446   6.641   3.515
14124WAT      O44473   5.557   6.509   2.036
14124WAT     H144474   5.474   6.516   2.083
14124WAT     H244475   5.575   6.598   2.005
14125WAT      O44476   5.503   6.184   2.286
14125WAT     H144477   5.579   6.241   2.297
14125WAT     H244478   5.504   6.127   2.363
14126WAT      O44479   3.853   6.036   2.709
14126WAT     H144480   3.787   6.009   2.645
14126WAT     H244481   3.936   6.025   2.664
14127WAT      O44482   5.603   6.269   2.771
14127WAT     H144483   5.640   6.191   2.730
14127WAT     H244484   5.667   6.338   2.753
14128WAT      O44485   5.301   6.408   3.312
14128WAT     H144486   5.220   6.451   3.338
14128WAT     H244487   5.342   6.469   3.251
14129WAT      O44488   5.508   6.213   2.002
14129WAT     H144489   5.535   6.304   1.989
14129WAT     H244490   5.489   6.207   2.095
14130WAT      O44491   5.147   5.516   2.131
14130WAT     H144492   5.189   5.497   2.047
14130WAT     H244493   5.117   5.430   2.162
14131WAT      O44494   3.956   6.075   3.163
14131WAT     H144495   3.993   6.066   3.251
14131WAT     H244496   3.899   5.998   3.153
14132WAT      O44497   5.436   5.921   3.465
14132WAT     H144498   5.413   5.899   3.374
14132WAT     H244499   5.462   6.013   3.460
14133WAT      O44500   3.911   5.766   3.554
14133WAT     H144501   3.822   5.762   3.588
14133WAT     H244502   3.965   5.786   3.630
14134WAT      O44503   3.774   5.757   2.303
14134WAT     H144504   3.684   5.783   2.286
14134WAT     H244505   3.822   5.784   2.225
14135WAT      O44506   5.443   5.838   3.183
14135WAT     H144507   5.348   5.834   3.195
14135WAT     H244508   5.461   5.929   3.160
14136WAT      O44509   4.028   5.663   2.094
14136WAT     H144510   4.099   5.621   2.046
14136WAT     H244511   3.957   5.670   2.031
14137WAT      O44512   3.993   5.268   1.998
14137WAT     H144513   4.065   5.322   2.030
14137WAT     H244514   4.020   5.241   1.911
14138WAT      O44515   3.962   5.193   2.989
14138WAT     H144516   4.027   5.138   2.945
14138WAT     H244517   4.004   5.219   3.071
14139WAT      O44518   5.351   5.213   3.324
14139WAT     H144519   5.415   5.274   3.361
14139WAT     H244520   5.366   5.216   3.230
14140WAT      O44521   5.606   5.402   2.003
14140WAT     H144522   5.698   5.389   1.982
14140WAT     H244523   5.603   5.410   2.098
14141WAT      O44524   5.307   6.883   2.665
14141WAT     H144525   5.367   6.851   2.597
14141WAT     H244526   5.333   6.835   2.744
14142WAT      O44527   3.937   5.209   3.263
14142WAT     H144528   3.902   5.254   3.339
14142WAT     H244529   3.904   5.119   3.271
14143WAT      O44530   4.688   5.328   3.615
14143WAT     H144531   4.682   5.387   3.690
14143WAT     H244532   4.782   5.317   3.601
14144WAT      O44533   4.952   5.294   3.579
14144WAT     H144534   5.014   5.325   3.513
14144WAT     H244535   5.007   5.245   3.641
14145WAT      O44536   5.594   6.883   3.320
14145WAT     H144537   5.545   6.923   3.248
14145WAT     H244538   5.533   6.821   3.359
14146WAT      O44539   4.004   5.162   3.590
14146WAT     H144540   4.059   5.143   3.514
14146WAT     H244541   4.011   5.082   3.644
14147WAT      O44542   5.026   5.150   3.212
14147WAT     H144543   4.939   5.183   3.191
14147WAT     H244544   5.015   5.103   3.294
14148WAT      O44545   5.117   5.371   3.350
14148WAT     H144546   5.084   5.289   3.312
14148WAT     H244547   5.212   5.366   3.338
14149WAT      O44548   5.362   6.948   3.047
14149WAT     H144549   5.316   7.023   3.010
14149WAT     H244550   5.299   6.876   3.042
14150WAT      O44551   4.405   6.779   2.965
14150WAT     H144552   4.457   6.717   2.912
14150WAT     H244553   4.470   6.829   3.014
14151WAT      O44554   4.679   6.868   3.048
14151WAT     H144555   4.708   6.842   2.960
14151WAT     H244556   4.730   6.812   3.107
14152WAT      O44557   4.801   5.242   3.106
14152WAT     H144558   4.723   5.289   3.134
14152WAT     H244559   4.772   5.151   3.095
14153WAT      O44560   5.256   5.312   2.910
14153WAT     H144561   5.300   5.306   2.825
14153WAT     H244562   5.229   5.403   2.917
14154WAT      O44563   3.935   5.272   2.358
14154WAT     H144564   4.011   5.283   2.300
14154WAT     H244565   3.889   5.356   2.353
14155WAT      O44566   5.040   5.150   2.781
14155WAT     H144567   5.100   5.207   2.828
14155WAT     H244568   4.966   5.206   2.758
14156WAT      O44569   4.173   5.325   2.212
14156WAT     H144570   4.226   5.246   2.199
14156WAT     H244571   4.236   5.393   2.235
14157WAT      O44572   4.392   5.298   2.517
14157WAT     H144573   4.329   5.228   2.534
14157WAT     H244574   4.338   5.375   2.496
14158WAT      O44575   4.686   6.960   3.784
14158WAT     H144576   4.779   6.936   3.789
14158WAT     H244577   4.684   7.043   3.736
14159WAT      O44578   5.509   6.914   2.484
14159WAT     H144579   5.527   6.845   2.420
14159WAT     H244580   5.440   6.967   2.445
14160WAT      O44581   4.405   5.226   3.761
14160WAT     H144582   4.376   5.277   3.684
14160WAT     H244583   4.443   5.147   3.724
14161WAT      O44584   5.065   5.168   3.819
14161WAT     H144585   5.053   5.200   3.908
14161WAT     H244586   5.146   5.208   3.789
14162WAT      O44587   5.343   6.883   3.767
14162WAT     H144588   5.422   6.833   3.746
14162WAT     H244589   5.372   6.950   3.827
14163WAT      O44590   4.955   5.970   0.855
14163WAT     H144591   4.947   5.878   0.828
14163WAT     H244592   4.914   6.019   0.784
14164WAT      O44593   4.769   6.148   1.043
14164WAT     H144594   4.691   6.100   1.072
14164WAT     H244595   4.834   6.080   1.026
14165WAT      O44596   4.170   6.179   1.131
14165WAT     H144597   4.087   6.153   1.171
14165WAT     H244598   4.231   6.186   1.204
14166WAT      O44599   5.171   6.588   0.921
14166WAT     H144600   5.124   6.511   0.954
14166WAT     H244601   5.252   6.591   0.972
14167WAT      O44602   4.168   6.582   1.150
14167WAT     H144603   4.198   6.493   1.132
14167WAT     H244604   4.243   6.638   1.128
14168WAT      O44605   4.011   5.675   0.509
14168WAT     H144606   3.922   5.709   0.499
14168WAT     H244607   4.040   5.655   0.420
14169WAT      O44608   3.807   5.935   1.098
14169WAT     H144609   3.865   5.858   1.098
14169WAT     H244610   3.807   5.965   1.007
14170WAT      O44611   4.793   6.817   0.883
14170WAT     H144612   4.731   6.862   0.826
14170WAT     H244613   4.879   6.832   0.843
14171WAT      O44614   4.713   6.415   1.044
14171WAT     H144615   4.706   6.321   1.028
14171WAT     H244616   4.789   6.424   1.101
14172WAT      O44617   3.932   5.476   1.276
14172WAT     H144618   3.914   5.386   1.304
14172WAT     H244619   3.892   5.530   1.344
14173WAT      O44620   4.816   5.696   1.066
14173WAT     H144621   4.853   5.609   1.055
14173WAT     H244622   4.806   5.729   0.977
14174WAT      O44623   4.229   5.533   0.613
14174WAT     H144624   4.239   5.623   0.643
14174WAT     H244625   4.138   5.528   0.584
14175WAT      O44626   5.194   5.445   0.760
14175WAT     H144627   5.276   5.396   0.764
14175WAT     H244628   5.197   5.504   0.835
14176WAT      O44629   3.994   5.725   1.137
14176WAT     H144630   4.062   5.752   1.199
14176WAT     H244631   3.962   5.641   1.170
14177WAT      O44632   4.413   5.830   1.046
14177WAT     H144633   4.464   5.880   1.110
14177WAT     H244634   4.466   5.752   1.028
14178WAT      O44635   5.623   5.647   1.416
14178WAT     H144636   5.552   5.686   1.364
14178WAT     H244637   5.650   5.717   1.476
14179WAT      O44638   4.241   5.294   1.472
14179WAT     H144639   4.241   5.346   1.392
14179WAT     H244640   4.158   5.246   1.470
14180WAT      O44641   4.880   6.305   0.622
14180WAT     H144642   4.818   6.352   0.566
14180WAT     H244643   4.931   6.374   0.664
14181WAT      O44644   4.366   6.258   1.290
14181WAT     H144645   4.333   6.321   1.354
14181WAT     H244646   4.384   6.311   1.212
14182WAT      O44647   5.218   5.639   1.037
14182WAT     H144648   5.147   5.668   1.095
14182WAT     H244649   5.254   5.720   1.001
14183WAT      O44650   4.209   5.465   1.273
14183WAT     H144651   4.243   5.549   1.244
14183WAT     H244652   4.115   5.480   1.285
14184WAT      O44653   4.287   6.455   1.472
14184WAT     H144654   4.349   6.522   1.444
14184WAT     H244655   4.201   6.496   1.463
14185WAT      O44656   3.817   6.374   0.360
14185WAT     H144657   3.779   6.423   0.287
14185WAT     H244658   3.842   6.441   0.423
14186WAT      O44659   5.379   6.601   1.263
14186WAT     H144660   5.311   6.668   1.262
14186WAT     H244661   5.433   6.621   1.187
14187WAT      O44662   5.524   5.584   1.076
14187WAT     H144663   5.430   5.587   1.089
14187WAT     H244664   5.557   5.665   1.115
14188WAT      O44665   4.578   5.214   0.906
14188WAT     H144666   4.608   5.158   0.834
14188WAT     H244667   4.485   5.227   0.887
14189WAT      O44668   5.133   6.786   1.135
14189WAT     H144669   5.134   6.745   1.048
14189WAT     H244670   5.078   6.863   1.124
14190WAT      O44671   5.262   6.458   0.644
14190WAT     H144672   5.251   6.363   0.656
14190WAT     H244673   5.262   6.494   0.732
14191WAT      O44674   5.073   6.276   1.267
14191WAT     H144675   5.114   6.254   1.184
14191WAT     H244676   5.145   6.302   1.325
14192WAT      O44677   4.816   6.020   0.579
14192WAT     H144678   4.724   6.014   0.602
14192WAT     H244679   4.832   6.114   0.568
14193WAT      O44680   4.815   5.648   0.279
14193WAT     H144681   4.721   5.664   0.287
14193WAT     H244682   4.847   5.719   0.224
14194WAT      O44683   5.467   6.116   1.277
14194WAT     H144684   5.384   6.123   1.229
14194WAT     H244685   5.527   6.174   1.230
14195WAT      O44686   5.219   6.177   0.630
14195WAT     H144687   5.158   6.143   0.565
14195WAT     H244688   5.218   6.112   0.700
14196WAT      O44689   5.164   5.794   1.371
14196WAT     H144690   5.122   5.877   1.397
14196WAT     H244691   5.090   5.736   1.352
14197WAT      O44692   4.377   6.073   0.857
14197WAT     H144693   4.337   6.002   0.808
14197WAT     H244694   4.386   6.039   0.946
14198WAT      O44695   4.424   6.442   1.074
14198WAT     H144696   4.394   6.381   1.006
14198WAT     H244697   4.519   6.445   1.063
14199WAT      O44698   4.248   5.750   1.235
14199WAT     H144699   4.303   5.761   1.158
14199WAT     H244700   4.300   5.788   1.307
14200WAT      O44701   5.233   6.799   1.440
14200WAT     H144702   5.185   6.880   1.421
14200WAT     H244703   5.164   6.734   1.455
14201WAT      O44704   4.333   6.415   1.739
14201WAT     H144705   4.243   6.438   1.764
14201WAT     H244706   4.336   6.428   1.644
14202WAT      O44707   5.037   6.100   0.330
14202WAT     H144708   5.081   6.017   0.316
14202WAT     H244709   5.108   6.164   0.339
14203WAT      O44710   4.216   6.103   1.596
14203WAT     H144711   4.202   6.190   1.633
14203WAT     H244712   4.128   6.068   1.582
14204WAT      O44713   4.848   6.594   0.727
14204WAT     H144714   4.892   6.669   0.686
14204WAT     H244715   4.842   6.619   0.819
14205WAT      O44716   4.047   5.962   0.607
14205WAT     H144717   4.035   6.035   0.546
14205WAT     H244718   4.016   5.885   0.560
14206WAT      O44719   5.591   6.775   1.947
14206WAT     H144720   5.638   6.823   2.015
14206WAT     H244721   5.653   6.768   1.874
14207WAT      O44722   3.811   6.280   1.188
14207WAT     H144723   3.819   6.293   1.094
14207WAT     H244724   3.872   6.209   1.207
14208WAT      O44725   3.935   6.450   0.829
14208WAT     H144726   3.895   6.464   0.744
14208WAT     H244727   4.024   6.421   0.809
14209WAT      O44728   5.531   6.494   1.663
14209WAT     H144729   5.544   6.470   1.571
14209WAT     H244730   5.535   6.411   1.710
14210WAT      O44731   4.917   6.865   1.520
14210WAT     H144732   4.969   6.856   1.600
14210WAT     H244733   4.833   6.899   1.549
14211WAT      O44734   5.115   6.893   0.463
14211WAT     H144735   5.099   6.864   0.553
14211WAT     H244736   5.098   6.815   0.409
14212WAT      O44737   4.363   6.871   0.640
14212WAT     H144738   4.345   6.779   0.619
14212WAT     H244739   4.277   6.907   0.664
14213WAT      O44740   5.085   6.644   0.319
14213WAT     H144741   5.016   6.644   0.253
14213WAT     H244742   5.159   6.602   0.276
14214WAT      O44743   5.041   6.807   0.726
14214WAT     H144744   5.087   6.728   0.758
14214WAT     H244745   5.075   6.878   0.781
14215WAT      O44746   5.516   5.700   1.759
14215WAT     H144747   5.455   5.750   1.707
14215WAT     H244748   5.484   5.610   1.754
14216WAT      O44749   3.816   6.384   1.442
14216WAT     H144750   3.833   6.337   1.360
14216WAT     H244751   3.863   6.333   1.509
14217WAT      O44752   4.294   5.297   0.946
14217WAT     H144753   4.249   5.375   0.913
14217WAT     H244754   4.350   5.329   1.016
14218WAT      O44755   4.722   5.583   1.506
14218WAT     H144756   4.676   5.604   1.587
14218WAT     H244757   4.682   5.502   1.476
14219WAT      O44758   5.222   5.706   1.619
14219WAT     H144759   5.137   5.676   1.651
14219WAT     H244760   5.206   5.730   1.528
14220WAT      O44761   4.932   5.856   1.829
14220WAT     H144762   4.964   5.772   1.795
14220WAT     H244763   5.011   5.908   1.844
14221WAT      O44764   4.605   5.259   0.434
14221WAT     H144765   4.543   5.259   0.506
14221WAT     H244766   4.597   5.172   0.394
14222WAT      O44767   4.497   5.351   1.132
14222WAT     H144768   4.527   5.442   1.124
14222WAT     H244769   4.552   5.302   1.070
14223WAT      O44770   4.273   5.809   0.719
14223WAT     H144771   4.250   5.788   0.809
14223WAT     H244772   4.195   5.852   0.684
14224WAT      O44773   4.996   5.810   0.578
14224WAT     H144774   4.936   5.882   0.560
14224WAT     H244775   5.051   5.804   0.500
14225WAT      O44776   4.517   5.899   1.785
14225WAT     H144777   4.507   5.805   1.770
14225WAT     H244778   4.601   5.921   1.746
14226WAT      O44779   4.856   5.673   0.781
14226WAT     H144780   4.896   5.705   0.700
14226WAT     H244781   4.893   5.586   0.793
14227WAT      O44782   4.030   5.540   1.600
14227WAT     H144783   3.991   5.625   1.621
14227WAT     H244784   3.961   5.476   1.620
14228WAT      O44785   4.687   5.548   1.907
14228WAT     H144786   4.618   5.529   1.971
14228WAT     H244787   4.762   5.577   1.961
14229WAT      O44788   3.760   5.332   1.004
14229WAT     H144789   3.731   5.389   1.075
14229WAT     H244790   3.835   5.284   1.040
14230WAT      O44791   4.915   5.932   1.191
14230WAT     H144792   4.842   5.983   1.226
14230WAT     H244793   4.875   5.851   1.161
14231WAT      O44794   4.559   5.600   1.031
14231WAT     H144795   4.559   5.556   0.947
14231WAT     H244796   4.648   5.632   1.042
14232WAT      O44797   4.144   5.588   0.927
14232WAT     H144798   4.110   5.636   1.003
14232WAT     H244799   4.068   5.543   0.891
14233WAT      O44800   4.565   5.700   0.331
14233WAT     H144801   4.577   5.696   0.425
14233WAT     H244802   4.526   5.786   0.315
14234WAT      O44803   4.961   5.478   1.132
14234WAT     H144804   4.963   5.523   1.217
14234WAT     H244805   4.936   5.388   1.154
14235WAT      O44806   4.466   5.931   0.270
14235WAT     H144807   4.409   5.886   0.208
14235WAT     H244808   4.537   5.967   0.217
14236WAT      O44809   5.304   5.219   1.716
14236WAT     H144810   5.336   5.146   1.769
14236WAT     H244811   5.308   5.187   1.626
14237WAT      O44812   3.974   6.321   1.658
14237WAT     H144813   3.935   6.257   1.718
14237WAT     H244814   4.005   6.392   1.715
14238WAT      O44815   4.589   6.006   1.206
14238WAT     H144816   4.626   5.959   1.281
14238WAT     H244817   4.570   6.093   1.240
14239WAT      O44818   3.875   5.480   0.819
14239WAT     H144819   3.847   5.444   0.903
14239WAT     H244820   3.869   5.407   0.758
14240WAT      O44821   4.368   5.910   1.438
14240WAT     H144822   4.337   5.998   1.460
14240WAT     H244823   4.463   5.916   1.442
14241WAT      O44824   4.221   6.331   0.498
14241WAT     H144825   4.143   6.277   0.482
14241WAT     H244826   4.294   6.279   0.464
14242WAT      O44827   5.297   6.230   1.077
14242WAT     H144828   5.369   6.280   1.038
14242WAT     H244829   5.276   6.163   1.012
14243WAT      O44830   4.843   5.370   0.491
14243WAT     H144831   4.761   5.320   0.484
14243WAT     H244832   4.823   5.454   0.450
14244WAT      O44833   4.835   6.237   1.666
14244WAT     H144834   4.828   6.145   1.640
14244WAT     H244835   4.772   6.247   1.737
14245WAT      O44836   5.114   5.807   0.321
14245WAT     H144837   5.203   5.838   0.303
14245WAT     H244838   5.111   5.720   0.282
14246WAT      O44839   4.225   6.298   0.861
14246WAT     H144840   4.277   6.217   0.856
14246WAT     H244841   4.180   6.291   0.946
14247WAT      O44842   4.714   6.424   0.389
14247WAT     H144843   4.748   6.499   0.339
14247WAT     H244844   4.631   6.455   0.425
14248WAT      O44845   3.973   5.994   1.553
14248WAT     H144846   3.938   6.061   1.611
14248WAT     H244847   3.944   5.911   1.590
14249WAT      O44848   4.294   6.040   1.841
14249WAT     H144849   4.264   6.055   1.751
14249WAT     H244850   4.371   5.984   1.832
14250WAT      O44851   4.828   6.520   1.641
14250WAT     H144852   4.829   6.426   1.619
14250WAT     H244853   4.757   6.528   1.705
14251WAT      O44854   5.341   5.938   0.268
14251WAT     H144855   5.333   5.981   0.183
14251WAT     H244856   5.413   5.984   0.311
14252WAT      O44857   5.449   6.184   1.575
14252WAT     H144858   5.376   6.243   1.556
14252WAT     H244859   5.502   6.183   1.495
14253WAT      O44860   5.444   6.623   0.540
14253WAT     H144861   5.380   6.558   0.568
14253WAT     H244862   5.405   6.664   0.463
14254WAT      O44863   5.002   6.356   0.925
14254WAT     H144864   5.037   6.297   0.859
14254WAT     H244865   4.914   6.324   0.942
14255WAT      O44866   4.611   6.432   0.666
14255WAT     H144867   4.679   6.487   0.704
14255WAT     H244868   4.532   6.487   0.669
14256WAT      O44869   3.825   5.994   0.215
14256WAT     H144870   3.911   6.022   0.243
14256WAT     H244871   3.775   6.075   0.204
14257WAT      O44872   4.541   6.133   0.627
14257WAT     H144873   4.587   6.214   0.650
14257WAT     H244874   4.506   6.101   0.710
14258WAT      O44875   4.771   6.684   1.350
14258WAT     H144876   4.836   6.704   1.418
14258WAT     H244877   4.808   6.608   1.305
14259WAT      O44878   4.131   5.167   0.674
14259WAT     H144879   4.118   5.166   0.769
14259WAT     H244880   4.049   5.201   0.639
14260WAT      O44881   4.899   6.484   1.222
14260WAT     H144882   4.963   6.414   1.233
14260WAT     H244883   4.951   6.562   1.204
14261WAT      O44884   5.076   6.564   1.542
14261WAT     H144885   5.109   6.623   1.610
14261WAT     H244886   4.984   6.551   1.565
14262WAT      O44887   3.861   6.915   0.272
14262WAT     H144888   3.897   6.975   0.206
14262WAT     H244889   3.847   6.970   0.349
14263WAT      O44890   3.831   5.343   1.620
14263WAT     H144891   3.760   5.363   1.681
14263WAT     H244892   3.873   5.265   1.658
14264WAT      O44893   5.241   6.304   0.360
14264WAT     H144894   5.212   6.350   0.439
14264WAT     H244895   5.321   6.258   0.387
14265WAT      O44896   4.659   6.569   1.859
14265WAT     H144897   4.627   6.497   1.914
14265WAT     H244898   4.591   6.637   1.866
14266WAT      O44899   4.463   6.654   0.353
14266WAT     H144900   4.462   6.727   0.292
14266WAT     H244901   4.371   6.629   0.363
14267WAT      O44902   4.023   6.176   0.428
14267WAT     H144903   3.962   6.250   0.429
14267WAT     H244904   4.071   6.185   0.345
14268WAT      O44905   4.980   5.592   1.395
14268WAT     H144906   5.017   5.510   1.428
14268WAT     H244907   4.894   5.598   1.437
14269WAT      O44908   5.317   5.488   0.476
14269WAT     H144909   5.254   5.498   0.405
14269WAT     H244910   5.267   5.510   0.555
14270WAT      O44911   4.514   5.716   0.618
14270WAT     H144912   4.443   5.763   0.662
14270WAT     H244913   4.542   5.650   0.681
14271WAT      O44914   4.676   5.858   1.418
14271WAT     H144915   4.726   5.905   1.484
14271WAT     H244916   4.691   5.765   1.439
14272WAT      O44917   4.917   5.388   0.762
14272WAT     H144918   4.905   5.390   0.667
14272WAT     H244919   5.012   5.393   0.774
14273WAT      O44920   4.626   6.912   0.689
14273WAT     H144921   4.651   6.908   0.597
14273WAT     H244922   4.531   6.899   0.688
14274WAT      O44923   4.334   5.547   0.355
14274WAT     H144924   4.419   5.590   0.349
14274WAT     H244925   4.297   5.578   0.438
14275WAT      O44926   5.397   5.479   1.502
14275WAT     H144927   5.347   5.553   1.536
14275WAT     H244928   5.479   5.518   1.470
14276WAT      O44929   5.226   6.004   0.847
14276WAT     H144930   5.132   6.005   0.864
14276WAT     H244931   5.258   5.925   0.891
14277WAT      O44932   4.094   5.915   0.271
14277WAT     H144933   4.102   5.820   0.282
14277WAT     H244934   4.183   5.948   0.282
14278WAT      O44935   5.427   6.721   1.014
14278WAT     H144936   5.439   6.803   1.061
14278WAT     H244937   5.513   6.700   0.979
14279WAT      O44938   4.174   6.930   0.981
14279WAT     H144939   4.247   6.875   1.009
14279WAT     H244940   4.212   7.017   0.967
14280WAT      O44941   3.862   6.537   0.569
14280WAT     H144942   3.770   6.561   0.568
14280WAT     H244943   3.909   6.620   0.557
14281WAT      O44944   4.958   6.459   1.895
14281WAT     H144945   4.897   6.462   1.821
14281WAT     H244946   4.927   6.386   1.949
14282WAT      O44947   5.101   6.832   1.756
14282WAT     H144948   5.196   6.824   1.751
14282WAT     H244949   5.086   6.899   1.823
14283WAT      O44950   5.390   6.770   0.306
14283WAT     H144951   5.361   6.729   0.225
14283WAT     H244952   5.370   6.863   0.294
14284WAT      O44953   3.846   6.097   1.795
14284WAT     H144954   3.897   6.039   1.852
14284WAT     H244955   3.772   6.126   1.848
14285WAT      O44956   4.552   6.238   1.748
14285WAT     H144957   4.475   6.295   1.740
14285WAT     H244958   4.570   6.209   1.659
14286WAT      O44959   4.861   6.276   0.211
14286WAT     H144960   4.806   6.320   0.275
14286WAT     H244961   4.923   6.225   0.263
14287WAT      O44962   5.266   6.411   1.804
14287WAT     H144963   5.340   6.445   1.753
14287WAT     H244964   5.190   6.428   1.748
14288WAT      O44965   4.049   5.912   1.884
14288WAT     H144966   4.054   5.882   1.975
14288WAT     H244967   4.135   5.952   1.868
14289WAT      O44968   4.427   6.172   0.400
14289WAT     H144969   4.469   6.155   0.484
14289WAT     H244970   4.440   6.091   0.351
14290WAT      O44971   4.244   5.770   1.681
14290WAT     H144972   4.190   5.720   1.618
14290WAT     H244973   4.310   5.812   1.627
14291WAT      O44974   5.133   6.216   1.657
14291WAT     H144975   5.175   6.232   1.742
14291WAT     H244976   5.040   6.229   1.674
14292WAT      O44977   5.181   5.950   1.858
14292WAT     H144978   5.239   5.875   1.849
14292WAT     H244979   5.198   6.003   1.780
14293WAT      O44980   4.292   5.466   1.689
14293WAT     H144981   4.283   5.404   1.616
14293WAT     H244982   4.234   5.539   1.666
14294WAT      O44983   4.569   5.322   1.392
14294WAT     H144984   4.524   5.324   1.308
14294WAT     H244985   4.506   5.282   1.452
14295WAT      O44986   4.609   6.211   1.454
14295WAT     H144987   4.651   6.296   1.437
14295WAT     H244988   4.518   6.225   1.431
14296WAT      O44989   4.843   5.985   1.593
14296WAT     H144990   4.855   5.925   1.667
14296WAT     H244991   4.929   5.988   1.551
14297WAT      O44992   5.077   6.040   1.450
14297WAT     H144993   5.024   6.092   1.390
14297WAT     H244994   5.111   6.103   1.513
14298WAT      O44995   4.395   6.842   1.566
14298WAT     H144996   4.341   6.914   1.534
14298WAT     H244997   4.420   6.794   1.487
14299WAT      O44998   4.520   5.639   1.718
14299WAT     H144999   4.579   5.608   1.787
14299WAT     H245000   4.438   5.592   1.734
14300WAT      O45001   5.002   5.600   1.742
14300WAT     H145002   4.933   5.534   1.735
14300WAT     H245003   5.074   5.556   1.786
14301WAT      O45004   5.065   5.260   0.348
14301WAT     H145005   5.093   5.176   0.383
14301WAT     H245006   4.987   5.283   0.399
14302WAT      O45007   4.680   6.965   1.592
14302WAT     H145008   4.673   7.056   1.622
14302WAT     H245009   4.590   6.934   1.589
14303WAT      O45010   4.735   6.882   0.354
14303WAT     H145011   4.825   6.916   0.356
14303WAT     H245012   4.738   6.810   0.291
14304WAT      O45013   4.099   6.419   0.177
14304WAT     H145014   4.143   6.474   0.242
14304WAT     H245015   4.147   6.337   0.178
14305WAT      O45016   3.820   6.698   0.922
14305WAT     H145017   3.853   6.611   0.899
14305WAT     H245018   3.863   6.719   1.005
14306WAT      O45019   4.280   6.531   0.688
14306WAT     H145020   4.250   6.519   0.778
14306WAT     H245021   4.269   6.445   0.647
14307WAT      O45022   3.869   6.785   1.196
14307WAT     H145023   3.826   6.803   1.279
14307WAT     H245024   3.926   6.861   1.182
14308WAT      O45025   5.433   6.735   1.625
14308WAT     H145026   5.373   6.741   1.550
14308WAT     H245027   5.446   6.641   1.638
14309WAT      O45028   5.503   6.184   0.409
14309WAT     H145029   5.579   6.241   0.419
14309WAT     H245030   5.504   6.127   0.486
14310WAT      O45031   3.853   6.036   0.832
14310WAT     H145032   3.787   6.009   0.767
14310WAT     H245033   3.936   6.025   0.787
14311WAT      O45034   5.603   6.269   0.893
14311WAT     H145035   5.640   6.191   0.852
14311WAT     H245036   5.667   6.338   0.875
14312WAT      O45037   5.301   6.408   1.434
14312WAT     H145038   5.220   6.451   1.461
14312WAT     H245039   5.342   6.469   1.373
14313WAT      O45040   5.147   5.516   0.254
14313WAT     H145041   5.189   5.497   0.170
14313WAT     H245042   5.117   5.430   0.285
14314WAT      O45043   5.497   6.007   0.624
14314WAT     H145044   5.460   5.930   0.580
14314WAT     H245045   5.424   6.045   0.672
14315WAT      O45046   3.956   6.075   1.286
14315WAT     H145047   3.993   6.066   1.374
14315WAT     H245048   3.899   5.998   1.276
14316WAT      O45049   5.436   5.921   1.587
14316WAT     H145050   5.413   5.899   1.497
14316WAT     H245051   5.462   6.013   1.583
14317WAT      O45052   3.911   5.766   1.676
14317WAT     H145053   3.822   5.762   1.710
14317WAT     H245054   3.965   5.786   1.753
14318WAT      O45055   5.280   5.444   1.865
14318WAT     H145056   5.368   5.445   1.903
14318WAT     H245057   5.281   5.370   1.804
14319WAT      O45058   3.774   5.757   0.426
14319WAT     H145059   3.684   5.783   0.409
14319WAT     H245060   3.822   5.784   0.348
14320WAT      O45061   5.425   5.829   0.954
14320WAT     H145062   5.477   5.780   0.891
14320WAT     H245063   5.483   5.843   1.028
14321WAT      O45064   5.443   5.838   1.306
14321WAT     H145065   5.348   5.834   1.317
14321WAT     H245066   5.461   5.929   1.282
14322WAT      O45067   5.374   5.755   0.548
14322WAT     H145068   5.423   5.732   0.626
14322WAT     H245069   5.354   5.671   0.506
14323WAT      O45070   3.962   5.193   1.111
14323WAT     H145071   4.027   5.138   1.067
14323WAT     H245072   4.004   5.219   1.193
14324WAT      O45073   5.517   5.619   0.801
14324WAT     H145074   5.506   5.603   0.895
14324WAT     H245075   5.593   5.566   0.777
14325WAT      O45076   5.351   5.213   1.447
14325WAT     H145077   5.415   5.274   1.483
14325WAT     H245078   5.366   5.216   1.352
14326WAT      O45079   5.613   5.479   0.388
14326WAT     H145080   5.534   5.472   0.441
14326WAT     H245081   5.633   5.572   0.387
14327WAT      O45082   5.307   6.883   0.787
14327WAT     H145083   5.367   6.851   0.719
14327WAT     H245084   5.333   6.835   0.866
14328WAT      O45085   3.937   5.209   1.385
14328WAT     H145086   3.902   5.254   1.462
14328WAT     H245087   3.904   5.119   1.394
14329WAT      O45088   4.468   6.682   1.362
14329WAT     H145089   4.444   6.708   1.273
14329WAT     H245090   4.562   6.699   1.368
14330WAT      O45091   4.688   5.328   1.738
14330WAT     H145092   4.682   5.387   1.813
14330WAT     H245093   4.782   5.317   1.723
14331WAT      O45094   4.952   5.294   1.702
14331WAT     H145095   5.014   5.325   1.635
14331WAT     H245096   5.007   5.245   1.764
14332WAT      O45097   5.594   6.883   1.442
14332WAT     H145098   5.545   6.923   1.370
14332WAT     H245099   5.533   6.821   1.482
14333WAT      O45100   4.004   5.162   1.713
14333WAT     H145101   4.059   5.143   1.637
14333WAT     H245102   4.011   5.082   1.767
14334WAT      O45103   4.082   6.821   1.514
14334WAT     H145104   4.022   6.807   1.588
14334WAT     H245105   4.081   6.737   1.467
14335WAT      O45106   5.026   5.150   1.334
14335WAT     H145107   4.939   5.183   1.314
14335WAT     H245108   5.015   5.103   1.417
14336WAT      O45109   5.117   5.371   1.473
14336WAT     H145110   5.084   5.289   1.435
14336WAT     H245111   5.212   5.366   1.460
14337WAT      O45112   5.362   6.948   1.170
14337WAT     H145113   5.316   7.023   1.133
14337WAT     H245114   5.299   6.876   1.164
14338WAT      O45115   4.045   6.557   1.409
14338WAT     H145116   3.972   6.495   1.402
14338WAT     H245117   4.051   6.597   1.322
14339WAT      O45118   4.405   6.779   1.088
14339WAT     H145119   4.457   6.717   1.035
14339WAT     H245120   4.470   6.829   1.137
14340WAT      O45121   4.679   6.868   1.170
14340WAT     H145122   4.708   6.842   1.083
14340WAT     H245123   4.730   6.812   1.229
14341WAT      O45124   4.801   5.242   1.228
14341WAT     H145125   4.723   5.289   1.256
14341WAT     H245126   4.772   5.151   1.217
14342WAT      O45127   5.256   5.312   1.033
14342WAT     H145128   5.300   5.306   0.948
14342WAT     H245129   5.229   5.403   1.040
14343WAT      O45130   5.443   5.275   0.834
14343WAT     H145131   5.437   5.181   0.819
14343WAT     H245132   5.521   5.286   0.888
14344WAT      O45133   3.873   6.889   0.730
14344WAT     H145134   3.856   6.826   0.800
14344WAT     H245135   3.787   6.910   0.695
14345WAT      O45136   3.935   5.272   0.480
14345WAT     H145137   4.011   5.283   0.423
14345WAT     H245138   3.889   5.356   0.476
14346WAT      O45139   4.590   5.483   0.779
14346WAT     H145140   4.508   5.446   0.745
14346WAT     H245141   4.640   5.408   0.810
14347WAT      O45142   5.040   5.150   0.903
14347WAT     H145143   5.100   5.207   0.951
14347WAT     H245144   4.966   5.206   0.881
14348WAT      O45145   5.354   5.190   0.431
14348WAT     H145146   5.374   5.280   0.457
14348WAT     H245147   5.275   5.167   0.480
14349WAT      O45148   4.034   6.758   0.474
14349WAT     H145149   3.981   6.796   0.404
14349WAT     H245150   4.026   6.821   0.547
14350WAT      O45151   4.173   5.325   0.334
14350WAT     H145152   4.226   5.246   0.321
14350WAT     H245153   4.236   5.393   0.358
14351WAT      O45154   4.392   5.298   0.640
14351WAT     H145155   4.329   5.228   0.656
14351WAT     H245156   4.338   5.375   0.618
14352WAT      O45157   4.686   6.960   1.907
14352WAT     H145158   4.779   6.936   1.911
14352WAT     H245159   4.684   7.043   1.859
14353WAT      O45160   5.509   6.914   0.607
14353WAT     H145161   5.527   6.845   0.542
14353WAT     H245162   5.440   6.967   0.567
14354WAT      O45163   4.405   5.226   1.883
14354WAT     H145164   4.376   5.277   1.807
14354WAT     H245165   4.443   5.147   1.847
14355WAT      O45166   4.294   6.953   0.362
14355WAT     H145167   4.367   6.925   0.307
14355WAT     H245168   4.320   6.929   0.451
14356WAT      O45169   4.210   6.565   0.362
14356WAT     H145170   4.147   6.612   0.417
14356WAT     H245171   4.221   6.480   0.406
14357WAT      O45172   5.065   5.168   1.941
14357WAT     H145173   5.053   5.200   2.031
14357WAT     H245174   5.146   5.208   1.911
14358WAT      O45175   5.343   6.883   1.889
14358WAT     H145176   5.422   6.833   1.869
14358WAT     H245177   5.372   6.950   1.950
14359WAT      O45178   4.955   4.092   6.487
14359WAT     H145179   4.947   4.001   6.460
14359WAT     H245180   4.914   4.142   6.417
14360WAT      O45181   4.769   4.270   6.675
14360WAT     H145182   4.691   4.222   6.704
14360WAT     H245183   4.834   4.202   6.658
14361WAT      O45184   4.170   4.301   6.763
14361WAT     H145185   4.087   4.276   6.803
14361WAT     H245186   4.231   4.308   6.837
14362WAT      O45187   5.171   4.711   6.553
14362WAT     H145188   5.124   4.634   6.586
14362WAT     H245189   5.252   4.713   6.604
14363WAT      O45190   4.168   4.705   6.783
14363WAT     H145191   4.198   4.616   6.765
14363WAT     H245192   4.243   4.760   6.760
14364WAT      O45193   4.011   3.797   6.141
14364WAT     H145194   3.922   3.832   6.131
14364WAT     H245195   4.040   3.777   6.052
14365WAT      O45196   3.807   4.057   6.730
14365WAT     H145197   3.865   3.981   6.730
14365WAT     H245198   3.807   4.087   6.639
14366WAT      O45199   4.793   4.939   6.515
14366WAT     H145200   4.731   4.985   6.458
14366WAT     H245201   4.879   4.955   6.475
14367WAT      O45202   4.713   4.538   6.676
14367WAT     H145203   4.706   4.444   6.660
14367WAT     H245204   4.789   4.547   6.733
14368WAT      O45205   3.932   3.598   6.909
14368WAT     H145206   3.914   3.508   6.937
14368WAT     H245207   3.892   3.653   6.976
14369WAT      O45208   4.816   3.818   6.699
14369WAT     H145209   4.853   3.731   6.687
14369WAT     H245210   4.806   3.852   6.610
14370WAT      O45211   4.229   3.656   6.245
14370WAT     H145212   4.239   3.746   6.276
14370WAT     H245213   4.138   3.651   6.216
14371WAT      O45214   5.194   3.568   6.392
14371WAT     H145215   5.276   3.519   6.396
14371WAT     H245216   5.197   3.627   6.467
14372WAT      O45217   3.994   3.848   6.769
14372WAT     H145218   4.062   3.874   6.831
14372WAT     H245219   3.962   3.764   6.803
14373WAT      O45220   4.413   3.953   6.678
14373WAT     H145221   4.464   4.002   6.742
14373WAT     H245222   4.466   3.875   6.661
14374WAT      O45223   5.623   3.770   7.048
14374WAT     H145224   5.552   3.808   6.997
14374WAT     H245225   5.650   3.839   7.109
14375WAT      O45226   4.241   3.417   7.105
14375WAT     H145227   4.241   3.468   7.024
14375WAT     H245228   4.158   3.369   7.102
14376WAT      O45229   4.880   4.428   6.255
14376WAT     H145230   4.818   4.474   6.198
14376WAT     H245231   4.931   4.497   6.296
14377WAT      O45232   4.366   4.380   6.922
14377WAT     H145233   4.333   4.443   6.987
14377WAT     H245234   4.384   4.433   6.845
14378WAT      O45235   5.218   3.762   6.669
14378WAT     H145236   5.147   3.791   6.727
14378WAT     H245237   5.254   3.843   6.633
14379WAT      O45238   4.209   3.588   6.905
14379WAT     H145239   4.243   3.672   6.876
14379WAT     H245240   4.115   3.602   6.917
14380WAT      O45241   4.287   4.577   7.104
14380WAT     H145242   4.349   4.645   7.076
14380WAT     H245243   4.201   4.618   7.095
14381WAT      O45244   3.817   4.496   5.992
14381WAT     H145245   3.779   4.545   5.919
14381WAT     H245246   3.842   4.564   6.055
14382WAT      O45247   5.379   4.724   6.896
14382WAT     H145248   5.311   4.791   6.895
14382WAT     H245249   5.433   4.743   6.819
14383WAT      O45250   5.524   3.706   6.708
14383WAT     H145251   5.430   3.710   6.721
14383WAT     H245252   5.557   3.788   6.747
14384WAT      O45253   4.578   3.336   6.538
14384WAT     H145254   4.608   3.281   6.466
14384WAT     H245255   4.485   3.350   6.520
14385WAT      O45256   5.133   4.908   6.767
14385WAT     H145257   5.134   4.868   6.680
14385WAT     H245258   5.078   4.986   6.757
14386WAT      O45259   5.262   4.580   6.276
14386WAT     H145260   5.251   4.486   6.288
14386WAT     H245261   5.262   4.616   6.365
14387WAT      O45262   5.073   4.398   6.900
14387WAT     H145263   5.114   4.377   6.816
14387WAT     H245264   5.145   4.424   6.957
14388WAT      O45265   4.816   4.143   6.212
14388WAT     H145266   4.724   4.136   6.234
14388WAT     H245267   4.832   4.237   6.200
14389WAT      O45268   4.815   3.770   5.911
14389WAT     H145269   4.721   3.786   5.920
14389WAT     H245270   4.847   3.842   5.857
14390WAT      O45271   5.467   4.238   6.909
14390WAT     H145272   5.384   4.245   6.861
14390WAT     H245273   5.527   4.297   6.862
14391WAT      O45274   5.219   4.299   6.262
14391WAT     H145275   5.158   4.265   6.197
14391WAT     H245276   5.218   4.235   6.333
14392WAT      O45277   5.164   3.917   7.004
14392WAT     H145278   5.122   4.000   7.029
14392WAT     H245279   5.090   3.858   6.984
14393WAT      O45280   4.377   4.196   6.490
14393WAT     H145281   4.337   4.124   6.440
14393WAT     H245282   4.386   4.161   6.579
14394WAT      O45283   4.424   4.564   6.706
14394WAT     H145284   4.394   4.504   6.638
14394WAT     H245285   4.519   4.568   6.695
14395WAT      O45286   4.248   3.873   6.868
14395WAT     H145287   4.303   3.884   6.790
14395WAT     H245288   4.300   3.910   6.939
14396WAT      O45289   5.233   4.922   7.072
14396WAT     H145290   5.185   5.002   7.053
14396WAT     H245291   5.164   4.856   7.088
14397WAT      O45292   4.333   4.538   7.371
14397WAT     H145293   4.243   4.560   7.396
14397WAT     H245294   4.336   4.550   7.276
14398WAT      O45295   5.037   4.223   5.963
14398WAT     H145296   5.081   4.139   5.948
14398WAT     H245297   5.108   4.286   5.971
14399WAT      O45298   4.216   4.225   7.229
14399WAT     H145299   4.202   4.312   7.266
14399WAT     H245300   4.128   4.191   7.214
14400WAT      O45301   4.848   4.717   6.359
14400WAT     H145302   4.892   4.791   6.318
14400WAT     H245303   4.842   4.741   6.452
14401WAT      O45304   4.395   4.819   7.450
14401WAT     H145305   4.393   4.860   7.363
14401WAT     H245306   4.379   4.727   7.433
14402WAT      O45307   5.395   3.348   5.794
14402WAT     H145308   5.364   3.358   5.884
14402WAT     H245309   5.471   3.406   5.789
14403WAT      O45310   4.047   4.085   6.240
14403WAT     H145311   4.035   4.158   6.179
14403WAT     H245312   4.016   4.008   6.192
14404WAT      O45313   3.811   4.402   6.820
14404WAT     H145314   3.819   4.416   6.726
14404WAT     H245315   3.872   4.331   6.840
14405WAT      O45316   3.935   4.572   6.462
14405WAT     H145317   3.895   4.586   6.376
14405WAT     H245318   4.024   4.544   6.441
14406WAT      O45319   5.531   4.617   7.295
14406WAT     H145320   5.544   4.593   7.203
14406WAT     H245321   5.535   4.534   7.342
14407WAT      O45322   4.917   4.987   7.152
14407WAT     H145323   4.969   4.978   7.232
14407WAT     H245324   4.833   5.022   7.181
14408WAT      O45325   5.115   5.016   6.095
14408WAT     H145326   5.099   4.987   6.185
14408WAT     H245327   5.098   4.938   6.041
14409WAT      O45328   4.363   4.994   6.273
14409WAT     H145329   4.345   4.902   6.251
14409WAT     H245330   4.277   5.029   6.297
14410WAT      O45331   5.085   4.767   5.951
14410WAT     H145332   5.016   4.766   5.885
14410WAT     H245333   5.159   4.724   5.908
14411WAT      O45334   5.041   4.929   6.358
14411WAT     H145335   5.087   4.851   6.390
14411WAT     H245336   5.075   5.000   6.413
14412WAT      O45337   5.516   3.822   7.392
14412WAT     H145338   5.455   3.873   7.339
14412WAT     H245339   5.484   3.732   7.386
14413WAT      O45340   3.816   4.506   7.074
14413WAT     H145341   3.833   4.459   6.993
14413WAT     H245342   3.863   4.456   7.141
14414WAT      O45343   4.294   3.419   6.578
14414WAT     H145344   4.249   3.497   6.545
14414WAT     H245345   4.350   3.452   6.649
14415WAT      O45346   4.722   3.706   7.138
14415WAT     H145347   4.676   3.727   7.220
14415WAT     H245348   4.682   3.625   7.108
14416WAT      O45349   5.222   3.828   7.251
14416WAT     H145350   5.137   3.798   7.283
14416WAT     H245351   5.206   3.853   7.160
14417WAT      O45352   4.932   3.978   7.461
14417WAT     H145353   4.964   3.895   7.427
14417WAT     H245354   5.011   4.030   7.476
14418WAT      O45355   4.605   3.381   6.066
14418WAT     H145356   4.543   3.381   6.139
14418WAT     H245357   4.597   3.295   6.026
14419WAT      O45358   4.497   3.474   6.764
14419WAT     H145359   4.527   3.564   6.756
14419WAT     H245360   4.552   3.425   6.702
14420WAT      O45361   4.273   3.932   6.351
14420WAT     H145362   4.250   3.910   6.441
14420WAT     H245363   4.195   3.975   6.316
14421WAT      O45364   4.996   3.932   6.211
14421WAT     H145365   4.936   4.005   6.192
14421WAT     H245366   5.051   3.926   6.132
14422WAT      O45367   4.517   4.022   7.417
14422WAT     H145368   4.507   3.928   7.402
14422WAT     H245369   4.601   4.044   7.378
14423WAT      O45370   4.856   3.796   6.414
14423WAT     H145371   4.896   3.828   6.332
14423WAT     H245372   4.893   3.708   6.425
14424WAT      O45373   4.030   3.663   7.233
14424WAT     H145374   3.991   3.747   7.253
14424WAT     H245375   3.961   3.599   7.252
14425WAT      O45376   3.760   3.455   6.636
14425WAT     H145377   3.731   3.512   6.707
14425WAT     H245378   3.835   3.407   6.672
14426WAT      O45379   3.779   3.849   5.757
14426WAT     H145380   3.771   3.943   5.771
14426WAT     H245381   3.744   3.835   5.669
14427WAT      O45382   4.915   4.055   6.823
14427WAT     H145383   4.842   4.106   6.858
14427WAT     H245384   4.875   3.973   6.793
14428WAT      O45385   4.559   3.723   6.664
14428WAT     H145386   4.559   3.678   6.579
14428WAT     H245387   4.648   3.755   6.675
14429WAT      O45388   4.144   3.711   6.560
14429WAT     H145389   4.110   3.759   6.635
14429WAT     H245390   4.068   3.665   6.524
14430WAT      O45391   4.565   3.823   5.963
14430WAT     H145392   4.577   3.819   6.058
14430WAT     H245393   4.526   3.909   5.947
14431WAT      O45394   4.961   3.600   6.764
14431WAT     H145395   4.963   3.645   6.849
14431WAT     H245396   4.936   3.510   6.786
14432WAT      O45397   4.466   4.054   5.903
14432WAT     H145398   4.409   4.009   5.840
14432WAT     H245399   4.537   4.090   5.849
14433WAT      O45400   5.304   3.342   7.348
14433WAT     H145401   5.336   3.269   7.401
14433WAT     H245402   5.308   3.310   7.258
14434WAT      O45403   3.974   4.444   7.290
14434WAT     H145404   3.935   4.380   7.350
14434WAT     H245405   4.005   4.514   7.347
14435WAT      O45406   4.589   4.129   6.838
14435WAT     H145407   4.626   4.081   6.913
14435WAT     H245408   4.570   4.216   6.873
14436WAT      O45409   3.875   3.603   6.451
14436WAT     H145410   3.847   3.567   6.535
14436WAT     H245411   3.869   3.530   6.390
14437WAT      O45412   4.368   4.033   7.070
14437WAT     H145413   4.337   4.121   7.093
14437WAT     H245414   4.463   4.039   7.074
14438WAT      O45415   4.221   4.453   6.130
14438WAT     H145416   4.143   4.399   6.114
14438WAT     H245417   4.294   4.401   6.096
14439WAT      O45418   5.297   4.353   6.709
14439WAT     H145419   5.369   4.402   6.670
14439WAT     H245420   5.276   4.285   6.645
14440WAT      O45421   4.843   3.492   6.124
14440WAT     H145422   4.761   3.442   6.116
14440WAT     H245423   4.823   3.576   6.082
14441WAT      O45424   4.835   4.360   7.298
14441WAT     H145425   4.828   4.268   7.272
14441WAT     H245426   4.772   4.370   7.369
14442WAT      O45427   5.114   3.930   5.953
14442WAT     H145428   5.203   3.961   5.936
14442WAT     H245429   5.111   3.842   5.914
14443WAT      O45430   4.225   4.420   6.494
14443WAT     H145431   4.277   4.340   6.488
14443WAT     H245432   4.180   4.414   6.578
14444WAT      O45433   4.714   4.547   6.021
14444WAT     H145434   4.748   4.621   5.971
14444WAT     H245435   4.631   4.578   6.057
14445WAT      O45436   3.973   4.117   7.185
14445WAT     H145437   3.938   4.183   7.244
14445WAT     H245438   3.944   4.034   7.222
14446WAT      O45439   4.294   4.163   7.473
14446WAT     H145440   4.264   4.177   7.384
14446WAT     H245441   4.371   4.107   7.464
14447WAT      O45442   4.828   4.642   7.273
14447WAT     H145443   4.829   4.549   7.251
14447WAT     H245444   4.757   4.651   7.337
14448WAT      O45445   5.341   4.061   5.900
14448WAT     H145446   5.333   4.104   5.815
14448WAT     H245447   5.413   4.107   5.943
14449WAT      O45448   5.449   4.306   7.208
14449WAT     H145449   5.376   4.366   7.188
14449WAT     H245450   5.502   4.306   7.128
14450WAT      O45451   5.444   4.746   6.173
14450WAT     H145452   5.380   4.681   6.200
14450WAT     H245453   5.405   4.787   6.095
14451WAT      O45454   5.002   4.479   6.557
14451WAT     H145455   5.037   4.419   6.491
14451WAT     H245456   4.914   4.446   6.575
14452WAT      O45457   4.611   4.555   6.298
14452WAT     H145458   4.679   4.610   6.336
14452WAT     H245459   4.532   4.609   6.302
14453WAT      O45460   3.825   4.117   5.847
14453WAT     H145461   3.911   4.145   5.876
14453WAT     H245462   3.775   4.198   5.836
14454WAT      O45463   4.541   4.255   6.259
14454WAT     H145464   4.587   4.336   6.282
14454WAT     H245465   4.506   4.224   6.343
14455WAT      O45466   4.771   4.806   6.982
14455WAT     H145467   4.836   4.827   7.050
14455WAT     H245468   4.808   4.730   6.937
14456WAT      O45469   4.131   3.290   6.307
14456WAT     H145470   4.118   3.289   6.402
14456WAT     H245471   4.049   3.324   6.272
14457WAT      O45472   4.899   4.607   6.854
14457WAT     H145473   4.963   4.537   6.865
14457WAT     H245474   4.951   4.685   6.836
14458WAT      O45475   5.283   4.635   5.827
14458WAT     H145476   5.260   4.564   5.886
14458WAT     H245477   5.244   4.610   5.743
14459WAT      O45478   5.076   4.687   7.174
14459WAT     H145479   5.109   4.745   7.242
14459WAT     H245480   4.984   4.674   7.197
14460WAT      O45481   3.861   5.038   5.904
14460WAT     H145482   3.897   5.098   5.839
14460WAT     H245483   3.847   5.092   5.981
14461WAT      O45484   3.831   3.466   7.253
14461WAT     H145485   3.760   3.486   7.313
14461WAT     H245486   3.873   3.388   7.290
14462WAT      O45487   5.241   4.427   5.993
14462WAT     H145488   5.212   4.473   6.071
14462WAT     H245489   5.321   4.381   6.019
14463WAT      O45490   3.860   4.864   7.351
14463WAT     H145491   3.871   4.770   7.337
14463WAT     H245492   3.794   4.891   7.287
14464WAT      O45493   4.463   4.776   5.986
14464WAT     H145494   4.462   4.849   5.924
14464WAT     H245495   4.371   4.752   5.995
14465WAT      O45496   4.023   4.298   6.060
14465WAT     H145497   3.962   4.372   6.061
14465WAT     H245498   4.071   4.307   5.978
14466WAT      O45499   4.980   3.715   7.028
14466WAT     H145500   5.017   3.633   7.061
14466WAT     H245501   4.894   3.721   7.069
14467WAT      O45502   5.317   3.610   6.109
14467WAT     H145503   5.254   3.621   6.037
14467WAT     H245504   5.267   3.632   6.188
14468WAT      O45505   4.762   4.782   5.852
14468WAT     H145506   4.772   4.762   5.759
14468WAT     H245507   4.672   4.757   5.872
14469WAT      O45508   4.514   3.838   6.250
14469WAT     H145509   4.443   3.885   6.294
14469WAT     H245510   4.542   3.773   6.314
14470WAT      O45511   4.676   3.980   7.050
14470WAT     H145512   4.726   4.028   7.117
14470WAT     H245513   4.691   3.888   7.071
14471WAT      O45514   4.917   3.511   6.394
14471WAT     H145515   4.905   3.513   6.299
14471WAT     H245516   5.012   3.516   6.406
14472WAT      O45517   4.626   5.034   6.321
14472WAT     H145518   4.651   5.031   6.229
14472WAT     H245519   4.531   5.022   6.321
14473WAT      O45520   4.334   3.669   5.988
14473WAT     H145521   4.419   3.713   5.981
14473WAT     H245522   4.297   3.700   6.070
14474WAT      O45523   5.397   3.602   7.134
14474WAT     H145524   5.347   3.676   7.168
14474WAT     H245525   5.479   3.641   7.103
14475WAT      O45526   5.226   4.126   6.479
14475WAT     H145527   5.132   4.128   6.496
14475WAT     H245528   5.258   4.048   6.524
14476WAT      O45529   4.224   4.294   5.835
14476WAT     H145530   4.301   4.283   5.891
14476WAT     H245531   4.232   4.225   5.770
14477WAT      O45532   4.094   4.038   5.903
14477WAT     H145533   4.102   3.943   5.915
14477WAT     H245534   4.183   4.071   5.914
14478WAT      O45535   5.427   4.843   6.647
14478WAT     H145536   5.439   4.926   6.694
14478WAT     H245537   5.513   4.822   6.612
14479WAT      O45538   4.174   5.053   6.614
14479WAT     H145539   4.247   4.998   6.641
14479WAT     H245540   4.212   5.139   6.600
14480WAT      O45541   3.862   4.659   6.201
14480WAT     H145542   3.770   4.684   6.200
14480WAT     H245543   3.909   4.742   6.189
14481WAT      O45544   4.485   4.970   5.796
14481WAT     H145545   4.564   4.999   5.751
14481WAT     H245546   4.433   4.927   5.728
14482WAT      O45547   5.101   4.955   7.388
14482WAT     H145548   5.196   4.946   7.383
14482WAT     H245549   5.086   5.021   7.456
14483WAT      O45550   5.390   4.893   5.938
14483WAT     H145551   5.361   4.851   5.857
14483WAT     H245552   5.370   4.986   5.926
14484WAT      O45553   3.846   4.220   7.427
14484WAT     H145554   3.897   4.162   7.484
14484WAT     H245555   3.772   4.248   7.481
14485WAT      O45556   4.536   4.492   5.782
14485WAT     H145557   4.526   4.431   5.855
14485WAT     H245558   4.520   4.440   5.704
14486WAT      O45559   4.552   4.361   7.380
14486WAT     H145560   4.475   4.417   7.372
14486WAT     H245561   4.570   4.331   7.291
14487WAT      O45562   4.861   4.398   5.843
14487WAT     H145563   4.806   4.443   5.907
14487WAT     H245564   4.923   4.348   5.895
14488WAT      O45565   5.266   4.534   7.436
14488WAT     H145566   5.340   4.567   7.386
14488WAT     H245567   5.190   4.551   7.381
14489WAT      O45568   4.427   4.294   6.032
14489WAT     H145569   4.469   4.278   6.117
14489WAT     H245570   4.440   4.213   5.983
14490WAT      O45571   4.244   3.892   7.313
14490WAT     H145572   4.190   3.843   7.250
14490WAT     H245573   4.310   3.935   7.260
14491WAT      O45574   4.679   4.196   5.757
14491WAT     H145575   4.731   4.125   5.721
14491WAT     H245576   4.743   4.260   5.787
14492WAT      O45577   5.133   4.339   7.290
14492WAT     H145578   5.175   4.354   7.375
14492WAT     H245579   5.040   4.351   7.306
14493WAT      O45580   5.181   4.073   7.490
14493WAT     H145581   5.239   3.997   7.481
14493WAT     H245582   5.198   4.126   7.412
14494WAT      O45583   4.292   3.589   7.321
14494WAT     H145584   4.283   3.527   7.249
14494WAT     H245585   4.234   3.661   7.298
14495WAT      O45586   4.569   3.444   7.024
14495WAT     H145587   4.524   3.447   6.940
14495WAT     H245588   4.506   3.405   7.084
14496WAT      O45589   4.609   4.334   7.087
14496WAT     H145590   4.651   4.418   7.069
14496WAT     H245591   4.518   4.348   7.064
14497WAT      O45592   4.843   4.107   7.225
14497WAT     H145593   4.855   4.048   7.299
14497WAT     H245594   4.929   4.111   7.183
14498WAT      O45595   5.077   4.163   7.083
14498WAT     H145596   5.024   4.215   7.022
14498WAT     H245597   5.111   4.226   7.146
14499WAT      O45598   4.317   3.901   5.727
14499WAT     H145599   4.297   3.815   5.763
14499WAT     H245600   4.300   3.893   5.633
14500WAT      O45601   4.395   4.965   7.198
14500WAT     H145602   4.341   5.037   7.166
14500WAT     H245603   4.420   4.917   7.119
14501WAT      O45604   4.520   3.761   7.351
14501WAT     H145605   4.579   3.731   7.419
14501WAT     H245606   4.438   3.714   7.366
14502WAT      O45607   5.002   3.723   7.374
14502WAT     H145608   4.933   3.657   7.368
14502WAT     H245609   5.074   3.678   7.419
14503WAT      O45610   5.065   3.383   5.980
14503WAT     H145611   5.093   3.298   6.016
14503WAT     H245612   4.987   3.406   6.031
14504WAT      O45613   4.197   3.611   5.726
14504WAT     H145614   4.227   3.612   5.635
14504WAT     H245615   4.271   3.576   5.776
14505WAT      O45616   4.680   5.088   7.224
14505WAT     H145617   4.673   5.178   7.255
14505WAT     H245618   4.590   5.056   7.221
14506WAT      O45619   4.519   3.506   5.824
14506WAT     H145620   4.484   3.438   5.766
14506WAT     H245621   4.539   3.460   5.906
14507WAT      O45622   4.735   5.005   5.986
14507WAT     H145623   4.825   5.038   5.988
14507WAT     H245624   4.738   4.932   5.924
14508WAT      O45625   4.099   4.542   5.809
14508WAT     H145626   4.143   4.596   5.875
14508WAT     H245627   4.147   4.459   5.810
14509WAT      O45628   3.820   4.821   6.554
14509WAT     H145629   3.853   4.734   6.531
14509WAT     H245630   3.863   4.841   6.637
14510WAT      O45631   4.280   4.654   6.320
14510WAT     H145632   4.250   4.642   6.410
14510WAT     H245633   4.269   4.568   6.280
14511WAT      O45634   3.869   4.907   6.828
14511WAT     H145635   3.826   4.925   6.911
14511WAT     H245636   3.926   4.983   6.814
14512WAT      O45637   5.433   4.858   7.257
14512WAT     H145638   5.373   4.864   7.183
14512WAT     H245639   5.446   4.764   7.270
14513WAT      O45640   5.557   4.632   5.791
14513WAT     H145641   5.474   4.639   5.838
14513WAT     H245642   5.575   4.721   5.760
14514WAT      O45643   5.503   4.306   6.041
14514WAT     H145644   5.579   4.363   6.052
14514WAT     H245645   5.504   4.250   6.118
14515WAT      O45646   3.853   4.159   6.464
14515WAT     H145647   3.787   4.132   6.400
14515WAT     H245648   3.936   4.148   6.419
14516WAT      O45649   5.603   4.392   6.525
14516WAT     H145650   5.640   4.313   6.485
14516WAT     H245651   5.667   4.461   6.508
14517WAT      O45652   5.301   4.530   7.067
14517WAT     H145653   5.220   4.573   7.093
14517WAT     H245654   5.342   4.591   7.005
14518WAT      O45655   5.508   4.336   5.757
14518WAT     H145656   5.535   4.426   5.744
14518WAT     H245657   5.489   4.329   5.850
14519WAT      O45658   5.147   3.638   5.886
14519WAT     H145659   5.189   3.619   5.802
14519WAT     H245660   5.117   3.553   5.917
14520WAT      O45661   5.497   4.129   6.256
14520WAT     H145662   5.460   4.053   6.213
14520WAT     H245663   5.424   4.168   6.305
14521WAT      O45664   3.956   4.197   6.918
14521WAT     H145665   3.993   4.188   7.006
14521WAT     H245666   3.899   4.121   6.908
14522WAT      O45667   5.436   4.044   7.219
14522WAT     H145668   5.413   4.021   7.129
14522WAT     H245669   5.462   4.136   7.215
14523WAT      O45670   3.911   3.888   7.309
14523WAT     H145671   3.822   3.885   7.343
14523WAT     H245672   3.965   3.908   7.385
14524WAT      O45673   3.774   3.880   6.058
14524WAT     H145674   3.684   3.906   6.041
14524WAT     H245675   3.822   3.907   5.980
14525WAT      O45676   5.425   3.952   6.586
14525WAT     H145677   5.477   3.903   6.523
14525WAT     H245678   5.483   3.965   6.661
14526WAT      O45679   5.443   3.960   6.938
14526WAT     H145680   5.348   3.957   6.950
14526WAT     H245681   5.461   4.051   6.915
14527WAT      O45682   4.028   3.785   5.849
14527WAT     H145683   4.099   3.743   5.801
14527WAT     H245684   3.957   3.792   5.786
14528WAT      O45685   3.993   3.391   5.753
14528WAT     H145686   4.065   3.445   5.785
14528WAT     H245687   4.020   3.363   5.666
14529WAT      O45688   5.374   3.878   6.180
14529WAT     H145689   5.423   3.854   6.258
14529WAT     H245690   5.354   3.794   6.138
14530WAT      O45691   3.962   3.316   6.743
14530WAT     H145692   4.027   3.261   6.699
14530WAT     H245693   4.004   3.341   6.826
14531WAT      O45694   5.517   3.741   6.433
14531WAT     H145695   5.506   3.726   6.527
14531WAT     H245696   5.593   3.688   6.409
14532WAT      O45697   5.351   3.335   7.079
14532WAT     H145698   5.415   3.397   7.116
14532WAT     H245699   5.366   3.339   6.985
14533WAT      O45700   5.606   3.524   5.757
14533WAT     H145701   5.698   3.511   5.737
14533WAT     H245702   5.603   3.532   5.853
14534WAT      O45703   5.613   3.601   6.020
14534WAT     H145704   5.534   3.595   6.073
14534WAT     H245705   5.633   3.695   6.019
14535WAT      O45706   5.307   5.005   6.419
14535WAT     H145707   5.367   4.973   6.352
14535WAT     H245708   5.333   4.958   6.499
14536WAT      O45709   3.937   3.331   7.018
14536WAT     H145710   3.902   3.377   7.094
14536WAT     H245711   3.904   3.242   7.026
14537WAT      O45712   4.468   4.804   6.994
14537WAT     H145713   4.444   4.831   6.906
14537WAT     H245714   4.562   4.821   7.000
14538WAT      O45715   4.688   3.450   7.370
14538WAT     H145716   4.682   3.510   7.445
14538WAT     H245717   4.782   3.440   7.355
14539WAT      O45718   4.952   3.416   7.334
14539WAT     H145719   5.014   3.448   7.268
14539WAT     H245720   5.007   3.368   7.396
14540WAT      O45721   5.594   5.006   7.074
14540WAT     H145722   5.545   5.046   7.003
14540WAT     H245723   5.533   4.944   7.114
14541WAT      O45724   4.004   3.284   7.345
14541WAT     H145725   4.059   3.266   7.269
14541WAT     H245726   4.011   3.205   7.399
14542WAT      O45727   4.082   4.943   7.146
14542WAT     H145728   4.022   4.930   7.220
14542WAT     H245729   4.081   4.860   7.100
14543WAT      O45730   5.026   3.272   6.967
14543WAT     H145731   4.939   3.306   6.946
14543WAT     H245732   5.015   3.225   7.049
14544WAT      O45733   5.117   3.493   7.105
14544WAT     H145734   5.084   3.412   7.067
14544WAT     H245735   5.212   3.489   7.093
14545WAT      O45736   5.362   5.070   6.802
14545WAT     H145737   5.316   5.145   6.765
14545WAT     H245738   5.299   4.998   6.796
14546WAT      O45739   4.045   4.680   7.041
14546WAT     H145740   3.972   4.618   7.035
14546WAT     H245741   4.051   4.719   6.954
14547WAT      O45742   4.405   4.901   6.720
14547WAT     H145743   4.457   4.840   6.667
14547WAT     H245744   4.470   4.951   6.769
14548WAT      O45745   4.679   4.990   6.803
14548WAT     H145746   4.708   4.965   6.715
14548WAT     H245747   4.730   4.935   6.862
14549WAT      O45748   4.801   3.364   6.860
14549WAT     H145749   4.723   3.412   6.888
14549WAT     H245750   4.772   3.274   6.850
14550WAT      O45751   5.256   3.434   6.665
14550WAT     H145752   5.300   3.429   6.580
14550WAT     H245753   5.229   3.526   6.672
14551WAT      O45754   5.443   3.398   6.466
14551WAT     H145755   5.437   3.303   6.451
14551WAT     H245756   5.521   3.408   6.521
14552WAT      O45757   3.873   5.011   6.362
14552WAT     H145758   3.856   4.948   6.432
14552WAT     H245759   3.787   5.032   6.327
14553WAT      O45760   3.935   3.395   6.113
14553WAT     H145761   4.011   3.406   6.055
14553WAT     H245762   3.889   3.478   6.108
14554WAT      O45763   4.590   3.606   6.412
14554WAT     H145764   4.508   3.569   6.378
14554WAT     H245765   4.640   3.530   6.442
14555WAT      O45766   5.040   3.272   6.535
14555WAT     H145767   5.100   3.330   6.583
14555WAT     H245768   4.966   3.329   6.513
14556WAT      O45769   5.354   3.313   6.063
14556WAT     H145770   5.374   3.403   6.090
14556WAT     H245771   5.275   3.290   6.112
14557WAT      O45772   4.034   4.881   6.107
14557WAT     H145773   3.981   4.919   6.036
14557WAT     H245774   4.026   4.943   6.179
14558WAT      O45775   4.173   3.447   5.967
14558WAT     H145776   4.226   3.369   5.954
14558WAT     H245777   4.236   3.515   5.990
14559WAT      O45778   4.392   3.421   6.272
14559WAT     H145779   4.329   3.351   6.289
14559WAT     H245780   4.338   3.497   6.250
14560WAT      O45781   5.509   5.037   6.239
14560WAT     H145782   5.527   4.968   6.175
14560WAT     H245783   5.440   5.089   6.200
14561WAT      O45784   4.294   5.076   5.994
14561WAT     H145785   4.367   5.047   5.940
14561WAT     H245786   4.320   5.052   6.083
14562WAT      O45787   4.210   4.687   5.995
14562WAT     H145788   4.147   4.734   6.050
14562WAT     H245789   4.221   4.603   6.038
14563WAT      O45790   3.932   3.598   5.031
14563WAT     H145791   3.914   3.508   5.059
14563WAT     H245792   3.892   3.653   5.099
14564WAT      O45793   4.816   3.818   4.821
14564WAT     H145794   4.853   3.731   4.810
14564WAT     H245795   4.806   3.852   4.732
14565WAT      O45796   4.229   3.656   4.367
14565WAT     H145797   4.239   3.746   4.398
14565WAT     H245798   4.138   3.651   4.338
14566WAT      O45799   5.194   3.568   4.515
14566WAT     H145800   5.276   3.519   4.519
14566WAT     H245801   5.197   3.627   4.590
14567WAT      O45802   3.994   3.848   4.892
14567WAT     H145803   4.062   3.874   4.954
14567WAT     H245804   3.962   3.764   4.925
14568WAT      O45805   4.413   3.953   4.801
14568WAT     H145806   4.464   4.002   4.865
14568WAT     H245807   4.466   3.875   4.783
14569WAT      O45808   5.623   3.770   5.171
14569WAT     H145809   5.552   3.808   5.119
14569WAT     H245810   5.650   3.839   5.231
14570WAT      O45811   4.241   3.417   5.227
14570WAT     H145812   4.241   3.468   5.147
14570WAT     H245813   4.158   3.369   5.225
14571WAT      O45814   4.366   4.380   5.045
14571WAT     H145815   4.333   4.443   5.109
14571WAT     H245816   4.384   4.433   4.967
14572WAT      O45817   5.218   3.762   4.792
14572WAT     H145818   5.147   3.791   4.850
14572WAT     H245819   5.254   3.843   4.756
14573WAT      O45820   4.209   3.588   5.028
14573WAT     H145821   4.243   3.672   4.999
14573WAT     H245822   4.115   3.602   5.040
14574WAT      O45823   4.287   4.577   5.227
14574WAT     H145824   4.349   4.645   5.198
14574WAT     H245825   4.201   4.618   5.217
14575WAT      O45826   5.524   3.706   4.831
14575WAT     H145827   5.430   3.710   4.844
14575WAT     H245828   5.557   3.788   4.869
14576WAT      O45829   4.578   3.336   4.660
14576WAT     H145830   4.608   3.281   4.589
14576WAT     H245831   4.485   3.350   4.642
14577WAT      O45832   5.467   4.238   5.032
14577WAT     H145833   5.384   4.245   4.984
14577WAT     H245834   5.527   4.297   4.985
14578WAT      O45835   5.164   3.917   5.126
14578WAT     H145836   5.122   4.000   5.151
14578WAT     H245837   5.090   3.858   5.107
14579WAT      O45838   4.248   3.873   4.990
14579WAT     H145839   4.303   3.884   4.913
14579WAT     H245840   4.300   3.910   5.062
14580WAT      O45841   5.233   4.922   5.195
14580WAT     H145842   5.185   5.002   5.176
14580WAT     H245843   5.164   4.856   5.210
14581WAT      O45844   4.333   4.538   5.494
14581WAT     H145845   4.243   4.560   5.518
14581WAT     H245846   4.336   4.550   5.399
14582WAT      O45847   4.216   4.225   5.351
14582WAT     H145848   4.202   4.312   5.388
14582WAT     H245849   4.128   4.191   5.337
14583WAT      O45850   4.395   4.819   5.572
14583WAT     H145851   4.393   4.860   5.485
14583WAT     H245852   4.379   4.727   5.556
14584WAT      O45853   5.395   3.348   3.917
14584WAT     H145854   5.364   3.358   4.007
14584WAT     H245855   5.471   3.406   3.912
14585WAT      O45856   5.591   4.898   5.702
14585WAT     H145857   5.638   4.946   5.770
14585WAT     H245858   5.653   4.891   5.629
14586WAT      O45859   5.531   4.617   5.418
14586WAT     H145860   5.544   4.593   5.326
14586WAT     H245861   5.535   4.534   5.465
14587WAT      O45862   4.917   4.987   5.275
14587WAT     H145863   4.969   4.978   5.355
14587WAT     H245864   4.833   5.022   5.304
14588WAT      O45865   5.516   3.822   5.514
14588WAT     H145866   5.455   3.873   5.461
14588WAT     H245867   5.484   3.732   5.509
14589WAT      O45868   4.294   3.419   4.701
14589WAT     H145869   4.249   3.497   4.667
14589WAT     H245870   4.350   3.452   4.771
14590WAT      O45871   4.722   3.706   5.261
14590WAT     H145872   4.676   3.727   5.342
14590WAT     H245873   4.682   3.625   5.231
14591WAT      O45874   5.222   3.828   5.374
14591WAT     H145875   5.137   3.798   5.406
14591WAT     H245876   5.206   3.853   5.283
14592WAT      O45877   4.932   3.978   5.584
14592WAT     H145878   4.964   3.895   5.550
14592WAT     H245879   5.011   4.030   5.599
14593WAT      O45880   4.497   3.474   4.886
14593WAT     H145881   4.527   3.564   4.878
14593WAT     H245882   4.552   3.425   4.825
14594WAT      O45883   4.517   4.022   5.540
14594WAT     H145884   4.507   3.928   5.525
14594WAT     H245885   4.601   4.044   5.500
14595WAT      O45886   4.030   3.663   5.355
14595WAT     H145887   3.991   3.747   5.376
14595WAT     H245888   3.961   3.599   5.374
14596WAT      O45889   4.687   3.671   5.662
14596WAT     H145890   4.618   3.652   5.726
14596WAT     H245891   4.762   3.699   5.716
14597WAT      O45892   3.760   3.455   4.759
14597WAT     H145893   3.731   3.512   4.830
14597WAT     H245894   3.835   3.407   4.795
14598WAT      O45895   4.915   4.055   4.946
14598WAT     H145896   4.842   4.106   4.981
14598WAT     H245897   4.875   3.973   4.916
14599WAT      O45898   4.559   3.723   4.786
14599WAT     H145899   4.559   3.678   4.701
14599WAT     H245900   4.648   3.755   4.797
14600WAT      O45901   4.144   3.711   4.682
14600WAT     H145902   4.110   3.759   4.758
14600WAT     H245903   4.068   3.665   4.646
14601WAT      O45904   4.961   3.600   4.887
14601WAT     H145905   4.963   3.645   4.971
14601WAT     H245906   4.936   3.510   4.908
14602WAT      O45907   5.304   3.342   5.471
14602WAT     H145908   5.336   3.269   5.524
14602WAT     H245909   5.308   3.310   5.381
14603WAT      O45910   4.589   4.129   4.961
14603WAT     H145911   4.626   4.081   5.036
14603WAT     H245912   4.570   4.216   4.995
14604WAT      O45913   3.875   3.603   4.574
14604WAT     H145914   3.847   3.567   4.658
14604WAT     H245915   3.869   3.530   4.513
14605WAT      O45916   4.368   4.033   5.193
14605WAT     H145917   4.337   4.121   5.215
14605WAT     H245918   4.463   4.039   5.196
14606WAT      O45919   4.835   4.360   5.420
14606WAT     H145920   4.828   4.268   5.395
14606WAT     H245921   4.772   4.370   5.492
14607WAT      O45922   3.973   4.117   5.308
14607WAT     H145923   3.938   4.183   5.366
14607WAT     H245924   3.944   4.034   5.345
14608WAT      O45925   4.294   4.163   5.596
14608WAT     H145926   4.264   4.177   5.506
14608WAT     H245927   4.371   4.107   5.587
14609WAT      O45928   4.828   4.642   5.396
14609WAT     H145929   4.829   4.549   5.374
14609WAT     H245930   4.757   4.651   5.459
14610WAT      O45931   5.449   4.306   5.330
14610WAT     H145932   5.376   4.366   5.310
14610WAT     H245933   5.502   4.306   5.250
14611WAT      O45934   4.131   3.290   4.429
14611WAT     H145935   4.118   3.289   4.524
14611WAT     H245936   4.049   3.324   4.394
14612WAT      O45937   5.076   4.687   5.297
14612WAT     H145938   5.109   4.745   5.365
14612WAT     H245939   4.984   4.674   5.320
14613WAT      O45940   3.861   5.038   4.027
14613WAT     H145941   3.897   5.098   3.961
14613WAT     H245942   3.847   5.092   4.104
14614WAT      O45943   3.831   3.466   5.375
14614WAT     H145944   3.760   3.486   5.436
14614WAT     H245945   3.873   3.388   5.412
14615WAT      O45946   4.659   4.692   5.614
14615WAT     H145947   4.627   4.620   5.668
14615WAT     H245948   4.591   4.759   5.621
14616WAT      O45949   4.980   3.715   5.150
14616WAT     H145950   5.017   3.633   5.183
14616WAT     H245951   4.894   3.721   5.192
14617WAT      O45952   4.676   3.980   5.173
14617WAT     H145953   4.726   4.028   5.239
14617WAT     H245954   4.691   3.888   5.193
14618WAT      O45955   4.917   3.511   4.517
14618WAT     H145956   4.905   3.513   4.422
14618WAT     H245957   5.012   3.516   4.529
14619WAT      O45958   5.397   3.602   5.257
14619WAT     H145959   5.347   3.676   5.291
14619WAT     H245960   5.479   3.641   5.225
14620WAT      O45961   4.174   5.053   4.736
14620WAT     H145962   4.247   4.998   4.763
14620WAT     H245963   4.212   5.139   4.722
14621WAT      O45964   4.958   4.582   5.650
14621WAT     H145965   4.897   4.584   5.576
14621WAT     H245966   4.927   4.509   5.704
14622WAT      O45967   5.101   4.955   5.511
14622WAT     H145968   5.196   4.946   5.506
14622WAT     H245969   5.086   5.021   5.578
14623WAT      O45970   3.846   4.220   5.550
14623WAT     H145971   3.897   4.162   5.607
14623WAT     H245972   3.772   4.248   5.603
14624WAT      O45973   4.552   4.361   5.503
14624WAT     H145974   4.475   4.417   5.494
14624WAT     H245975   4.570   4.331   5.414
14625WAT      O45976   5.266   4.534   5.559
14625WAT     H145977   5.340   4.567   5.508
14625WAT     H245978   5.190   4.551   5.503
14626WAT      O45979   4.049   4.034   5.639
14626WAT     H145980   4.054   4.004   5.730
14626WAT     H245981   4.135   4.074   5.623
14627WAT      O45982   4.244   3.892   5.436
14627WAT     H145983   4.190   3.843   5.373
14627WAT     H245984   4.310   3.935   5.382
14628WAT      O45985   5.133   4.339   5.412
14628WAT     H145986   5.175   4.354   5.497
14628WAT     H245987   5.040   4.351   5.428
14629WAT      O45988   5.181   4.073   5.613
14629WAT     H145989   5.239   3.997   5.604
14629WAT     H245990   5.198   4.126   5.535
14630WAT      O45991   4.292   3.589   5.444
14630WAT     H145992   4.283   3.527   5.371
14630WAT     H245993   4.234   3.661   5.421
14631WAT      O45994   4.569   3.444   5.147
14631WAT     H145995   4.524   3.447   5.062
14631WAT     H245996   4.506   3.405   5.207
14632WAT      O45997   4.609   4.334   5.209
14632WAT     H145998   4.651   4.418   5.192
14632WAT     H245999   4.518   4.348   5.186
14633WAT      O46000   4.843   4.107   5.348
14633WAT     H146001   4.855   4.048   5.421
14633WAT     H246002   4.929   4.111   5.306
14634WAT      O46003   5.077   4.163   5.205
14634WAT     H146004   5.024   4.215   5.145
14634WAT     H246005   5.111   4.226   5.268
14635WAT      O46006   4.520   3.761   5.473
14635WAT     H146007   4.579   3.731   5.542
14635WAT     H246008   4.438   3.714   5.489
14636WAT      O46009   5.002   3.723   5.497
14636WAT     H146010   4.933   3.657   5.490
14636WAT     H246011   5.074   3.678   5.541
14637WAT      O46012   4.680   5.088   5.347
14637WAT     H146013   4.673   5.178   5.377
14637WAT     H246014   4.590   5.056   5.344
14638WAT      O46015   4.099   4.542   3.932
14638WAT     H146016   4.143   4.596   3.997
14638WAT     H246017   4.147   4.459   3.933
14639WAT      O46018   5.433   4.858   5.379
14639WAT     H146019   5.373   4.864   5.305
14639WAT     H246020   5.446   4.764   5.392
14640WAT      O46021   5.301   4.530   5.189
14640WAT     H146022   5.220   4.573   5.216
14640WAT     H246023   5.342   4.591   5.128
14641WAT      O46024   5.436   4.044   5.342
14641WAT     H146025   5.413   4.021   5.252
14641WAT     H246026   5.462   4.136   5.337
14642WAT      O46027   3.911   3.888   5.431
14642WAT     H146028   3.822   3.885   5.465
14642WAT     H246029   3.965   3.908   5.508
14643WAT      O46030   5.280   3.567   5.620
14643WAT     H146031   5.368   3.567   5.658
14643WAT     H246032   5.281   3.493   5.559
14644WAT      O46033   5.443   3.960   5.061
14644WAT     H146034   5.348   3.957   5.072
14644WAT     H246035   5.461   4.051   5.037
14645WAT      O46036   3.993   3.391   3.876
14645WAT     H146037   4.065   3.445   3.908
14645WAT     H246038   4.020   3.363   3.788
14646WAT      O46039   3.962   3.316   4.866
14646WAT     H146040   4.027   3.261   4.822
14646WAT     H246041   4.004   3.341   4.948
14647WAT      O46042   5.517   3.741   4.556
14647WAT     H146043   5.506   3.726   4.650
14647WAT     H246044   5.593   3.688   4.532
14648WAT      O46045   5.351   3.335   5.202
14648WAT     H146046   5.415   3.397   5.238
14648WAT     H246047   5.366   3.339   5.107
14649WAT      O46048   5.606   3.524   3.880
14649WAT     H146049   5.698   3.511   3.859
14649WAT     H246050   5.603   3.532   3.975
14650WAT      O46051   5.613   3.601   4.143
14650WAT     H146052   5.534   3.595   4.195
14650WAT     H246053   5.633   3.695   4.141
14651WAT      O46054   3.937   3.331   5.140
14651WAT     H146055   3.902   3.377   5.217
14651WAT     H246056   3.904   3.242   5.149
14652WAT      O46057   4.098   4.649   5.557
14652WAT     H146058   4.094   4.611   5.645
14652WAT     H246059   4.111   4.742   5.571
14653WAT      O46060   4.468   4.804   5.117
14653WAT     H146061   4.444   4.831   5.028
14653WAT     H246062   4.562   4.821   5.122
14654WAT      O46063   4.688   3.450   5.493
14654WAT     H146064   4.682   3.510   5.567
14654WAT     H246065   4.782   3.440   5.478
14655WAT      O46066   4.952   3.416   5.456
14655WAT     H146067   5.014   3.448   5.390
14655WAT     H246068   5.007   3.368   5.518
14656WAT      O46069   5.594   5.006   5.197
14656WAT     H146070   5.545   5.046   5.125
14656WAT     H246071   5.533   4.944   5.236
14657WAT      O46072   4.004   3.284   5.468
14657WAT     H146073   4.059   3.266   5.391
14657WAT     H246074   4.011   3.205   5.521
14658WAT      O46075   5.026   3.272   5.089
14658WAT     H146076   4.939   3.306   5.069
14658WAT     H246077   5.015   3.225   5.172
14659WAT      O46078   5.117   3.493   5.228
14659WAT     H146079   5.084   3.412   5.190
14659WAT     H246080   5.212   3.489   5.215
14660WAT      O46081   4.405   4.901   4.842
14660WAT     H146082   4.457   4.840   4.790
14660WAT     H246083   4.470   4.951   4.892
14661WAT      O46084   4.801   3.364   4.983
14661WAT     H146085   4.723   3.412   5.011
14661WAT     H246086   4.772   3.274   4.972
14662WAT      O46087   5.256   3.434   4.788
14662WAT     H146088   5.300   3.429   4.703
14662WAT     H246089   5.229   3.526   4.795
14663WAT      O46090   5.443   3.398   4.589
14663WAT     H146091   5.437   3.303   4.574
14663WAT     H246092   5.521   3.408   4.643
14664WAT      O46093   3.935   3.395   4.235
14664WAT     H146094   4.011   3.406   4.178
14664WAT     H246095   3.889   3.478   4.231
14665WAT      O46096   4.590   3.606   4.534
14665WAT     H146097   4.508   3.569   4.500
14665WAT     H246098   4.640   3.530   4.564
14666WAT      O46099   5.040   3.272   4.658
14666WAT     H146100   5.100   3.330   4.706
14666WAT     H246101   4.966   3.329   4.636
14667WAT      O46102   5.354   3.313   4.185
14667WAT     H146103   5.374   3.403   4.212
14667WAT     H246104   5.275   3.290   4.235
14668WAT      O46105   4.034   4.881   4.229
14668WAT     H146106   3.981   4.919   4.159
14668WAT     H246107   4.026   4.943   4.301
14669WAT      O46108   4.392   3.421   4.395
14669WAT     H146109   4.329   3.351   4.411
14669WAT     H246110   4.338   3.497   4.373
14670WAT      O46111   4.686   5.082   5.662
14670WAT     H146112   4.779   5.059   5.666
14670WAT     H246113   4.684   5.165   5.614
14671WAT      O46114   4.405   3.349   5.638
14671WAT     H146115   4.376   3.399   5.562
14671WAT     H246116   4.443   3.269   5.602
14672WAT      O46117   4.294   5.076   4.117
14672WAT     H146118   4.367   5.047   4.062
14672WAT     H246119   4.320   5.052   4.206
14673WAT      O46120   5.065   3.290   5.696
14673WAT     H146121   5.053   3.322   5.786
14673WAT     H246122   5.146   3.331   5.666
14674WAT      O46123   5.343   5.005   5.644
14674WAT     H146124   5.422   4.956   5.623
14674WAT     H246125   5.372   5.073   5.705
14675WAT      O46126   4.955   4.092   2.732
14675WAT     H146127   4.947   4.001   2.705
14675WAT     H246128   4.914   4.142   2.662
14676WAT      O46129   4.769   4.270   2.920
14676WAT     H146130   4.691   4.222   2.949
14676WAT     H246131   4.834   4.202   2.903
14677WAT      O46132   4.170   4.301   3.008
14677WAT     H146133   4.087   4.276   3.048
14677WAT     H246134   4.231   4.308   3.082
14678WAT      O46135   5.171   4.711   2.798
14678WAT     H146136   5.124   4.634   2.831
14678WAT     H246137   5.252   4.713   2.849
14679WAT      O46138   4.168   4.705   3.028
14679WAT     H146139   4.198   4.616   3.010
14679WAT     H246140   4.243   4.760   3.005
14680WAT      O46141   4.011   3.797   2.387
14680WAT     H146142   3.922   3.832   2.376
14680WAT     H246143   4.040   3.777   2.297
14681WAT      O46144   3.807   4.057   2.975
14681WAT     H146145   3.865   3.981   2.975
14681WAT     H246146   3.807   4.087   2.884
14682WAT      O46147   4.793   4.939   2.760
14682WAT     H146148   4.731   4.985   2.703
14682WAT     H246149   4.879   4.955   2.720
14683WAT      O46150   4.713   4.538   2.921
14683WAT     H146151   4.706   4.444   2.905
14683WAT     H246152   4.789   4.547   2.978
14684WAT      O46153   3.932   3.598   3.154
14684WAT     H146154   3.914   3.508   3.182
14684WAT     H246155   3.892   3.653   3.221
14685WAT      O46156   4.816   3.818   2.944
14685WAT     H146157   4.853   3.731   2.933
14685WAT     H246158   4.806   3.852   2.855
14686WAT      O46159   4.229   3.656   2.490
14686WAT     H146160   4.239   3.746   2.521
14686WAT     H246161   4.138   3.651   2.461
14687WAT      O46162   5.194   3.568   2.637
14687WAT     H146163   5.276   3.519   2.641
14687WAT     H246164   5.197   3.627   2.712
14688WAT      O46165   3.994   3.848   3.015
14688WAT     H146166   4.062   3.874   3.076
14688WAT     H246167   3.962   3.764   3.048
14689WAT      O46168   4.413   3.953   2.923
14689WAT     H146169   4.464   4.002   2.987
14689WAT     H246170   4.466   3.875   2.906
14690WAT      O46171   5.623   3.770   3.294
14690WAT     H146172   5.552   3.808   3.242
14690WAT     H246173   5.650   3.839   3.354
14691WAT      O46174   4.880   4.428   2.500
14691WAT     H146175   4.818   4.474   2.443
14691WAT     H246176   4.931   4.497   2.541
14692WAT      O46177   4.366   4.380   3.168
14692WAT     H146178   4.333   4.443   3.232
14692WAT     H246179   4.384   4.433   3.090
14693WAT      O46180   5.218   3.762   2.914
14693WAT     H146181   5.147   3.791   2.972
14693WAT     H246182   5.254   3.843   2.878
14694WAT      O46183   4.209   3.588   3.151
14694WAT     H146184   4.243   3.672   3.121
14694WAT     H246185   4.115   3.602   3.162
14695WAT      O46186   4.287   4.577   3.349
14695WAT     H146187   4.349   4.645   3.321
14695WAT     H246188   4.201   4.618   3.340
14696WAT      O46189   3.817   4.496   2.237
14696WAT     H146190   3.779   4.545   2.164
14696WAT     H246191   3.842   4.564   2.300
14697WAT      O46192   5.524   3.706   2.953
14697WAT     H146193   5.430   3.710   2.967
14697WAT     H246194   5.557   3.788   2.992
14698WAT      O46195   4.578   3.336   2.783
14698WAT     H146196   4.608   3.281   2.711
14698WAT     H246197   4.485   3.350   2.765
14699WAT      O46198   5.133   4.908   3.012
14699WAT     H146199   5.134   4.868   2.925
14699WAT     H246200   5.078   4.986   3.002
14700WAT      O46201   5.262   4.580   2.521
14700WAT     H146202   5.251   4.486   2.534
14700WAT     H246203   5.262   4.616   2.610
14701WAT      O46204   4.816   4.143   2.457
14701WAT     H146205   4.724   4.136   2.480
14701WAT     H246206   4.832   4.237   2.445
14702WAT      O46207   4.815   3.770   2.156
14702WAT     H146208   4.721   3.786   2.165
14702WAT     H246209   4.847   3.842   2.102
14703WAT      O46210   5.219   4.299   2.507
14703WAT     H146211   5.158   4.265   2.442
14703WAT     H246212   5.218   4.235   2.578
14704WAT      O46213   4.377   4.196   2.735
14704WAT     H146214   4.337   4.124   2.685
14704WAT     H246215   4.386   4.161   2.824
14705WAT      O46216   4.424   4.564   2.951
14705WAT     H146217   4.394   4.504   2.883
14705WAT     H246218   4.519   4.568   2.940
14706WAT      O46219   4.248   3.873   3.113
14706WAT     H146220   4.303   3.884   3.035
14706WAT     H246221   4.300   3.910   3.184
14707WAT      O46222   5.233   4.922   3.317
14707WAT     H146223   5.185   5.002   3.298
14707WAT     H246224   5.164   4.856   3.333
14708WAT      O46225   4.333   4.538   3.616
14708WAT     H146226   4.243   4.560   3.641
14708WAT     H246227   4.336   4.550   3.521
14709WAT      O46228   5.037   4.223   2.208
14709WAT     H146229   5.081   4.139   2.193
14709WAT     H246230   5.108   4.286   2.216
14710WAT      O46231   4.216   4.225   3.474
14710WAT     H146232   4.202   4.312   3.511
14710WAT     H246233   4.128   4.191   3.459
14711WAT      O46234   4.848   4.717   2.605
14711WAT     H146235   4.892   4.791   2.563
14711WAT     H246236   4.842   4.741   2.697
14712WAT      O46237   4.395   4.819   3.695
14712WAT     H146238   4.393   4.860   3.608
14712WAT     H246239   4.379   4.727   3.678
14713WAT      O46240   5.395   3.348   2.039
14713WAT     H146241   5.364   3.358   2.129
14713WAT     H246242   5.471   3.406   2.034
14714WAT      O46243   4.047   4.085   2.485
14714WAT     H146244   4.035   4.158   2.424
14714WAT     H246245   4.016   4.008   2.437
14715WAT      O46246   3.811   4.402   3.066
14715WAT     H146247   3.819   4.416   2.971
14715WAT     H246248   3.872   4.331   3.085
14716WAT      O46249   3.935   4.572   2.707
14716WAT     H146250   3.895   4.586   2.621
14716WAT     H246251   4.024   4.544   2.686
14717WAT      O46252   4.917   4.987   3.397
14717WAT     H146253   4.969   4.978   3.478
14717WAT     H246254   4.833   5.022   3.427
14718WAT      O46255   4.363   4.994   2.518
14718WAT     H146256   4.345   4.902   2.497
14718WAT     H246257   4.277   5.029   2.542
14719WAT      O46258   5.085   4.767   2.196
14719WAT     H146259   5.016   4.766   2.130
14719WAT     H246260   5.159   4.724   2.153
14720WAT      O46261   5.516   3.822   3.637
14720WAT     H146262   5.455   3.873   3.584
14720WAT     H246263   5.484   3.732   3.631
14721WAT      O46264   3.816   4.506   3.320
14721WAT     H146265   3.833   4.459   3.238
14721WAT     H246266   3.863   4.456   3.386
14722WAT      O46267   4.294   3.419   2.823
14722WAT     H146268   4.249   3.497   2.790
14722WAT     H246269   4.350   3.452   2.894
14723WAT      O46270   4.605   3.381   2.311
14723WAT     H146271   4.543   3.381   2.384
14723WAT     H246272   4.597   3.295   2.272
14724WAT      O46273   4.497   3.474   3.009
14724WAT     H146274   4.527   3.564   3.001
14724WAT     H246275   4.552   3.425   2.948
14725WAT      O46276   4.273   3.932   2.596
14725WAT     H146277   4.250   3.910   2.686
14725WAT     H246278   4.195   3.975   2.561
14726WAT      O46279   4.996   3.932   2.456
14726WAT     H146280   4.936   4.005   2.437
14726WAT     H246281   5.051   3.926   2.378
14727WAT      O46282   4.856   3.796   2.659
14727WAT     H146283   4.896   3.828   2.578
14727WAT     H246284   4.893   3.708   2.670
14728WAT      O46285   4.030   3.663   3.478
14728WAT     H146286   3.991   3.747   3.499
14728WAT     H246287   3.961   3.599   3.497
14729WAT      O46288   3.760   3.455   2.881
14729WAT     H146289   3.731   3.512   2.952
14729WAT     H246290   3.835   3.407   2.917
14730WAT      O46291   3.779   3.849   2.002
14730WAT     H146292   3.771   3.943   2.016
14730WAT     H246293   3.744   3.835   1.914
14731WAT      O46294   4.915   4.055   3.068
14731WAT     H146295   4.842   4.106   3.103
14731WAT     H246296   4.875   3.973   3.038
14732WAT      O46297   4.559   3.723   2.909
14732WAT     H146298   4.559   3.678   2.824
14732WAT     H246299   4.648   3.755   2.920
14733WAT      O46300   4.144   3.711   2.805
14733WAT     H146301   4.110   3.759   2.881
14733WAT     H246302   4.068   3.665   2.769
14734WAT      O46303   4.565   3.823   2.208
14734WAT     H146304   4.577   3.819   2.303
14734WAT     H246305   4.526   3.909   2.192
14735WAT      O46306   4.961   3.600   3.010
14735WAT     H146307   4.963   3.645   3.094
14735WAT     H246308   4.936   3.510   3.031
14736WAT      O46309   4.466   4.054   2.148
14736WAT     H146310   4.409   4.009   2.085
14736WAT     H246311   4.537   4.090   2.094
14737WAT      O46312   5.304   3.342   3.593
14737WAT     H146313   5.336   3.269   3.646
14737WAT     H246314   5.308   3.310   3.503
14738WAT      O46315   3.974   4.444   3.535
14738WAT     H146316   3.935   4.380   3.595
14738WAT     H246317   4.005   4.514   3.592
14739WAT      O46318   4.589   4.129   3.084
14739WAT     H146319   4.626   4.081   3.158
14739WAT     H246320   4.570   4.216   3.118
14740WAT      O46321   3.875   3.603   2.697
14740WAT     H146322   3.847   3.567   2.780
14740WAT     H246323   3.869   3.530   2.635
14741WAT      O46324   4.368   4.033   3.315
14741WAT     H146325   4.337   4.121   3.338
14741WAT     H246326   4.463   4.039   3.319
14742WAT      O46327   4.221   4.453   2.375
14742WAT     H146328   4.143   4.399   2.359
14742WAT     H246329   4.294   4.401   2.341
14743WAT      O46330   4.843   3.492   2.369
14743WAT     H146331   4.761   3.442   2.361
14743WAT     H246332   4.823   3.576   2.327
14744WAT      O46333   5.114   3.930   2.198
14744WAT     H146334   5.203   3.961   2.181
14744WAT     H246335   5.111   3.842   2.159
14745WAT      O46336   4.225   4.420   2.739
14745WAT     H146337   4.277   4.340   2.733
14745WAT     H246338   4.180   4.414   2.823
14746WAT      O46339   4.714   4.547   2.266
14746WAT     H146340   4.748   4.621   2.217
14746WAT     H246341   4.631   4.578   2.302
14747WAT      O46342   3.973   4.117   3.430
14747WAT     H146343   3.938   4.183   3.489
14747WAT     H246344   3.944   4.034   3.467
14748WAT      O46345   4.828   4.642   3.518
14748WAT     H146346   4.829   4.549   3.496
14748WAT     H246347   4.757   4.651   3.582
14749WAT      O46348   5.341   4.061   2.145
14749WAT     H146349   5.333   4.104   2.060
14749WAT     H246350   5.413   4.107   2.188
14750WAT      O46351   5.444   4.746   2.418
14750WAT     H146352   5.380   4.681   2.445
14750WAT     H246353   5.405   4.787   2.340
14751WAT      O46354   5.002   4.479   2.803
14751WAT     H146355   5.037   4.419   2.737
14751WAT     H246356   4.914   4.446   2.820
14752WAT      O46357   4.611   4.555   2.543
14752WAT     H146358   4.679   4.610   2.581
14752WAT     H246359   4.532   4.609   2.547
14753WAT      O46360   3.825   4.117   2.092
14753WAT     H146361   3.911   4.145   2.121
14753WAT     H246362   3.775   4.198   2.081
14754WAT      O46363   4.541   4.255   2.505
14754WAT     H146364   4.587   4.336   2.527
14754WAT     H246365   4.506   4.224   2.588
14755WAT      O46366   4.771   4.806   3.227
14755WAT     H146367   4.836   4.827   3.295
14755WAT     H246368   4.808   4.730   3.182
14756WAT      O46369   4.131   3.290   2.552
14756WAT     H146370   4.118   3.289   2.647
14756WAT     H246371   4.049   3.324   2.517
14757WAT      O46372   4.899   4.607   3.099
14757WAT     H146373   4.963   4.537   3.111
14757WAT     H246374   4.951   4.685   3.081
14758WAT      O46375   5.283   4.635   2.072
14758WAT     H146376   5.260   4.564   2.131
14758WAT     H246377   5.244   4.610   1.988
14759WAT      O46378   5.076   4.687   3.420
14759WAT     H146379   5.109   4.745   3.487
14759WAT     H246380   4.984   4.674   3.443
14760WAT      O46381   3.861   5.038   2.149
14760WAT     H146382   3.897   5.098   2.084
14760WAT     H246383   3.847   5.092   2.226
14761WAT      O46384   3.831   3.466   3.498
14761WAT     H146385   3.760   3.486   3.558
14761WAT     H246386   3.873   3.388   3.535
14762WAT      O46387   5.241   4.427   2.238
14762WAT     H146388   5.212   4.473   2.317
14762WAT     H246389   5.321   4.381   2.265
14763WAT      O46390   3.860   4.864   3.597
14763WAT     H146391   3.871   4.770   3.582
14763WAT     H246392   3.794   4.891   3.532
14764WAT      O46393   4.659   4.692   3.736
14764WAT     H146394   4.627   4.620   3.791
14764WAT     H246395   4.591   4.759   3.744
14765WAT      O46396   4.463   4.776   2.231
14765WAT     H146397   4.462   4.849   2.169
14765WAT     H246398   4.371   4.752   2.240
14766WAT      O46399   4.023   4.298   2.305
14766WAT     H146400   3.962   4.372   2.306
14766WAT     H246401   4.071   4.307   2.223
14767WAT      O46402   5.317   3.610   2.354
14767WAT     H146403   5.254   3.621   2.282
14767WAT     H246404   5.267   3.632   2.433
14768WAT      O46405   4.762   4.782   2.097
14768WAT     H146406   4.772   4.762   2.004
14768WAT     H246407   4.672   4.757   2.118
14769WAT      O46408   4.514   3.838   2.495
14769WAT     H146409   4.443   3.885   2.539
14769WAT     H246410   4.542   3.773   2.559
14770WAT      O46411   4.676   3.980   3.295
14770WAT     H146412   4.726   4.028   3.362
14770WAT     H246413   4.691   3.888   3.316
14771WAT      O46414   4.917   3.511   2.639
14771WAT     H146415   4.905   3.513   2.544
14771WAT     H246416   5.012   3.516   2.651
14772WAT      O46417   4.626   5.034   2.567
14772WAT     H146418   4.651   5.031   2.474
14772WAT     H246419   4.531   5.022   2.566
14773WAT      O46420   4.334   3.669   2.233
14773WAT     H146421   4.419   3.713   2.226
14773WAT     H246422   4.297   3.700   2.316
14774WAT      O46423   5.397   3.602   3.380
14774WAT     H146424   5.347   3.676   3.413
14774WAT     H246425   5.479   3.641   3.348
14775WAT      O46426   5.226   4.126   2.724
14775WAT     H146427   5.132   4.128   2.742
14775WAT     H246428   5.258   4.048   2.769
14776WAT      O46429   4.224   4.294   2.080
14776WAT     H146430   4.301   4.283   2.136
14776WAT     H246431   4.232   4.225   2.015
14777WAT      O46432   4.094   4.038   2.149
14777WAT     H146433   4.102   3.943   2.160
14777WAT     H246434   4.183   4.071   2.159
14778WAT      O46435   5.427   4.843   2.892
14778WAT     H146436   5.439   4.926   2.939
14778WAT     H246437   5.513   4.822   2.857
14779WAT      O46438   4.174   5.053   2.859
14779WAT     H146439   4.247   4.998   2.886
14779WAT     H246440   4.212   5.139   2.845
14780WAT      O46441   3.862   4.659   2.446
14780WAT     H146442   3.770   4.684   2.445
14780WAT     H246443   3.909   4.742   2.434
14781WAT      O46444   4.074   4.971   3.778
14781WAT     H146445   4.154   5.003   3.819
14781WAT     H246446   4.023   4.935   3.850
14782WAT      O46447   4.485   4.970   2.041
14782WAT     H146448   4.564   4.999   1.996
14782WAT     H246449   4.433   4.927   1.973
14783WAT      O46450   5.101   4.955   3.634
14783WAT     H146451   5.196   4.946   3.629
14783WAT     H246452   5.086   5.021   3.701
14784WAT      O46453   5.390   4.893   2.183
14784WAT     H146454   5.361   4.851   2.102
14784WAT     H246455   5.370   4.986   2.171
14785WAT      O46456   3.846   4.220   3.672
14785WAT     H146457   3.897   4.162   3.729
14785WAT     H246458   3.772   4.248   3.726
14786WAT      O46459   4.536   4.492   2.028
14786WAT     H146460   4.526   4.431   2.100
14786WAT     H246461   4.520   4.440   1.949
14787WAT      O46462   4.861   4.398   2.088
14787WAT     H146463   4.806   4.443   2.152
14787WAT     H246464   4.923   4.348   2.140
14788WAT      O46465   4.427   4.294   2.278
14788WAT     H146466   4.469   4.278   2.362
14788WAT     H246467   4.440   4.213   2.228
14789WAT      O46468   4.244   3.892   3.558
14789WAT     H146469   4.190   3.843   3.496
14789WAT     H246470   4.310   3.935   3.505
14790WAT      O46471   4.679   4.196   2.002
14790WAT     H146472   4.731   4.125   1.966
14790WAT     H246473   4.743   4.260   2.032
14791WAT      O46474   4.609   4.334   3.332
14791WAT     H146475   4.651   4.418   3.314
14791WAT     H246476   4.518   4.348   3.309
14792WAT      O46477   4.317   3.901   1.972
14792WAT     H146478   4.297   3.815   2.008
14792WAT     H246479   4.300   3.893   1.878
14793WAT      O46480   4.395   4.965   3.443
14793WAT     H146481   4.341   5.037   3.411
14793WAT     H246482   4.420   4.917   3.364
14794WAT      O46483   5.065   3.383   2.225
14794WAT     H146484   5.093   3.298   2.261
14794WAT     H246485   4.987   3.406   2.276
14795WAT      O46486   4.197   3.611   1.971
14795WAT     H146487   4.227   3.612   1.880
14795WAT     H246488   4.271   3.576   2.021
14796WAT      O46489   4.680   5.088   3.469
14796WAT     H146490   4.673   5.178   3.500
14796WAT     H246491   4.590   5.056   3.466
14797WAT      O46492   4.519   3.506   2.070
14797WAT     H146493   4.484   3.438   2.012
14797WAT     H246494   4.539   3.460   2.151
14798WAT      O46495   4.735   5.005   2.231
14798WAT     H146496   4.825   5.038   2.234
14798WAT     H246497   4.738   4.932   2.169
14799WAT      O46498   4.099   4.542   2.054
14799WAT     H146499   4.143   4.596   2.120
14799WAT     H246500   4.147   4.459   2.055
14800WAT      O46501   3.820   4.821   2.799
14800WAT     H146502   3.853   4.734   2.776
14800WAT     H246503   3.863   4.841   2.883
14801WAT      O46504   4.280   4.654   2.565
14801WAT     H146505   4.250   4.642   2.656
14801WAT     H246506   4.269   4.568   2.525
14802WAT      O46507   3.869   4.907   3.073
14802WAT     H146508   3.826   4.925   3.157
14802WAT     H246509   3.926   4.983   3.059
14803WAT      O46510   5.557   4.632   2.036
14803WAT     H146511   5.474   4.639   2.083
14803WAT     H246512   5.575   4.721   2.005
14804WAT      O46513   5.503   4.306   2.286
14804WAT     H146514   5.579   4.363   2.297
14804WAT     H246515   5.504   4.250   2.363
14805WAT      O46516   3.853   4.159   2.709
14805WAT     H146517   3.787   4.132   2.645
14805WAT     H246518   3.936   4.148   2.664
14806WAT      O46519   5.603   4.392   2.771
14806WAT     H146520   5.640   4.313   2.730
14806WAT     H246521   5.667   4.461   2.753
14807WAT      O46522   5.508   4.336   2.002
14807WAT     H146523   5.535   4.426   1.989
14807WAT     H246524   5.489   4.329   2.095
14808WAT      O46525   5.147   3.638   2.131
14808WAT     H146526   5.189   3.619   2.047
14808WAT     H246527   5.117   3.553   2.162
14809WAT      O46528   5.497   4.129   2.501
14809WAT     H146529   5.460   4.053   2.458
14809WAT     H246530   5.424   4.168   2.550
14810WAT      O46531   3.956   4.197   3.163
14810WAT     H146532   3.993   4.188   3.251
14810WAT     H246533   3.899   4.121   3.153
14811WAT      O46534   3.911   3.888   3.554
14811WAT     H146535   3.822   3.885   3.588
14811WAT     H246536   3.965   3.908   3.630
14812WAT      O46537   3.774   3.880   2.303
14812WAT     H146538   3.684   3.906   2.286
14812WAT     H246539   3.822   3.907   2.225
14813WAT      O46540   5.425   3.952   2.831
14813WAT     H146541   5.477   3.903   2.768
14813WAT     H246542   5.483   3.965   2.906
14814WAT      O46543   4.028   3.785   2.094
14814WAT     H146544   4.099   3.743   2.046
14814WAT     H246545   3.957   3.792   2.031
14815WAT      O46546   3.993   3.391   1.998
14815WAT     H146547   4.065   3.445   2.030
14815WAT     H246548   4.020   3.363   1.911
14816WAT      O46549   5.374   3.878   2.425
14816WAT     H146550   5.423   3.854   2.504
14816WAT     H246551   5.354   3.794   2.383
14817WAT      O46552   3.962   3.316   2.989
14817WAT     H146553   4.027   3.261   2.945
14817WAT     H246554   4.004   3.341   3.071
14818WAT      O46555   5.517   3.741   2.678
14818WAT     H146556   5.506   3.726   2.772
14818WAT     H246557   5.593   3.688   2.654
14819WAT      O46558   5.351   3.335   3.324
14819WAT     H146559   5.415   3.397   3.361
14819WAT     H246560   5.366   3.339   3.230
14820WAT      O46561   5.606   3.524   2.003
14820WAT     H146562   5.698   3.511   1.982
14820WAT     H246563   5.603   3.532   2.098
14821WAT      O46564   5.613   3.601   2.265
14821WAT     H146565   5.534   3.595   2.318
14821WAT     H246566   5.633   3.695   2.264
14822WAT      O46567   3.937   3.331   3.263
14822WAT     H146568   3.902   3.377   3.339
14822WAT     H246569   3.904   3.242   3.271
14823WAT      O46570   4.098   4.649   3.679
14823WAT     H146571   4.094   4.611   3.768
14823WAT     H246572   4.111   4.742   3.693
14824WAT      O46573   4.468   4.804   3.240
14824WAT     H146574   4.444   4.831   3.151
14824WAT     H246575   4.562   4.821   3.245
14825WAT      O46576   4.004   3.284   3.590
14825WAT     H146577   4.059   3.266   3.514
14825WAT     H246578   4.011   3.205   3.644
14826WAT      O46579   4.082   4.943   3.391
14826WAT     H146580   4.022   4.930   3.465
14826WAT     H246581   4.081   4.860   3.345
14827WAT      O46582   5.026   3.272   3.212
14827WAT     H146583   4.939   3.306   3.191
14827WAT     H246584   5.015   3.225   3.294
14828WAT      O46585   5.362   5.070   3.047
14828WAT     H146586   5.316   5.145   3.010
14828WAT     H246587   5.299   4.998   3.042
14829WAT      O46588   4.045   4.680   3.286
14829WAT     H146589   3.972   4.618   3.280
14829WAT     H246590   4.051   4.719   3.199
14830WAT      O46591   4.405   4.901   2.965
14830WAT     H146592   4.457   4.840   2.912
14830WAT     H246593   4.470   4.951   3.014
14831WAT      O46594   4.679   4.990   3.048
14831WAT     H146595   4.708   4.965   2.960
14831WAT     H246596   4.730   4.935   3.107
14832WAT      O46597   4.801   3.364   3.106
14832WAT     H146598   4.723   3.412   3.134
14832WAT     H246599   4.772   3.274   3.095
14833WAT      O46600   5.256   3.434   2.910
14833WAT     H146601   5.300   3.429   2.825
14833WAT     H246602   5.229   3.526   2.917
14834WAT      O46603   5.443   3.398   2.711
14834WAT     H146604   5.437   3.303   2.697
14834WAT     H246605   5.521   3.408   2.766
14835WAT      O46606   3.873   5.011   2.607
14835WAT     H146607   3.856   4.948   2.677
14835WAT     H246608   3.787   5.032   2.572
14836WAT      O46609   3.935   3.395   2.358
14836WAT     H146610   4.011   3.406   2.300
14836WAT     H246611   3.889   3.478   2.353
14837WAT      O46612   4.590   3.606   2.657
14837WAT     H146613   4.508   3.569   2.623
14837WAT     H246614   4.640   3.530   2.687
14838WAT      O46615   5.040   3.272   2.781
14838WAT     H146616   5.100   3.330   2.828
14838WAT     H246617   4.966   3.329   2.758
14839WAT      O46618   5.354   3.313   2.308
14839WAT     H146619   5.374   3.403   2.335
14839WAT     H246620   5.275   3.290   2.357
14840WAT      O46621   4.034   4.881   2.352
14840WAT     H146622   3.981   4.919   2.282
14840WAT     H246623   4.026   4.943   2.424
14841WAT      O46624   4.173   3.447   2.212
14841WAT     H146625   4.226   3.369   2.199
14841WAT     H246626   4.236   3.515   2.235
14842WAT      O46627   4.392   3.421   2.517
14842WAT     H146628   4.329   3.351   2.534
14842WAT     H246629   4.338   3.497   2.496
14843WAT      O46630   4.686   5.082   3.784
14843WAT     H146631   4.779   5.059   3.789
14843WAT     H246632   4.684   5.165   3.736
14844WAT      O46633   4.294   5.076   2.239
14844WAT     H146634   4.367   5.047   2.185
14844WAT     H246635   4.320   5.052   2.328
14845WAT      O46636   4.210   4.687   2.240
14845WAT     H146637   4.147   4.734   2.295
14845WAT     H246638   4.221   4.603   2.283
14846WAT      O46639   4.955   4.092   0.855
14846WAT     H146640   4.947   4.001   0.828
14846WAT     H246641   4.914   4.142   0.784
14847WAT      O46642   4.769   4.270   1.043
14847WAT     H146643   4.691   4.222   1.072
14847WAT     H246644   4.834   4.202   1.026
14848WAT      O46645   4.170   4.301   1.131
14848WAT     H146646   4.087   4.276   1.171
14848WAT     H246647   4.231   4.308   1.204
14849WAT      O46648   5.171   4.711   0.921
14849WAT     H146649   5.124   4.634   0.954
14849WAT     H246650   5.252   4.713   0.972
14850WAT      O46651   4.168   4.705   1.150
14850WAT     H146652   4.198   4.616   1.132
14850WAT     H246653   4.243   4.760   1.128
14851WAT      O46654   4.011   3.797   0.509
14851WAT     H146655   3.922   3.832   0.499
14851WAT     H246656   4.040   3.777   0.420
14852WAT      O46657   3.807   4.057   1.098
14852WAT     H146658   3.865   3.981   1.098
14852WAT     H246659   3.807   4.087   1.007
14853WAT      O46660   4.793   4.939   0.883
14853WAT     H146661   4.731   4.985   0.826
14853WAT     H246662   4.879   4.955   0.843
14854WAT      O46663   4.713   4.538   1.044
14854WAT     H146664   4.706   4.444   1.028
14854WAT     H246665   4.789   4.547   1.101
14855WAT      O46666   3.932   3.598   1.276
14855WAT     H146667   3.914   3.508   1.304
14855WAT     H246668   3.892   3.653   1.344
14856WAT      O46669   4.816   3.818   1.066
14856WAT     H146670   4.853   3.731   1.055
14856WAT     H246671   4.806   3.852   0.977
14857WAT      O46672   4.229   3.656   0.613
14857WAT     H146673   4.239   3.746   0.643
14857WAT     H246674   4.138   3.651   0.584
14858WAT      O46675   5.194   3.568   0.760
14858WAT     H146676   5.276   3.519   0.764
14858WAT     H246677   5.197   3.627   0.835
14859WAT      O46678   3.994   3.848   1.137
14859WAT     H146679   4.062   3.874   1.199
14859WAT     H246680   3.962   3.764   1.170
14860WAT      O46681   4.413   3.953   1.046
14860WAT     H146682   4.464   4.002   1.110
14860WAT     H246683   4.466   3.875   1.028
14861WAT      O46684   5.623   3.770   1.416
14861WAT     H146685   5.552   3.808   1.364
14861WAT     H246686   5.650   3.839   1.476
14862WAT      O46687   4.241   3.417   1.472
14862WAT     H146688   4.241   3.468   1.392
14862WAT     H246689   4.158   3.369   1.470
14863WAT      O46690   4.880   4.428   0.622
14863WAT     H146691   4.818   4.474   0.566
14863WAT     H246692   4.931   4.497   0.664
14864WAT      O46693   4.366   4.380   1.290
14864WAT     H146694   4.333   4.443   1.354
14864WAT     H246695   4.384   4.433   1.212
14865WAT      O46696   5.218   3.762   1.037
14865WAT     H146697   5.147   3.791   1.095
14865WAT     H246698   5.254   3.843   1.001
14866WAT      O46699   4.209   3.588   1.273
14866WAT     H146700   4.243   3.672   1.244
14866WAT     H246701   4.115   3.602   1.285
14867WAT      O46702   4.287   4.577   1.472
14867WAT     H146703   4.349   4.645   1.444
14867WAT     H246704   4.201   4.618   1.463
14868WAT      O46705   3.817   4.496   0.360
14868WAT     H146706   3.779   4.545   0.287
14868WAT     H246707   3.842   4.564   0.423
14869WAT      O46708   5.379   4.724   1.263
14869WAT     H146709   5.311   4.791   1.262
14869WAT     H246710   5.433   4.743   1.187
14870WAT      O46711   5.524   3.706   1.076
14870WAT     H146712   5.430   3.710   1.089
14870WAT     H246713   5.557   3.788   1.115
14871WAT      O46714   4.578   3.336   0.906
14871WAT     H146715   4.608   3.281   0.834
14871WAT     H246716   4.485   3.350   0.887
14872WAT      O46717   5.133   4.908   1.135
14872WAT     H146718   5.134   4.868   1.048
14872WAT     H246719   5.078   4.986   1.124
14873WAT      O46720   5.262   4.580   0.644
14873WAT     H146721   5.251   4.486   0.656
14873WAT     H246722   5.262   4.616   0.732
14874WAT      O46723   5.073   4.398   1.267
14874WAT     H146724   5.114   4.377   1.184
14874WAT     H246725   5.145   4.424   1.325
14875WAT      O46726   4.816   4.143   0.579
14875WAT     H146727   4.724   4.136   0.602
14875WAT     H246728   4.832   4.237   0.568
14876WAT      O46729   4.815   3.770   0.279
14876WAT     H146730   4.721   3.786   0.287
14876WAT     H246731   4.847   3.842   0.224
14877WAT      O46732   5.467   4.238   1.277
14877WAT     H146733   5.384   4.245   1.229
14877WAT     H246734   5.527   4.297   1.230
14878WAT      O46735   5.219   4.299   0.630
14878WAT     H146736   5.158   4.265   0.565
14878WAT     H246737   5.218   4.235   0.700
14879WAT      O46738   5.164   3.917   1.371
14879WAT     H146739   5.122   4.000   1.397
14879WAT     H246740   5.090   3.858   1.352
14880WAT      O46741   4.377   4.196   0.857
14880WAT     H146742   4.337   4.124   0.808
14880WAT     H246743   4.386   4.161   0.946
14881WAT      O46744   4.424   4.564   1.074
14881WAT     H146745   4.394   4.504   1.006
14881WAT     H246746   4.519   4.568   1.063
14882WAT      O46747   4.248   3.873   1.235
14882WAT     H146748   4.303   3.884   1.158
14882WAT     H246749   4.300   3.910   1.307
14883WAT      O46750   5.233   4.922   1.440
14883WAT     H146751   5.185   5.002   1.421
14883WAT     H246752   5.164   4.856   1.455
14884WAT      O46753   4.333   4.538   1.739
14884WAT     H146754   4.243   4.560   1.764
14884WAT     H246755   4.336   4.550   1.644
14885WAT      O46756   5.037   4.223   0.330
14885WAT     H146757   5.081   4.139   0.316
14885WAT     H246758   5.108   4.286   0.339
14886WAT      O46759   4.216   4.225   1.596
14886WAT     H146760   4.202   4.312   1.633
14886WAT     H246761   4.128   4.191   1.582
14887WAT      O46762   4.848   4.717   0.727
14887WAT     H146763   4.892   4.791   0.686
14887WAT     H246764   4.842   4.741   0.819
14888WAT      O46765   4.395   4.819   1.817
14888WAT     H146766   4.393   4.860   1.731
14888WAT     H246767   4.379   4.727   1.801
14889WAT      O46768   4.047   4.085   0.607
14889WAT     H146769   4.035   4.158   0.546
14889WAT     H246770   4.016   4.008   0.560
14890WAT      O46771   5.591   4.898   1.947
14890WAT     H146772   5.638   4.946   2.015
14890WAT     H246773   5.653   4.891   1.874
14891WAT      O46774   3.811   4.402   1.188
14891WAT     H146775   3.819   4.416   1.094
14891WAT     H246776   3.872   4.331   1.207
14892WAT      O46777   3.935   4.572   0.829
14892WAT     H146778   3.895   4.586   0.744
14892WAT     H246779   4.024   4.544   0.809
14893WAT      O46780   5.531   4.617   1.663
14893WAT     H146781   5.544   4.593   1.571
14893WAT     H246782   5.535   4.534   1.710
14894WAT      O46783   4.917   4.987   1.520
14894WAT     H146784   4.969   4.978   1.600
14894WAT     H246785   4.833   5.022   1.549
14895WAT      O46786   5.115   5.016   0.463
14895WAT     H146787   5.099   4.987   0.553
14895WAT     H246788   5.098   4.938   0.409
14896WAT      O46789   4.363   4.994   0.640
14896WAT     H146790   4.345   4.902   0.619
14896WAT     H246791   4.277   5.029   0.664
14897WAT      O46792   5.085   4.767   0.319
14897WAT     H146793   5.016   4.766   0.253
14897WAT     H246794   5.159   4.724   0.276
14898WAT      O46795   5.041   4.929   0.726
14898WAT     H146796   5.087   4.851   0.758
14898WAT     H246797   5.075   5.000   0.781
14899WAT      O46798   5.516   3.822   1.759
14899WAT     H146799   5.455   3.873   1.707
14899WAT     H246800   5.484   3.732   1.754
14900WAT      O46801   3.816   4.506   1.442
14900WAT     H146802   3.833   4.459   1.360
14900WAT     H246803   3.863   4.456   1.509
14901WAT      O46804   4.294   3.419   0.946
14901WAT     H146805   4.249   3.497   0.913
14901WAT     H246806   4.350   3.452   1.016
14902WAT      O46807   4.722   3.706   1.506
14902WAT     H146808   4.676   3.727   1.587
14902WAT     H246809   4.682   3.625   1.476
14903WAT      O46810   5.222   3.828   1.619
14903WAT     H146811   5.137   3.798   1.651
14903WAT     H246812   5.206   3.853   1.528
14904WAT      O46813   4.932   3.978   1.829
14904WAT     H146814   4.964   3.895   1.795
14904WAT     H246815   5.011   4.030   1.844
14905WAT      O46816   4.605   3.381   0.434
14905WAT     H146817   4.543   3.381   0.506
14905WAT     H246818   4.597   3.295   0.394
14906WAT      O46819   4.497   3.474   1.132
14906WAT     H146820   4.527   3.564   1.124
14906WAT     H246821   4.552   3.425   1.070
14907WAT      O46822   4.273   3.932   0.719
14907WAT     H146823   4.250   3.910   0.809
14907WAT     H246824   4.195   3.975   0.684
14908WAT      O46825   4.996   3.932   0.578
14908WAT     H146826   4.936   4.005   0.560
14908WAT     H246827   5.051   3.926   0.500
14909WAT      O46828   4.517   4.022   1.785
14909WAT     H146829   4.507   3.928   1.770
14909WAT     H246830   4.601   4.044   1.746
14910WAT      O46831   4.856   3.796   0.781
14910WAT     H146832   4.896   3.828   0.700
14910WAT     H246833   4.893   3.708   0.793
14911WAT      O46834   4.030   3.663   1.600
14911WAT     H146835   3.991   3.747   1.621
14911WAT     H246836   3.961   3.599   1.620
14912WAT      O46837   4.687   3.671   1.907
14912WAT     H146838   4.618   3.652   1.971
14912WAT     H246839   4.762   3.699   1.961
14913WAT      O46840   3.760   3.455   1.004
14913WAT     H146841   3.731   3.512   1.075
14913WAT     H246842   3.835   3.407   1.040
14914WAT      O46843   4.915   4.055   1.191
14914WAT     H146844   4.842   4.106   1.226
14914WAT     H246845   4.875   3.973   1.161
14915WAT      O46846   4.559   3.723   1.031
14915WAT     H146847   4.559   3.678   0.947
14915WAT     H246848   4.648   3.755   1.042
14916WAT      O46849   4.144   3.711   0.927
14916WAT     H146850   4.110   3.759   1.003
14916WAT     H246851   4.068   3.665   0.891
14917WAT      O46852   4.565   3.823   0.331
14917WAT     H146853   4.577   3.819   0.425
14917WAT     H246854   4.526   3.909   0.315
14918WAT      O46855   4.961   3.600   1.132
14918WAT     H146856   4.963   3.645   1.217
14918WAT     H246857   4.936   3.510   1.154
14919WAT      O46858   4.466   4.054   0.270
14919WAT     H146859   4.409   4.009   0.208
14919WAT     H246860   4.537   4.090   0.217
14920WAT      O46861   5.304   3.342   1.716
14920WAT     H146862   5.336   3.269   1.769
14920WAT     H246863   5.308   3.310   1.626
14921WAT      O46864   3.974   4.444   1.658
14921WAT     H146865   3.935   4.380   1.718
14921WAT     H246866   4.005   4.514   1.715
14922WAT      O46867   4.589   4.129   1.206
14922WAT     H146868   4.626   4.081   1.281
14922WAT     H246869   4.570   4.216   1.240
14923WAT      O46870   3.875   3.603   0.819
14923WAT     H146871   3.847   3.567   0.903
14923WAT     H246872   3.869   3.530   0.758
14924WAT      O46873   4.368   4.033   1.438
14924WAT     H146874   4.337   4.121   1.460
14924WAT     H246875   4.463   4.039   1.442
14925WAT      O46876   4.221   4.453   0.498
14925WAT     H146877   4.143   4.399   0.482
14925WAT     H246878   4.294   4.401   0.464
14926WAT      O46879   5.297   4.353   1.077
14926WAT     H146880   5.369   4.402   1.038
14926WAT     H246881   5.276   4.285   1.012
14927WAT      O46882   4.843   3.492   0.491
14927WAT     H146883   4.761   3.442   0.484
14927WAT     H246884   4.823   3.576   0.450
14928WAT      O46885   4.835   4.360   1.666
14928WAT     H146886   4.828   4.268   1.640
14928WAT     H246887   4.772   4.370   1.737
14929WAT      O46888   5.114   3.930   0.321
14929WAT     H146889   5.203   3.961   0.303
14929WAT     H246890   5.111   3.842   0.282
14930WAT      O46891   4.225   4.420   0.861
14930WAT     H146892   4.277   4.340   0.856
14930WAT     H246893   4.180   4.414   0.946
14931WAT      O46894   4.714   4.547   0.389
14931WAT     H146895   4.748   4.621   0.339
14931WAT     H246896   4.631   4.578   0.425
14932WAT      O46897   3.973   4.117   1.553
14932WAT     H146898   3.938   4.183   1.611
14932WAT     H246899   3.944   4.034   1.590
14933WAT      O46900   4.294   4.163   1.841
14933WAT     H146901   4.264   4.177   1.751
14933WAT     H246902   4.371   4.107   1.832
14934WAT      O46903   4.828   4.642   1.641
14934WAT     H146904   4.829   4.549   1.619
14934WAT     H246905   4.757   4.651   1.705
14935WAT      O46906   5.341   4.061   0.268
14935WAT     H146907   5.333   4.104   0.183
14935WAT     H246908   5.413   4.107   0.311
14936WAT      O46909   5.449   4.306   1.575
14936WAT     H146910   5.376   4.366   1.556
14936WAT     H246911   5.502   4.306   1.495
14937WAT      O46912   5.444   4.746   0.540
14937WAT     H146913   5.380   4.681   0.568
14937WAT     H246914   5.405   4.787   0.463
14938WAT      O46915   5.002   4.479   0.925
14938WAT     H146916   5.037   4.419   0.859
14938WAT     H246917   4.914   4.446   0.942
14939WAT      O46918   4.611   4.555   0.666
14939WAT     H146919   4.679   4.610   0.704
14939WAT     H246920   4.532   4.609   0.669
14940WAT      O46921   3.825   4.117   0.215
14940WAT     H146922   3.911   4.145   0.243
14940WAT     H246923   3.775   4.198   0.204
14941WAT      O46924   4.541   4.255   0.627
14941WAT     H146925   4.587   4.336   0.650
14941WAT     H246926   4.506   4.224   0.710
14942WAT      O46927   4.771   4.806   1.350
14942WAT     H146928   4.836   4.827   1.418
14942WAT     H246929   4.808   4.730   1.305
14943WAT      O46930   4.131   3.290   0.674
14943WAT     H146931   4.118   3.289   0.769
14943WAT     H246932   4.049   3.324   0.639
14944WAT      O46933   4.899   4.607   1.222
14944WAT     H146934   4.963   4.537   1.233
14944WAT     H246935   4.951   4.685   1.204
14945WAT      O46936   5.076   4.687   1.542
14945WAT     H146937   5.109   4.745   1.610
14945WAT     H246938   4.984   4.674   1.565
14946WAT      O46939   3.861   5.038   0.272
14946WAT     H146940   3.897   5.098   0.206
14946WAT     H246941   3.847   5.092   0.349
14947WAT      O46942   3.831   3.466   1.620
14947WAT     H146943   3.760   3.486   1.681
14947WAT     H246944   3.873   3.388   1.658
14948WAT      O46945   5.241   4.427   0.360
14948WAT     H146946   5.212   4.473   0.439
14948WAT     H246947   5.321   4.381   0.387
14949WAT      O46948   3.860   4.864   1.719
14949WAT     H146949   3.871   4.770   1.705
14949WAT     H246950   3.794   4.891   1.654
14950WAT      O46951   4.659   4.692   1.859
14950WAT     H146952   4.627   4.620   1.914
14950WAT     H246953   4.591   4.759   1.866
14951WAT      O46954   4.463   4.776   0.353
14951WAT     H146955   4.462   4.849   0.292
14951WAT     H246956   4.371   4.752   0.363
14952WAT      O46957   4.023   4.298   0.428
14952WAT     H146958   3.962   4.372   0.429
14952WAT     H246959   4.071   4.307   0.345
14953WAT      O46960   4.980   3.715   1.395
14953WAT     H146961   5.017   3.633   1.428
14953WAT     H246962   4.894   3.721   1.437
14954WAT      O46963   5.317   3.610   0.476
14954WAT     H146964   5.254   3.621   0.405
14954WAT     H246965   5.267   3.632   0.555
14955WAT      O46966   4.514   3.838   0.618
14955WAT     H146967   4.443   3.885   0.662
14955WAT     H246968   4.542   3.773   0.681
14956WAT      O46969   4.676   3.980   1.418
14956WAT     H146970   4.726   4.028   1.484
14956WAT     H246971   4.691   3.888   1.439
14957WAT      O46972   4.917   3.511   0.762
14957WAT     H146973   4.905   3.513   0.667
14957WAT     H246974   5.012   3.516   0.774
14958WAT      O46975   4.626   5.034   0.689
14958WAT     H146976   4.651   5.031   0.597
14958WAT     H246977   4.531   5.022   0.688
14959WAT      O46978   4.334   3.669   0.355
14959WAT     H146979   4.419   3.713   0.349
14959WAT     H246980   4.297   3.700   0.438
14960WAT      O46981   5.397   3.602   1.502
14960WAT     H146982   5.347   3.676   1.536
14960WAT     H246983   5.479   3.641   1.470
14961WAT      O46984   5.226   4.126   0.847
14961WAT     H146985   5.132   4.128   0.864
14961WAT     H246986   5.258   4.048   0.891
14962WAT      O46987   4.094   4.038   0.271
14962WAT     H146988   4.102   3.943   0.282
14962WAT     H246989   4.183   4.071   0.282
14963WAT      O46990   5.427   4.843   1.014
14963WAT     H146991   5.439   4.926   1.061
14963WAT     H246992   5.513   4.822   0.979
14964WAT      O46993   4.174   5.053   0.981
14964WAT     H146994   4.247   4.998   1.009
14964WAT     H246995   4.212   5.139   0.967
14965WAT      O46996   3.862   4.659   0.569
14965WAT     H146997   3.770   4.684   0.568
14965WAT     H246998   3.909   4.742   0.557
14966WAT      O46999   4.074   4.971   1.900
14966WAT     H147000   4.154   5.003   1.942
14966WAT     H247001   4.023   4.935   1.972
14967WAT      O47002   4.958   4.582   1.895
14967WAT     H147003   4.897   4.584   1.821
14967WAT     H247004   4.927   4.509   1.949
14968WAT      O47005   5.101   4.955   1.756
14968WAT     H147006   5.196   4.946   1.751
14968WAT     H247007   5.086   5.021   1.823
14969WAT      O47008   5.390   4.893   0.306
14969WAT     H147009   5.361   4.851   0.225
14969WAT     H247010   5.370   4.986   0.294
14970WAT      O47011   3.846   4.220   1.795
14970WAT     H147012   3.897   4.162   1.852
14970WAT     H247013   3.772   4.248   1.848
14971WAT      O47014   4.552   4.361   1.748
14971WAT     H147015   4.475   4.417   1.740
14971WAT     H247016   4.570   4.331   1.659
14972WAT      O47017   4.861   4.398   0.211
14972WAT     H147018   4.806   4.443   0.275
14972WAT     H247019   4.923   4.348   0.263
14973WAT      O47020   5.266   4.534   1.804
14973WAT     H147021   5.340   4.567   1.753
14973WAT     H247022   5.190   4.551   1.748
14974WAT      O47023   4.049   4.034   1.884
14974WAT     H147024   4.054   4.004   1.975
14974WAT     H247025   4.135   4.074   1.868
14975WAT      O47026   4.427   4.294   0.400
14975WAT     H147027   4.469   4.278   0.484
14975WAT     H247028   4.440   4.213   0.351
14976WAT      O47029   4.244   3.892   1.681
14976WAT     H147030   4.190   3.843   1.618
14976WAT     H247031   4.310   3.935   1.627
14977WAT      O47032   5.133   4.339   1.657
14977WAT     H147033   5.175   4.354   1.742
14977WAT     H247034   5.040   4.351   1.674
14978WAT      O47035   5.181   4.073   1.858
14978WAT     H147036   5.239   3.997   1.849
14978WAT     H247037   5.198   4.126   1.780
14979WAT      O47038   4.292   3.589   1.689
14979WAT     H147039   4.283   3.527   1.616
14979WAT     H247040   4.234   3.661   1.666
14980WAT      O47041   4.569   3.444   1.392
14980WAT     H147042   4.524   3.447   1.308
14980WAT     H247043   4.506   3.405   1.452
14981WAT      O47044   4.609   4.334   1.454
14981WAT     H147045   4.651   4.418   1.437
14981WAT     H247046   4.518   4.348   1.431
14982WAT      O47047   4.843   4.107   1.593
14982WAT     H147048   4.855   4.048   1.667
14982WAT     H247049   4.929   4.111   1.551
14983WAT      O47050   5.077   4.163   1.450
14983WAT     H147051   5.024   4.215   1.390
14983WAT     H247052   5.111   4.226   1.513
14984WAT      O47053   4.395   4.965   1.566
14984WAT     H147054   4.341   5.037   1.534
14984WAT     H247055   4.420   4.917   1.487
14985WAT      O47056   4.520   3.761   1.718
14985WAT     H147057   4.579   3.731   1.787
14985WAT     H247058   4.438   3.714   1.734
14986WAT      O47059   5.002   3.723   1.742
14986WAT     H147060   4.933   3.657   1.735
14986WAT     H247061   5.074   3.678   1.786
14987WAT      O47062   5.065   3.383   0.348
14987WAT     H147063   5.093   3.298   0.383
14987WAT     H247064   4.987   3.406   0.399
14988WAT      O47065   4.680   5.088   1.592
14988WAT     H147066   4.673   5.178   1.622
14988WAT     H247067   4.590   5.056   1.589
14989WAT      O47068   4.735   5.005   0.354
14989WAT     H147069   4.825   5.038   0.356
14989WAT     H247070   4.738   4.932   0.291
14990WAT      O47071   4.099   4.542   0.177
14990WAT     H147072   4.143   4.596   0.242
14990WAT     H247073   4.147   4.459   0.178
14991WAT      O47074   3.820   4.821   0.922
14991WAT     H147075   3.853   4.734   0.899
14991WAT     H247076   3.863   4.841   1.005
14992WAT      O47077   4.280   4.654   0.688
14992WAT     H147078   4.250   4.642   0.778
14992WAT     H247079   4.269   4.568   0.647
14993WAT      O47080   3.869   4.907   1.196
14993WAT     H147081   3.826   4.925   1.279
14993WAT     H247082   3.926   4.983   1.182
14994WAT      O47083   5.433   4.858   1.625
14994WAT     H147084   5.373   4.864   1.550
14994WAT     H247085   5.446   4.764   1.638
14995WAT      O47086   5.503   4.306   0.409
14995WAT     H147087   5.579   4.363   0.419
14995WAT     H247088   5.504   4.250   0.486
14996WAT      O47089   3.853   4.159   0.832
14996WAT     H147090   3.787   4.132   0.767
14996WAT     H247091   3.936   4.148   0.787
14997WAT      O47092   5.603   4.392   0.893
14997WAT     H147093   5.640   4.313   0.852
14997WAT     H247094   5.667   4.461   0.875
14998WAT      O47095   5.301   4.530   1.434
14998WAT     H147096   5.220   4.573   1.461
14998WAT     H247097   5.342   4.591   1.373
14999WAT      O47098   5.147   3.638   0.254
14999WAT     H147099   5.189   3.619   0.170
14999WAT     H247100   5.117   3.553   0.285
15000WAT      O47101   5.497   4.129   0.624
15000WAT     H147102   5.460   4.053   0.580
15000WAT     H247103   5.424   4.168   0.672
15001WAT      O47104   3.956   4.197   1.286
15001WAT     H147105   3.993   4.188   1.374
15001WAT     H247106   3.899   4.121   1.276
15002WAT      O47107   5.436   4.044   1.587
15002WAT     H147108   5.413   4.021   1.497
15002WAT     H247109   5.462   4.136   1.583
15003WAT      O47110   3.911   3.888   1.676
15003WAT     H147111   3.822   3.885   1.710
15003WAT     H247112   3.965   3.908   1.753
15004WAT      O47113   5.280   3.567   1.865
15004WAT     H147114   5.368   3.567   1.903
15004WAT     H247115   5.281   3.493   1.804
15005WAT      O47116   3.774   3.880   0.426
15005WAT     H147117   3.684   3.906   0.409
15005WAT     H247118   3.822   3.907   0.348
15006WAT      O47119   5.425   3.952   0.954
15006WAT     H147120   5.477   3.903   0.891
15006WAT     H247121   5.483   3.965   1.028
15007WAT      O47122   5.443   3.960   1.306
15007WAT     H147123   5.348   3.957   1.317
15007WAT     H247124   5.461   4.051   1.282
15008WAT      O47125   5.374   3.878   0.548
15008WAT     H147126   5.423   3.854   0.626
15008WAT     H247127   5.354   3.794   0.506
15009WAT      O47128   3.962   3.316   1.111
15009WAT     H147129   4.027   3.261   1.067
15009WAT     H247130   4.004   3.341   1.193
15010WAT      O47131   5.517   3.741   0.801
15010WAT     H147132   5.506   3.726   0.895
15010WAT     H247133   5.593   3.688   0.777
15011WAT      O47134   5.351   3.335   1.447
15011WAT     H147135   5.415   3.397   1.483
15011WAT     H247136   5.366   3.339   1.352
15012WAT      O47137   5.613   3.601   0.388
15012WAT     H147138   5.534   3.595   0.441
15012WAT     H247139   5.633   3.695   0.387
15013WAT      O47140   5.307   5.005   0.787
15013WAT     H147141   5.367   4.973   0.719
15013WAT     H247142   5.333   4.958   0.866
15014WAT      O47143   3.937   3.331   1.385
15014WAT     H147144   3.902   3.377   1.462
15014WAT     H247145   3.904   3.242   1.394
15015WAT      O47146   4.098   4.649   1.802
15015WAT     H147147   4.094   4.611   1.890
15015WAT     H247148   4.111   4.742   1.816
15016WAT      O47149   4.468   4.804   1.362
15016WAT     H147150   4.444   4.831   1.273
15016WAT     H247151   4.562   4.821   1.368
15017WAT      O47152   4.688   3.450   1.738
15017WAT     H147153   4.682   3.510   1.813
15017WAT     H247154   4.782   3.440   1.723
15018WAT      O47155   4.952   3.416   1.702
15018WAT     H147156   5.014   3.448   1.635
15018WAT     H247157   5.007   3.368   1.764
15019WAT      O47158   5.594   5.006   1.442
15019WAT     H147159   5.545   5.046   1.370
15019WAT     H247160   5.533   4.944   1.482
15020WAT      O47161   4.004   3.284   1.713
15020WAT     H147162   4.059   3.266   1.637
15020WAT     H247163   4.011   3.205   1.767
15021WAT      O47164   4.082   4.943   1.514
15021WAT     H147165   4.022   4.930   1.588
15021WAT     H247166   4.081   4.860   1.467
15022WAT      O47167   5.026   3.272   1.334
15022WAT     H147168   4.939   3.306   1.314
15022WAT     H247169   5.015   3.225   1.417
15023WAT      O47170   5.117   3.493   1.473
15023WAT     H147171   5.084   3.412   1.435
15023WAT     H247172   5.212   3.489   1.460
15024WAT      O47173   5.362   5.070   1.170
15024WAT     H147174   5.316   5.145   1.133
15024WAT     H247175   5.299   4.998   1.164
15025WAT      O47176   4.045   4.680   1.409
15025WAT     H147177   3.972   4.618   1.402
15025WAT     H247178   4.051   4.719   1.322
15026WAT      O47179   4.405   4.901   1.088
15026WAT     H147180   4.457   4.840   1.035
15026WAT     H247181   4.470   4.951   1.137
15027WAT      O47182   4.679   4.990   1.170
15027WAT     H147183   4.708   4.965   1.083
15027WAT     H247184   4.730   4.935   1.229
15028WAT      O47185   4.801   3.364   1.228
15028WAT     H147186   4.723   3.412   1.256
15028WAT     H247187   4.772   3.274   1.217
15029WAT      O47188   5.256   3.434   1.033
15029WAT     H147189   5.300   3.429   0.948
15029WAT     H247190   5.229   3.526   1.040
15030WAT      O47191   5.443   3.398   0.834
15030WAT     H147192   5.437   3.303   0.819
15030WAT     H247193   5.521   3.408   0.888
15031WAT      O47194   3.873   5.011   0.730
15031WAT     H147195   3.856   4.948   0.800
15031WAT     H247196   3.787   5.032   0.695
15032WAT      O47197   3.935   3.395   0.480
15032WAT     H147198   4.011   3.406   0.423
15032WAT     H247199   3.889   3.478   0.476
15033WAT      O47200   4.590   3.606   0.779
15033WAT     H147201   4.508   3.569   0.745
15033WAT     H247202   4.640   3.530   0.810
15034WAT      O47203   5.040   3.272   0.903
15034WAT     H147204   5.100   3.330   0.951
15034WAT     H247205   4.966   3.329   0.881
15035WAT      O47206   5.354   3.313   0.431
15035WAT     H147207   5.374   3.403   0.457
15035WAT     H247208   5.275   3.290   0.480
15036WAT      O47209   4.034   4.881   0.474
15036WAT     H147210   3.981   4.919   0.404
15036WAT     H247211   4.026   4.943   0.547
15037WAT      O47212   4.173   3.447   0.334
15037WAT     H147213   4.226   3.369   0.321
15037WAT     H247214   4.236   3.515   0.358
15038WAT      O47215   4.392   3.421   0.640
15038WAT     H147216   4.329   3.351   0.656
15038WAT     H247217   4.338   3.497   0.618
15039WAT      O47218   4.686   5.082   1.907
15039WAT     H147219   4.779   5.059   1.911
15039WAT     H247220   4.684   5.165   1.859
15040WAT      O47221   5.509   5.037   0.607
15040WAT     H147222   5.527   4.968   0.542
15040WAT     H247223   5.440   5.089   0.567
15041WAT      O47224   4.405   3.349   1.883
15041WAT     H147225   4.376   3.399   1.807
15041WAT     H247226   4.443   3.269   1.847
15042WAT      O47227   4.294   5.076   0.362
15042WAT     H147228   4.367   5.047   0.307
15042WAT     H247229   4.320   5.052   0.451
15043WAT      O47230   4.210   4.687   0.362
15043WAT     H147231   4.147   4.734   0.417
15043WAT     H247232   4.221   4.603   0.406
15044WAT      O47233   5.065   3.290   1.941
15044WAT     H147234   5.053   3.322   2.031
15044WAT     H247235   5.146   3.331   1.911
15045WAT      O47236   5.343   5.005   1.889
15045WAT     H147237   5.422   4.956   1.869
15045WAT     H247238   5.372   5.073   1.950
15046WAT      O47239   4.955   2.215   6.487
15046WAT     H147240   4.947   2.123   6.460
15046WAT     H247241   4.914   2.265   6.417
15047WAT      O47242   4.769   2.393   6.675
15047WAT     H147243   4.691   2.345   6.704
15047WAT     H247244   4.834   2.325   6.658
15048WAT      O47245   4.170   2.424   6.763
15048WAT     H147246   4.087   2.398   6.803
15048WAT     H247247   4.231   2.431   6.837
15049WAT      O47248   5.171   2.833   6.553
15049WAT     H147249   5.124   2.756   6.586
15049WAT     H247250   5.252   2.836   6.604
15050WAT      O47251   4.168   2.827   6.783
15050WAT     H147252   4.198   2.738   6.765
15050WAT     H247253   4.243   2.883   6.760
15051WAT      O47254   4.011   1.920   6.141
15051WAT     H147255   3.922   1.954   6.131
15051WAT     H247256   4.040   1.900   6.052
15052WAT      O47257   3.807   2.180   6.730
15052WAT     H147258   3.865   2.103   6.730
15052WAT     H247259   3.807   2.210   6.639
15053WAT      O47260   4.793   3.062   6.515
15053WAT     H147261   4.731   3.107   6.458
15053WAT     H247262   4.879   3.077   6.475
15054WAT      O47263   4.713   2.660   6.676
15054WAT     H147264   4.706   2.566   6.660
15054WAT     H247265   4.789   2.669   6.733
15055WAT      O47266   3.932   1.721   6.909
15055WAT     H147267   3.914   1.631   6.937
15055WAT     H247268   3.892   1.776   6.976
15056WAT      O47269   4.816   1.941   6.699
15056WAT     H147270   4.853   1.854   6.687
15056WAT     H247271   4.806   1.975   6.610
15057WAT      O47272   4.229   1.778   6.245
15057WAT     H147273   4.239   1.868   6.276
15057WAT     H247274   4.138   1.773   6.216
15058WAT      O47275   5.194   1.690   6.392
15058WAT     H147276   5.276   1.641   6.396
15058WAT     H247277   5.197   1.749   6.467
15059WAT      O47278   3.994   1.970   6.769
15059WAT     H147279   4.062   1.997   6.831
15059WAT     H247280   3.962   1.886   6.803
15060WAT      O47281   4.413   2.075   6.678
15060WAT     H147282   4.464   2.125   6.742
15060WAT     H247283   4.466   1.997   6.661
15061WAT      O47284   5.623   1.892   7.048
15061WAT     H147285   5.552   1.931   6.997
15061WAT     H247286   5.650   1.962   7.109
15062WAT      O47287   4.241   1.539   7.105
15062WAT     H147288   4.241   1.591   7.024
15062WAT     H247289   4.158   1.491   7.102
15063WAT      O47290   4.880   2.550   6.255
15063WAT     H147291   4.818   2.597   6.198
15063WAT     H247292   4.931   2.620   6.296
15064WAT      O47293   4.366   2.503   6.922
15064WAT     H147294   4.333   2.566   6.987
15064WAT     H247295   4.384   2.556   6.845
15065WAT      O47296   5.218   1.884   6.669
15065WAT     H147297   5.147   1.913   6.727
15065WAT     H247298   5.254   1.965   6.633
15066WAT      O47299   4.209   1.710   6.905
15066WAT     H147300   4.243   1.795   6.876
15066WAT     H247301   4.115   1.725   6.917
15067WAT      O47302   4.287   2.700   7.104
15067WAT     H147303   4.349   2.767   7.076
15067WAT     H247304   4.201   2.741   7.095
15068WAT      O47305   3.817   2.619   5.992
15068WAT     H147306   3.779   2.668   5.919
15068WAT     H247307   3.842   2.686   6.055
15069WAT      O47308   5.379   2.846   6.896
15069WAT     H147309   5.311   2.913   6.895
15069WAT     H247310   5.433   2.866   6.819
15070WAT      O47311   5.524   1.829   6.708
15070WAT     H147312   5.430   1.832   6.721
15070WAT     H247313   5.557   1.910   6.747
15071WAT      O47314   4.578   1.459   6.538
15071WAT     H147315   4.608   1.403   6.466
15071WAT     H247316   4.485   1.472   6.520
15072WAT      O47317   5.133   3.031   6.767
15072WAT     H147318   5.134   2.990   6.680
15072WAT     H247319   5.078   3.108   6.757
15073WAT      O47320   5.262   2.703   6.276
15073WAT     H147321   5.251   2.609   6.288
15073WAT     H247322   5.262   2.739   6.365
15074WAT      O47323   5.073   2.521   6.900
15074WAT     H147324   5.114   2.500   6.816
15074WAT     H247325   5.145   2.547   6.957
15075WAT      O47326   4.816   2.265   6.212
15075WAT     H147327   4.724   2.259   6.234
15075WAT     H247328   4.832   2.359   6.200
15076WAT      O47329   4.815   1.893   5.911
15076WAT     H147330   4.721   1.909   5.920
15076WAT     H247331   4.847   1.965   5.857
15077WAT      O47332   5.467   2.361   6.909
15077WAT     H147333   5.384   2.368   6.861
15077WAT     H247334   5.527   2.419   6.862
15078WAT      O47335   5.219   2.422   6.262
15078WAT     H147336   5.158   2.388   6.197
15078WAT     H247337   5.218   2.357   6.333
15079WAT      O47338   5.164   2.040   7.004
15079WAT     H147339   5.122   2.122   7.029
15079WAT     H247340   5.090   1.981   6.984
15080WAT      O47341   4.377   2.318   6.490
15080WAT     H147342   4.337   2.247   6.440
15080WAT     H247343   4.386   2.284   6.579
15081WAT      O47344   4.424   2.687   6.706
15081WAT     H147345   4.394   2.626   6.638
15081WAT     H247346   4.519   2.691   6.695
15082WAT      O47347   4.248   1.996   6.868
15082WAT     H147348   4.303   2.007   6.790
15082WAT     H247349   4.300   2.033   6.939
15083WAT      O47350   5.233   3.044   7.072
15083WAT     H147351   5.185   3.125   7.053
15083WAT     H247352   5.164   2.979   7.088
15084WAT      O47353   4.333   2.661   7.371
15084WAT     H147354   4.243   2.683   7.396
15084WAT     H247355   4.336   2.673   7.276
15085WAT      O47356   5.037   2.346   5.963
15085WAT     H147357   5.081   2.262   5.948
15085WAT     H247358   5.108   2.409   5.971
15086WAT      O47359   4.216   2.348   7.229
15086WAT     H147360   4.202   2.435   7.266
15086WAT     H247361   4.128   2.313   7.214
15087WAT      O47362   4.848   2.840   6.359
15087WAT     H147363   4.892   2.914   6.318
15087WAT     H247364   4.842   2.864   6.452
15088WAT      O47365   4.395   2.942   7.450
15088WAT     H147366   4.393   2.982   7.363
15088WAT     H247367   4.379   2.849   7.433
15089WAT      O47368   5.395   1.471   5.794
15089WAT     H147369   5.364   1.480   5.884
15089WAT     H247370   5.471   1.529   5.789
15090WAT      O47371   4.047   2.208   6.240
15090WAT     H147372   4.035   2.280   6.179
15090WAT     H247373   4.016   2.131   6.192
15091WAT      O47374   3.811   2.525   6.820
15091WAT     H147375   3.819   2.538   6.726
15091WAT     H247376   3.872   2.454   6.840
15092WAT      O47377   3.935   2.695   6.462
15092WAT     H147378   3.895   2.709   6.376
15092WAT     H247379   4.024   2.666   6.441
15093WAT      O47380   5.531   2.739   7.295
15093WAT     H147381   5.544   2.715   7.203
15093WAT     H247382   5.535   2.656   7.342
15094WAT      O47383   4.917   3.110   7.152
15094WAT     H147384   4.969   3.101   7.232
15094WAT     H247385   4.833   3.144   7.181
15095WAT      O47386   5.115   3.138   6.095
15095WAT     H147387   5.099   3.109   6.185
15095WAT     H247388   5.098   3.061   6.041
15096WAT      O47389   4.363   3.116   6.273
15096WAT     H147390   4.345   3.025   6.251
15096WAT     H247391   4.277   3.152   6.297
15097WAT      O47392   5.085   2.889   5.951
15097WAT     H147393   5.016   2.889   5.885
15097WAT     H247394   5.159   2.847   5.908
15098WAT      O47395   5.041   3.052   6.358
15098WAT     H147396   5.087   2.974   6.390
15098WAT     H247397   5.075   3.123   6.413
15099WAT      O47398   5.516   1.945   7.392
15099WAT     H147399   5.455   1.995   7.339
15099WAT     H247400   5.484   1.855   7.386
15100WAT      O47401   3.816   2.629   7.074
15100WAT     H147402   3.833   2.582   6.993
15100WAT     H247403   3.863   2.578   7.141
15101WAT      O47404   4.294   1.542   6.578
15101WAT     H147405   4.249   1.620   6.545
15101WAT     H247406   4.350   1.574   6.649
15102WAT      O47407   4.722   1.829   7.138
15102WAT     H147408   4.676   1.849   7.220
15102WAT     H247409   4.682   1.747   7.108
15103WAT      O47410   5.222   1.951   7.251
15103WAT     H147411   5.137   1.921   7.283
15103WAT     H247412   5.206   1.975   7.160
15104WAT      O47413   4.932   2.101   7.461
15104WAT     H147414   4.964   2.017   7.427
15104WAT     H247415   5.011   2.153   7.476
15105WAT      O47416   4.605   1.504   6.066
15105WAT     H147417   4.543   1.504   6.139
15105WAT     H247418   4.597   1.417   6.026
15106WAT      O47419   4.497   1.596   6.764
15106WAT     H147420   4.527   1.687   6.756
15106WAT     H247421   4.552   1.548   6.702
15107WAT      O47422   4.273   2.054   6.351
15107WAT     H147423   4.250   2.033   6.441
15107WAT     H247424   4.195   2.098   6.316
15108WAT      O47425   4.996   2.055   6.211
15108WAT     H147426   4.936   2.127   6.192
15108WAT     H247427   5.051   2.049   6.132
15109WAT      O47428   4.517   2.144   7.417
15109WAT     H147429   4.507   2.050   7.402
15109WAT     H247430   4.601   2.166   7.378
15110WAT      O47431   4.856   1.919   6.414
15110WAT     H147432   4.896   1.950   6.332
15110WAT     H247433   4.893   1.831   6.425
15111WAT      O47434   4.030   1.785   7.233
15111WAT     H147435   3.991   1.870   7.253
15111WAT     H247436   3.961   1.722   7.252
15112WAT      O47437   3.760   1.578   6.636
15112WAT     H147438   3.731   1.635   6.707
15112WAT     H247439   3.835   1.530   6.672
15113WAT      O47440   3.779   1.972   5.757
15113WAT     H147441   3.771   2.066   5.771
15113WAT     H247442   3.744   1.957   5.669
15114WAT      O47443   4.915   2.178   6.823
15114WAT     H147444   4.842   2.228   6.858
15114WAT     H247445   4.875   2.096   6.793
15115WAT      O47446   4.559   1.845   6.664
15115WAT     H147447   4.559   1.801   6.579
15115WAT     H247448   4.648   1.877   6.675
15116WAT      O47449   4.144   1.833   6.560
15116WAT     H147450   4.110   1.881   6.635
15116WAT     H247451   4.068   1.788   6.524
15117WAT      O47452   4.565   1.945   5.963
15117WAT     H147453   4.577   1.941   6.058
15117WAT     H247454   4.526   2.031   5.947
15118WAT      O47455   4.961   1.723   6.764
15118WAT     H147456   4.963   1.768   6.849
15118WAT     H247457   4.936   1.633   6.786
15119WAT      O47458   4.466   2.176   5.903
15119WAT     H147459   4.409   2.131   5.840
15119WAT     H247460   4.537   2.212   5.849
15120WAT      O47461   5.304   1.464   7.348
15120WAT     H147462   5.336   1.391   7.401
15120WAT     H247463   5.308   1.432   7.258
15121WAT      O47464   3.974   2.566   7.290
15121WAT     H147465   3.935   2.502   7.350
15121WAT     H247466   4.005   2.637   7.347
15122WAT      O47467   4.589   2.251   6.838
15122WAT     H147468   4.626   2.204   6.913
15122WAT     H247469   4.570   2.339   6.873
15123WAT      O47470   3.875   1.726   6.451
15123WAT     H147471   3.847   1.689   6.535
15123WAT     H247472   3.869   1.652   6.390
15124WAT      O47473   4.368   2.155   7.070
15124WAT     H147474   4.337   2.243   7.093
15124WAT     H247475   4.463   2.161   7.074
15125WAT      O47476   4.221   2.576   6.130
15125WAT     H147477   4.143   2.522   6.114
15125WAT     H247478   4.294   2.524   6.096
15126WAT      O47479   5.297   2.476   6.709
15126WAT     H147480   5.369   2.525   6.670
15126WAT     H247481   5.276   2.408   6.645
15127WAT      O47482   4.843   1.615   6.124
15127WAT     H147483   4.761   1.565   6.116
15127WAT     H247484   4.823   1.699   6.082
15128WAT      O47485   4.835   2.483   7.298
15128WAT     H147486   4.828   2.391   7.272
15128WAT     H247487   4.772   2.492   7.369
15129WAT      O47488   5.114   2.052   5.953
15129WAT     H147489   5.203   2.083   5.936
15129WAT     H247490   5.111   1.965   5.914
15130WAT      O47491   4.225   2.543   6.494
15130WAT     H147492   4.277   2.462   6.488
15130WAT     H247493   4.180   2.536   6.578
15131WAT      O47494   4.714   2.669   6.021
15131WAT     H147495   4.748   2.744   5.971
15131WAT     H247496   4.631   2.701   6.057
15132WAT      O47497   3.973   2.239   7.185
15132WAT     H147498   3.938   2.306   7.244
15132WAT     H247499   3.944   2.156   7.222
15133WAT      O47500   4.294   2.285   7.473
15133WAT     H147501   4.264   2.300   7.384
15133WAT     H247502   4.371   2.229   7.464
15134WAT      O47503   4.828   2.765   7.273
15134WAT     H147504   4.829   2.672   7.251
15134WAT     H247505   4.757   2.773   7.337
15135WAT      O47506   5.341   2.183   5.900
15135WAT     H147507   5.333   2.226   5.815
15135WAT     H247508   5.413   2.229   5.943
15136WAT      O47509   5.449   2.429   7.208
15136WAT     H147510   5.376   2.488   7.188
15136WAT     H247511   5.502   2.428   7.128
15137WAT      O47512   5.444   2.869   6.173
15137WAT     H147513   5.380   2.803   6.200
15137WAT     H247514   5.405   2.909   6.095
15138WAT      O47515   5.002   2.601   6.557
15138WAT     H147516   5.037   2.542   6.491
15138WAT     H247517   4.914   2.569   6.575
15139WAT      O47518   4.611   2.677   6.298
15139WAT     H147519   4.679   2.732   6.336
15139WAT     H247520   4.532   2.732   6.302
15140WAT      O47521   3.825   2.239   5.847
15140WAT     H147522   3.911   2.267   5.876
15140WAT     H247523   3.775   2.321   5.836
15141WAT      O47524   4.541   2.378   6.259
15141WAT     H147525   4.587   2.459   6.282
15141WAT     H247526   4.506   2.346   6.343
15142WAT      O47527   4.771   2.929   6.982
15142WAT     H147528   4.836   2.950   7.050
15142WAT     H247529   4.808   2.853   6.937
15143WAT      O47530   4.131   1.412   6.307
15143WAT     H147531   4.118   1.411   6.402
15143WAT     H247532   4.049   1.446   6.272
15144WAT      O47533   4.899   2.729   6.854
15144WAT     H147534   4.963   2.659   6.865
15144WAT     H247535   4.951   2.807   6.836
15145WAT      O47536   5.283   2.758   5.827
15145WAT     H147537   5.260   2.686   5.886
15145WAT     H247538   5.244   2.733   5.743
15146WAT      O47539   5.076   2.809   7.174
15146WAT     H147540   5.109   2.868   7.242
15146WAT     H247541   4.984   2.796   7.197
15147WAT      O47542   3.861   3.160   5.904
15147WAT     H147543   3.897   3.220   5.839
15147WAT     H247544   3.847   3.215   5.981
15148WAT      O47545   3.831   1.588   7.253
15148WAT     H147546   3.760   1.608   7.313
15148WAT     H247547   3.873   1.511   7.290
15149WAT      O47548   5.241   2.550   5.993
15149WAT     H147549   5.212   2.596   6.071
15149WAT     H247550   5.321   2.503   6.019
15150WAT      O47551   3.860   2.987   7.351
15150WAT     H147552   3.871   2.893   7.337
15150WAT     H247553   3.794   3.014   7.287
15151WAT      O47554   4.463   2.899   5.986
15151WAT     H147555   4.462   2.972   5.924
15151WAT     H247556   4.371   2.874   5.995
15152WAT      O47557   4.023   2.421   6.060
15152WAT     H147558   3.962   2.495   6.061
15152WAT     H247559   4.071   2.430   5.978
15153WAT      O47560   4.980   1.837   7.028
15153WAT     H147561   5.017   1.755   7.061
15153WAT     H247562   4.894   1.843   7.069
15154WAT      O47563   5.317   1.733   6.109
15154WAT     H147564   5.254   1.743   6.037
15154WAT     H247565   5.267   1.755   6.188
15155WAT      O47566   4.762   2.905   5.852
15155WAT     H147567   4.772   2.885   5.759
15155WAT     H247568   4.672   2.880   5.872
15156WAT      O47569   4.514   1.961   6.250
15156WAT     H147570   4.443   2.008   6.294
15156WAT     H247571   4.542   1.895   6.314
15157WAT      O47572   4.676   2.103   7.050
15157WAT     H147573   4.726   2.150   7.117
15157WAT     H247574   4.691   2.010   7.071
15158WAT      O47575   4.917   1.633   6.394
15158WAT     H147576   4.905   1.635   6.299
15158WAT     H247577   5.012   1.638   6.406
15159WAT      O47578   4.626   3.157   6.321
15159WAT     H147579   4.651   3.153   6.229
15159WAT     H247580   4.531   3.144   6.321
15160WAT      O47581   4.334   1.792   5.988
15160WAT     H147582   4.419   1.835   5.981
15160WAT     H247583   4.297   1.823   6.070
15161WAT      O47584   5.397   1.724   7.134
15161WAT     H147585   5.347   1.799   7.168
15161WAT     H247586   5.479   1.763   7.103
15162WAT      O47587   5.226   2.249   6.479
15162WAT     H147588   5.132   2.250   6.496
15162WAT     H247589   5.258   2.170   6.524
15163WAT      O47590   4.224   2.417   5.835
15163WAT     H147591   4.301   2.406   5.891
15163WAT     H247592   4.232   2.347   5.770
15164WAT      O47593   4.094   2.160   5.903
15164WAT     H147594   4.102   2.066   5.915
15164WAT     H247595   4.183   2.193   5.914
15165WAT      O47596   5.427   2.966   6.647
15165WAT     H147597   5.439   3.048   6.694
15165WAT     H247598   5.513   2.945   6.612
15166WAT      O47599   4.174   3.175   6.614
15166WAT     H147600   4.247   3.120   6.641
15166WAT     H247601   4.212   3.262   6.600
15167WAT      O47602   3.862   2.782   6.201
15167WAT     H147603   3.770   2.806   6.200
15167WAT     H247604   3.909   2.865   6.189
15168WAT      O47605   4.485   3.093   5.796
15168WAT     H147606   4.564   3.121   5.751
15168WAT     H247607   4.433   3.049   5.728
15169WAT      O47608   5.101   3.077   7.388
15169WAT     H147609   5.196   3.069   7.383
15169WAT     H247610   5.086   3.144   7.456
15170WAT      O47611   5.390   3.015   5.938
15170WAT     H147612   5.361   2.974   5.857
15170WAT     H247613   5.370   3.108   5.926
15171WAT      O47614   3.846   2.342   7.427
15171WAT     H147615   3.897   2.284   7.484
15171WAT     H247616   3.772   2.371   7.481
15172WAT      O47617   4.536   2.615   5.782
15172WAT     H147618   4.526   2.553   5.855
15172WAT     H247619   4.520   2.562   5.704
15173WAT      O47620   4.552   2.483   7.380
15173WAT     H147621   4.475   2.540   7.372
15173WAT     H247622   4.570   2.454   7.291
15174WAT      O47623   4.861   2.521   5.843
15174WAT     H147624   4.806   2.565   5.907
15174WAT     H247625   4.923   2.470   5.895
15175WAT      O47626   5.266   2.656   7.436
15175WAT     H147627   5.340   2.690   7.386
15175WAT     H247628   5.190   2.673   7.381
15176WAT      O47629   4.427   2.417   6.032
15176WAT     H147630   4.469   2.400   6.117
15176WAT     H247631   4.440   2.336   5.983
15177WAT      O47632   4.244   2.015   7.313
15177WAT     H147633   4.190   1.966   7.250
15177WAT     H247634   4.310   2.057   7.260
15178WAT      O47635   4.679   2.319   5.757
15178WAT     H147636   4.731   2.248   5.721
15178WAT     H247637   4.743   2.383   5.787
15179WAT      O47638   5.133   2.461   7.290
15179WAT     H147639   5.175   2.477   7.375
15179WAT     H247640   5.040   2.474   7.306
15180WAT      O47641   5.181   2.195   7.490
15180WAT     H147642   5.239   2.120   7.481
15180WAT     H247643   5.198   2.248   7.412
15181WAT      O47644   4.292   1.711   7.321
15181WAT     H147645   4.283   1.649   7.249
15181WAT     H247646   4.234   1.784   7.298
15182WAT      O47647   4.569   1.567   7.024
15182WAT     H147648   4.524   1.569   6.940
15182WAT     H247649   4.506   1.527   7.084
15183WAT      O47650   4.609   2.457   7.087
15183WAT     H147651   4.651   2.541   7.069
15183WAT     H247652   4.518   2.470   7.064
15184WAT      O47653   4.843   2.230   7.225
15184WAT     H147654   4.855   2.170   7.299
15184WAT     H247655   4.929   2.233   7.183
15185WAT      O47656   5.077   2.285   7.083
15185WAT     H147657   5.024   2.337   7.022
15185WAT     H247658   5.111   2.348   7.146
15186WAT      O47659   4.317   2.024   5.727
15186WAT     H147660   4.297   1.938   5.763
15186WAT     H247661   4.300   2.015   5.633
15187WAT      O47662   4.395   3.087   7.198
15187WAT     H147663   4.341   3.160   7.166
15187WAT     H247664   4.420   3.039   7.119
15188WAT      O47665   4.520   1.884   7.351
15188WAT     H147666   4.579   1.853   7.419
15188WAT     H247667   4.438   1.837   7.366
15189WAT      O47668   5.002   1.846   7.374
15189WAT     H147669   4.933   1.779   7.368
15189WAT     H247670   5.074   1.801   7.419
15190WAT      O47671   5.065   1.505   5.980
15190WAT     H147672   5.093   1.421   6.016
15190WAT     H247673   4.987   1.528   6.031
15191WAT      O47674   4.197   1.734   5.726
15191WAT     H147675   4.227   1.735   5.635
15191WAT     H247676   4.271   1.699   5.776
15192WAT      O47677   4.680   3.211   7.224
15192WAT     H147678   4.673   3.301   7.255
15192WAT     H247679   4.590   3.179   7.221
15193WAT      O47680   4.519   1.628   5.824
15193WAT     H147681   4.484   1.561   5.766
15193WAT     H247682   4.539   1.582   5.906
15194WAT      O47683   4.735   3.127   5.986
15194WAT     H147684   4.825   3.161   5.988
15194WAT     H247685   4.738   3.055   5.924
15195WAT      O47686   4.099   2.664   5.809
15195WAT     H147687   4.143   2.719   5.875
15195WAT     H247688   4.147   2.582   5.810
15196WAT      O47689   3.820   2.943   6.554
15196WAT     H147690   3.853   2.857   6.531
15196WAT     H247691   3.863   2.964   6.637
15197WAT      O47692   4.280   2.776   6.320
15197WAT     H147693   4.250   2.764   6.410
15197WAT     H247694   4.269   2.691   6.280
15198WAT      O47695   3.869   3.030   6.828
15198WAT     H147696   3.826   3.048   6.911
15198WAT     H247697   3.926   3.106   6.814
15199WAT      O47698   5.433   2.980   7.257
15199WAT     H147699   5.373   2.986   7.183
15199WAT     H247700   5.446   2.886   7.270
15200WAT      O47701   5.557   2.754   5.791
15200WAT     H147702   5.474   2.761   5.838
15200WAT     H247703   5.575   2.843   5.760
15201WAT      O47704   5.503   2.429   6.041
15201WAT     H147705   5.579   2.486   6.052
15201WAT     H247706   5.504   2.372   6.118
15202WAT      O47707   3.853   2.281   6.464
15202WAT     H147708   3.787   2.254   6.400
15202WAT     H247709   3.936   2.270   6.419
15203WAT      O47710   5.603   2.514   6.525
15203WAT     H147711   5.640   2.436   6.485
15203WAT     H247712   5.667   2.583   6.508
15204WAT      O47713   5.301   2.653   7.067
15204WAT     H147714   5.220   2.696   7.093
15204WAT     H247715   5.342   2.714   7.005
15205WAT      O47716   5.508   2.458   5.757
15205WAT     H147717   5.535   2.549   5.744
15205WAT     H247718   5.489   2.452   5.850
15206WAT      O47719   5.147   1.761   5.886
15206WAT     H147720   5.189   1.742   5.802
15206WAT     H247721   5.117   1.675   5.917
15207WAT      O47722   5.497   2.252   6.256
15207WAT     H147723   5.460   2.175   6.213
15207WAT     H247724   5.424   2.290   6.305
15208WAT      O47725   3.956   2.320   6.918
15208WAT     H147726   3.993   2.311   7.006
15208WAT     H247727   3.899   2.243   6.908
15209WAT      O47728   5.436   2.167   7.219
15209WAT     H147729   5.413   2.144   7.129
15209WAT     H247730   5.462   2.259   7.215
15210WAT      O47731   3.911   2.011   7.309
15210WAT     H147732   3.822   2.008   7.343
15210WAT     H247733   3.965   2.031   7.385
15211WAT      O47734   3.774   2.002   6.058
15211WAT     H147735   3.684   2.029   6.041
15211WAT     H247736   3.822   2.029   5.980
15212WAT      O47737   5.425   2.074   6.586
15212WAT     H147738   5.477   2.025   6.523
15212WAT     H247739   5.483   2.088   6.661
15213WAT      O47740   5.443   2.083   6.938
15213WAT     H147741   5.348   2.079   6.950
15213WAT     H247742   5.461   2.174   6.915
15214WAT      O47743   4.028   1.908   5.849
15214WAT     H147744   4.099   1.866   5.801
15214WAT     H247745   3.957   1.915   5.786
15215WAT      O47746   3.993   1.513   5.753
15215WAT     H147747   4.065   1.567   5.785
15215WAT     H247748   4.020   1.486   5.666
15216WAT      O47749   5.374   2.000   6.180
15216WAT     H147750   5.423   1.977   6.258
15216WAT     H247751   5.354   1.916   6.138
15217WAT      O47752   3.962   1.438   6.743
15217WAT     H147753   4.027   1.383   6.699
15217WAT     H247754   4.004   1.464   6.826
15218WAT      O47755   5.517   1.864   6.433
15218WAT     H147756   5.506   1.848   6.527
15218WAT     H247757   5.593   1.811   6.409
15219WAT      O47758   5.351   1.458   7.079
15219WAT     H147759   5.415   1.519   7.116
15219WAT     H247760   5.366   1.461   6.985
15220WAT      O47761   5.606   1.647   5.757
15220WAT     H147762   5.698   1.634   5.737
15220WAT     H247763   5.603   1.655   5.853
15221WAT      O47764   5.613   1.724   6.020
15221WAT     H147765   5.534   1.717   6.073
15221WAT     H247766   5.633   1.818   6.019
15222WAT      O47767   5.307   3.128   6.419
15222WAT     H147768   5.367   3.096   6.352
15222WAT     H247769   5.333   3.081   6.499
15223WAT      O47770   3.937   1.454   7.018
15223WAT     H147771   3.902   1.500   7.094
15223WAT     H247772   3.904   1.364   7.026
15224WAT      O47773   4.468   2.927   6.994
15224WAT     H147774   4.444   2.953   6.906
15224WAT     H247775   4.562   2.944   7.000
15225WAT      O47776   4.688   1.573   7.370
15225WAT     H147777   4.682   1.632   7.445
15225WAT     H247778   4.782   1.562   7.355
15226WAT      O47779   4.952   1.539   7.334
15226WAT     H147780   5.014   1.571   7.268
15226WAT     H247781   5.007   1.490   7.396
15227WAT      O47782   5.594   3.129   7.074
15227WAT     H147783   5.545   3.168   7.003
15227WAT     H247784   5.533   3.066   7.114
15228WAT      O47785   4.004   1.407   7.345
15228WAT     H147786   4.059   1.389   7.269
15228WAT     H247787   4.011   1.328   7.399
15229WAT      O47788   4.082   3.066   7.146
15229WAT     H147789   4.022   3.053   7.220
15229WAT     H247790   4.081   2.982   7.100
15230WAT      O47791   5.026   1.395   6.967
15230WAT     H147792   4.939   1.428   6.946
15230WAT     H247793   5.015   1.348   7.049
15231WAT      O47794   5.117   1.616   7.105
15231WAT     H147795   5.084   1.534   7.067
15231WAT     H247796   5.212   1.611   7.093
15232WAT      O47797   5.362   3.193   6.802
15232WAT     H147798   5.316   3.268   6.765
15232WAT     H247799   5.299   3.121   6.796
15233WAT      O47800   4.045   2.802   7.041
15233WAT     H147801   3.972   2.740   7.035
15233WAT     H247802   4.051   2.842   6.954
15234WAT      O47803   4.405   3.024   6.720
15234WAT     H147804   4.457   2.963   6.667
15234WAT     H247805   4.470   3.074   6.769
15235WAT      O47806   4.679   3.113   6.803
15235WAT     H147807   4.708   3.087   6.715
15235WAT     H247808   4.730   3.058   6.862
15236WAT      O47809   4.801   1.487   6.860
15236WAT     H147810   4.723   1.534   6.888
15236WAT     H247811   4.772   1.396   6.850
15237WAT      O47812   5.256   1.557   6.665
15237WAT     H147813   5.300   1.551   6.580
15237WAT     H247814   5.229   1.649   6.672
15238WAT      O47815   5.443   1.520   6.466
15238WAT     H147816   5.437   1.426   6.451
15238WAT     H247817   5.521   1.531   6.521
15239WAT      O47818   3.873   3.134   6.362
15239WAT     H147819   3.856   3.071   6.432
15239WAT     H247820   3.787   3.155   6.327
15240WAT      O47821   3.935   1.517   6.113
15240WAT     H147822   4.011   1.528   6.055
15240WAT     H247823   3.889   1.601   6.108
15241WAT      O47824   4.590   1.729   6.412
15241WAT     H147825   4.508   1.691   6.378
15241WAT     H247826   4.640   1.653   6.442
15242WAT      O47827   5.040   1.395   6.535
15242WAT     H147828   5.100   1.452   6.583
15242WAT     H247829   4.966   1.451   6.513
15243WAT      O47830   5.354   1.435   6.063
15243WAT     H147831   5.374   1.525   6.090
15243WAT     H247832   5.275   1.412   6.112
15244WAT      O47833   4.034   3.003   6.107
15244WAT     H147834   3.981   3.041   6.036
15244WAT     H247835   4.026   3.066   6.179
15245WAT      O47836   4.173   1.570   5.967
15245WAT     H147837   4.226   1.491   5.954
15245WAT     H247838   4.236   1.638   5.990
15246WAT      O47839   4.392   1.544   6.272
15246WAT     H147840   4.329   1.473   6.289
15246WAT     H247841   4.338   1.620   6.250
15247WAT      O47842   5.509   3.159   6.239
15247WAT     H147843   5.527   3.091   6.175
15247WAT     H247844   5.440   3.212   6.200
15248WAT      O47845   4.294   3.198   5.994
15248WAT     H147846   4.367   3.170   5.940
15248WAT     H247847   4.320   3.174   6.083
15249WAT      O47848   4.210   2.810   5.995
15249WAT     H147849   4.147   2.857   6.050
15249WAT     H247850   4.221   2.725   6.038
15250WAT      O47851   4.955   2.215   4.610
15250WAT     H147852   4.947   2.123   4.583
15250WAT     H247853   4.914   2.265   4.539
15251WAT      O47854   4.769   2.393   4.798
15251WAT     H147855   4.691   2.345   4.827
15251WAT     H247856   4.834   2.325   4.780
15252WAT      O47857   4.170   2.424   4.886
15252WAT     H147858   4.087   2.398   4.926
15252WAT     H247859   4.231   2.431   4.959
15253WAT      O47860   5.171   2.833   4.676
15253WAT     H147861   5.124   2.756   4.709
15253WAT     H247862   5.252   2.836   4.726
15254WAT      O47863   4.168   2.827   4.905
15254WAT     H147864   4.198   2.738   4.887
15254WAT     H247865   4.243   2.883   4.882
15255WAT      O47866   4.011   1.920   4.264
15255WAT     H147867   3.922   1.954   4.254
15255WAT     H247868   4.040   1.900   4.175
15256WAT      O47869   3.807   2.180   4.852
15256WAT     H147870   3.865   2.103   4.852
15256WAT     H247871   3.807   2.210   4.762
15257WAT      O47872   4.793   3.062   4.638
15257WAT     H147873   4.731   3.107   4.581
15257WAT     H247874   4.879   3.077   4.598
15258WAT      O47875   4.713   2.660   4.799
15258WAT     H147876   4.706   2.566   4.782
15258WAT     H247877   4.789   2.669   4.856
15259WAT      O47878   3.932   1.721   5.031
15259WAT     H147879   3.914   1.631   5.059
15259WAT     H247880   3.892   1.776   5.099
15260WAT      O47881   4.816   1.941   4.821
15260WAT     H147882   4.853   1.854   4.810
15260WAT     H247883   4.806   1.975   4.732
15261WAT      O47884   4.229   1.778   4.367
15261WAT     H147885   4.239   1.868   4.398
15261WAT     H247886   4.138   1.773   4.338
15262WAT      O47887   5.194   1.690   4.515
15262WAT     H147888   5.276   1.641   4.519
15262WAT     H247889   5.197   1.749   4.590
15263WAT      O47890   3.994   1.970   4.892
15263WAT     H147891   4.062   1.997   4.954
15263WAT     H247892   3.962   1.886   4.925
15264WAT      O47893   4.413   2.075   4.801
15264WAT     H147894   4.464   2.125   4.865
15264WAT     H247895   4.466   1.997   4.783
15265WAT      O47896   5.623   1.892   5.171
15265WAT     H147897   5.552   1.931   5.119
15265WAT     H247898   5.650   1.962   5.231
15266WAT      O47899   4.241   1.539   5.227
15266WAT     H147900   4.241   1.591   5.147
15266WAT     H247901   4.158   1.491   5.225
15267WAT      O47902   4.880   2.550   4.377
15267WAT     H147903   4.818   2.597   4.321
15267WAT     H247904   4.931   2.620   4.419
15268WAT      O47905   4.366   2.503   5.045
15268WAT     H147906   4.333   2.566   5.109
15268WAT     H247907   4.384   2.556   4.967
15269WAT      O47908   5.218   1.884   4.792
15269WAT     H147909   5.147   1.913   4.850
15269WAT     H247910   5.254   1.965   4.756
15270WAT      O47911   4.209   1.710   5.028
15270WAT     H147912   4.243   1.795   4.999
15270WAT     H247913   4.115   1.725   5.040
15271WAT      O47914   4.287   2.700   5.227
15271WAT     H147915   4.349   2.767   5.198
15271WAT     H247916   4.201   2.741   5.217
15272WAT      O47917   3.817   2.619   4.115
15272WAT     H147918   3.779   2.668   4.041
15272WAT     H247919   3.842   2.686   4.178
15273WAT      O47920   5.379   2.846   5.018
15273WAT     H147921   5.311   2.913   5.017
15273WAT     H247922   5.433   2.866   4.942
15274WAT      O47923   5.524   1.829   4.831
15274WAT     H147924   5.430   1.832   4.844
15274WAT     H247925   5.557   1.910   4.869
15275WAT      O47926   4.578   1.459   4.660
15275WAT     H147927   4.608   1.403   4.589
15275WAT     H247928   4.485   1.472   4.642
15276WAT      O47929   5.133   3.031   4.890
15276WAT     H147930   5.134   2.990   4.803
15276WAT     H247931   5.078   3.108   4.879
15277WAT      O47932   5.262   2.703   4.398
15277WAT     H147933   5.251   2.609   4.411
15277WAT     H247934   5.262   2.739   4.487
15278WAT      O47935   5.073   2.521   5.022
15278WAT     H147936   5.114   2.500   4.939
15278WAT     H247937   5.145   2.547   5.079
15279WAT      O47938   4.816   2.265   4.334
15279WAT     H147939   4.724   2.259   4.357
15279WAT     H247940   4.832   2.359   4.323
15280WAT      O47941   4.815   1.893   4.034
15280WAT     H147942   4.721   1.909   4.042
15280WAT     H247943   4.847   1.965   3.979
15281WAT      O47944   5.467   2.361   5.032
15281WAT     H147945   5.384   2.368   4.984
15281WAT     H247946   5.527   2.419   4.985
15282WAT      O47947   5.219   2.422   4.384
15282WAT     H147948   5.158   2.388   4.320
15282WAT     H247949   5.218   2.357   4.455
15283WAT      O47950   5.164   2.040   5.126
15283WAT     H147951   5.122   2.122   5.151
15283WAT     H247952   5.090   1.981   5.107
15284WAT      O47953   4.377   2.318   4.612
15284WAT     H147954   4.337   2.247   4.563
15284WAT     H247955   4.386   2.284   4.701
15285WAT      O47956   4.424   2.687   4.829
15285WAT     H147957   4.394   2.626   4.761
15285WAT     H247958   4.519   2.691   4.818
15286WAT      O47959   4.248   1.996   4.990
15286WAT     H147960   4.303   2.007   4.913
15286WAT     H247961   4.300   2.033   5.062
15287WAT      O47962   5.233   3.044   5.195
15287WAT     H147963   5.185   3.125   5.176
15287WAT     H247964   5.164   2.979   5.210
15288WAT      O47965   4.333   2.661   5.494
15288WAT     H147966   4.243   2.683   5.518
15288WAT     H247967   4.336   2.673   5.399
15289WAT      O47968   5.037   2.346   4.085
15289WAT     H147969   5.081   2.262   4.071
15289WAT     H247970   5.108   2.409   4.094
15290WAT      O47971   4.216   2.348   5.351
15290WAT     H147972   4.202   2.435   5.388
15290WAT     H247973   4.128   2.313   5.337
15291WAT      O47974   4.848   2.840   4.482
15291WAT     H147975   4.892   2.914   4.441
15291WAT     H247976   4.842   2.864   4.574
15292WAT      O47977   4.395   2.942   5.572
15292WAT     H147978   4.393   2.982   5.485
15292WAT     H247979   4.379   2.849   5.556
15293WAT      O47980   5.395   1.471   3.917
15293WAT     H147981   5.364   1.480   4.007
15293WAT     H247982   5.471   1.529   3.912
15294WAT      O47983   4.047   2.208   4.362
15294WAT     H147984   4.035   2.280   4.301
15294WAT     H247985   4.016   2.131   4.315
15295WAT      O47986   5.591   3.020   5.702
15295WAT     H147987   5.638   3.068   5.770
15295WAT     H247988   5.653   3.013   5.629
15296WAT      O47989   3.811   2.525   4.943
15296WAT     H147990   3.819   2.538   4.849
15296WAT     H247991   3.872   2.454   4.962
15297WAT      O47992   3.935   2.695   4.584
15297WAT     H147993   3.895   2.709   4.499
15297WAT     H247994   4.024   2.666   4.564
15298WAT      O47995   5.531   2.739   5.418
15298WAT     H147996   5.544   2.715   5.326
15298WAT     H247997   5.535   2.656   5.465
15299WAT      O47998   4.917   3.110   5.275
15299WAT     H147999   4.969   3.101   5.355
15299WAT     H248000   4.833   3.144   5.304
15300WAT      O48001   5.115   3.138   4.218
15300WAT     H148002   5.099   3.109   4.307
15300WAT     H248003   5.098   3.061   4.164
15301WAT      O48004   4.363   3.116   4.395
15301WAT     H148005   4.345   3.025   4.374
15301WAT     H248006   4.277   3.152   4.419
15302WAT      O48007   5.085   2.889   4.074
15302WAT     H148008   5.016   2.889   4.008
15302WAT     H248009   5.159   2.847   4.031
15303WAT      O48010   5.041   3.052   4.481
15303WAT     H148011   5.087   2.974   4.512
15303WAT     H248012   5.075   3.123   4.535
15304WAT      O48013   5.516   1.945   5.514
15304WAT     H148014   5.455   1.995   5.461
15304WAT     H248015   5.484   1.855   5.509
15305WAT      O48016   3.816   2.629   5.197
15305WAT     H148017   3.833   2.582   5.115
15305WAT     H248018   3.863   2.578   5.263
15306WAT      O48019   4.294   1.542   4.701
15306WAT     H148020   4.249   1.620   4.667
15306WAT     H248021   4.350   1.574   4.771
15307WAT      O48022   4.722   1.829   5.261
15307WAT     H148023   4.676   1.849   5.342
15307WAT     H248024   4.682   1.747   5.231
15308WAT      O48025   5.222   1.951   5.374
15308WAT     H148026   5.137   1.921   5.406
15308WAT     H248027   5.206   1.975   5.283
15309WAT      O48028   4.932   2.101   5.584
15309WAT     H148029   4.964   2.017   5.550
15309WAT     H248030   5.011   2.153   5.599
15310WAT      O48031   4.605   1.504   4.189
15310WAT     H148032   4.543   1.504   4.261
15310WAT     H248033   4.597   1.417   4.149
15311WAT      O48034   4.497   1.596   4.886
15311WAT     H148035   4.527   1.687   4.878
15311WAT     H248036   4.552   1.548   4.825
15312WAT      O48037   4.273   2.054   4.473
15312WAT     H148038   4.250   2.033   4.564
15312WAT     H248039   4.195   2.098   4.439
15313WAT      O48040   4.996   2.055   4.333
15313WAT     H148041   4.936   2.127   4.315
15313WAT     H248042   5.051   2.049   4.255
15314WAT      O48043   4.517   2.144   5.540
15314WAT     H148044   4.507   2.050   5.525
15314WAT     H248045   4.601   2.166   5.500
15315WAT      O48046   4.856   1.919   4.536
15315WAT     H148047   4.896   1.950   4.455
15315WAT     H248048   4.893   1.831   4.548
15316WAT      O48049   4.030   1.785   5.355
15316WAT     H148050   3.991   1.870   5.376
15316WAT     H248051   3.961   1.722   5.374
15317WAT      O48052   4.687   1.794   5.662
15317WAT     H148053   4.618   1.774   5.726
15317WAT     H248054   4.762   1.822   5.716
15318WAT      O48055   3.760   1.578   4.759
15318WAT     H148056   3.731   1.635   4.830
15318WAT     H248057   3.835   1.530   4.795
15319WAT      O48058   3.779   1.972   3.880
15319WAT     H148059   3.771   2.066   3.894
15319WAT     H248060   3.744   1.957   3.792
15320WAT      O48061   4.915   2.178   4.946
15320WAT     H148062   4.842   2.228   4.981
15320WAT     H248063   4.875   2.096   4.916
15321WAT      O48064   4.559   1.845   4.786
15321WAT     H148065   4.559   1.801   4.701
15321WAT     H248066   4.648   1.877   4.797
15322WAT      O48067   4.144   1.833   4.682
15322WAT     H148068   4.110   1.881   4.758
15322WAT     H248069   4.068   1.788   4.646
15323WAT      O48070   4.565   1.945   4.085
15323WAT     H148071   4.577   1.941   4.180
15323WAT     H248072   4.526   2.031   4.070
15324WAT      O48073   4.961   1.723   4.887
15324WAT     H148074   4.963   1.768   4.971
15324WAT     H248075   4.936   1.633   4.908
15325WAT      O48076   4.466   2.176   4.025
15325WAT     H148077   4.409   2.131   3.963
15325WAT     H248078   4.537   2.212   3.972
15326WAT      O48079   5.304   1.464   5.471
15326WAT     H148080   5.336   1.391   5.524
15326WAT     H248081   5.308   1.432   5.381
15327WAT      O48082   3.974   2.566   5.413
15327WAT     H148083   3.935   2.502   5.473
15327WAT     H248084   4.005   2.637   5.470
15328WAT      O48085   4.589   2.251   4.961
15328WAT     H148086   4.626   2.204   5.036
15328WAT     H248087   4.570   2.339   4.995
15329WAT      O48088   3.875   1.726   4.574
15329WAT     H148089   3.847   1.689   4.658
15329WAT     H248090   3.869   1.652   4.513
15330WAT      O48091   4.368   2.155   5.193
15330WAT     H148092   4.337   2.243   5.215
15330WAT     H248093   4.463   2.161   5.196
15331WAT      O48094   4.221   2.576   4.253
15331WAT     H148095   4.143   2.522   4.237
15331WAT     H248096   4.294   2.524   4.219
15332WAT      O48097   5.297   2.476   4.832
15332WAT     H148098   5.369   2.525   4.793
15332WAT     H248099   5.276   2.408   4.767
15333WAT      O48100   4.843   1.615   4.246
15333WAT     H148101   4.761   1.565   4.239
15333WAT     H248102   4.823   1.699   4.204
15334WAT      O48103   4.835   2.483   5.420
15334WAT     H148104   4.828   2.391   5.395
15334WAT     H248105   4.772   2.492   5.492
15335WAT      O48106   5.114   2.052   4.076
15335WAT     H148107   5.203   2.083   4.058
15335WAT     H248108   5.111   1.965   4.037
15336WAT      O48109   4.225   2.543   4.616
15336WAT     H148110   4.277   2.462   4.611
15336WAT     H248111   4.180   2.536   4.700
15337WAT      O48112   4.714   2.669   4.144
15337WAT     H148113   4.748   2.744   4.094
15337WAT     H248114   4.631   2.701   4.180
15338WAT      O48115   3.973   2.239   5.308
15338WAT     H148116   3.938   2.306   5.366
15338WAT     H248117   3.944   2.156   5.345
15339WAT      O48118   4.294   2.285   5.596
15339WAT     H148119   4.264   2.300   5.506
15339WAT     H248120   4.371   2.229   5.587
15340WAT      O48121   4.828   2.765   5.396
15340WAT     H148122   4.829   2.672   5.374
15340WAT     H248123   4.757   2.773   5.459
15341WAT      O48124   5.341   2.183   4.022
15341WAT     H148125   5.333   2.226   3.937
15341WAT     H248126   5.413   2.229   4.066
15342WAT      O48127   5.449   2.429   5.330
15342WAT     H148128   5.376   2.488   5.310
15342WAT     H248129   5.502   2.428   5.250
15343WAT      O48130   5.444   2.869   4.295
15343WAT     H148131   5.380   2.803   4.323
15343WAT     H248132   5.405   2.909   4.218
15344WAT      O48133   5.002   2.601   4.680
15344WAT     H148134   5.037   2.542   4.614
15344WAT     H248135   4.914   2.569   4.697
15345WAT      O48136   4.611   2.677   4.421
15345WAT     H148137   4.679   2.732   4.459
15345WAT     H248138   4.532   2.732   4.424
15346WAT      O48139   3.825   2.239   3.970
15346WAT     H148140   3.911   2.267   3.998
15346WAT     H248141   3.775   2.321   3.958
15347WAT      O48142   4.541   2.378   4.382
15347WAT     H148143   4.587   2.459   4.405
15347WAT     H248144   4.506   2.346   4.465
15348WAT      O48145   4.771   2.929   5.105
15348WAT     H148146   4.836   2.950   5.173
15348WAT     H248147   4.808   2.853   5.060
15349WAT      O48148   4.131   1.412   4.429
15349WAT     H148149   4.118   1.411   4.524
15349WAT     H248150   4.049   1.446   4.394
15350WAT      O48151   4.899   2.729   4.977
15350WAT     H148152   4.963   2.659   4.988
15350WAT     H248153   4.951   2.807   4.959
15351WAT      O48154   5.283   2.758   3.949
15351WAT     H148155   5.260   2.686   4.008
15351WAT     H248156   5.244   2.733   3.865
15352WAT      O48157   5.076   2.809   5.297
15352WAT     H148158   5.109   2.868   5.365
15352WAT     H248159   4.984   2.796   5.320
15353WAT      O48160   3.861   3.160   4.027
15353WAT     H148161   3.897   3.220   3.961
15353WAT     H248162   3.847   3.215   4.104
15354WAT      O48163   3.831   1.588   5.375
15354WAT     H148164   3.760   1.608   5.436
15354WAT     H248165   3.873   1.511   5.412
15355WAT      O48166   5.241   2.550   4.115
15355WAT     H148167   5.212   2.596   4.194
15355WAT     H248168   5.321   2.503   4.142
15356WAT      O48169   3.860   2.987   5.474
15356WAT     H148170   3.871   2.893   5.460
15356WAT     H248171   3.794   3.014   5.409
15357WAT      O48172   4.659   2.814   5.614
15357WAT     H148173   4.627   2.742   5.668
15357WAT     H248174   4.591   2.882   5.621
15358WAT      O48175   4.463   2.899   4.108
15358WAT     H148176   4.462   2.972   4.047
15358WAT     H248177   4.371   2.874   4.118
15359WAT      O48178   4.023   2.421   4.183
15359WAT     H148179   3.962   2.495   4.184
15359WAT     H248180   4.071   2.430   4.100
15360WAT      O48181   4.980   1.837   5.150
15360WAT     H148182   5.017   1.755   5.183
15360WAT     H248183   4.894   1.843   5.192
15361WAT      O48184   5.317   1.733   4.231
15361WAT     H148185   5.254   1.743   4.160
15361WAT     H248186   5.267   1.755   4.310
15362WAT      O48187   4.762   2.905   3.975
15362WAT     H148188   4.772   2.885   3.882
15362WAT     H248189   4.672   2.880   3.995
15363WAT      O48190   4.514   1.961   4.373
15363WAT     H148191   4.443   2.008   4.417
15363WAT     H248192   4.542   1.895   4.436
15364WAT      O48193   4.676   2.103   5.173
15364WAT     H148194   4.726   2.150   5.239
15364WAT     H248195   4.691   2.010   5.193
15365WAT      O48196   4.917   1.633   4.517
15365WAT     H148197   4.905   1.635   4.422
15365WAT     H248198   5.012   1.638   4.529
15366WAT      O48199   4.626   3.157   4.444
15366WAT     H148200   4.651   3.153   4.352
15366WAT     H248201   4.531   3.144   4.443
15367WAT      O48202   4.334   1.792   4.110
15367WAT     H148203   4.419   1.835   4.104
15367WAT     H248204   4.297   1.823   4.193
15368WAT      O48205   5.397   1.724   5.257
15368WAT     H148206   5.347   1.799   5.291
15368WAT     H248207   5.479   1.763   5.225
15369WAT      O48208   5.226   2.249   4.602
15369WAT     H148209   5.132   2.250   4.619
15369WAT     H248210   5.258   2.170   4.646
15370WAT      O48211   4.224   2.417   3.958
15370WAT     H148212   4.301   2.406   4.014
15370WAT     H248213   4.232   2.347   3.892
15371WAT      O48214   4.094   2.160   4.026
15371WAT     H148215   4.102   2.066   4.037
15371WAT     H248216   4.183   2.193   4.037
15372WAT      O48217   5.427   2.966   4.769
15372WAT     H148218   5.439   3.048   4.816
15372WAT     H248219   5.513   2.945   4.734
15373WAT      O48220   4.174   3.175   4.736
15373WAT     H148221   4.247   3.120   4.763
15373WAT     H248222   4.212   3.262   4.722
15374WAT      O48223   3.862   2.782   4.324
15374WAT     H148224   3.770   2.806   4.323
15374WAT     H248225   3.909   2.865   4.312
15375WAT      O48226   4.074   3.094   5.655
15375WAT     H148227   4.154   3.126   5.696
15375WAT     H248228   4.023   3.058   5.727
15376WAT      O48229   4.958   2.704   5.650
15376WAT     H148230   4.897   2.707   5.576
15376WAT     H248231   4.927   2.631   5.704
15377WAT      O48232   5.101   3.077   5.511
15377WAT     H148233   5.196   3.069   5.506
15377WAT     H248234   5.086   3.144   5.578
15378WAT      O48235   5.390   3.015   4.061
15378WAT     H148236   5.361   2.974   3.979
15378WAT     H248237   5.370   3.108   4.049
15379WAT      O48238   3.846   2.342   5.550
15379WAT     H148239   3.897   2.284   5.607
15379WAT     H248240   3.772   2.371   5.603
15380WAT      O48241   4.536   2.615   3.905
15380WAT     H148242   4.526   2.553   3.978
15380WAT     H248243   4.520   2.562   3.827
15381WAT      O48244   4.552   2.483   5.503
15381WAT     H148245   4.475   2.540   5.494
15381WAT     H248246   4.570   2.454   5.414
15382WAT      O48247   4.861   2.521   3.965
15382WAT     H148248   4.806   2.565   4.030
15382WAT     H248249   4.923   2.470   4.018
15383WAT      O48250   5.266   2.656   5.559
15383WAT     H148251   5.340   2.690   5.508
15383WAT     H248252   5.190   2.673   5.503
15384WAT      O48253   4.049   2.157   5.639
15384WAT     H148254   4.054   2.127   5.730
15384WAT     H248255   4.135   2.197   5.623
15385WAT      O48256   4.427   2.417   4.155
15385WAT     H148257   4.469   2.400   4.239
15385WAT     H248258   4.440   2.336   4.106
15386WAT      O48259   4.244   2.015   5.436
15386WAT     H148260   4.190   1.966   5.373
15386WAT     H248261   4.310   2.057   5.382
15387WAT      O48262   4.679   2.319   3.880
15387WAT     H148263   4.731   2.248   3.843
15387WAT     H248264   4.743   2.383   3.910
15388WAT      O48265   5.133   2.461   5.412
15388WAT     H148266   5.175   2.477   5.497
15388WAT     H248267   5.040   2.474   5.428
15389WAT      O48268   5.181   2.195   5.613
15389WAT     H148269   5.239   2.120   5.604
15389WAT     H248270   5.198   2.248   5.535
15390WAT      O48271   4.292   1.711   5.444
15390WAT     H148272   4.283   1.649   5.371
15390WAT     H248273   4.234   1.784   5.421
15391WAT      O48274   4.569   1.567   5.147
15391WAT     H148275   4.524   1.569   5.062
15391WAT     H248276   4.506   1.527   5.207
15392WAT      O48277   4.609   2.457   5.209
15392WAT     H148278   4.651   2.541   5.192
15392WAT     H248279   4.518   2.470   5.186
15393WAT      O48280   4.843   2.230   5.348
15393WAT     H148281   4.855   2.170   5.421
15393WAT     H248282   4.929   2.233   5.306
15394WAT      O48283   5.077   2.285   5.205
15394WAT     H148284   5.024   2.337   5.145
15394WAT     H248285   5.111   2.348   5.268
15395WAT      O48286   4.317   2.024   3.850
15395WAT     H148287   4.297   1.938   3.886
15395WAT     H248288   4.300   2.015   3.756
15396WAT      O48289   4.395   3.087   5.321
15396WAT     H148290   4.341   3.160   5.289
15396WAT     H248291   4.420   3.039   5.242
15397WAT      O48292   4.520   1.884   5.473
15397WAT     H148293   4.579   1.853   5.542
15397WAT     H248294   4.438   1.837   5.489
15398WAT      O48295   5.002   1.846   5.497
15398WAT     H148296   4.933   1.779   5.490
15398WAT     H248297   5.074   1.801   5.541
15399WAT      O48298   5.065   1.505   4.102
15399WAT     H148299   5.093   1.421   4.138
15399WAT     H248300   4.987   1.528   4.154
15400WAT      O48301   4.197   1.734   3.848
15400WAT     H148302   4.227   1.735   3.758
15400WAT     H248303   4.271   1.699   3.898
15401WAT      O48304   4.680   3.211   5.347
15401WAT     H148305   4.673   3.301   5.377
15401WAT     H248306   4.590   3.179   5.344
15402WAT      O48307   4.519   1.628   3.947
15402WAT     H148308   4.484   1.561   3.889
15402WAT     H248309   4.539   1.582   4.028
15403WAT      O48310   4.735   3.127   4.109
15403WAT     H148311   4.825   3.161   4.111
15403WAT     H248312   4.738   3.055   4.046
15404WAT      O48313   4.099   2.664   3.932
15404WAT     H148314   4.143   2.719   3.997
15404WAT     H248315   4.147   2.582   3.933
15405WAT      O48316   3.820   2.943   4.677
15405WAT     H148317   3.853   2.857   4.654
15405WAT     H248318   3.863   2.964   4.760
15406WAT      O48319   4.280   2.776   4.443
15406WAT     H148320   4.250   2.764   4.533
15406WAT     H248321   4.269   2.691   4.402
15407WAT      O48322   3.869   3.030   4.951
15407WAT     H148323   3.826   3.048   5.034
15407WAT     H248324   3.926   3.106   4.937
15408WAT      O48325   5.433   2.980   5.379
15408WAT     H148326   5.373   2.986   5.305
15408WAT     H248327   5.446   2.886   5.392
15409WAT      O48328   5.557   2.754   3.913
15409WAT     H148329   5.474   2.761   3.960
15409WAT     H248330   5.575   2.843   3.883
15410WAT      O48331   5.503   2.429   4.164
15410WAT     H148332   5.579   2.486   4.174
15410WAT     H248333   5.504   2.372   4.241
15411WAT      O48334   3.853   2.281   4.587
15411WAT     H148335   3.787   2.254   4.522
15411WAT     H248336   3.936   2.270   4.542
15412WAT      O48337   5.603   2.514   4.648
15412WAT     H148338   5.640   2.436   4.607
15412WAT     H248339   5.667   2.583   4.630
15413WAT      O48340   5.301   2.653   5.189
15413WAT     H148341   5.220   2.696   5.216
15413WAT     H248342   5.342   2.714   5.128
15414WAT      O48343   5.508   2.458   3.879
15414WAT     H148344   5.535   2.549   3.866
15414WAT     H248345   5.489   2.452   3.973
15415WAT      O48346   5.147   1.761   4.009
15415WAT     H148347   5.189   1.742   3.925
15415WAT     H248348   5.117   1.675   4.040
15416WAT      O48349   5.497   2.252   4.379
15416WAT     H148350   5.460   2.175   4.335
15416WAT     H248351   5.424   2.290   4.427
15417WAT      O48352   3.956   2.320   5.041
15417WAT     H148353   3.993   2.311   5.129
15417WAT     H248354   3.899   2.243   5.031
15418WAT      O48355   5.436   2.167   5.342
15418WAT     H148356   5.413   2.144   5.252
15418WAT     H248357   5.462   2.259   5.337
15419WAT      O48358   3.911   2.011   5.431
15419WAT     H148359   3.822   2.008   5.465
15419WAT     H248360   3.965   2.031   5.508
15420WAT      O48361   5.280   1.689   5.620
15420WAT     H148362   5.368   1.690   5.658
15420WAT     H248363   5.281   1.615   5.559
15421WAT      O48364   3.774   2.002   4.181
15421WAT     H148365   3.684   2.029   4.163
15421WAT     H248366   3.822   2.029   4.103
15422WAT      O48367   5.425   2.074   4.709
15422WAT     H148368   5.477   2.025   4.646
15422WAT     H248369   5.483   2.088   4.783
15423WAT      O48370   5.443   2.083   5.061
15423WAT     H148371   5.348   2.079   5.072
15423WAT     H248372   5.461   2.174   5.037
15424WAT      O48373   4.028   1.908   3.972
15424WAT     H148374   4.099   1.866   3.923
15424WAT     H248375   3.957   1.915   3.909
15425WAT      O48376   3.993   1.513   3.876
15425WAT     H148377   4.065   1.567   3.908
15425WAT     H248378   4.020   1.486   3.788
15426WAT      O48379   5.374   2.000   4.303
15426WAT     H148380   5.423   1.977   4.381
15426WAT     H248381   5.354   1.916   4.261
15427WAT      O48382   3.962   1.438   4.866
15427WAT     H148383   4.027   1.383   4.822
15427WAT     H248384   4.004   1.464   4.948
15428WAT      O48385   5.517   1.864   4.556
15428WAT     H148386   5.506   1.848   4.650
15428WAT     H248387   5.593   1.811   4.532
15429WAT      O48388   5.351   1.458   5.202
15429WAT     H148389   5.415   1.519   5.238
15429WAT     H248390   5.366   1.461   5.107
15430WAT      O48391   5.606   1.647   3.880
15430WAT     H148392   5.698   1.634   3.859
15430WAT     H248393   5.603   1.655   3.975
15431WAT      O48394   5.613   1.724   4.143
15431WAT     H148395   5.534   1.717   4.195
15431WAT     H248396   5.633   1.818   4.141
15432WAT      O48397   5.307   3.128   4.542
15432WAT     H148398   5.367   3.096   4.474
15432WAT     H248399   5.333   3.081   4.621
15433WAT      O48400   3.937   1.454   5.140
15433WAT     H148401   3.902   1.500   5.217
15433WAT     H248402   3.904   1.364   5.149
15434WAT      O48403   4.098   2.771   5.557
15434WAT     H148404   4.094   2.734   5.645
15434WAT     H248405   4.111   2.865   5.571
15435WAT      O48406   4.468   2.927   5.117
15435WAT     H148407   4.444   2.953   5.028
15435WAT     H248408   4.562   2.944   5.122
15436WAT      O48409   4.688   1.573   5.493
15436WAT     H148410   4.682   1.632   5.567
15436WAT     H248411   4.782   1.562   5.478
15437WAT      O48412   4.952   1.539   5.456
15437WAT     H148413   5.014   1.571   5.390
15437WAT     H248414   5.007   1.490   5.518
15438WAT      O48415   5.594   3.129   5.197
15438WAT     H148416   5.545   3.168   5.125
15438WAT     H248417   5.533   3.066   5.236
15439WAT      O48418   4.004   1.407   5.468
15439WAT     H148419   4.059   1.389   5.391
15439WAT     H248420   4.011   1.328   5.521
15440WAT      O48421   4.082   3.066   5.269
15440WAT     H148422   4.022   3.053   5.343
15440WAT     H248423   4.081   2.982   5.222
15441WAT      O48424   5.026   1.395   5.089
15441WAT     H148425   4.939   1.428   5.069
15441WAT     H248426   5.015   1.348   5.172
15442WAT      O48427   5.117   1.616   5.228
15442WAT     H148428   5.084   1.534   5.190
15442WAT     H248429   5.212   1.611   5.215
15443WAT      O48430   5.362   3.193   4.925
15443WAT     H148431   5.316   3.268   4.887
15443WAT     H248432   5.299   3.121   4.919
15444WAT      O48433   4.045   2.802   5.164
15444WAT     H148434   3.972   2.740   5.157
15444WAT     H248435   4.051   2.842   5.077
15445WAT      O48436   4.405   3.024   4.842
15445WAT     H148437   4.457   2.963   4.790
15445WAT     H248438   4.470   3.074   4.892
15446WAT      O48439   4.679   3.113   4.925
15446WAT     H148440   4.708   3.087   4.837
15446WAT     H248441   4.730   3.058   4.984
15447WAT      O48442   4.801   1.487   4.983
15447WAT     H148443   4.723   1.534   5.011
15447WAT     H248444   4.772   1.396   4.972
15448WAT      O48445   5.256   1.557   4.788
15448WAT     H148446   5.300   1.551   4.703
15448WAT     H248447   5.229   1.649   4.795
15449WAT      O48448   5.443   1.520   4.589
15449WAT     H148449   5.437   1.426   4.574
15449WAT     H248450   5.521   1.531   4.643
15450WAT      O48451   3.873   3.134   4.485
15450WAT     H148452   3.856   3.071   4.555
15450WAT     H248453   3.787   3.155   4.450
15451WAT      O48454   3.935   1.517   4.235
15451WAT     H148455   4.011   1.528   4.178
15451WAT     H248456   3.889   1.601   4.231
15452WAT      O48457   4.590   1.729   4.534
15452WAT     H148458   4.508   1.691   4.500
15452WAT     H248459   4.640   1.653   4.564
15453WAT      O48460   5.040   1.395   4.658
15453WAT     H148461   5.100   1.452   4.706
15453WAT     H248462   4.966   1.451   4.636
15454WAT      O48463   5.354   1.435   4.185
15454WAT     H148464   5.374   1.525   4.212
15454WAT     H248465   5.275   1.412   4.235
15455WAT      O48466   4.034   3.003   4.229
15455WAT     H148467   3.981   3.041   4.159
15455WAT     H248468   4.026   3.066   4.301
15456WAT      O48469   4.173   1.570   4.089
15456WAT     H148470   4.226   1.491   4.076
15456WAT     H248471   4.236   1.638   4.113
15457WAT      O48472   4.392   1.544   4.395
15457WAT     H148473   4.329   1.473   4.411
15457WAT     H248474   4.338   1.620   4.373
15458WAT      O48475   4.686   3.205   5.662
15458WAT     H148476   4.779   3.181   5.666
15458WAT     H248477   4.684   3.288   5.614
15459WAT      O48478   5.509   3.159   4.362
15459WAT     H148479   5.527   3.091   4.297
15459WAT     H248480   5.440   3.212   4.322
15460WAT      O48481   4.405   1.471   5.638
15460WAT     H148482   4.376   1.522   5.562
15460WAT     H248483   4.443   1.392   5.602
15461WAT      O48484   4.210   2.810   4.117
15461WAT     H148485   4.147   2.857   4.172
15461WAT     H248486   4.221   2.725   4.161
15462WAT      O48487   5.065   1.413   5.696
15462WAT     H148488   5.053   1.445   5.786
15462WAT     H248489   5.146   1.453   5.666
15463WAT      O48490   5.343   3.128   5.644
15463WAT     H148491   5.422   3.078   5.623
15463WAT     H248492   5.372   3.196   5.705
15464WAT      O48493   4.955   2.215   2.732
15464WAT     H148494   4.947   2.123   2.705
15464WAT     H248495   4.914   2.265   2.662
15465WAT      O48496   4.769   2.393   2.920
15465WAT     H148497   4.691   2.345   2.949
15465WAT     H248498   4.834   2.325   2.903
15466WAT      O48499   4.170   2.424   3.008
15466WAT     H148500   4.087   2.398   3.048
15466WAT     H248501   4.231   2.431   3.082
15467WAT      O48502   5.171   2.833   2.798
15467WAT     H148503   5.124   2.756   2.831
15467WAT     H248504   5.252   2.836   2.849
15468WAT      O48505   4.168   2.827   3.028
15468WAT     H148506   4.198   2.738   3.010
15468WAT     H248507   4.243   2.883   3.005
15469WAT      O48508   4.011   1.920   2.387
15469WAT     H148509   3.922   1.954   2.376
15469WAT     H248510   4.040   1.900   2.297
15470WAT      O48511   3.807   2.180   2.975
15470WAT     H148512   3.865   2.103   2.975
15470WAT     H248513   3.807   2.210   2.884
15471WAT      O48514   4.793   3.062   2.760
15471WAT     H148515   4.731   3.107   2.703
15471WAT     H248516   4.879   3.077   2.720
15472WAT      O48517   4.713   2.660   2.921
15472WAT     H148518   4.706   2.566   2.905
15472WAT     H248519   4.789   2.669   2.978
15473WAT      O48520   3.932   1.721   3.154
15473WAT     H148521   3.914   1.631   3.182
15473WAT     H248522   3.892   1.776   3.221
15474WAT      O48523   4.816   1.941   2.944
15474WAT     H148524   4.853   1.854   2.933
15474WAT     H248525   4.806   1.975   2.855
15475WAT      O48526   4.229   1.778   2.490
15475WAT     H148527   4.239   1.868   2.521
15475WAT     H248528   4.138   1.773   2.461
15476WAT      O48529   5.194   1.690   2.637
15476WAT     H148530   5.276   1.641   2.641
15476WAT     H248531   5.197   1.749   2.712
15477WAT      O48532   3.994   1.970   3.015
15477WAT     H148533   4.062   1.997   3.076
15477WAT     H248534   3.962   1.886   3.048
15478WAT      O48535   4.413   2.075   2.923
15478WAT     H148536   4.464   2.125   2.987
15478WAT     H248537   4.466   1.997   2.906
15479WAT      O48538   5.623   1.892   3.294
15479WAT     H148539   5.552   1.931   3.242
15479WAT     H248540   5.650   1.962   3.354
15480WAT      O48541   4.241   1.539   3.350
15480WAT     H148542   4.241   1.591   3.269
15480WAT     H248543   4.158   1.491   3.348
15481WAT      O48544   4.880   2.550   2.500
15481WAT     H148545   4.818   2.597   2.443
15481WAT     H248546   4.931   2.620   2.541
15482WAT      O48547   4.366   2.503   3.168
15482WAT     H148548   4.333   2.566   3.232
15482WAT     H248549   4.384   2.556   3.090
15483WAT      O48550   5.218   1.884   2.914
15483WAT     H148551   5.147   1.913   2.972
15483WAT     H248552   5.254   1.965   2.878
15484WAT      O48553   4.209   1.710   3.151
15484WAT     H148554   4.243   1.795   3.121
15484WAT     H248555   4.115   1.725   3.162
15485WAT      O48556   4.287   2.700   3.349
15485WAT     H148557   4.349   2.767   3.321
15485WAT     H248558   4.201   2.741   3.340
15486WAT      O48559   3.817   2.619   2.237
15486WAT     H148560   3.779   2.668   2.164
15486WAT     H248561   3.842   2.686   2.300
15487WAT      O48562   5.379   2.846   3.141
15487WAT     H148563   5.311   2.913   3.140
15487WAT     H248564   5.433   2.866   3.064
15488WAT      O48565   5.524   1.829   2.953
15488WAT     H148566   5.430   1.832   2.967
15488WAT     H248567   5.557   1.910   2.992
15489WAT      O48568   4.578   1.459   2.783
15489WAT     H148569   4.608   1.403   2.711
15489WAT     H248570   4.485   1.472   2.765
15490WAT      O48571   5.133   3.031   3.012
15490WAT     H148572   5.134   2.990   2.925
15490WAT     H248573   5.078   3.108   3.002
15491WAT      O48574   5.262   2.703   2.521
15491WAT     H148575   5.251   2.609   2.534
15491WAT     H248576   5.262   2.739   2.610
15492WAT      O48577   5.073   2.521   3.145
15492WAT     H148578   5.114   2.500   3.061
15492WAT     H248579   5.145   2.547   3.202
15493WAT      O48580   4.816   2.265   2.457
15493WAT     H148581   4.724   2.259   2.480
15493WAT     H248582   4.832   2.359   2.445
15494WAT      O48583   4.815   1.893   2.156
15494WAT     H148584   4.721   1.909   2.165
15494WAT     H248585   4.847   1.965   2.102
15495WAT      O48586   5.467   2.361   3.154
15495WAT     H148587   5.384   2.368   3.107
15495WAT     H248588   5.527   2.419   3.107
15496WAT      O48589   5.219   2.422   2.507
15496WAT     H148590   5.158   2.388   2.442
15496WAT     H248591   5.218   2.357   2.578
15497WAT      O48592   5.164   2.040   3.249
15497WAT     H148593   5.122   2.122   3.274
15497WAT     H248594   5.090   1.981   3.229
15498WAT      O48595   4.377   2.318   2.735
15498WAT     H148596   4.337   2.247   2.685
15498WAT     H248597   4.386   2.284   2.824
15499WAT      O48598   4.424   2.687   2.951
15499WAT     H148599   4.394   2.626   2.883
15499WAT     H248600   4.519   2.691   2.940
15500WAT      O48601   4.248   1.996   3.113
15500WAT     H148602   4.303   2.007   3.035
15500WAT     H248603   4.300   2.033   3.184
15501WAT      O48604   5.233   3.044   3.317
15501WAT     H148605   5.185   3.125   3.298
15501WAT     H248606   5.164   2.979   3.333
15502WAT      O48607   4.333   2.661   3.616
15502WAT     H148608   4.243   2.683   3.641
15502WAT     H248609   4.336   2.673   3.521
15503WAT      O48610   5.037   2.346   2.208
15503WAT     H148611   5.081   2.262   2.193
15503WAT     H248612   5.108   2.409   2.216
15504WAT      O48613   4.216   2.348   3.474
15504WAT     H148614   4.202   2.435   3.511
15504WAT     H248615   4.128   2.313   3.459
15505WAT      O48616   4.848   2.840   2.605
15505WAT     H148617   4.892   2.914   2.563
15505WAT     H248618   4.842   2.864   2.697
15506WAT      O48619   5.395   1.471   2.039
15506WAT     H148620   5.364   1.480   2.129
15506WAT     H248621   5.471   1.529   2.034
15507WAT      O48622   4.047   2.208   2.485
15507WAT     H148623   4.035   2.280   2.424
15507WAT     H248624   4.016   2.131   2.437
15508WAT      O48625   5.591   3.020   3.824
15508WAT     H148626   5.638   3.068   3.892
15508WAT     H248627   5.653   3.013   3.752
15509WAT      O48628   3.811   2.525   3.066
15509WAT     H148629   3.819   2.538   2.971
15509WAT     H248630   3.872   2.454   3.085
15510WAT      O48631   3.935   2.695   2.707
15510WAT     H148632   3.895   2.709   2.621
15510WAT     H248633   4.024   2.666   2.686
15511WAT      O48634   5.531   2.739   3.540
15511WAT     H148635   5.544   2.715   3.449
15511WAT     H248636   5.535   2.656   3.588
15512WAT      O48637   5.115   3.138   2.340
15512WAT     H148638   5.099   3.109   2.430
15512WAT     H248639   5.098   3.061   2.287
15513WAT      O48640   4.363   3.116   2.518
15513WAT     H148641   4.345   3.025   2.497
15513WAT     H248642   4.277   3.152   2.542
15514WAT      O48643   5.085   2.889   2.196
15514WAT     H148644   5.016   2.889   2.130
15514WAT     H248645   5.159   2.847   2.153
15515WAT      O48646   5.041   3.052   2.604
15515WAT     H148647   5.087   2.974   2.635
15515WAT     H248648   5.075   3.123   2.658
15516WAT      O48649   5.516   1.945   3.637
15516WAT     H148650   5.455   1.995   3.584
15516WAT     H248651   5.484   1.855   3.631
15517WAT      O48652   3.816   2.629   3.320
15517WAT     H148653   3.833   2.582   3.238
15517WAT     H248654   3.863   2.578   3.386
15518WAT      O48655   4.294   1.542   2.823
15518WAT     H148656   4.249   1.620   2.790
15518WAT     H248657   4.350   1.574   2.894
15519WAT      O48658   4.722   1.829   3.383
15519WAT     H148659   4.676   1.849   3.465
15519WAT     H248660   4.682   1.747   3.353
15520WAT      O48661   5.222   1.951   3.496
15520WAT     H148662   5.137   1.921   3.529
15520WAT     H248663   5.206   1.975   3.405
15521WAT      O48664   4.932   2.101   3.706
15521WAT     H148665   4.964   2.017   3.672
15521WAT     H248666   5.011   2.153   3.721
15522WAT      O48667   4.605   1.504   2.311
15522WAT     H148668   4.543   1.504   2.384
15522WAT     H248669   4.597   1.417   2.272
15523WAT      O48670   4.497   1.596   3.009
15523WAT     H148671   4.527   1.687   3.001
15523WAT     H248672   4.552   1.548   2.948
15524WAT      O48673   4.273   2.054   2.596
15524WAT     H148674   4.250   2.033   2.686
15524WAT     H248675   4.195   2.098   2.561
15525WAT      O48676   4.996   2.055   2.456
15525WAT     H148677   4.936   2.127   2.437
15525WAT     H248678   5.051   2.049   2.378
15526WAT      O48679   4.517   2.144   3.663
15526WAT     H148680   4.507   2.050   3.648
15526WAT     H248681   4.601   2.166   3.623
15527WAT      O48682   4.856   1.919   2.659
15527WAT     H148683   4.896   1.950   2.578
15527WAT     H248684   4.893   1.831   2.670
15528WAT      O48685   4.030   1.785   3.478
15528WAT     H148686   3.991   1.870   3.499
15528WAT     H248687   3.961   1.722   3.497
15529WAT      O48688   4.687   1.794   3.785
15529WAT     H148689   4.618   1.774   3.848
15529WAT     H248690   4.762   1.822   3.838
15530WAT      O48691   3.760   1.578   2.881
15530WAT     H148692   3.731   1.635   2.952
15530WAT     H248693   3.835   1.530   2.917
15531WAT      O48694   3.779   1.972   2.002
15531WAT     H148695   3.771   2.066   2.016
15531WAT     H248696   3.744   1.957   1.914
15532WAT      O48697   4.915   2.178   3.068
15532WAT     H148698   4.842   2.228   3.103
15532WAT     H248699   4.875   2.096   3.038
15533WAT      O48700   4.559   1.845   2.909
15533WAT     H148701   4.559   1.801   2.824
15533WAT     H248702   4.648   1.877   2.920
15534WAT      O48703   4.144   1.833   2.805
15534WAT     H148704   4.110   1.881   2.881
15534WAT     H248705   4.068   1.788   2.769
15535WAT      O48706   4.565   1.945   2.208
15535WAT     H148707   4.577   1.941   2.303
15535WAT     H248708   4.526   2.031   2.192
15536WAT      O48709   4.961   1.723   3.010
15536WAT     H148710   4.963   1.768   3.094
15536WAT     H248711   4.936   1.633   3.031
15537WAT      O48712   4.466   2.176   2.148
15537WAT     H148713   4.409   2.131   2.085
15537WAT     H248714   4.537   2.212   2.094
15538WAT      O48715   5.304   1.464   3.593
15538WAT     H148716   5.336   1.391   3.646
15538WAT     H248717   5.308   1.432   3.503
15539WAT      O48718   3.974   2.566   3.535
15539WAT     H148719   3.935   2.502   3.595
15539WAT     H248720   4.005   2.637   3.592
15540WAT      O48721   4.589   2.251   3.084
15540WAT     H148722   4.626   2.204   3.158
15540WAT     H248723   4.570   2.339   3.118
15541WAT      O48724   3.875   1.726   2.697
15541WAT     H148725   3.847   1.689   2.780
15541WAT     H248726   3.869   1.652   2.635
15542WAT      O48727   4.368   2.155   3.315
15542WAT     H148728   4.337   2.243   3.338
15542WAT     H248729   4.463   2.161   3.319
15543WAT      O48730   4.221   2.576   2.375
15543WAT     H148731   4.143   2.522   2.359
15543WAT     H248732   4.294   2.524   2.341
15544WAT      O48733   5.297   2.476   2.954
15544WAT     H148734   5.369   2.525   2.915
15544WAT     H248735   5.276   2.408   2.890
15545WAT      O48736   4.843   1.615   2.369
15545WAT     H148737   4.761   1.565   2.361
15545WAT     H248738   4.823   1.699   2.327
15546WAT      O48739   4.835   2.483   3.543
15546WAT     H148740   4.828   2.391   3.518
15546WAT     H248741   4.772   2.492   3.614
15547WAT      O48742   5.114   2.052   2.198
15547WAT     H148743   5.203   2.083   2.181
15547WAT     H248744   5.111   1.965   2.159
15548WAT      O48745   4.225   2.543   2.739
15548WAT     H148746   4.277   2.462   2.733
15548WAT     H248747   4.180   2.536   2.823
15549WAT      O48748   4.714   2.669   2.266
15549WAT     H148749   4.748   2.744   2.217
15549WAT     H248750   4.631   2.701   2.302
15550WAT      O48751   3.973   2.239   3.430
15550WAT     H148752   3.938   2.306   3.489
15550WAT     H248753   3.944   2.156   3.467
15551WAT      O48754   4.294   2.285   3.719
15551WAT     H148755   4.264   2.300   3.629
15551WAT     H248756   4.371   2.229   3.709
15552WAT      O48757   4.828   2.765   3.518
15552WAT     H148758   4.829   2.672   3.496
15552WAT     H248759   4.757   2.773   3.582
15553WAT      O48760   5.341   2.183   2.145
15553WAT     H148761   5.333   2.226   2.060
15553WAT     H248762   5.413   2.229   2.188
15554WAT      O48763   5.449   2.429   3.453
15554WAT     H148764   5.376   2.488   3.433
15554WAT     H248765   5.502   2.428   3.373
15555WAT      O48766   5.444   2.869   2.418
15555WAT     H148767   5.380   2.803   2.445
15555WAT     H248768   5.405   2.909   2.340
15556WAT      O48769   5.002   2.601   2.803
15556WAT     H148770   5.037   2.542   2.737
15556WAT     H248771   4.914   2.569   2.820
15557WAT      O48772   4.611   2.677   2.543
15557WAT     H148773   4.679   2.732   2.581
15557WAT     H248774   4.532   2.732   2.547
15558WAT      O48775   3.825   2.239   2.092
15558WAT     H148776   3.911   2.267   2.121
15558WAT     H248777   3.775   2.321   2.081
15559WAT      O48778   4.541   2.378   2.505
15559WAT     H148779   4.587   2.459   2.527
15559WAT     H248780   4.506   2.346   2.588
15560WAT      O48781   4.771   2.929   3.227
15560WAT     H148782   4.836   2.950   3.295
15560WAT     H248783   4.808   2.853   3.182
15561WAT      O48784   4.131   1.412   2.552
15561WAT     H148785   4.118   1.411   2.647
15561WAT     H248786   4.049   1.446   2.517
15562WAT      O48787   4.899   2.729   3.099
15562WAT     H148788   4.963   2.659   3.111
15562WAT     H248789   4.951   2.807   3.081
15563WAT      O48790   5.283   2.758   2.072
15563WAT     H148791   5.260   2.686   2.131
15563WAT     H248792   5.244   2.733   1.988
15564WAT      O48793   5.076   2.809   3.420
15564WAT     H148794   5.109   2.868   3.487
15564WAT     H248795   4.984   2.796   3.443
15565WAT      O48796   3.861   3.160   2.149
15565WAT     H148797   3.897   3.220   2.084
15565WAT     H248798   3.847   3.215   2.226
15566WAT      O48799   3.831   1.588   3.498
15566WAT     H148800   3.760   1.608   3.558
15566WAT     H248801   3.873   1.511   3.535
15567WAT      O48802   5.241   2.550   2.238
15567WAT     H148803   5.212   2.596   2.317
15567WAT     H248804   5.321   2.503   2.265
15568WAT      O48805   3.860   2.987   3.597
15568WAT     H148806   3.871   2.893   3.582
15568WAT     H248807   3.794   3.014   3.532
15569WAT      O48808   4.659   2.814   3.736
15569WAT     H148809   4.627   2.742   3.791
15569WAT     H248810   4.591   2.882   3.744
15570WAT      O48811   4.463   2.899   2.231
15570WAT     H148812   4.462   2.972   2.169
15570WAT     H248813   4.371   2.874   2.240
15571WAT      O48814   4.023   2.421   2.305
15571WAT     H148815   3.962   2.495   2.306
15571WAT     H248816   4.071   2.430   2.223
15572WAT      O48817   4.980   1.837   3.273
15572WAT     H148818   5.017   1.755   3.306
15572WAT     H248819   4.894   1.843   3.314
15573WAT      O48820   5.317   1.733   2.354
15573WAT     H148821   5.254   1.743   2.282
15573WAT     H248822   5.267   1.755   2.433
15574WAT      O48823   4.762   2.905   2.097
15574WAT     H148824   4.772   2.885   2.004
15574WAT     H248825   4.672   2.880   2.118
15575WAT      O48826   4.514   1.961   2.495
15575WAT     H148827   4.443   2.008   2.539
15575WAT     H248828   4.542   1.895   2.559
15576WAT      O48829   4.676   2.103   3.295
15576WAT     H148830   4.726   2.150   3.362
15576WAT     H248831   4.691   2.010   3.316
15577WAT      O48832   4.917   1.633   2.639
15577WAT     H148833   4.905   1.635   2.544
15577WAT     H248834   5.012   1.638   2.651
15578WAT      O48835   4.626   3.157   2.567
15578WAT     H148836   4.651   3.153   2.474
15578WAT     H248837   4.531   3.144   2.566
15579WAT      O48838   4.334   1.792   2.233
15579WAT     H148839   4.419   1.835   2.226
15579WAT     H248840   4.297   1.823   2.316
15580WAT      O48841   5.397   1.724   3.380
15580WAT     H148842   5.347   1.799   3.413
15580WAT     H248843   5.479   1.763   3.348
15581WAT      O48844   5.226   2.249   2.724
15581WAT     H148845   5.132   2.250   2.742
15581WAT     H248846   5.258   2.170   2.769
15582WAT      O48847   4.224   2.417   2.080
15582WAT     H148848   4.301   2.406   2.136
15582WAT     H248849   4.232   2.347   2.015
15583WAT      O48850   4.094   2.160   2.149
15583WAT     H148851   4.102   2.066   2.160
15583WAT     H248852   4.183   2.193   2.159
15584WAT      O48853   5.427   2.966   2.892
15584WAT     H148854   5.439   3.048   2.939
15584WAT     H248855   5.513   2.945   2.857
15585WAT      O48856   4.174   3.175   2.859
15585WAT     H148857   4.247   3.120   2.886
15585WAT     H248858   4.212   3.262   2.845
15586WAT      O48859   3.862   2.782   2.446
15586WAT     H148860   3.770   2.806   2.445
15586WAT     H248861   3.909   2.865   2.434
15587WAT      O48862   4.485   3.093   2.041
15587WAT     H148863   4.564   3.121   1.996
15587WAT     H248864   4.433   3.049   1.973
15588WAT      O48865   4.958   2.704   3.772
15588WAT     H148866   4.897   2.707   3.698
15588WAT     H248867   4.927   2.631   3.826
15589WAT      O48868   5.101   3.077   3.634
15589WAT     H148869   5.196   3.069   3.629
15589WAT     H248870   5.086   3.144   3.701
15590WAT      O48871   5.390   3.015   2.183
15590WAT     H148872   5.361   2.974   2.102
15590WAT     H248873   5.370   3.108   2.171
15591WAT      O48874   3.846   2.342   3.672
15591WAT     H148875   3.897   2.284   3.729
15591WAT     H248876   3.772   2.371   3.726
15592WAT      O48877   4.536   2.615   2.028
15592WAT     H148878   4.526   2.553   2.100
15592WAT     H248879   4.520   2.562   1.949
15593WAT      O48880   4.552   2.483   3.625
15593WAT     H148881   4.475   2.540   3.617
15593WAT     H248882   4.570   2.454   3.536
15594WAT      O48883   4.861   2.521   2.088
15594WAT     H148884   4.806   2.565   2.152
15594WAT     H248885   4.923   2.470   2.140
15595WAT      O48886   5.266   2.656   3.681
15595WAT     H148887   5.340   2.690   3.631
15595WAT     H248888   5.190   2.673   3.626
15596WAT      O48889   4.049   2.157   3.762
15596WAT     H148890   4.054   2.127   3.852
15596WAT     H248891   4.135   2.197   3.746
15597WAT      O48892   4.427   2.417   2.278
15597WAT     H148893   4.469   2.400   2.362
15597WAT     H248894   4.440   2.336   2.228
15598WAT      O48895   4.244   2.015   3.558
15598WAT     H148896   4.190   1.966   3.496
15598WAT     H248897   4.310   2.057   3.505
15599WAT      O48898   4.679   2.319   2.002
15599WAT     H148899   4.731   2.248   1.966
15599WAT     H248900   4.743   2.383   2.032
15600WAT      O48901   5.133   2.461   3.535
15600WAT     H148902   5.175   2.477   3.620
15600WAT     H248903   5.040   2.474   3.551
15601WAT      O48904   5.181   2.195   3.735
15601WAT     H148905   5.239   2.120   3.726
15601WAT     H248906   5.198   2.248   3.657
15602WAT      O48907   4.292   1.711   3.566
15602WAT     H148908   4.283   1.649   3.494
15602WAT     H248909   4.234   1.784   3.544
15603WAT      O48910   4.569   1.567   3.270
15603WAT     H148911   4.524   1.569   3.185
15603WAT     H248912   4.506   1.527   3.329
15604WAT      O48913   4.609   2.457   3.332
15604WAT     H148914   4.651   2.541   3.314
15604WAT     H248915   4.518   2.470   3.309
15605WAT      O48916   4.843   2.230   3.470
15605WAT     H148917   4.855   2.170   3.544
15605WAT     H248918   4.929   2.233   3.428
15606WAT      O48919   5.077   2.285   3.328
15606WAT     H148920   5.024   2.337   3.267
15606WAT     H248921   5.111   2.348   3.391
15607WAT      O48922   4.317   2.024   1.972
15607WAT     H148923   4.297   1.938   2.008
15607WAT     H248924   4.300   2.015   1.878
15608WAT      O48925   4.520   1.884   3.596
15608WAT     H148926   4.579   1.853   3.665
15608WAT     H248927   4.438   1.837   3.611
15609WAT      O48928   5.002   1.846   3.619
15609WAT     H148929   4.933   1.779   3.613
15609WAT     H248930   5.074   1.801   3.664
15610WAT      O48931   5.065   1.505   2.225
15610WAT     H148932   5.093   1.421   2.261
15610WAT     H248933   4.987   1.528   2.276
15611WAT      O48934   4.197   1.734   1.971
15611WAT     H148935   4.227   1.735   1.880
15611WAT     H248936   4.271   1.699   2.021
15612WAT      O48937   4.519   1.628   2.070
15612WAT     H148938   4.484   1.561   2.012
15612WAT     H248939   4.539   1.582   2.151
15613WAT      O48940   4.735   3.127   2.231
15613WAT     H148941   4.825   3.161   2.234
15613WAT     H248942   4.738   3.055   2.169
15614WAT      O48943   4.099   2.664   2.054
15614WAT     H148944   4.143   2.719   2.120
15614WAT     H248945   4.147   2.582   2.055
15615WAT      O48946   3.820   2.943   2.799
15615WAT     H148947   3.853   2.857   2.776
15615WAT     H248948   3.863   2.964   2.883
15616WAT      O48949   4.280   2.776   2.565
15616WAT     H148950   4.250   2.764   2.656
15616WAT     H248951   4.269   2.691   2.525
15617WAT      O48952   3.869   3.030   3.073
15617WAT     H148953   3.826   3.048   3.157
15617WAT     H248954   3.926   3.106   3.059
15618WAT      O48955   5.433   2.980   3.502
15618WAT     H148956   5.373   2.986   3.428
15618WAT     H248957   5.446   2.886   3.515
15619WAT      O48958   5.557   2.754   2.036
15619WAT     H148959   5.474   2.761   2.083
15619WAT     H248960   5.575   2.843   2.005
15620WAT      O48961   5.503   2.429   2.286
15620WAT     H148962   5.579   2.486   2.297
15620WAT     H248963   5.504   2.372   2.363
15621WAT      O48964   3.853   2.281   2.709
15621WAT     H148965   3.787   2.254   2.645
15621WAT     H248966   3.936   2.270   2.664
15622WAT      O48967   5.603   2.514   2.771
15622WAT     H148968   5.640   2.436   2.730
15622WAT     H248969   5.667   2.583   2.753
15623WAT      O48970   5.301   2.653   3.312
15623WAT     H148971   5.220   2.696   3.338
15623WAT     H248972   5.342   2.714   3.251
15624WAT      O48973   5.508   2.458   2.002
15624WAT     H148974   5.535   2.549   1.989
15624WAT     H248975   5.489   2.452   2.095
15625WAT      O48976   5.147   1.761   2.131
15625WAT     H148977   5.189   1.742   2.047
15625WAT     H248978   5.117   1.675   2.162
15626WAT      O48979   5.497   2.252   2.501
15626WAT     H148980   5.460   2.175   2.458
15626WAT     H248981   5.424   2.290   2.550
15627WAT      O48982   3.956   2.320   3.163
15627WAT     H148983   3.993   2.311   3.251
15627WAT     H248984   3.899   2.243   3.153
15628WAT      O48985   5.436   2.167   3.465
15628WAT     H148986   5.413   2.144   3.374
15628WAT     H248987   5.462   2.259   3.460
15629WAT      O48988   3.911   2.011   3.554
15629WAT     H148989   3.822   2.008   3.588
15629WAT     H248990   3.965   2.031   3.630
15630WAT      O48991   5.280   1.689   3.742
15630WAT     H148992   5.368   1.690   3.781
15630WAT     H248993   5.281   1.615   3.681
15631WAT      O48994   3.774   2.002   2.303
15631WAT     H148995   3.684   2.029   2.286
15631WAT     H248996   3.822   2.029   2.225
15632WAT      O48997   5.425   2.074   2.831
15632WAT     H148998   5.477   2.025   2.768
15632WAT     H248999   5.483   2.088   2.906
15633WAT      O49000   5.443   2.083   3.183
15633WAT     H149001   5.348   2.079   3.195
15633WAT     H249002   5.461   2.174   3.160
15634WAT      O49003   4.028   1.908   2.094
15634WAT     H149004   4.099   1.866   2.046
15634WAT     H249005   3.957   1.915   2.031
15635WAT      O49006   3.993   1.513   1.998
15635WAT     H149007   4.065   1.567   2.030
15635WAT     H249008   4.020   1.486   1.911
15636WAT      O49009   5.374   2.000   2.425
15636WAT     H149010   5.423   1.977   2.504
15636WAT     H249011   5.354   1.916   2.383
15637WAT      O49012   3.962   1.438   2.989
15637WAT     H149013   4.027   1.383   2.945
15637WAT     H249014   4.004   1.464   3.071
15638WAT      O49015   5.517   1.864   2.678
15638WAT     H149016   5.506   1.848   2.772
15638WAT     H249017   5.593   1.811   2.654
15639WAT      O49018   5.351   1.458   3.324
15639WAT     H149019   5.415   1.519   3.361
15639WAT     H249020   5.366   1.461   3.230
15640WAT      O49021   5.606   1.647   2.003
15640WAT     H149022   5.698   1.634   1.982
15640WAT     H249023   5.603   1.655   2.098
15641WAT      O49024   5.613   1.724   2.265
15641WAT     H149025   5.534   1.717   2.318
15641WAT     H249026   5.633   1.818   2.264
15642WAT      O49027   5.307   3.128   2.665
15642WAT     H149028   5.367   3.096   2.597
15642WAT     H249029   5.333   3.081   2.744
15643WAT      O49030   3.937   1.454   3.263
15643WAT     H149031   3.902   1.500   3.339
15643WAT     H249032   3.904   1.364   3.271
15644WAT      O49033   4.098   2.771   3.679
15644WAT     H149034   4.094   2.734   3.768
15644WAT     H249035   4.111   2.865   3.693
15645WAT      O49036   4.468   2.927   3.240
15645WAT     H149037   4.444   2.953   3.151
15645WAT     H249038   4.562   2.944   3.245
15646WAT      O49039   4.688   1.573   3.615
15646WAT     H149040   4.682   1.632   3.690
15646WAT     H249041   4.782   1.562   3.601
15647WAT      O49042   4.952   1.539   3.579
15647WAT     H149043   5.014   1.571   3.513
15647WAT     H249044   5.007   1.490   3.641
15648WAT      O49045   5.594   3.129   3.320
15648WAT     H149046   5.545   3.168   3.248
15648WAT     H249047   5.533   3.066   3.359
15649WAT      O49048   4.004   1.407   3.590
15649WAT     H149049   4.059   1.389   3.514
15649WAT     H249050   4.011   1.328   3.644
15650WAT      O49051   4.082   3.066   3.391
15650WAT     H149052   4.022   3.053   3.465
15650WAT     H249053   4.081   2.982   3.345
15651WAT      O49054   5.026   1.395   3.212
15651WAT     H149055   4.939   1.428   3.191
15651WAT     H249056   5.015   1.348   3.294
15652WAT      O49057   5.117   1.616   3.350
15652WAT     H149058   5.084   1.534   3.312
15652WAT     H249059   5.212   1.611   3.338
15653WAT      O49060   5.362   3.193   3.047
15653WAT     H149061   5.316   3.268   3.010
15653WAT     H249062   5.299   3.121   3.042
15654WAT      O49063   4.045   2.802   3.286
15654WAT     H149064   3.972   2.740   3.280
15654WAT     H249065   4.051   2.842   3.199
15655WAT      O49066   4.405   3.024   2.965
15655WAT     H149067   4.457   2.963   2.912
15655WAT     H249068   4.470   3.074   3.014
15656WAT      O49069   4.679   3.113   3.048
15656WAT     H149070   4.708   3.087   2.960
15656WAT     H249071   4.730   3.058   3.107
15657WAT      O49072   4.801   1.487   3.106
15657WAT     H149073   4.723   1.534   3.134
15657WAT     H249074   4.772   1.396   3.095
15658WAT      O49075   5.256   1.557   2.910
15658WAT     H149076   5.300   1.551   2.825
15658WAT     H249077   5.229   1.649   2.917
15659WAT      O49078   5.443   1.520   2.711
15659WAT     H149079   5.437   1.426   2.697
15659WAT     H249080   5.521   1.531   2.766
15660WAT      O49081   3.873   3.134   2.607
15660WAT     H149082   3.856   3.071   2.677
15660WAT     H249083   3.787   3.155   2.572
15661WAT      O49084   3.935   1.517   2.358
15661WAT     H149085   4.011   1.528   2.300
15661WAT     H249086   3.889   1.601   2.353
15662WAT      O49087   4.590   1.729   2.657
15662WAT     H149088   4.508   1.691   2.623
15662WAT     H249089   4.640   1.653   2.687
15663WAT      O49090   5.040   1.395   2.781
15663WAT     H149091   5.100   1.452   2.828
15663WAT     H249092   4.966   1.451   2.758
15664WAT      O49093   5.354   1.435   2.308
15664WAT     H149094   5.374   1.525   2.335
15664WAT     H249095   5.275   1.412   2.357
15665WAT      O49096   4.034   3.003   2.352
15665WAT     H149097   3.981   3.041   2.282
15665WAT     H249098   4.026   3.066   2.424
15666WAT      O49099   4.173   1.570   2.212
15666WAT     H149100   4.226   1.491   2.199
15666WAT     H249101   4.236   1.638   2.235
15667WAT      O49102   4.392   1.544   2.517
15667WAT     H149103   4.329   1.473   2.534
15667WAT     H249104   4.338   1.620   2.496
15668WAT      O49105   5.509   3.159   2.484
15668WAT     H149106   5.527   3.091   2.420
15668WAT     H249107   5.440   3.212   2.445
15669WAT      O49108   4.405   1.471   3.761
15669WAT     H149109   4.376   1.522   3.684
15669WAT     H249110   4.443   1.392   3.724
15670WAT      O49111   4.294   3.198   2.239
15670WAT     H149112   4.367   3.170   2.185
15670WAT     H249113   4.320   3.174   2.328
15671WAT      O49114   4.210   2.810   2.240
15671WAT     H149115   4.147   2.857   2.295
15671WAT     H249116   4.221   2.725   2.283
15672WAT      O49117   5.065   1.413   3.819
15672WAT     H149118   5.053   1.445   3.908
15672WAT     H249119   5.146   1.453   3.789
15673WAT      O49120   5.343   3.128   3.767
15673WAT     H149121   5.422   3.078   3.746
15673WAT     H249122   5.372   3.196   3.827
15674WAT      O49123   4.955   2.215   0.855
15674WAT     H149124   4.947   2.123   0.828
15674WAT     H249125   4.914   2.265   0.784
15675WAT      O49126   4.769   2.393   1.043
15675WAT     H149127   4.691   2.345   1.072
15675WAT     H249128   4.834   2.325   1.026
15676WAT      O49129   4.170   2.424   1.131
15676WAT     H149130   4.087   2.398   1.171
15676WAT     H249131   4.231   2.431   1.204
15677WAT      O49132   5.171   2.833   0.921
15677WAT     H149133   5.124   2.756   0.954
15677WAT     H249134   5.252   2.836   0.972
15678WAT      O49135   4.168   2.827   1.150
15678WAT     H149136   4.198   2.738   1.132
15678WAT     H249137   4.243   2.883   1.128
15679WAT      O49138   4.011   1.920   0.509
15679WAT     H149139   3.922   1.954   0.499
15679WAT     H249140   4.040   1.900   0.420
15680WAT      O49141   3.807   2.180   1.098
15680WAT     H149142   3.865   2.103   1.098
15680WAT     H249143   3.807   2.210   1.007
15681WAT      O49144   4.793   3.062   0.883
15681WAT     H149145   4.731   3.107   0.826
15681WAT     H249146   4.879   3.077   0.843
15682WAT      O49147   4.713   2.660   1.044
15682WAT     H149148   4.706   2.566   1.028
15682WAT     H249149   4.789   2.669   1.101
15683WAT      O49150   3.932   1.721   1.276
15683WAT     H149151   3.914   1.631   1.304
15683WAT     H249152   3.892   1.776   1.344
15684WAT      O49153   4.816   1.941   1.066
15684WAT     H149154   4.853   1.854   1.055
15684WAT     H249155   4.806   1.975   0.977
15685WAT      O49156   4.229   1.778   0.613
15685WAT     H149157   4.239   1.868   0.643
15685WAT     H249158   4.138   1.773   0.584
15686WAT      O49159   5.194   1.690   0.760
15686WAT     H149160   5.276   1.641   0.764
15686WAT     H249161   5.197   1.749   0.835
15687WAT      O49162   3.994   1.970   1.137
15687WAT     H149163   4.062   1.997   1.199
15687WAT     H249164   3.962   1.886   1.170
15688WAT      O49165   4.413   2.075   1.046
15688WAT     H149166   4.464   2.125   1.110
15688WAT     H249167   4.466   1.997   1.028
15689WAT      O49168   5.623   1.892   1.416
15689WAT     H149169   5.552   1.931   1.364
15689WAT     H249170   5.650   1.962   1.476
15690WAT      O49171   4.241   1.539   1.472
15690WAT     H149172   4.241   1.591   1.392
15690WAT     H249173   4.158   1.491   1.470
15691WAT      O49174   4.880   2.550   0.622
15691WAT     H149175   4.818   2.597   0.566
15691WAT     H249176   4.931   2.620   0.664
15692WAT      O49177   4.366   2.503   1.290
15692WAT     H149178   4.333   2.566   1.354
15692WAT     H249179   4.384   2.556   1.212
15693WAT      O49180   5.218   1.884   1.037
15693WAT     H149181   5.147   1.913   1.095
15693WAT     H249182   5.254   1.965   1.001
15694WAT      O49183   4.209   1.710   1.273
15694WAT     H149184   4.243   1.795   1.244
15694WAT     H249185   4.115   1.725   1.285
15695WAT      O49186   4.287   2.700   1.472
15695WAT     H149187   4.349   2.767   1.444
15695WAT     H249188   4.201   2.741   1.463
15696WAT      O49189   3.817   2.619   0.360
15696WAT     H149190   3.779   2.668   0.287
15696WAT     H249191   3.842   2.686   0.423
15697WAT      O49192   5.379   2.846   1.263
15697WAT     H149193   5.311   2.913   1.262
15697WAT     H249194   5.433   2.866   1.187
15698WAT      O49195   5.524   1.829   1.076
15698WAT     H149196   5.430   1.832   1.089
15698WAT     H249197   5.557   1.910   1.115
15699WAT      O49198   4.578   1.459   0.906
15699WAT     H149199   4.608   1.403   0.834
15699WAT     H249200   4.485   1.472   0.887
15700WAT      O49201   5.133   3.031   1.135
15700WAT     H149202   5.134   2.990   1.048
15700WAT     H249203   5.078   3.108   1.124
15701WAT      O49204   5.262   2.703   0.644
15701WAT     H149205   5.251   2.609   0.656
15701WAT     H249206   5.262   2.739   0.732
15702WAT      O49207   5.073   2.521   1.267
15702WAT     H149208   5.114   2.500   1.184
15702WAT     H249209   5.145   2.547   1.325
15703WAT      O49210   4.816   2.265   0.579
15703WAT     H149211   4.724   2.259   0.602
15703WAT     H249212   4.832   2.359   0.568
15704WAT      O49213   4.815   1.893   0.279
15704WAT     H149214   4.721   1.909   0.287
15704WAT     H249215   4.847   1.965   0.224
15705WAT      O49216   5.467   2.361   1.277
15705WAT     H149217   5.384   2.368   1.229
15705WAT     H249218   5.527   2.419   1.230
15706WAT      O49219   5.219   2.422   0.630
15706WAT     H149220   5.158   2.388   0.565
15706WAT     H249221   5.218   2.357   0.700
15707WAT      O49222   5.164   2.040   1.371
15707WAT     H149223   5.122   2.122   1.397
15707WAT     H249224   5.090   1.981   1.352
15708WAT      O49225   4.377   2.318   0.857
15708WAT     H149226   4.337   2.247   0.808
15708WAT     H249227   4.386   2.284   0.946
15709WAT      O49228   4.424   2.687   1.074
15709WAT     H149229   4.394   2.626   1.006
15709WAT     H249230   4.519   2.691   1.063
15710WAT      O49231   4.248   1.996   1.235
15710WAT     H149232   4.303   2.007   1.158
15710WAT     H249233   4.300   2.033   1.307
15711WAT      O49234   5.233   3.044   1.440
15711WAT     H149235   5.185   3.125   1.421
15711WAT     H249236   5.164   2.979   1.455
15712WAT      O49237   4.333   2.661   1.739
15712WAT     H149238   4.243   2.683   1.764
15712WAT     H249239   4.336   2.673   1.644
15713WAT      O49240   5.037   2.346   0.330
15713WAT     H149241   5.081   2.262   0.316
15713WAT     H249242   5.108   2.409   0.339
15714WAT      O49243   4.216   2.348   1.596
15714WAT     H149244   4.202   2.435   1.633
15714WAT     H249245   4.128   2.313   1.582
15715WAT      O49246   4.848   2.840   0.727
15715WAT     H149247   4.892   2.914   0.686
15715WAT     H249248   4.842   2.864   0.819
15716WAT      O49249   4.395   2.942   1.817
15716WAT     H149250   4.393   2.982   1.731
15716WAT     H249251   4.379   2.849   1.801
15717WAT      O49252   4.047   2.208   0.607
15717WAT     H149253   4.035   2.280   0.546
15717WAT     H249254   4.016   2.131   0.560
15718WAT      O49255   5.591   3.020   1.947
15718WAT     H149256   5.638   3.068   2.015
15718WAT     H249257   5.653   3.013   1.874
15719WAT      O49258   3.811   2.525   1.188
15719WAT     H149259   3.819   2.538   1.094
15719WAT     H249260   3.872   2.454   1.207
15720WAT      O49261   3.935   2.695   0.829
15720WAT     H149262   3.895   2.709   0.744
15720WAT     H249263   4.024   2.666   0.809
15721WAT      O49264   5.531   2.739   1.663
15721WAT     H149265   5.544   2.715   1.571
15721WAT     H249266   5.535   2.656   1.710
15722WAT      O49267   4.917   3.110   1.520
15722WAT     H149268   4.969   3.101   1.600
15722WAT     H249269   4.833   3.144   1.549
15723WAT      O49270   5.115   3.138   0.463
15723WAT     H149271   5.099   3.109   0.553
15723WAT     H249272   5.098   3.061   0.409
15724WAT      O49273   4.363   3.116   0.640
15724WAT     H149274   4.345   3.025   0.619
15724WAT     H249275   4.277   3.152   0.664
15725WAT      O49276   5.085   2.889   0.319
15725WAT     H149277   5.016   2.889   0.253
15725WAT     H249278   5.159   2.847   0.276
15726WAT      O49279   5.041   3.052   0.726
15726WAT     H149280   5.087   2.974   0.758
15726WAT     H249281   5.075   3.123   0.781
15727WAT      O49282   5.516   1.945   1.759
15727WAT     H149283   5.455   1.995   1.707
15727WAT     H249284   5.484   1.855   1.754
15728WAT      O49285   3.816   2.629   1.442
15728WAT     H149286   3.833   2.582   1.360
15728WAT     H249287   3.863   2.578   1.509
15729WAT      O49288   4.294   1.542   0.946
15729WAT     H149289   4.249   1.620   0.913
15729WAT     H249290   4.350   1.574   1.016
15730WAT      O49291   4.722   1.829   1.506
15730WAT     H149292   4.676   1.849   1.587
15730WAT     H249293   4.682   1.747   1.476
15731WAT      O49294   5.222   1.951   1.619
15731WAT     H149295   5.137   1.921   1.651
15731WAT     H249296   5.206   1.975   1.528
15732WAT      O49297   4.932   2.101   1.829
15732WAT     H149298   4.964   2.017   1.795
15732WAT     H249299   5.011   2.153   1.844
15733WAT      O49300   4.605   1.504   0.434
15733WAT     H149301   4.543   1.504   0.506
15733WAT     H249302   4.597   1.417   0.394
15734WAT      O49303   4.497   1.596   1.132
15734WAT     H149304   4.527   1.687   1.124
15734WAT     H249305   4.552   1.548   1.070
15735WAT      O49306   4.273   2.054   0.719
15735WAT     H149307   4.250   2.033   0.809
15735WAT     H249308   4.195   2.098   0.684
15736WAT      O49309   4.996   2.055   0.578
15736WAT     H149310   4.936   2.127   0.560
15736WAT     H249311   5.051   2.049   0.500
15737WAT      O49312   4.517   2.144   1.785
15737WAT     H149313   4.507   2.050   1.770
15737WAT     H249314   4.601   2.166   1.746
15738WAT      O49315   4.856   1.919   0.781
15738WAT     H149316   4.896   1.950   0.700
15738WAT     H249317   4.893   1.831   0.793
15739WAT      O49318   4.030   1.785   1.600
15739WAT     H149319   3.991   1.870   1.621
15739WAT     H249320   3.961   1.722   1.620
15740WAT      O49321   4.687   1.794   1.907
15740WAT     H149322   4.618   1.774   1.971
15740WAT     H249323   4.762   1.822   1.961
15741WAT      O49324   3.760   1.578   1.004
15741WAT     H149325   3.731   1.635   1.075
15741WAT     H249326   3.835   1.530   1.040
15742WAT      O49327   4.915   2.178   1.191
15742WAT     H149328   4.842   2.228   1.226
15742WAT     H249329   4.875   2.096   1.161
15743WAT      O49330   4.559   1.845   1.031
15743WAT     H149331   4.559   1.801   0.947
15743WAT     H249332   4.648   1.877   1.042
15744WAT      O49333   4.144   1.833   0.927
15744WAT     H149334   4.110   1.881   1.003
15744WAT     H249335   4.068   1.788   0.891
15745WAT      O49336   4.565   1.945   0.331
15745WAT     H149337   4.577   1.941   0.425
15745WAT     H249338   4.526   2.031   0.315
15746WAT      O49339   4.961   1.723   1.132
15746WAT     H149340   4.963   1.768   1.217
15746WAT     H249341   4.936   1.633   1.154
15747WAT      O49342   4.466   2.176   0.270
15747WAT     H149343   4.409   2.131   0.208
15747WAT     H249344   4.537   2.212   0.217
15748WAT      O49345   5.304   1.464   1.716
15748WAT     H149346   5.336   1.391   1.769
15748WAT     H249347   5.308   1.432   1.626
15749WAT      O49348   3.974   2.566   1.658
15749WAT     H149349   3.935   2.502   1.718
15749WAT     H249350   4.005   2.637   1.715
15750WAT      O49351   4.589   2.251   1.206
15750WAT     H149352   4.626   2.204   1.281
15750WAT     H249353   4.570   2.339   1.240
15751WAT      O49354   3.875   1.726   0.819
15751WAT     H149355   3.847   1.689   0.903
15751WAT     H249356   3.869   1.652   0.758
15752WAT      O49357   4.368   2.155   1.438
15752WAT     H149358   4.337   2.243   1.460
15752WAT     H249359   4.463   2.161   1.442
15753WAT      O49360   4.221   2.576   0.498
15753WAT     H149361   4.143   2.522   0.482
15753WAT     H249362   4.294   2.524   0.464
15754WAT      O49363   5.297   2.476   1.077
15754WAT     H149364   5.369   2.525   1.038
15754WAT     H249365   5.276   2.408   1.012
15755WAT      O49366   4.843   1.615   0.491
15755WAT     H149367   4.761   1.565   0.484
15755WAT     H249368   4.823   1.699   0.450
15756WAT      O49369   4.835   2.483   1.666
15756WAT     H149370   4.828   2.391   1.640
15756WAT     H249371   4.772   2.492   1.737
15757WAT      O49372   5.114   2.052   0.321
15757WAT     H149373   5.203   2.083   0.303
15757WAT     H249374   5.111   1.965   0.282
15758WAT      O49375   4.225   2.543   0.861
15758WAT     H149376   4.277   2.462   0.856
15758WAT     H249377   4.180   2.536   0.946
15759WAT      O49378   4.714   2.669   0.389
15759WAT     H149379   4.748   2.744   0.339
15759WAT     H249380   4.631   2.701   0.425
15760WAT      O49381   3.973   2.239   1.553
15760WAT     H149382   3.938   2.306   1.611
15760WAT     H249383   3.944   2.156   1.590
15761WAT      O49384   4.294   2.285   1.841
15761WAT     H149385   4.264   2.300   1.751
15761WAT     H249386   4.371   2.229   1.832
15762WAT      O49387   4.828   2.765   1.641
15762WAT     H149388   4.829   2.672   1.619
15762WAT     H249389   4.757   2.773   1.705
15763WAT      O49390   5.341   2.183   0.268
15763WAT     H149391   5.333   2.226   0.183
15763WAT     H249392   5.413   2.229   0.311
15764WAT      O49393   5.449   2.429   1.575
15764WAT     H149394   5.376   2.488   1.556
15764WAT     H249395   5.502   2.428   1.495
15765WAT      O49396   5.444   2.869   0.540
15765WAT     H149397   5.380   2.803   0.568
15765WAT     H249398   5.405   2.909   0.463
15766WAT      O49399   5.002   2.601   0.925
15766WAT     H149400   5.037   2.542   0.859
15766WAT     H249401   4.914   2.569   0.942
15767WAT      O49402   4.611   2.677   0.666
15767WAT     H149403   4.679   2.732   0.704
15767WAT     H249404   4.532   2.732   0.669
15768WAT      O49405   3.825   2.239   0.215
15768WAT     H149406   3.911   2.267   0.243
15768WAT     H249407   3.775   2.321   0.204
15769WAT      O49408   4.541   2.378   0.627
15769WAT     H149409   4.587   2.459   0.650
15769WAT     H249410   4.506   2.346   0.710
15770WAT      O49411   4.771   2.929   1.350
15770WAT     H149412   4.836   2.950   1.418
15770WAT     H249413   4.808   2.853   1.305
15771WAT      O49414   4.131   1.412   0.674
15771WAT     H149415   4.118   1.411   0.769
15771WAT     H249416   4.049   1.446   0.639
15772WAT      O49417   4.899   2.729   1.222
15772WAT     H149418   4.963   2.659   1.233
15772WAT     H249419   4.951   2.807   1.204
15773WAT      O49420   5.076   2.809   1.542
15773WAT     H149421   5.109   2.868   1.610
15773WAT     H249422   4.984   2.796   1.565
15774WAT      O49423   3.861   3.160   0.272
15774WAT     H149424   3.897   3.220   0.206
15774WAT     H249425   3.847   3.215   0.349
15775WAT      O49426   3.831   1.588   1.620
15775WAT     H149427   3.760   1.608   1.681
15775WAT     H249428   3.873   1.511   1.658
15776WAT      O49429   5.241   2.550   0.360
15776WAT     H149430   5.212   2.596   0.439
15776WAT     H249431   5.321   2.503   0.387
15777WAT      O49432   3.860   2.987   1.719
15777WAT     H149433   3.871   2.893   1.705
15777WAT     H249434   3.794   3.014   1.654
15778WAT      O49435   4.659   2.814   1.859
15778WAT     H149436   4.627   2.742   1.914
15778WAT     H249437   4.591   2.882   1.866
15779WAT      O49438   4.463   2.899   0.353
15779WAT     H149439   4.462   2.972   0.292
15779WAT     H249440   4.371   2.874   0.363
15780WAT      O49441   4.023   2.421   0.428
15780WAT     H149442   3.962   2.495   0.429
15780WAT     H249443   4.071   2.430   0.345
15781WAT      O49444   4.980   1.837   1.395
15781WAT     H149445   5.017   1.755   1.428
15781WAT     H249446   4.894   1.843   1.437
15782WAT      O49447   5.317   1.733   0.476
15782WAT     H149448   5.254   1.743   0.405
15782WAT     H249449   5.267   1.755   0.555
15783WAT      O49450   4.514   1.961   0.618
15783WAT     H149451   4.443   2.008   0.662
15783WAT     H249452   4.542   1.895   0.681
15784WAT      O49453   4.676   2.103   1.418
15784WAT     H149454   4.726   2.150   1.484
15784WAT     H249455   4.691   2.010   1.439
15785WAT      O49456   4.917   1.633   0.762
15785WAT     H149457   4.905   1.635   0.667
15785WAT     H249458   5.012   1.638   0.774
15786WAT      O49459   4.626   3.157   0.689
15786WAT     H149460   4.651   3.153   0.597
15786WAT     H249461   4.531   3.144   0.688
15787WAT      O49462   4.334   1.792   0.355
15787WAT     H149463   4.419   1.835   0.349
15787WAT     H249464   4.297   1.823   0.438
15788WAT      O49465   5.397   1.724   1.502
15788WAT     H149466   5.347   1.799   1.536
15788WAT     H249467   5.479   1.763   1.470
15789WAT      O49468   5.226   2.249   0.847
15789WAT     H149469   5.132   2.250   0.864
15789WAT     H249470   5.258   2.170   0.891
15790WAT      O49471   4.094   2.160   0.271
15790WAT     H149472   4.102   2.066   0.282
15790WAT     H249473   4.183   2.193   0.282
15791WAT      O49474   5.427   2.966   1.014
15791WAT     H149475   5.439   3.048   1.061
15791WAT     H249476   5.513   2.945   0.979
15792WAT      O49477   4.174   3.175   0.981
15792WAT     H149478   4.247   3.120   1.009
15792WAT     H249479   4.212   3.262   0.967
15793WAT      O49480   3.862   2.782   0.569
15793WAT     H149481   3.770   2.806   0.568
15793WAT     H249482   3.909   2.865   0.557
15794WAT      O49483   4.074   3.094   1.900
15794WAT     H149484   4.154   3.126   1.942
15794WAT     H249485   4.023   3.058   1.972
15795WAT      O49486   4.958   2.704   1.895
15795WAT     H149487   4.897   2.707   1.821
15795WAT     H249488   4.927   2.631   1.949
15796WAT      O49489   5.101   3.077   1.756
15796WAT     H149490   5.196   3.069   1.751
15796WAT     H249491   5.086   3.144   1.823
15797WAT      O49492   5.390   3.015   0.306
15797WAT     H149493   5.361   2.974   0.225
15797WAT     H249494   5.370   3.108   0.294
15798WAT      O49495   3.846   2.342   1.795
15798WAT     H149496   3.897   2.284   1.852
15798WAT     H249497   3.772   2.371   1.848
15799WAT      O49498   4.552   2.483   1.748
15799WAT     H149499   4.475   2.540   1.740
15799WAT     H249500   4.570   2.454   1.659
15800WAT      O49501   4.861   2.521   0.211
15800WAT     H149502   4.806   2.565   0.275
15800WAT     H249503   4.923   2.470   0.263
15801WAT      O49504   5.266   2.656   1.804
15801WAT     H149505   5.340   2.690   1.753
15801WAT     H249506   5.190   2.673   1.748
15802WAT      O49507   4.049   2.157   1.884
15802WAT     H149508   4.054   2.127   1.975
15802WAT     H249509   4.135   2.197   1.868
15803WAT      O49510   4.427   2.417   0.400
15803WAT     H149511   4.469   2.400   0.484
15803WAT     H249512   4.440   2.336   0.351
15804WAT      O49513   4.244   2.015   1.681
15804WAT     H149514   4.190   1.966   1.618
15804WAT     H249515   4.310   2.057   1.627
15805WAT      O49516   5.133   2.461   1.657
15805WAT     H149517   5.175   2.477   1.742
15805WAT     H249518   5.040   2.474   1.674
15806WAT      O49519   5.181   2.195   1.858
15806WAT     H149520   5.239   2.120   1.849
15806WAT     H249521   5.198   2.248   1.780
15807WAT      O49522   4.292   1.711   1.689
15807WAT     H149523   4.283   1.649   1.616
15807WAT     H249524   4.234   1.784   1.666
15808WAT      O49525   4.569   1.567   1.392
15808WAT     H149526   4.524   1.569   1.308
15808WAT     H249527   4.506   1.527   1.452
15809WAT      O49528   4.609   2.457   1.454
15809WAT     H149529   4.651   2.541   1.437
15809WAT     H249530   4.518   2.470   1.431
15810WAT      O49531   4.843   2.230   1.593
15810WAT     H149532   4.855   2.170   1.667
15810WAT     H249533   4.929   2.233   1.551
15811WAT      O49534   5.077   2.285   1.450
15811WAT     H149535   5.024   2.337   1.390
15811WAT     H249536   5.111   2.348   1.513
15812WAT      O49537   4.395   3.087   1.566
15812WAT     H149538   4.341   3.160   1.534
15812WAT     H249539   4.420   3.039   1.487
15813WAT      O49540   4.520   1.884   1.718
15813WAT     H149541   4.579   1.853   1.787
15813WAT     H249542   4.438   1.837   1.734
15814WAT      O49543   5.002   1.846   1.742
15814WAT     H149544   4.933   1.779   1.735
15814WAT     H249545   5.074   1.801   1.786
15815WAT      O49546   5.065   1.505   0.348
15815WAT     H149547   5.093   1.421   0.383
15815WAT     H249548   4.987   1.528   0.399
15816WAT      O49549   4.680   3.211   1.592
15816WAT     H149550   4.673   3.301   1.622
15816WAT     H249551   4.590   3.179   1.589
15817WAT      O49552   4.735   3.127   0.354
15817WAT     H149553   4.825   3.161   0.356
15817WAT     H249554   4.738   3.055   0.291
15818WAT      O49555   4.099   2.664   0.177
15818WAT     H149556   4.143   2.719   0.242
15818WAT     H249557   4.147   2.582   0.178
15819WAT      O49558   3.820   2.943   0.922
15819WAT     H149559   3.853   2.857   0.899
15819WAT     H249560   3.863   2.964   1.005
15820WAT      O49561   4.280   2.776   0.688
15820WAT     H149562   4.250   2.764   0.778
15820WAT     H249563   4.269   2.691   0.647
15821WAT      O49564   3.869   3.030   1.196
15821WAT     H149565   3.826   3.048   1.279
15821WAT     H249566   3.926   3.106   1.182
15822WAT      O49567   5.433   2.980   1.625
15822WAT     H149568   5.373   2.986   1.550
15822WAT     H249569   5.446   2.886   1.638
15823WAT      O49570   5.503   2.429   0.409
15823WAT     H149571   5.579   2.486   0.419
15823WAT     H249572   5.504   2.372   0.486
15824WAT      O49573   3.853   2.281   0.832
15824WAT     H149574   3.787   2.254   0.767
15824WAT     H249575   3.936   2.270   0.787
15825WAT      O49576   5.603   2.514   0.893
15825WAT     H149577   5.640   2.436   0.852
15825WAT     H249578   5.667   2.583   0.875
15826WAT      O49579   5.301   2.653   1.434
15826WAT     H149580   5.220   2.696   1.461
15826WAT     H249581   5.342   2.714   1.373
15827WAT      O49582   5.147   1.761   0.254
15827WAT     H149583   5.189   1.742   0.170
15827WAT     H249584   5.117   1.675   0.285
15828WAT      O49585   5.497   2.252   0.624
15828WAT     H149586   5.460   2.175   0.580
15828WAT     H249587   5.424   2.290   0.672
15829WAT      O49588   3.956   2.320   1.286
15829WAT     H149589   3.993   2.311   1.374
15829WAT     H249590   3.899   2.243   1.276
15830WAT      O49591   5.436   2.167   1.587
15830WAT     H149592   5.413   2.144   1.497
15830WAT     H249593   5.462   2.259   1.583
15831WAT      O49594   3.911   2.011   1.676
15831WAT     H149595   3.822   2.008   1.710
15831WAT     H249596   3.965   2.031   1.753
15832WAT      O49597   5.280   1.689   1.865
15832WAT     H149598   5.368   1.690   1.903
15832WAT     H249599   5.281   1.615   1.804
15833WAT      O49600   3.774   2.002   0.426
15833WAT     H149601   3.684   2.029   0.409
15833WAT     H249602   3.822   2.029   0.348
15834WAT      O49603   5.425   2.074   0.954
15834WAT     H149604   5.477   2.025   0.891
15834WAT     H249605   5.483   2.088   1.028
15835WAT      O49606   5.443   2.083   1.306
15835WAT     H149607   5.348   2.079   1.317
15835WAT     H249608   5.461   2.174   1.282
15836WAT      O49609   5.374   2.000   0.548
15836WAT     H149610   5.423   1.977   0.626
15836WAT     H249611   5.354   1.916   0.506
15837WAT      O49612   3.962   1.438   1.111
15837WAT     H149613   4.027   1.383   1.067
15837WAT     H249614   4.004   1.464   1.193
15838WAT      O49615   5.517   1.864   0.801
15838WAT     H149616   5.506   1.848   0.895
15838WAT     H249617   5.593   1.811   0.777
15839WAT      O49618   5.351   1.458   1.447
15839WAT     H149619   5.415   1.519   1.483
15839WAT     H249620   5.366   1.461   1.352
15840WAT      O49621   5.613   1.724   0.388
15840WAT     H149622   5.534   1.717   0.441
15840WAT     H249623   5.633   1.818   0.387
15841WAT      O49624   5.307   3.128   0.787
15841WAT     H149625   5.367   3.096   0.719
15841WAT     H249626   5.333   3.081   0.866
15842WAT      O49627   3.937   1.454   1.385
15842WAT     H149628   3.902   1.500   1.462
15842WAT     H249629   3.904   1.364   1.394
15843WAT      O49630   4.098   2.771   1.802
15843WAT     H149631   4.094   2.734   1.890
15843WAT     H249632   4.111   2.865   1.816
15844WAT      O49633   4.468   2.927   1.362
15844WAT     H149634   4.444   2.953   1.273
15844WAT     H249635   4.562   2.944   1.368
15845WAT      O49636   4.688   1.573   1.738
15845WAT     H149637   4.682   1.632   1.813
15845WAT     H249638   4.782   1.562   1.723
15846WAT      O49639   4.952   1.539   1.702
15846WAT     H149640   5.014   1.571   1.635
15846WAT     H249641   5.007   1.490   1.764
15847WAT      O49642   5.594   3.129   1.442
15847WAT     H149643   5.545   3.168   1.370
15847WAT     H249644   5.533   3.066   1.482
15848WAT      O49645   4.004   1.407   1.713
15848WAT     H149646   4.059   1.389   1.637
15848WAT     H249647   4.011   1.328   1.767
15849WAT      O49648   4.082   3.066   1.514
15849WAT     H149649   4.022   3.053   1.588
15849WAT     H249650   4.081   2.982   1.467
15850WAT      O49651   5.026   1.395   1.334
15850WAT     H149652   4.939   1.428   1.314
15850WAT     H249653   5.015   1.348   1.417
15851WAT      O49654   5.117   1.616   1.473
15851WAT     H149655   5.084   1.534   1.435
15851WAT     H249656   5.212   1.611   1.460
15852WAT      O49657   5.362   3.193   1.170
15852WAT     H149658   5.316   3.268   1.133
15852WAT     H249659   5.299   3.121   1.164
15853WAT      O49660   4.045   2.802   1.409
15853WAT     H149661   3.972   2.740   1.402
15853WAT     H249662   4.051   2.842   1.322
15854WAT      O49663   4.405   3.024   1.088
15854WAT     H149664   4.457   2.963   1.035
15854WAT     H249665   4.470   3.074   1.137
15855WAT      O49666   4.679   3.113   1.170
15855WAT     H149667   4.708   3.087   1.083
15855WAT     H249668   4.730   3.058   1.229
15856WAT      O49669   4.801   1.487   1.228
15856WAT     H149670   4.723   1.534   1.256
15856WAT     H249671   4.772   1.396   1.217
15857WAT      O49672   5.256   1.557   1.033
15857WAT     H149673   5.300   1.551   0.948
15857WAT     H249674   5.229   1.649   1.040
15858WAT      O49675   5.443   1.520   0.834
15858WAT     H149676   5.437   1.426   0.819
15858WAT     H249677   5.521   1.531   0.888
15859WAT      O49678   3.873   3.134   0.730
15859WAT     H149679   3.856   3.071   0.800
15859WAT     H249680   3.787   3.155   0.695
15860WAT      O49681   3.935   1.517   0.480
15860WAT     H149682   4.011   1.528   0.423
15860WAT     H249683   3.889   1.601   0.476
15861WAT      O49684   4.590   1.729   0.779
15861WAT     H149685   4.508   1.691   0.745
15861WAT     H249686   4.640   1.653   0.810
15862WAT      O49687   5.040   1.395   0.903
15862WAT     H149688   5.100   1.452   0.951
15862WAT     H249689   4.966   1.451   0.881
15863WAT      O49690   5.354   1.435   0.431
15863WAT     H149691   5.374   1.525   0.457
15863WAT     H249692   5.275   1.412   0.480
15864WAT      O49693   4.034   3.003   0.474
15864WAT     H149694   3.981   3.041   0.404
15864WAT     H249695   4.026   3.066   0.547
15865WAT      O49696   4.173   1.570   0.334
15865WAT     H149697   4.226   1.491   0.321
15865WAT     H249698   4.236   1.638   0.358
15866WAT      O49699   4.392   1.544   0.640
15866WAT     H149700   4.329   1.473   0.656
15866WAT     H249701   4.338   1.620   0.618
15867WAT      O49702   4.686   3.205   1.907
15867WAT     H149703   4.779   3.181   1.911
15867WAT     H249704   4.684   3.288   1.859
15868WAT      O49705   5.509   3.159   0.607
15868WAT     H149706   5.527   3.091   0.542
15868WAT     H249707   5.440   3.212   0.567
15869WAT      O49708   4.405   1.471   1.883
15869WAT     H149709   4.376   1.522   1.807
15869WAT     H249710   4.443   1.392   1.847
15870WAT      O49711   4.294   3.198   0.362
15870WAT     H149712   4.367   3.170   0.307
15870WAT     H249713   4.320   3.174   0.451
15871WAT      O49714   4.210   2.810   0.362
15871WAT     H149715   4.147   2.857   0.417
15871WAT     H249716   4.221   2.725   0.406
15872WAT      O49717   5.065   1.413   1.941
15872WAT     H149718   5.053   1.445   2.031
15872WAT     H249719   5.146   1.453   1.911
15873WAT      O49720   5.343   3.128   1.889
15873WAT     H149721   5.422   3.078   1.869
15873WAT     H249722   5.372   3.196   1.950
15874WAT      O49723   4.955   0.337   6.487
15874WAT     H149724   4.947   0.246   6.460
15874WAT     H249725   4.914   0.387   6.417
15875WAT      O49726   4.769   0.515   6.675
15875WAT     H149727   4.691   0.467   6.704
15875WAT     H249728   4.834   0.447   6.658
15876WAT      O49729   4.170   0.546   6.763
15876WAT     H149730   4.087   0.521   6.803
15876WAT     H249731   4.231   0.554   6.837
15877WAT      O49732   5.171   0.956   6.553
15877WAT     H149733   5.124   0.879   6.586
15877WAT     H249734   5.252   0.959   6.604
15878WAT      O49735   4.168   0.950   6.783
15878WAT     H149736   4.198   0.861   6.765
15878WAT     H249737   4.243   1.006   6.760
15879WAT      O49738   3.807   0.303   6.730
15879WAT     H149739   3.865   0.226   6.730
15879WAT     H249740   3.807   0.332   6.639
15880WAT      O49741   4.793   1.184   6.515
15880WAT     H149742   4.731   1.230   6.458
15880WAT     H249743   4.879   1.200   6.475
15881WAT      O49744   4.713   0.783   6.676
15881WAT     H149745   4.706   0.689   6.660
15881WAT     H249746   4.789   0.792   6.733
15882WAT      O49747   4.880   0.673   6.255
15882WAT     H149748   4.818   0.719   6.198
15882WAT     H249749   4.931   0.742   6.296
15883WAT      O49750   4.366   0.626   6.922
15883WAT     H149751   4.333   0.688   6.987
15883WAT     H249752   4.384   0.678   6.845
15884WAT      O49753   4.287   0.822   7.104
15884WAT     H149754   4.349   0.890   7.076
15884WAT     H249755   4.201   0.863   7.095
15885WAT      O49756   3.817   0.741   5.992
15885WAT     H149757   3.779   0.790   5.919
15885WAT     H249758   3.842   0.809   6.055
15886WAT      O49759   5.379   0.969   6.896
15886WAT     H149760   5.311   1.036   6.895
15886WAT     H249761   5.433   0.989   6.819
15887WAT      O49762   5.133   1.153   6.767
15887WAT     H149763   5.134   1.113   6.680
15887WAT     H249764   5.078   1.231   6.757
15888WAT      O49765   5.262   0.825   6.276
15888WAT     H149766   5.251   0.731   6.288
15888WAT     H249767   5.262   0.862   6.365
15889WAT      O49768   5.073   0.644   6.900
15889WAT     H149769   5.114   0.622   6.816
15889WAT     H249770   5.145   0.669   6.957
15890WAT      O49771   4.816   0.388   6.212
15890WAT     H149772   4.724   0.381   6.234
15890WAT     H249773   4.832   0.482   6.200
15891WAT      O49774   5.467   0.483   6.909
15891WAT     H149775   5.384   0.490   6.861
15891WAT     H249776   5.527   0.542   6.862
15892WAT      O49777   5.219   0.544   6.262
15892WAT     H149778   5.158   0.510   6.197
15892WAT     H249779   5.218   0.480   6.333
15893WAT      O49780   4.377   0.441   6.490
15893WAT     H149781   4.337   0.369   6.440
15893WAT     H249782   4.386   0.406   6.579
15894WAT      O49783   4.424   0.809   6.706
15894WAT     H149784   4.394   0.749   6.638
15894WAT     H249785   4.519   0.813   6.695
15895WAT      O49786   5.233   1.167   7.072
15895WAT     H149787   5.185   1.247   7.053
15895WAT     H249788   5.164   1.101   7.088
15896WAT      O49789   4.333   0.783   7.371
15896WAT     H149790   4.243   0.806   7.396
15896WAT     H249791   4.336   0.796   7.276
15897WAT      O49792   5.037   0.468   5.963
15897WAT     H149793   5.081   0.384   5.948
15897WAT     H249794   5.108   0.531   5.971
15898WAT      O49795   4.216   0.470   7.229
15898WAT     H149796   4.202   0.558   7.266
15898WAT     H249797   4.128   0.436   7.214
15899WAT      O49798   4.848   0.962   6.359
15899WAT     H149799   4.892   1.036   6.318
15899WAT     H249800   4.842   0.986   6.452
15900WAT      O49801   4.395   1.065   7.450
15900WAT     H149802   4.393   1.105   7.363
15900WAT     H249803   4.379   0.972   7.433
15901WAT      O49804   4.047   0.330   6.240
15901WAT     H149805   4.035   0.403   6.179
15901WAT     H249806   4.016   0.253   6.192
15902WAT      O49807   3.811   0.647   6.820
15902WAT     H149808   3.819   0.661   6.726
15902WAT     H249809   3.872   0.576   6.840
15903WAT      O49810   3.935   0.817   6.462
15903WAT     H149811   3.895   0.831   6.376
15903WAT     H249812   4.024   0.789   6.441
15904WAT      O49813   5.531   0.862   7.295
15904WAT     H149814   5.544   0.838   7.203
15904WAT     H249815   5.535   0.779   7.342
15905WAT      O49816   4.917   1.232   7.152
15905WAT     H149817   4.969   1.223   7.232
15905WAT     H249818   4.833   1.267   7.181
15906WAT      O49819   5.115   1.261   6.095
15906WAT     H149820   5.099   1.232   6.185
15906WAT     H249821   5.098   1.183   6.041
15907WAT      O49822   4.363   1.239   6.273
15907WAT     H149823   4.345   1.147   6.251
15907WAT     H249824   4.277   1.275   6.297
15908WAT      O49825   5.085   1.012   5.951
15908WAT     H149826   5.016   1.011   5.885
15908WAT     H249827   5.159   0.969   5.908
15909WAT      O49828   5.041   1.174   6.358
15909WAT     H149829   5.087   1.096   6.390
15909WAT     H249830   5.075   1.245   6.413
15910WAT      O49831   3.816   0.751   7.074
15910WAT     H149832   3.833   0.704   6.993
15910WAT     H249833   3.863   0.701   7.141
15911WAT      O49834   4.932   0.223   7.461
15911WAT     H149835   4.964   0.140   7.427
15911WAT     H249836   5.011   0.276   7.476
15912WAT      O49837   4.273   0.177   6.351
15912WAT     H149838   4.250   0.155   6.441
15912WAT     H249839   4.195   0.220   6.316
15913WAT      O49840   4.996   0.177   6.211
15913WAT     H149841   4.936   0.250   6.192
15913WAT     H249842   5.051   0.171   6.132
15914WAT      O49843   4.517   0.267   7.417
15914WAT     H149844   4.507   0.173   7.402
15914WAT     H249845   4.601   0.289   7.378
15915WAT      O49846   4.915   0.300   6.823
15915WAT     H149847   4.842   0.351   6.858
15915WAT     H249848   4.875   0.218   6.793
15916WAT      O49849   4.466   0.299   5.903
15916WAT     H149850   4.409   0.254   5.840
15916WAT     H249851   4.537   0.335   5.849
15917WAT      O49852   3.974   0.689   7.290
15917WAT     H149853   3.935   0.625   7.350
15917WAT     H249854   4.005   0.759   7.347
15918WAT      O49855   4.589   0.374   6.838
15918WAT     H149856   4.626   0.326   6.913
15918WAT     H249857   4.570   0.461   6.873
15919WAT      O49858   4.368   0.278   7.070
15919WAT     H149859   4.337   0.366   7.093
15919WAT     H249860   4.463   0.284   7.074
15920WAT      O49861   4.221   0.698   6.130
15920WAT     H149862   4.143   0.644   6.114
15920WAT     H249863   4.294   0.646   6.096
15921WAT      O49864   5.297   0.598   6.709
15921WAT     H149865   5.369   0.648   6.670
15921WAT     H249866   5.276   0.530   6.645
15922WAT      O49867   4.835   0.605   7.298
15922WAT     H149868   4.828   0.513   7.272
15922WAT     H249869   4.772   0.615   7.369
15923WAT      O49870   4.225   0.665   6.494
15923WAT     H149871   4.277   0.585   6.488
15923WAT     H249872   4.180   0.659   6.578
15924WAT      O49873   4.714   0.792   6.021
15924WAT     H149874   4.748   0.866   5.971
15924WAT     H249875   4.631   0.823   6.057
15925WAT      O49876   3.973   0.362   7.185
15925WAT     H149877   3.938   0.428   7.244
15925WAT     H249878   3.944   0.279   7.222
15926WAT      O49879   4.294   0.408   7.473
15926WAT     H149880   4.264   0.422   7.384
15926WAT     H249881   4.371   0.352   7.464
15927WAT      O49882   4.828   0.887   7.273
15927WAT     H149883   4.829   0.794   7.251
15927WAT     H249884   4.757   0.896   7.337
15928WAT      O49885   5.341   0.306   5.900
15928WAT     H149886   5.333   0.349   5.815
15928WAT     H249887   5.413   0.352   5.943
15929WAT      O49888   5.449   0.551   7.208
15929WAT     H149889   5.376   0.611   7.188
15929WAT     H249890   5.502   0.551   7.128
15930WAT      O49891   5.444   0.991   6.173
15930WAT     H149892   5.380   0.926   6.200
15930WAT     H249893   5.405   1.032   6.095
15931WAT      O49894   5.002   0.724   6.557
15931WAT     H149895   5.037   0.664   6.491
15931WAT     H249896   4.914   0.691   6.575
15932WAT      O49897   4.611   0.800   6.298
15932WAT     H149898   4.679   0.855   6.336
15932WAT     H249899   4.532   0.854   6.302
15933WAT      O49900   3.825   0.362   5.847
15933WAT     H149901   3.911   0.390   5.876
15933WAT     H249902   3.775   0.443   5.836
15934WAT      O49903   4.541   0.500   6.259
15934WAT     H149904   4.587   0.582   6.282
15934WAT     H249905   4.506   0.469   6.343
15935WAT      O49906   4.771   1.052   6.982
15935WAT     H149907   4.836   1.072   7.050
15935WAT     H249908   4.808   0.975   6.937
15936WAT      O49909   4.899   0.852   6.854
15936WAT     H149910   4.963   0.782   6.865
15936WAT     H249911   4.951   0.930   6.836
15937WAT      O49912   5.283   0.880   5.827
15937WAT     H149913   5.260   0.809   5.886
15937WAT     H249914   5.244   0.855   5.743
15938WAT      O49915   5.076   0.932   7.174
15938WAT     H149916   5.109   0.990   7.242
15938WAT     H249917   4.984   0.919   7.197
15939WAT      O49918   3.861   1.283   5.904
15939WAT     H149919   3.897   1.343   5.839
15939WAT     H249920   3.847   1.338   5.981
15940WAT      O49921   5.241   0.672   5.993
15940WAT     H149922   5.212   0.718   6.071
15940WAT     H249923   5.321   0.626   6.019
15941WAT      O49924   3.860   1.110   7.351
15941WAT     H149925   3.871   1.016   7.337
15941WAT     H249926   3.794   1.136   7.287
15942WAT      O49927   4.463   1.021   5.986
15942WAT     H149928   4.462   1.095   5.924
15942WAT     H249929   4.371   0.997   5.995
15943WAT      O49930   4.023   0.543   6.060
15943WAT     H149931   3.962   0.617   6.061
15943WAT     H249932   4.071   0.552   5.978
15944WAT      O49933   4.762   1.028   5.852
15944WAT     H149934   4.772   1.007   5.759
15944WAT     H249935   4.672   1.002   5.872
15945WAT      O49936   4.676   0.225   7.050
15945WAT     H149937   4.726   0.273   7.117
15945WAT     H249938   4.691   0.133   7.071
15946WAT      O49939   4.626   1.279   6.321
15946WAT     H149940   4.651   1.276   6.229
15946WAT     H249941   4.531   1.267   6.321
15947WAT      O49942   5.226   0.371   6.479
15947WAT     H149943   5.132   0.373   6.496
15947WAT     H249944   5.258   0.293   6.524
15948WAT      O49945   4.224   0.540   5.835
15948WAT     H149946   4.301   0.528   5.891
15948WAT     H249947   4.232   0.470   5.770
15949WAT      O49948   4.094   0.283   5.903
15949WAT     H149949   4.102   0.188   5.915
15949WAT     H249950   4.183   0.316   5.914
15950WAT      O49951   5.427   1.088   6.647
15950WAT     H149952   5.439   1.171   6.694
15950WAT     H249953   5.513   1.067   6.612
15951WAT      O49954   4.174   1.298   6.614
15951WAT     H149955   4.247   1.243   6.641
15951WAT     H249956   4.212   1.384   6.600
15952WAT      O49957   3.862   0.905   6.201
15952WAT     H149958   3.770   0.929   6.200
15952WAT     H249959   3.909   0.987   6.189
15953WAT      O49960   4.485   1.215   5.796
15953WAT     H149961   4.564   1.244   5.751
15953WAT     H249962   4.433   1.172   5.728
15954WAT      O49963   5.101   1.200   7.388
15954WAT     H149964   5.196   1.191   7.383
15954WAT     H249965   5.086   1.266   7.456
15955WAT      O49966   5.390   1.138   5.938
15955WAT     H149967   5.361   1.096   5.857
15955WAT     H249968   5.370   1.231   5.926
15956WAT      O49969   3.846   0.465   7.427
15956WAT     H149970   3.897   0.407   7.484
15956WAT     H249971   3.772   0.493   7.481
15957WAT      O49972   4.536   0.737   5.782
15957WAT     H149973   4.526   0.676   5.855
15957WAT     H249974   4.520   0.685   5.704
15958WAT      O49975   4.552   0.606   7.380
15958WAT     H149976   4.475   0.663   7.372
15958WAT     H249977   4.570   0.576   7.291
15959WAT      O49978   4.861   0.643   5.843
15959WAT     H149979   4.806   0.688   5.907
15959WAT     H249980   4.923   0.593   5.895
15960WAT      O49981   5.266   0.779   7.436
15960WAT     H149982   5.340   0.813   7.386
15960WAT     H249983   5.190   0.796   7.381
15961WAT      O49984   4.427   0.539   6.032
15961WAT     H149985   4.469   0.523   6.117
15961WAT     H249986   4.440   0.458   5.983
15962WAT      O49987   4.679   0.442   5.757
15962WAT     H149988   4.731   0.370   5.721
15962WAT     H249989   4.743   0.505   5.787
15963WAT      O49990   5.133   0.584   7.290
15963WAT     H149991   5.175   0.599   7.375
15963WAT     H249992   5.040   0.596   7.306
15964WAT      O49993   5.181   0.318   7.490
15964WAT     H149994   5.239   0.242   7.481
15964WAT     H249995   5.198   0.371   7.412
15965WAT      O49996   4.609   0.579   7.087
15965WAT     H149997   4.651   0.663   7.069
15965WAT     H249998   4.518   0.593   7.064
15966WAT      O49999   4.843   0.352   7.225
15966WAT     H150000   4.855   0.293   7.299
15966WAT     H250001   4.929   0.356   7.183
15967WAT      O50002   5.077   0.408   7.083
15967WAT     H150003   5.024   0.460   7.022
15967WAT     H250004   5.111   0.471   7.146
15968WAT      O50005   4.395   1.210   7.198
15968WAT     H150006   4.341   1.282   7.166
15968WAT     H250007   4.420   1.162   7.119
15969WAT      O50008   4.680   1.333   7.224
15969WAT     H150009   4.673   1.423   7.255
15969WAT     H250010   4.590   1.301   7.221
15970WAT      O50011   4.735   1.250   5.986
15970WAT     H150012   4.825   1.284   5.988
15970WAT     H250013   4.738   1.178   5.924
15971WAT      O50014   4.099   0.787   5.809
15971WAT     H150015   4.143   0.841   5.875
15971WAT     H250016   4.147   0.704   5.810
15972WAT      O50017   3.820   1.066   6.554
15972WAT     H150018   3.853   0.979   6.531
15972WAT     H250019   3.863   1.086   6.637
15973WAT      O50020   4.280   0.899   6.320
15973WAT     H150021   4.250   0.887   6.410
15973WAT     H250022   4.269   0.813   6.280
15974WAT      O50023   3.869   1.153   6.828
15974WAT     H150024   3.826   1.171   6.911
15974WAT     H250025   3.926   1.228   6.814
15975WAT      O50026   5.433   1.103   7.257
15975WAT     H150027   5.373   1.109   7.183
15975WAT     H250028   5.446   1.009   7.270
15976WAT      O50029   5.557   0.877   5.791
15976WAT     H150030   5.474   0.884   5.838
15976WAT     H250031   5.575   0.966   5.760
15977WAT      O50032   5.503   0.551   6.041
15977WAT     H150033   5.579   0.608   6.052
15977WAT     H250034   5.504   0.495   6.118
15978WAT      O50035   3.853   0.404   6.464
15978WAT     H150036   3.787   0.377   6.400
15978WAT     H250037   3.936   0.393   6.419
15979WAT      O50038   5.603   0.637   6.525
15979WAT     H150039   5.640   0.559   6.485
15979WAT     H250040   5.667   0.706   6.508
15980WAT      O50041   5.301   0.775   7.067
15980WAT     H150042   5.220   0.818   7.093
15980WAT     H250043   5.342   0.836   7.005
15981WAT      O50044   5.508   0.581   5.757
15981WAT     H150045   5.535   0.672   5.744
15981WAT     H250046   5.489   0.574   5.850
15982WAT      O50047   5.497   0.374   6.256
15982WAT     H150048   5.460   0.298   6.213
15982WAT     H250049   5.424   0.413   6.305
15983WAT      O50050   3.956   0.442   6.918
15983WAT     H150051   3.993   0.434   7.006
15983WAT     H250052   3.899   0.366   6.908
15984WAT      O50053   5.436   0.289   7.219
15984WAT     H150054   5.413   0.266   7.129
15984WAT     H250055   5.462   0.381   7.215
15985WAT      O50056   5.425   0.197   6.586
15985WAT     H150057   5.477   0.148   6.523
15985WAT     H250058   5.483   0.211   6.661
15986WAT      O50059   5.443   0.205   6.938
15986WAT     H150060   5.348   0.202   6.950
15986WAT     H250061   5.461   0.296   6.915
15987WAT      O50062   5.307   1.250   6.419
15987WAT     H150063   5.367   1.218   6.352
15987WAT     H250064   5.333   1.203   6.499
15988WAT      O50065   4.468   1.049   6.994
15988WAT     H150066   4.444   1.076   6.906
15988WAT     H250067   4.562   1.066   7.000
15989WAT      O50068   5.594   1.251   7.074
15989WAT     H150069   5.545   1.291   7.003
15989WAT     H250070   5.533   1.189   7.114
15990WAT      O50071   4.082   1.188   7.146
15990WAT     H150072   4.022   1.175   7.220
15990WAT     H250073   4.081   1.105   7.100
15991WAT      O50074   5.362   1.315   6.802
15991WAT     H150075   5.316   1.391   6.765
15991WAT     H250076   5.299   1.243   6.796
15992WAT      O50077   4.045   0.925   7.041
15992WAT     H150078   3.972   0.863   7.035
15992WAT     H250079   4.051   0.964   6.954
15993WAT      O50080   4.405   1.146   6.720
15993WAT     H150081   4.457   1.085   6.667
15993WAT     H250082   4.470   1.197   6.769
15994WAT      O50083   4.679   1.235   6.803
15994WAT     H150084   4.708   1.210   6.715
15994WAT     H250085   4.730   1.180   6.862
15995WAT      O50086   3.873   1.257   6.362
15995WAT     H150087   3.856   1.193   6.432
15995WAT     H250088   3.787   1.277   6.327
15996WAT      O50089   4.034   1.126   6.107
15996WAT     H150090   3.981   1.164   6.036
15996WAT     H250091   4.026   1.188   6.179
15997WAT      O50092   5.509   1.282   6.239
15997WAT     H150093   5.527   1.213   6.175
15997WAT     H250094   5.440   1.334   6.200
15998WAT      O50095   4.294   1.321   5.994
15998WAT     H150096   4.367   1.292   5.940
15998WAT     H250097   4.320   1.297   6.083
15999WAT      O50098   4.210   0.932   5.995
15999WAT     H150099   4.147   0.979   6.050
15999WAT     H250100   4.221   0.848   6.038
16000WAT      O50101   4.955   0.337   4.610
16000WAT     H150102   4.947   0.246   4.583
16000WAT     H250103   4.914   0.387   4.539
16001WAT      O50104   4.769   0.515   4.798
16001WAT     H150105   4.691   0.467   4.827
16001WAT     H250106   4.834   0.447   4.780
16002WAT      O50107   4.170   0.546   4.886
16002WAT     H150108   4.087   0.521   4.926
16002WAT     H250109   4.231   0.554   4.959
16003WAT      O50110   5.171   0.956   4.676
16003WAT     H150111   5.124   0.879   4.709
16003WAT     H250112   5.252   0.959   4.726
16004WAT      O50113   4.168   0.950   4.905
16004WAT     H150114   4.198   0.861   4.887
16004WAT     H250115   4.243   1.006   4.882
16005WAT      O50116   3.807   0.303   4.852
16005WAT     H150117   3.865   0.226   4.852
16005WAT     H250118   3.807   0.332   4.762
16006WAT      O50119   4.793   1.184   4.638
16006WAT     H150120   4.731   1.230   4.581
16006WAT     H250121   4.879   1.200   4.598
16007WAT      O50122   4.713   0.783   4.799
16007WAT     H150123   4.706   0.689   4.782
16007WAT     H250124   4.789   0.792   4.856
16008WAT      O50125   4.880   0.673   4.377
16008WAT     H150126   4.818   0.719   4.321
16008WAT     H250127   4.931   0.742   4.419
16009WAT      O50128   4.366   0.626   5.045
16009WAT     H150129   4.333   0.688   5.109
16009WAT     H250130   4.384   0.678   4.967
16010WAT      O50131   4.287   0.822   5.227
16010WAT     H150132   4.349   0.890   5.198
16010WAT     H250133   4.201   0.863   5.217
16011WAT      O50134   3.817   0.741   4.115
16011WAT     H150135   3.779   0.790   4.041
16011WAT     H250136   3.842   0.809   4.178
16012WAT      O50137   5.379   0.969   5.018
16012WAT     H150138   5.311   1.036   5.017
16012WAT     H250139   5.433   0.989   4.942
16013WAT      O50140   5.133   1.153   4.890
16013WAT     H150141   5.134   1.113   4.803
16013WAT     H250142   5.078   1.231   4.879
16014WAT      O50143   5.262   0.825   4.398
16014WAT     H150144   5.251   0.731   4.411
16014WAT     H250145   5.262   0.862   4.487
16015WAT      O50146   5.073   0.644   5.022
16015WAT     H150147   5.114   0.622   4.939
16015WAT     H250148   5.145   0.669   5.079
16016WAT      O50149   4.816   0.388   4.334
16016WAT     H150150   4.724   0.381   4.357
16016WAT     H250151   4.832   0.482   4.323
16017WAT      O50152   5.467   0.483   5.032
16017WAT     H150153   5.384   0.490   4.984
16017WAT     H250154   5.527   0.542   4.985
16018WAT      O50155   5.219   0.544   4.384
16018WAT     H150156   5.158   0.510   4.320
16018WAT     H250157   5.218   0.480   4.455
16019WAT      O50158   4.377   0.441   4.612
16019WAT     H150159   4.337   0.369   4.563
16019WAT     H250160   4.386   0.406   4.701
16020WAT      O50161   4.424   0.809   4.829
16020WAT     H150162   4.394   0.749   4.761
16020WAT     H250163   4.519   0.813   4.818
16021WAT      O50164   5.233   1.167   5.195
16021WAT     H150165   5.185   1.247   5.176
16021WAT     H250166   5.164   1.101   5.210
16022WAT      O50167   4.333   0.783   5.494
16022WAT     H150168   4.243   0.806   5.518
16022WAT     H250169   4.336   0.796   5.399
16023WAT      O50170   5.037   0.468   4.085
16023WAT     H150171   5.081   0.384   4.071
16023WAT     H250172   5.108   0.531   4.094
16024WAT      O50173   4.216   0.470   5.351
16024WAT     H150174   4.202   0.558   5.388
16024WAT     H250175   4.128   0.436   5.337
16025WAT      O50176   4.848   0.962   4.482
16025WAT     H150177   4.892   1.036   4.441
16025WAT     H250178   4.842   0.986   4.574
16026WAT      O50179   4.395   1.065   5.572
16026WAT     H150180   4.393   1.105   5.485
16026WAT     H250181   4.379   0.972   5.556
16027WAT      O50182   4.047   0.330   4.362
16027WAT     H150183   4.035   0.403   4.301
16027WAT     H250184   4.016   0.253   4.315
16028WAT      O50185   5.591   1.143   5.702
16028WAT     H150186   5.638   1.191   5.770
16028WAT     H250187   5.653   1.136   5.629
16029WAT      O50188   3.811   0.647   4.943
16029WAT     H150189   3.819   0.661   4.849
16029WAT     H250190   3.872   0.576   4.962
16030WAT      O50191   3.935   0.817   4.584
16030WAT     H150192   3.895   0.831   4.499
16030WAT     H250193   4.024   0.789   4.564
16031WAT      O50194   5.531   0.862   5.418
16031WAT     H150195   5.544   0.838   5.326
16031WAT     H250196   5.535   0.779   5.465
16032WAT      O50197   4.917   1.232   5.275
16032WAT     H150198   4.969   1.223   5.355
16032WAT     H250199   4.833   1.267   5.304
16033WAT      O50200   5.115   1.261   4.218
16033WAT     H150201   5.099   1.232   4.307
16033WAT     H250202   5.098   1.183   4.164
16034WAT      O50203   4.363   1.239   4.395
16034WAT     H150204   4.345   1.147   4.374
16034WAT     H250205   4.277   1.275   4.419
16035WAT      O50206   5.085   1.012   4.074
16035WAT     H150207   5.016   1.011   4.008
16035WAT     H250208   5.159   0.969   4.031
16036WAT      O50209   5.041   1.174   4.481
16036WAT     H150210   5.087   1.096   4.512
16036WAT     H250211   5.075   1.245   4.535
16037WAT      O50212   3.816   0.751   5.197
16037WAT     H150213   3.833   0.704   5.115
16037WAT     H250214   3.863   0.701   5.263
16038WAT      O50215   4.932   0.223   5.584
16038WAT     H150216   4.964   0.140   5.550
16038WAT     H250217   5.011   0.276   5.599
16039WAT      O50218   4.273   0.177   4.473
16039WAT     H150219   4.250   0.155   4.564
16039WAT     H250220   4.195   0.220   4.439
16040WAT      O50221   4.996   0.177   4.333
16040WAT     H150222   4.936   0.250   4.315
16040WAT     H250223   5.051   0.171   4.255
16041WAT      O50224   4.517   0.267   5.540
16041WAT     H150225   4.507   0.173   5.525
16041WAT     H250226   4.601   0.289   5.500
16042WAT      O50227   4.915   0.300   4.946
16042WAT     H150228   4.842   0.351   4.981
16042WAT     H250229   4.875   0.218   4.916
16043WAT      O50230   4.466   0.299   4.025
16043WAT     H150231   4.409   0.254   3.963
16043WAT     H250232   4.537   0.335   3.972
16044WAT      O50233   3.974   0.689   5.413
16044WAT     H150234   3.935   0.625   5.473
16044WAT     H250235   4.005   0.759   5.470
16045WAT      O50236   4.589   0.374   4.961
16045WAT     H150237   4.626   0.326   5.036
16045WAT     H250238   4.570   0.461   4.995
16046WAT      O50239   4.368   0.278   5.193
16046WAT     H150240   4.337   0.366   5.215
16046WAT     H250241   4.463   0.284   5.196
16047WAT      O50242   4.221   0.698   4.253
16047WAT     H150243   4.143   0.644   4.237
16047WAT     H250244   4.294   0.646   4.219
16048WAT      O50245   5.297   0.598   4.832
16048WAT     H150246   5.369   0.648   4.793
16048WAT     H250247   5.276   0.530   4.767
16049WAT      O50248   4.835   0.605   5.420
16049WAT     H150249   4.828   0.513   5.395
16049WAT     H250250   4.772   0.615   5.492
16050WAT      O50251   4.225   0.665   4.616
16050WAT     H150252   4.277   0.585   4.611
16050WAT     H250253   4.180   0.659   4.700
16051WAT      O50254   4.714   0.792   4.144
16051WAT     H150255   4.748   0.866   4.094
16051WAT     H250256   4.631   0.823   4.180
16052WAT      O50257   3.973   0.362   5.308
16052WAT     H150258   3.938   0.428   5.366
16052WAT     H250259   3.944   0.279   5.345
16053WAT      O50260   4.294   0.408   5.596
16053WAT     H150261   4.264   0.422   5.506
16053WAT     H250262   4.371   0.352   5.587
16054WAT      O50263   4.828   0.887   5.396
16054WAT     H150264   4.829   0.794   5.374
16054WAT     H250265   4.757   0.896   5.459
16055WAT      O50266   5.341   0.306   4.022
16055WAT     H150267   5.333   0.349   3.937
16055WAT     H250268   5.413   0.352   4.066
16056WAT      O50269   5.449   0.551   5.330
16056WAT     H150270   5.376   0.611   5.310
16056WAT     H250271   5.502   0.551   5.250
16057WAT      O50272   5.444   0.991   4.295
16057WAT     H150273   5.380   0.926   4.323
16057WAT     H250274   5.405   1.032   4.218
16058WAT      O50275   5.002   0.724   4.680
16058WAT     H150276   5.037   0.664   4.614
16058WAT     H250277   4.914   0.691   4.697
16059WAT      O50278   4.611   0.800   4.421
16059WAT     H150279   4.679   0.855   4.459
16059WAT     H250280   4.532   0.854   4.424
16060WAT      O50281   3.825   0.362   3.970
16060WAT     H150282   3.911   0.390   3.998
16060WAT     H250283   3.775   0.443   3.958
16061WAT      O50284   4.541   0.500   4.382
16061WAT     H150285   4.587   0.582   4.405
16061WAT     H250286   4.506   0.469   4.465
16062WAT      O50287   4.771   1.052   5.105
16062WAT     H150288   4.836   1.072   5.173
16062WAT     H250289   4.808   0.975   5.060
16063WAT      O50290   4.899   0.852   4.977
16063WAT     H150291   4.963   0.782   4.988
16063WAT     H250292   4.951   0.930   4.959
16064WAT      O50293   5.283   0.880   3.949
16064WAT     H150294   5.260   0.809   4.008
16064WAT     H250295   5.244   0.855   3.865
16065WAT      O50296   5.076   0.932   5.297
16065WAT     H150297   5.109   0.990   5.365
16065WAT     H250298   4.984   0.919   5.320
16066WAT      O50299   3.861   1.283   4.027
16066WAT     H150300   3.897   1.343   3.961
16066WAT     H250301   3.847   1.338   4.104
16067WAT      O50302   5.241   0.672   4.115
16067WAT     H150303   5.212   0.718   4.194
16067WAT     H250304   5.321   0.626   4.142
16068WAT      O50305   3.860   1.110   5.474
16068WAT     H150306   3.871   1.016   5.460
16068WAT     H250307   3.794   1.136   5.409
16069WAT      O50308   4.659   0.937   5.614
16069WAT     H150309   4.627   0.865   5.668
16069WAT     H250310   4.591   1.004   5.621
16070WAT      O50311   4.463   1.021   4.108
16070WAT     H150312   4.462   1.095   4.047
16070WAT     H250313   4.371   0.997   4.118
16071WAT      O50314   4.023   0.543   4.183
16071WAT     H150315   3.962   0.617   4.184
16071WAT     H250316   4.071   0.552   4.100
16072WAT      O50317   4.762   1.028   3.975
16072WAT     H150318   4.772   1.007   3.882
16072WAT     H250319   4.672   1.002   3.995
16073WAT      O50320   4.676   0.225   5.173
16073WAT     H150321   4.726   0.273   5.239
16073WAT     H250322   4.691   0.133   5.193
16074WAT      O50323   4.626   1.279   4.444
16074WAT     H150324   4.651   1.276   4.352
16074WAT     H250325   4.531   1.267   4.443
16075WAT      O50326   5.226   0.371   4.602
16075WAT     H150327   5.132   0.373   4.619
16075WAT     H250328   5.258   0.293   4.646
16076WAT      O50329   4.224   0.540   3.958
16076WAT     H150330   4.301   0.528   4.014
16076WAT     H250331   4.232   0.470   3.892
16077WAT      O50332   4.094   0.283   4.026
16077WAT     H150333   4.102   0.188   4.037
16077WAT     H250334   4.183   0.316   4.037
16078WAT      O50335   5.427   1.088   4.769
16078WAT     H150336   5.439   1.171   4.816
16078WAT     H250337   5.513   1.067   4.734
16079WAT      O50338   4.174   1.298   4.736
16079WAT     H150339   4.247   1.243   4.763
16079WAT     H250340   4.212   1.384   4.722
16080WAT      O50341   3.862   0.905   4.324
16080WAT     H150342   3.770   0.929   4.323
16080WAT     H250343   3.909   0.987   4.312
16081WAT      O50344   4.074   1.216   5.655
16081WAT     H150345   4.154   1.248   5.696
16081WAT     H250346   4.023   1.180   5.727
16082WAT      O50347   4.485   1.215   3.919
16082WAT     H150348   4.564   1.244   3.873
16082WAT     H250349   4.433   1.172   3.851
16083WAT      O50350   4.958   0.827   5.650
16083WAT     H150351   4.897   0.829   5.576
16083WAT     H250352   4.927   0.754   5.704
16084WAT      O50353   5.101   1.200   5.511
16084WAT     H150354   5.196   1.191   5.506
16084WAT     H250355   5.086   1.266   5.578
16085WAT      O50356   5.390   1.138   4.061
16085WAT     H150357   5.361   1.096   3.979
16085WAT     H250358   5.370   1.231   4.049
16086WAT      O50359   3.846   0.465   5.550
16086WAT     H150360   3.897   0.407   5.607
16086WAT     H250361   3.772   0.493   5.603
16087WAT      O50362   4.536   0.737   3.905
16087WAT     H150363   4.526   0.676   3.978
16087WAT     H250364   4.520   0.685   3.827
16088WAT      O50365   4.552   0.606   5.503
16088WAT     H150366   4.475   0.663   5.494
16088WAT     H250367   4.570   0.576   5.414
16089WAT      O50368   4.861   0.643   3.965
16089WAT     H150369   4.806   0.688   4.030
16089WAT     H250370   4.923   0.593   4.018
16090WAT      O50371   5.266   0.779   5.559
16090WAT     H150372   5.340   0.813   5.508
16090WAT     H250373   5.190   0.796   5.503
16091WAT      O50374   4.049   0.279   5.639
16091WAT     H150375   4.054   0.249   5.730
16091WAT     H250376   4.135   0.319   5.623
16092WAT      O50377   4.427   0.539   4.155
16092WAT     H150378   4.469   0.523   4.239
16092WAT     H250379   4.440   0.458   4.106
16093WAT      O50380   4.679   0.442   3.880
16093WAT     H150381   4.731   0.370   3.843
16093WAT     H250382   4.743   0.505   3.910
16094WAT      O50383   5.133   0.584   5.412
16094WAT     H150384   5.175   0.599   5.497
16094WAT     H250385   5.040   0.596   5.428
16095WAT      O50386   5.181   0.318   5.613
16095WAT     H150387   5.239   0.242   5.604
16095WAT     H250388   5.198   0.371   5.535
16096WAT      O50389   4.609   0.579   5.209
16096WAT     H150390   4.651   0.663   5.192
16096WAT     H250391   4.518   0.593   5.186
16097WAT      O50392   4.843   0.352   5.348
16097WAT     H150393   4.855   0.293   5.421
16097WAT     H250394   4.929   0.356   5.306
16098WAT      O50395   5.077   0.408   5.205
16098WAT     H150396   5.024   0.460   5.145
16098WAT     H250397   5.111   0.471   5.268
16099WAT      O50398   4.395   1.210   5.321
16099WAT     H150399   4.341   1.282   5.289
16099WAT     H250400   4.420   1.162   5.242
16100WAT      O50401   4.680   1.333   5.347
16100WAT     H150402   4.673   1.423   5.377
16100WAT     H250403   4.590   1.301   5.344
16101WAT      O50404   4.735   1.250   4.109
16101WAT     H150405   4.825   1.284   4.111
16101WAT     H250406   4.738   1.178   4.046
16102WAT      O50407   4.099   0.787   3.932
16102WAT     H150408   4.143   0.841   3.997
16102WAT     H250409   4.147   0.704   3.933
16103WAT      O50410   3.820   1.066   4.677
16103WAT     H150411   3.853   0.979   4.654
16103WAT     H250412   3.863   1.086   4.760
16104WAT      O50413   4.280   0.899   4.443
16104WAT     H150414   4.250   0.887   4.533
16104WAT     H250415   4.269   0.813   4.402
16105WAT      O50416   3.869   1.153   4.951
16105WAT     H150417   3.826   1.171   5.034
16105WAT     H250418   3.926   1.228   4.937
16106WAT      O50419   5.433   1.103   5.379
16106WAT     H150420   5.373   1.109   5.305
16106WAT     H250421   5.446   1.009   5.392
16107WAT      O50422   5.557   0.877   3.913
16107WAT     H150423   5.474   0.884   3.960
16107WAT     H250424   5.575   0.966   3.883
16108WAT      O50425   5.503   0.551   4.164
16108WAT     H150426   5.579   0.608   4.174
16108WAT     H250427   5.504   0.495   4.241
16109WAT      O50428   3.853   0.404   4.587
16109WAT     H150429   3.787   0.377   4.522
16109WAT     H250430   3.936   0.393   4.542
16110WAT      O50431   5.603   0.637   4.648
16110WAT     H150432   5.640   0.559   4.607
16110WAT     H250433   5.667   0.706   4.630
16111WAT      O50434   5.301   0.775   5.189
16111WAT     H150435   5.220   0.818   5.216
16111WAT     H250436   5.342   0.836   5.128
16112WAT      O50437   5.508   0.581   3.879
16112WAT     H150438   5.535   0.672   3.866
16112WAT     H250439   5.489   0.574   3.973
16113WAT      O50440   5.497   0.374   4.379
16113WAT     H150441   5.460   0.298   4.335
16113WAT     H250442   5.424   0.413   4.427
16114WAT      O50443   3.956   0.442   5.041
16114WAT     H150444   3.993   0.434   5.129
16114WAT     H250445   3.899   0.366   5.031
16115WAT      O50446   5.436   0.289   5.342
16115WAT     H150447   5.413   0.266   5.252
16115WAT     H250448   5.462   0.381   5.337
16116WAT      O50449   5.425   0.197   4.709
16116WAT     H150450   5.477   0.148   4.646
16116WAT     H250451   5.483   0.211   4.783
16117WAT      O50452   5.443   0.205   5.061
16117WAT     H150453   5.348   0.202   5.072
16117WAT     H250454   5.461   0.296   5.037
16118WAT      O50455   5.307   1.250   4.542
16118WAT     H150456   5.367   1.218   4.474
16118WAT     H250457   5.333   1.203   4.621
16119WAT      O50458   4.098   0.894   5.557
16119WAT     H150459   4.094   0.857   5.645
16119WAT     H250460   4.111   0.987   5.571
16120WAT      O50461   4.468   1.049   5.117
16120WAT     H150462   4.444   1.076   5.028
16120WAT     H250463   4.562   1.066   5.122
16121WAT      O50464   5.594   1.251   5.197
16121WAT     H150465   5.545   1.291   5.125
16121WAT     H250466   5.533   1.189   5.236
16122WAT      O50467   4.082   1.188   5.269
16122WAT     H150468   4.022   1.175   5.343
16122WAT     H250469   4.081   1.105   5.222
16123WAT      O50470   5.362   1.315   4.925
16123WAT     H150471   5.316   1.391   4.887
16123WAT     H250472   5.299   1.243   4.919
16124WAT      O50473   4.045   0.925   5.164
16124WAT     H150474   3.972   0.863   5.157
16124WAT     H250475   4.051   0.964   5.077
16125WAT      O50476   4.405   1.146   4.842
16125WAT     H150477   4.457   1.085   4.790
16125WAT     H250478   4.470   1.197   4.892
16126WAT      O50479   4.679   1.235   4.925
16126WAT     H150480   4.708   1.210   4.837
16126WAT     H250481   4.730   1.180   4.984
16127WAT      O50482   3.873   1.257   4.485
16127WAT     H150483   3.856   1.193   4.555
16127WAT     H250484   3.787   1.277   4.450
16128WAT      O50485   4.034   1.126   4.229
16128WAT     H150486   3.981   1.164   4.159
16128WAT     H250487   4.026   1.188   4.301
16129WAT      O50488   4.686   1.328   5.662
16129WAT     H150489   4.779   1.304   5.666
16129WAT     H250490   4.684   1.410   5.614
16130WAT      O50491   5.509   1.282   4.362
16130WAT     H150492   5.527   1.213   4.297
16130WAT     H250493   5.440   1.334   4.322
16131WAT      O50494   4.294   1.321   4.117
16131WAT     H150495   4.367   1.292   4.062
16131WAT     H250496   4.320   1.297   4.206
16132WAT      O50497   4.210   0.932   4.117
16132WAT     H150498   4.147   0.979   4.172
16132WAT     H250499   4.221   0.848   4.161
16133WAT      O50500   5.343   1.250   5.644
16133WAT     H150501   5.422   1.201   5.623
16133WAT     H250502   5.372   1.318   5.705
16134WAT      O50503   4.955   0.337   2.732
16134WAT     H150504   4.947   0.246   2.705
16134WAT     H250505   4.914   0.387   2.662
16135WAT      O50506   4.769   0.515   2.920
16135WAT     H150507   4.691   0.467   2.949
16135WAT     H250508   4.834   0.447   2.903
16136WAT      O50509   4.170   0.546   3.008
16136WAT     H150510   4.087   0.521   3.048
16136WAT     H250511   4.231   0.554   3.082
16137WAT      O50512   5.171   0.956   2.798
16137WAT     H150513   5.124   0.879   2.831
16137WAT     H250514   5.252   0.959   2.849
16138WAT      O50515   4.168   0.950   3.028
16138WAT     H150516   4.198   0.861   3.010
16138WAT     H250517   4.243   1.006   3.005
16139WAT      O50518   3.807   0.303   2.975
16139WAT     H150519   3.865   0.226   2.975
16139WAT     H250520   3.807   0.332   2.884
16140WAT      O50521   4.793   1.184   2.760
16140WAT     H150522   4.731   1.230   2.703
16140WAT     H250523   4.879   1.200   2.720
16141WAT      O50524   4.713   0.783   2.921
16141WAT     H150525   4.706   0.689   2.905
16141WAT     H250526   4.789   0.792   2.978
16142WAT      O50527   4.880   0.673   2.500
16142WAT     H150528   4.818   0.719   2.443
16142WAT     H250529   4.931   0.742   2.541
16143WAT      O50530   4.366   0.626   3.168
16143WAT     H150531   4.333   0.688   3.232
16143WAT     H250532   4.384   0.678   3.090
16144WAT      O50533   4.287   0.822   3.349
16144WAT     H150534   4.349   0.890   3.321
16144WAT     H250535   4.201   0.863   3.340
16145WAT      O50536   3.817   0.741   2.237
16145WAT     H150537   3.779   0.790   2.164
16145WAT     H250538   3.842   0.809   2.300
16146WAT      O50539   5.379   0.969   3.141
16146WAT     H150540   5.311   1.036   3.140
16146WAT     H250541   5.433   0.989   3.064
16147WAT      O50542   5.133   1.153   3.012
16147WAT     H150543   5.134   1.113   2.925
16147WAT     H250544   5.078   1.231   3.002
16148WAT      O50545   5.262   0.825   2.521
16148WAT     H150546   5.251   0.731   2.534
16148WAT     H250547   5.262   0.862   2.610
16149WAT      O50548   5.073   0.644   3.145
16149WAT     H150549   5.114   0.622   3.061
16149WAT     H250550   5.145   0.669   3.202
16150WAT      O50551   4.816   0.388   2.457
16150WAT     H150552   4.724   0.381   2.480
16150WAT     H250553   4.832   0.482   2.445
16151WAT      O50554   5.467   0.483   3.154
16151WAT     H150555   5.384   0.490   3.107
16151WAT     H250556   5.527   0.542   3.107
16152WAT      O50557   5.219   0.544   2.507
16152WAT     H150558   5.158   0.510   2.442
16152WAT     H250559   5.218   0.480   2.578
16153WAT      O50560   4.377   0.441   2.735
16153WAT     H150561   4.337   0.369   2.685
16153WAT     H250562   4.386   0.406   2.824
16154WAT      O50563   4.424   0.809   2.951
16154WAT     H150564   4.394   0.749   2.883
16154WAT     H250565   4.519   0.813   2.940
16155WAT      O50566   5.233   1.167   3.317
16155WAT     H150567   5.185   1.247   3.298
16155WAT     H250568   5.164   1.101   3.333
16156WAT      O50569   4.333   0.783   3.616
16156WAT     H150570   4.243   0.806   3.641
16156WAT     H250571   4.336   0.796   3.521
16157WAT      O50572   5.037   0.468   2.208
16157WAT     H150573   5.081   0.384   2.193
16157WAT     H250574   5.108   0.531   2.216
16158WAT      O50575   4.216   0.470   3.474
16158WAT     H150576   4.202   0.558   3.511
16158WAT     H250577   4.128   0.436   3.459
16159WAT      O50578   4.848   0.962   2.605
16159WAT     H150579   4.892   1.036   2.563
16159WAT     H250580   4.842   0.986   2.697
16160WAT      O50581   4.395   1.065   3.695
16160WAT     H150582   4.393   1.105   3.608
16160WAT     H250583   4.379   0.972   3.678
16161WAT      O50584   4.047   0.330   2.485
16161WAT     H150585   4.035   0.403   2.424
16161WAT     H250586   4.016   0.253   2.437
16162WAT      O50587   5.591   1.143   3.824
16162WAT     H150588   5.638   1.191   3.892
16162WAT     H250589   5.653   1.136   3.752
16163WAT      O50590   3.811   0.647   3.066
16163WAT     H150591   3.819   0.661   2.971
16163WAT     H250592   3.872   0.576   3.085
16164WAT      O50593   3.935   0.817   2.707
16164WAT     H150594   3.895   0.831   2.621
16164WAT     H250595   4.024   0.789   2.686
16165WAT      O50596   5.531   0.862   3.540
16165WAT     H150597   5.544   0.838   3.449
16165WAT     H250598   5.535   0.779   3.588
16166WAT      O50599   4.917   1.232   3.397
16166WAT     H150600   4.969   1.223   3.478
16166WAT     H250601   4.833   1.267   3.427
16167WAT      O50602   5.115   1.261   2.340
16167WAT     H150603   5.099   1.232   2.430
16167WAT     H250604   5.098   1.183   2.287
16168WAT      O50605   4.363   1.239   2.518
16168WAT     H150606   4.345   1.147   2.497
16168WAT     H250607   4.277   1.275   2.542
16169WAT      O50608   5.085   1.012   2.196
16169WAT     H150609   5.016   1.011   2.130
16169WAT     H250610   5.159   0.969   2.153
16170WAT      O50611   5.041   1.174   2.604
16170WAT     H150612   5.087   1.096   2.635
16170WAT     H250613   5.075   1.245   2.658
16171WAT      O50614   3.816   0.751   3.320
16171WAT     H150615   3.833   0.704   3.238
16171WAT     H250616   3.863   0.701   3.386
16172WAT      O50617   4.932   0.223   3.706
16172WAT     H150618   4.964   0.140   3.672
16172WAT     H250619   5.011   0.276   3.721
16173WAT      O50620   4.273   0.177   2.596
16173WAT     H150621   4.250   0.155   2.686
16173WAT     H250622   4.195   0.220   2.561
16174WAT      O50623   4.996   0.177   2.456
16174WAT     H150624   4.936   0.250   2.437
16174WAT     H250625   5.051   0.171   2.378
16175WAT      O50626   4.517   0.267   3.663
16175WAT     H150627   4.507   0.173   3.648
16175WAT     H250628   4.601   0.289   3.623
16176WAT      O50629   4.915   0.300   3.068
16176WAT     H150630   4.842   0.351   3.103
16176WAT     H250631   4.875   0.218   3.038
16177WAT      O50632   4.466   0.299   2.148
16177WAT     H150633   4.409   0.254   2.085
16177WAT     H250634   4.537   0.335   2.094
16178WAT      O50635   3.974   0.689   3.535
16178WAT     H150636   3.935   0.625   3.595
16178WAT     H250637   4.005   0.759   3.592
16179WAT      O50638   4.589   0.374   3.084
16179WAT     H150639   4.626   0.326   3.158
16179WAT     H250640   4.570   0.461   3.118
16180WAT      O50641   4.368   0.278   3.315
16180WAT     H150642   4.337   0.366   3.338
16180WAT     H250643   4.463   0.284   3.319
16181WAT      O50644   4.221   0.698   2.375
16181WAT     H150645   4.143   0.644   2.359
16181WAT     H250646   4.294   0.646   2.341
16182WAT      O50647   5.297   0.598   2.954
16182WAT     H150648   5.369   0.648   2.915
16182WAT     H250649   5.276   0.530   2.890
16183WAT      O50650   4.835   0.605   3.543
16183WAT     H150651   4.828   0.513   3.518
16183WAT     H250652   4.772   0.615   3.614
16184WAT      O50653   4.225   0.665   2.739
16184WAT     H150654   4.277   0.585   2.733
16184WAT     H250655   4.180   0.659   2.823
16185WAT      O50656   4.714   0.792   2.266
16185WAT     H150657   4.748   0.866   2.217
16185WAT     H250658   4.631   0.823   2.302
16186WAT      O50659   3.973   0.362   3.430
16186WAT     H150660   3.938   0.428   3.489
16186WAT     H250661   3.944   0.279   3.467
16187WAT      O50662   4.294   0.408   3.719
16187WAT     H150663   4.264   0.422   3.629
16187WAT     H250664   4.371   0.352   3.709
16188WAT      O50665   4.828   0.887   3.518
16188WAT     H150666   4.829   0.794   3.496
16188WAT     H250667   4.757   0.896   3.582
16189WAT      O50668   5.341   0.306   2.145
16189WAT     H150669   5.333   0.349   2.060
16189WAT     H250670   5.413   0.352   2.188
16190WAT      O50671   5.449   0.551   3.453
16190WAT     H150672   5.376   0.611   3.433
16190WAT     H250673   5.502   0.551   3.373
16191WAT      O50674   5.444   0.991   2.418
16191WAT     H150675   5.380   0.926   2.445
16191WAT     H250676   5.405   1.032   2.340
16192WAT      O50677   5.002   0.724   2.803
16192WAT     H150678   5.037   0.664   2.737
16192WAT     H250679   4.914   0.691   2.820
16193WAT      O50680   4.611   0.800   2.543
16193WAT     H150681   4.679   0.855   2.581
16193WAT     H250682   4.532   0.854   2.547
16194WAT      O50683   3.825   0.362   2.092
16194WAT     H150684   3.911   0.390   2.121
16194WAT     H250685   3.775   0.443   2.081
16195WAT      O50686   4.541   0.500   2.505
16195WAT     H150687   4.587   0.582   2.527
16195WAT     H250688   4.506   0.469   2.588
16196WAT      O50689   4.771   1.052   3.227
16196WAT     H150690   4.836   1.072   3.295
16196WAT     H250691   4.808   0.975   3.182
16197WAT      O50692   4.899   0.852   3.099
16197WAT     H150693   4.963   0.782   3.111
16197WAT     H250694   4.951   0.930   3.081
16198WAT      O50695   5.283   0.880   2.072
16198WAT     H150696   5.260   0.809   2.131
16198WAT     H250697   5.244   0.855   1.988
16199WAT      O50698   5.076   0.932   3.420
16199WAT     H150699   5.109   0.990   3.487
16199WAT     H250700   4.984   0.919   3.443
16200WAT      O50701   3.861   1.283   2.149
16200WAT     H150702   3.897   1.343   2.084
16200WAT     H250703   3.847   1.338   2.226
16201WAT      O50704   5.241   0.672   2.238
16201WAT     H150705   5.212   0.718   2.317
16201WAT     H250706   5.321   0.626   2.265
16202WAT      O50707   3.860   1.110   3.597
16202WAT     H150708   3.871   1.016   3.582
16202WAT     H250709   3.794   1.136   3.532
16203WAT      O50710   4.659   0.937   3.736
16203WAT     H150711   4.627   0.865   3.791
16203WAT     H250712   4.591   1.004   3.744
16204WAT      O50713   4.463   1.021   2.231
16204WAT     H150714   4.462   1.095   2.169
16204WAT     H250715   4.371   0.997   2.240
16205WAT      O50716   4.023   0.543   2.305
16205WAT     H150717   3.962   0.617   2.306
16205WAT     H250718   4.071   0.552   2.223
16206WAT      O50719   4.762   1.028   2.097
16206WAT     H150720   4.772   1.007   2.004
16206WAT     H250721   4.672   1.002   2.118
16207WAT      O50722   4.676   0.225   3.295
16207WAT     H150723   4.726   0.273   3.362
16207WAT     H250724   4.691   0.133   3.316
16208WAT      O50725   4.626   1.279   2.567
16208WAT     H150726   4.651   1.276   2.474
16208WAT     H250727   4.531   1.267   2.566
16209WAT      O50728   5.226   0.371   2.724
16209WAT     H150729   5.132   0.373   2.742
16209WAT     H250730   5.258   0.293   2.769
16210WAT      O50731   4.224   0.540   2.080
16210WAT     H150732   4.301   0.528   2.136
16210WAT     H250733   4.232   0.470   2.015
16211WAT      O50734   4.094   0.283   2.149
16211WAT     H150735   4.102   0.188   2.160
16211WAT     H250736   4.183   0.316   2.159
16212WAT      O50737   5.427   1.088   2.892
16212WAT     H150738   5.439   1.171   2.939
16212WAT     H250739   5.513   1.067   2.857
16213WAT      O50740   4.174   1.298   2.859
16213WAT     H150741   4.247   1.243   2.886
16213WAT     H250742   4.212   1.384   2.845
16214WAT      O50743   3.862   0.905   2.446
16214WAT     H150744   3.770   0.929   2.445
16214WAT     H250745   3.909   0.987   2.434
16215WAT      O50746   4.074   1.216   3.778
16215WAT     H150747   4.154   1.248   3.819
16215WAT     H250748   4.023   1.180   3.850
16216WAT      O50749   4.485   1.215   2.041
16216WAT     H150750   4.564   1.244   1.996
16216WAT     H250751   4.433   1.172   1.973
16217WAT      O50752   4.958   0.827   3.772
16217WAT     H150753   4.897   0.829   3.698
16217WAT     H250754   4.927   0.754   3.826
16218WAT      O50755   5.101   1.200   3.634
16218WAT     H150756   5.196   1.191   3.629
16218WAT     H250757   5.086   1.266   3.701
16219WAT      O50758   5.390   1.138   2.183
16219WAT     H150759   5.361   1.096   2.102
16219WAT     H250760   5.370   1.231   2.171
16220WAT      O50761   3.846   0.465   3.672
16220WAT     H150762   3.897   0.407   3.729
16220WAT     H250763   3.772   0.493   3.726
16221WAT      O50764   4.536   0.737   2.028
16221WAT     H150765   4.526   0.676   2.100
16221WAT     H250766   4.520   0.685   1.949
16222WAT      O50767   4.552   0.606   3.625
16222WAT     H150768   4.475   0.663   3.617
16222WAT     H250769   4.570   0.576   3.536
16223WAT      O50770   4.861   0.643   2.088
16223WAT     H150771   4.806   0.688   2.152
16223WAT     H250772   4.923   0.593   2.140
16224WAT      O50773   5.266   0.779   3.681
16224WAT     H150774   5.340   0.813   3.631
16224WAT     H250775   5.190   0.796   3.626
16225WAT      O50776   4.049   0.279   3.762
16225WAT     H150777   4.054   0.249   3.852
16225WAT     H250778   4.135   0.319   3.746
16226WAT      O50779   4.427   0.539   2.278
16226WAT     H150780   4.469   0.523   2.362
16226WAT     H250781   4.440   0.458   2.228
16227WAT      O50782   4.679   0.442   2.002
16227WAT     H150783   4.731   0.370   1.966
16227WAT     H250784   4.743   0.505   2.032
16228WAT      O50785   5.133   0.584   3.535
16228WAT     H150786   5.175   0.599   3.620
16228WAT     H250787   5.040   0.596   3.551
16229WAT      O50788   5.181   0.318   3.735
16229WAT     H150789   5.239   0.242   3.726
16229WAT     H250790   5.198   0.371   3.657
16230WAT      O50791   4.609   0.579   3.332
16230WAT     H150792   4.651   0.663   3.314
16230WAT     H250793   4.518   0.593   3.309
16231WAT      O50794   4.843   0.352   3.470
16231WAT     H150795   4.855   0.293   3.544
16231WAT     H250796   4.929   0.356   3.428
16232WAT      O50797   5.077   0.408   3.328
16232WAT     H150798   5.024   0.460   3.267
16232WAT     H250799   5.111   0.471   3.391
16233WAT      O50800   4.395   1.210   3.443
16233WAT     H150801   4.341   1.282   3.411
16233WAT     H250802   4.420   1.162   3.364
16234WAT      O50803   4.680   1.333   3.469
16234WAT     H150804   4.673   1.423   3.500
16234WAT     H250805   4.590   1.301   3.466
16235WAT      O50806   4.735   1.250   2.231
16235WAT     H150807   4.825   1.284   2.234
16235WAT     H250808   4.738   1.178   2.169
16236WAT      O50809   4.099   0.787   2.054
16236WAT     H150810   4.143   0.841   2.120
16236WAT     H250811   4.147   0.704   2.055
16237WAT      O50812   3.820   1.066   2.799
16237WAT     H150813   3.853   0.979   2.776
16237WAT     H250814   3.863   1.086   2.883
16238WAT      O50815   4.280   0.899   2.565
16238WAT     H150816   4.250   0.887   2.656
16238WAT     H250817   4.269   0.813   2.525
16239WAT      O50818   3.869   1.153   3.073
16239WAT     H150819   3.826   1.171   3.157
16239WAT     H250820   3.926   1.228   3.059
16240WAT      O50821   5.433   1.103   3.502
16240WAT     H150822   5.373   1.109   3.428
16240WAT     H250823   5.446   1.009   3.515
16241WAT      O50824   5.557   0.877   2.036
16241WAT     H150825   5.474   0.884   2.083
16241WAT     H250826   5.575   0.966   2.005
16242WAT      O50827   5.503   0.551   2.286
16242WAT     H150828   5.579   0.608   2.297
16242WAT     H250829   5.504   0.495   2.363
16243WAT      O50830   3.853   0.404   2.709
16243WAT     H150831   3.787   0.377   2.645
16243WAT     H250832   3.936   0.393   2.664
16244WAT      O50833   5.603   0.637   2.771
16244WAT     H150834   5.640   0.559   2.730
16244WAT     H250835   5.667   0.706   2.753
16245WAT      O50836   5.301   0.775   3.312
16245WAT     H150837   5.220   0.818   3.338
16245WAT     H250838   5.342   0.836   3.251
16246WAT      O50839   5.508   0.581   2.002
16246WAT     H150840   5.535   0.672   1.989
16246WAT     H250841   5.489   0.574   2.095
16247WAT      O50842   5.497   0.374   2.501
16247WAT     H150843   5.460   0.298   2.458
16247WAT     H250844   5.424   0.413   2.550
16248WAT      O50845   3.956   0.442   3.163
16248WAT     H150846   3.993   0.434   3.251
16248WAT     H250847   3.899   0.366   3.153
16249WAT      O50848   5.436   0.289   3.465
16249WAT     H150849   5.413   0.266   3.374
16249WAT     H250850   5.462   0.381   3.460
16250WAT      O50851   5.425   0.197   2.831
16250WAT     H150852   5.477   0.148   2.768
16250WAT     H250853   5.483   0.211   2.906
16251WAT      O50854   5.443   0.205   3.183
16251WAT     H150855   5.348   0.202   3.195
16251WAT     H250856   5.461   0.296   3.160
16252WAT      O50857   5.307   1.250   2.665
16252WAT     H150858   5.367   1.218   2.597
16252WAT     H250859   5.333   1.203   2.744
16253WAT      O50860   4.098   0.894   3.679
16253WAT     H150861   4.094   0.857   3.768
16253WAT     H250862   4.111   0.987   3.693
16254WAT      O50863   4.468   1.049   3.240
16254WAT     H150864   4.444   1.076   3.151
16254WAT     H250865   4.562   1.066   3.245
16255WAT      O50866   5.594   1.251   3.320
16255WAT     H150867   5.545   1.291   3.248
16255WAT     H250868   5.533   1.189   3.359
16256WAT      O50869   4.082   1.188   3.391
16256WAT     H150870   4.022   1.175   3.465
16256WAT     H250871   4.081   1.105   3.345
16257WAT      O50872   5.362   1.315   3.047
16257WAT     H150873   5.316   1.391   3.010
16257WAT     H250874   5.299   1.243   3.042
16258WAT      O50875   4.045   0.925   3.286
16258WAT     H150876   3.972   0.863   3.280
16258WAT     H250877   4.051   0.964   3.199
16259WAT      O50878   4.405   1.146   2.965
16259WAT     H150879   4.457   1.085   2.912
16259WAT     H250880   4.470   1.197   3.014
16260WAT      O50881   4.679   1.235   3.048
16260WAT     H150882   4.708   1.210   2.960
16260WAT     H250883   4.730   1.180   3.107
16261WAT      O50884   3.873   1.257   2.607
16261WAT     H150885   3.856   1.193   2.677
16261WAT     H250886   3.787   1.277   2.572
16262WAT      O50887   4.034   1.126   2.352
16262WAT     H150888   3.981   1.164   2.282
16262WAT     H250889   4.026   1.188   2.424
16263WAT      O50890   4.686   1.328   3.784
16263WAT     H150891   4.779   1.304   3.789
16263WAT     H250892   4.684   1.410   3.736
16264WAT      O50893   5.509   1.282   2.484
16264WAT     H150894   5.527   1.213   2.420
16264WAT     H250895   5.440   1.334   2.445
16265WAT      O50896   4.294   1.321   2.239
16265WAT     H150897   4.367   1.292   2.185
16265WAT     H250898   4.320   1.297   2.328
16266WAT      O50899   4.210   0.932   2.240
16266WAT     H150900   4.147   0.979   2.295
16266WAT     H250901   4.221   0.848   2.283
16267WAT      O50902   5.343   1.250   3.767
16267WAT     H150903   5.422   1.201   3.746
16267WAT     H250904   5.372   1.318   3.827
16268WAT      O50905   4.955   0.337   0.855
16268WAT     H150906   4.947   0.246   0.828
16268WAT     H250907   4.914   0.387   0.784
16269WAT      O50908   4.769   0.515   1.043
16269WAT     H150909   4.691   0.467   1.072
16269WAT     H250910   4.834   0.447   1.026
16270WAT      O50911   4.170   0.546   1.131
16270WAT     H150912   4.087   0.521   1.171
16270WAT     H250913   4.231   0.554   1.204
16271WAT      O50914   5.171   0.956   0.921
16271WAT     H150915   5.124   0.879   0.954
16271WAT     H250916   5.252   0.959   0.972
16272WAT      O50917   4.168   0.950   1.150
16272WAT     H150918   4.198   0.861   1.132
16272WAT     H250919   4.243   1.006   1.128
16273WAT      O50920   3.807   0.303   1.098
16273WAT     H150921   3.865   0.226   1.098
16273WAT     H250922   3.807   0.332   1.007
16274WAT      O50923   4.793   1.184   0.883
16274WAT     H150924   4.731   1.230   0.826
16274WAT     H250925   4.879   1.200   0.843
16275WAT      O50926   4.713   0.783   1.044
16275WAT     H150927   4.706   0.689   1.028
16275WAT     H250928   4.789   0.792   1.101
16276WAT      O50929   4.880   0.673   0.622
16276WAT     H150930   4.818   0.719   0.566
16276WAT     H250931   4.931   0.742   0.664
16277WAT      O50932   4.366   0.626   1.290
16277WAT     H150933   4.333   0.688   1.354
16277WAT     H250934   4.384   0.678   1.212
16278WAT      O50935   4.287   0.822   1.472
16278WAT     H150936   4.349   0.890   1.444
16278WAT     H250937   4.201   0.863   1.463
16279WAT      O50938   3.817   0.741   0.360
16279WAT     H150939   3.779   0.790   0.287
16279WAT     H250940   3.842   0.809   0.423
16280WAT      O50941   5.379   0.969   1.263
16280WAT     H150942   5.311   1.036   1.262
16280WAT     H250943   5.433   0.989   1.187
16281WAT      O50944   5.133   1.153   1.135
16281WAT     H150945   5.134   1.113   1.048
16281WAT     H250946   5.078   1.231   1.124
16282WAT      O50947   5.262   0.825   0.644
16282WAT     H150948   5.251   0.731   0.656
16282WAT     H250949   5.262   0.862   0.732
16283WAT      O50950   5.073   0.644   1.267
16283WAT     H150951   5.114   0.622   1.184
16283WAT     H250952   5.145   0.669   1.325
16284WAT      O50953   4.816   0.388   0.579
16284WAT     H150954   4.724   0.381   0.602
16284WAT     H250955   4.832   0.482   0.568
16285WAT      O50956   5.467   0.483   1.277
16285WAT     H150957   5.384   0.490   1.229
16285WAT     H250958   5.527   0.542   1.230
16286WAT      O50959   5.219   0.544   0.630
16286WAT     H150960   5.158   0.510   0.565
16286WAT     H250961   5.218   0.480   0.700
16287WAT      O50962   4.377   0.441   0.857
16287WAT     H150963   4.337   0.369   0.808
16287WAT     H250964   4.386   0.406   0.946
16288WAT      O50965   4.424   0.809   1.074
16288WAT     H150966   4.394   0.749   1.006
16288WAT     H250967   4.519   0.813   1.063
16289WAT      O50968   5.233   1.167   1.440
16289WAT     H150969   5.185   1.247   1.421
16289WAT     H250970   5.164   1.101   1.455
16290WAT      O50971   4.333   0.783   1.739
16290WAT     H150972   4.243   0.806   1.764
16290WAT     H250973   4.336   0.796   1.644
16291WAT      O50974   5.037   0.468   0.330
16291WAT     H150975   5.081   0.384   0.316
16291WAT     H250976   5.108   0.531   0.339
16292WAT      O50977   4.216   0.470   1.596
16292WAT     H150978   4.202   0.558   1.633
16292WAT     H250979   4.128   0.436   1.582
16293WAT      O50980   4.848   0.962   0.727
16293WAT     H150981   4.892   1.036   0.686
16293WAT     H250982   4.842   0.986   0.819
16294WAT      O50983   4.395   1.065   1.817
16294WAT     H150984   4.393   1.105   1.731
16294WAT     H250985   4.379   0.972   1.801
16295WAT      O50986   4.047   0.330   0.607
16295WAT     H150987   4.035   0.403   0.546
16295WAT     H250988   4.016   0.253   0.560
16296WAT      O50989   5.591   1.143   1.947
16296WAT     H150990   5.638   1.191   2.015
16296WAT     H250991   5.653   1.136   1.874
16297WAT      O50992   3.811   0.647   1.188
16297WAT     H150993   3.819   0.661   1.094
16297WAT     H250994   3.872   0.576   1.207
16298WAT      O50995   3.935   0.817   0.829
16298WAT     H150996   3.895   0.831   0.744
16298WAT     H250997   4.024   0.789   0.809
16299WAT      O50998   5.531   0.862   1.663
16299WAT     H150999   5.544   0.838   1.571
16299WAT     H251000   5.535   0.779   1.710
16300WAT      O51001   4.917   1.232   1.520
16300WAT     H151002   4.969   1.223   1.600
16300WAT     H251003   4.833   1.267   1.549
16301WAT      O51004   5.115   1.261   0.463
16301WAT     H151005   5.099   1.232   0.553
16301WAT     H251006   5.098   1.183   0.409
16302WAT      O51007   4.363   1.239   0.640
16302WAT     H151008   4.345   1.147   0.619
16302WAT     H251009   4.277   1.275   0.664
16303WAT      O51010   5.085   1.012   0.319
16303WAT     H151011   5.016   1.011   0.253
16303WAT     H251012   5.159   0.969   0.276
16304WAT      O51013   5.041   1.174   0.726
16304WAT     H151014   5.087   1.096   0.758
16304WAT     H251015   5.075   1.245   0.781
16305WAT      O51016   3.816   0.751   1.442
16305WAT     H151017   3.833   0.704   1.360
16305WAT     H251018   3.863   0.701   1.509
16306WAT      O51019   4.932   0.223   1.829
16306WAT     H151020   4.964   0.140   1.795
16306WAT     H251021   5.011   0.276   1.844
16307WAT      O51022   4.273   0.177   0.719
16307WAT     H151023   4.250   0.155   0.809
16307WAT     H251024   4.195   0.220   0.684
16308WAT      O51025   4.996   0.177   0.578
16308WAT     H151026   4.936   0.250   0.560
16308WAT     H251027   5.051   0.171   0.500
16309WAT      O51028   4.517   0.267   1.785
16309WAT     H151029   4.507   0.173   1.770
16309WAT     H251030   4.601   0.289   1.746
16310WAT      O51031   4.915   0.300   1.191
16310WAT     H151032   4.842   0.351   1.226
16310WAT     H251033   4.875   0.218   1.161
16311WAT      O51034   4.466   0.299   0.270
16311WAT     H151035   4.409   0.254   0.208
16311WAT     H251036   4.537   0.335   0.217
16312WAT      O51037   3.974   0.689   1.658
16312WAT     H151038   3.935   0.625   1.718
16312WAT     H251039   4.005   0.759   1.715
16313WAT      O51040   4.589   0.374   1.206
16313WAT     H151041   4.626   0.326   1.281
16313WAT     H251042   4.570   0.461   1.240
16314WAT      O51043   4.368   0.278   1.438
16314WAT     H151044   4.337   0.366   1.460
16314WAT     H251045   4.463   0.284   1.442
16315WAT      O51046   4.221   0.698   0.498
16315WAT     H151047   4.143   0.644   0.482
16315WAT     H251048   4.294   0.646   0.464
16316WAT      O51049   5.297   0.598   1.077
16316WAT     H151050   5.369   0.648   1.038
16316WAT     H251051   5.276   0.530   1.012
16317WAT      O51052   4.835   0.605   1.666
16317WAT     H151053   4.828   0.513   1.640
16317WAT     H251054   4.772   0.615   1.737
16318WAT      O51055   4.225   0.665   0.861
16318WAT     H151056   4.277   0.585   0.856
16318WAT     H251057   4.180   0.659   0.946
16319WAT      O51058   4.714   0.792   0.389
16319WAT     H151059   4.748   0.866   0.339
16319WAT     H251060   4.631   0.823   0.425
16320WAT      O51061   3.973   0.362   1.553
16320WAT     H151062   3.938   0.428   1.611
16320WAT     H251063   3.944   0.279   1.590
16321WAT      O51064   4.294   0.408   1.841
16321WAT     H151065   4.264   0.422   1.751
16321WAT     H251066   4.371   0.352   1.832
16322WAT      O51067   4.828   0.887   1.641
16322WAT     H151068   4.829   0.794   1.619
16322WAT     H251069   4.757   0.896   1.705
16323WAT      O51070   5.341   0.306   0.268
16323WAT     H151071   5.333   0.349   0.183
16323WAT     H251072   5.413   0.352   0.311
16324WAT      O51073   5.449   0.551   1.575
16324WAT     H151074   5.376   0.611   1.556
16324WAT     H251075   5.502   0.551   1.495
16325WAT      O51076   5.444   0.991   0.540
16325WAT     H151077   5.380   0.926   0.568
16325WAT     H251078   5.405   1.032   0.463
16326WAT      O51079   5.002   0.724   0.925
16326WAT     H151080   5.037   0.664   0.859
16326WAT     H251081   4.914   0.691   0.942
16327WAT      O51082   4.611   0.800   0.666
16327WAT     H151083   4.679   0.855   0.704
16327WAT     H251084   4.532   0.854   0.669
16328WAT      O51085   3.825   0.362   0.215
16328WAT     H151086   3.911   0.390   0.243
16328WAT     H251087   3.775   0.443   0.204
16329WAT      O51088   4.541   0.500   0.627
16329WAT     H151089   4.587   0.582   0.650
16329WAT     H251090   4.506   0.469   0.710
16330WAT      O51091   4.771   1.052   1.350
16330WAT     H151092   4.836   1.072   1.418
16330WAT     H251093   4.808   0.975   1.305
16331WAT      O51094   4.899   0.852   1.222
16331WAT     H151095   4.963   0.782   1.233
16331WAT     H251096   4.951   0.930   1.204
16332WAT      O51097   5.076   0.932   1.542
16332WAT     H151098   5.109   0.990   1.610
16332WAT     H251099   4.984   0.919   1.565
16333WAT      O51100   3.861   1.283   0.272
16333WAT     H151101   3.897   1.343   0.206
16333WAT     H251102   3.847   1.338   0.349
16334WAT      O51103   5.241   0.672   0.360
16334WAT     H151104   5.212   0.718   0.439
16334WAT     H251105   5.321   0.626   0.387
16335WAT      O51106   3.860   1.110   1.719
16335WAT     H151107   3.871   1.016   1.705
16335WAT     H251108   3.794   1.136   1.654
16336WAT      O51109   4.659   0.937   1.859
16336WAT     H151110   4.627   0.865   1.914
16336WAT     H251111   4.591   1.004   1.866
16337WAT      O51112   4.463   1.021   0.353
16337WAT     H151113   4.462   1.095   0.292
16337WAT     H251114   4.371   0.997   0.363
16338WAT      O51115   4.023   0.543   0.428
16338WAT     H151116   3.962   0.617   0.429
16338WAT     H251117   4.071   0.552   0.345
16339WAT      O51118   4.676   0.225   1.418
16339WAT     H151119   4.726   0.273   1.484
16339WAT     H251120   4.691   0.133   1.439
16340WAT      O51121   4.626   1.279   0.689
16340WAT     H151122   4.651   1.276   0.597
16340WAT     H251123   4.531   1.267   0.688
16341WAT      O51124   5.226   0.371   0.847
16341WAT     H151125   5.132   0.373   0.864
16341WAT     H251126   5.258   0.293   0.891
16342WAT      O51127   4.094   0.283   0.271
16342WAT     H151128   4.102   0.188   0.282
16342WAT     H251129   4.183   0.316   0.282
16343WAT      O51130   5.427   1.088   1.014
16343WAT     H151131   5.439   1.171   1.061
16343WAT     H251132   5.513   1.067   0.979
16344WAT      O51133   4.174   1.298   0.981
16344WAT     H151134   4.247   1.243   1.009
16344WAT     H251135   4.212   1.384   0.967
16345WAT      O51136   3.862   0.905   0.569
16345WAT     H151137   3.770   0.929   0.568
16345WAT     H251138   3.909   0.987   0.557
16346WAT      O51139   4.074   1.216   1.900
16346WAT     H151140   4.154   1.248   1.942
16346WAT     H251141   4.023   1.180   1.972
16347WAT      O51142   4.958   0.827   1.895
16347WAT     H151143   4.897   0.829   1.821
16347WAT     H251144   4.927   0.754   1.949
16348WAT      O51145   5.101   1.200   1.756
16348WAT     H151146   5.196   1.191   1.751
16348WAT     H251147   5.086   1.266   1.823
16349WAT      O51148   5.390   1.138   0.306
16349WAT     H151149   5.361   1.096   0.225
16349WAT     H251150   5.370   1.231   0.294
16350WAT      O51151   3.846   0.465   1.795
16350WAT     H151152   3.897   0.407   1.852
16350WAT     H251153   3.772   0.493   1.848
16351WAT      O51154   4.552   0.606   1.748
16351WAT     H151155   4.475   0.663   1.740
16351WAT     H251156   4.570   0.576   1.659
16352WAT      O51157   4.861   0.643   0.211
16352WAT     H151158   4.806   0.688   0.275
16352WAT     H251159   4.923   0.593   0.263
16353WAT      O51160   5.266   0.779   1.804
16353WAT     H151161   5.340   0.813   1.753
16353WAT     H251162   5.190   0.796   1.748
16354WAT      O51163   4.049   0.279   1.884
16354WAT     H151164   4.054   0.249   1.975
16354WAT     H251165   4.135   0.319   1.868
16355WAT      O51166   4.427   0.539   0.400
16355WAT     H151167   4.469   0.523   0.484
16355WAT     H251168   4.440   0.458   0.351
16356WAT      O51169   5.133   0.584   1.657
16356WAT     H151170   5.175   0.599   1.742
16356WAT     H251171   5.040   0.596   1.674
16357WAT      O51172   5.181   0.318   1.858
16357WAT     H151173   5.239   0.242   1.849
16357WAT     H251174   5.198   0.371   1.780
16358WAT      O51175   4.609   0.579   1.454
16358WAT     H151176   4.651   0.663   1.437
16358WAT     H251177   4.518   0.593   1.431
16359WAT      O51178   4.843   0.352   1.593
16359WAT     H151179   4.855   0.293   1.667
16359WAT     H251180   4.929   0.356   1.551
16360WAT      O51181   5.077   0.408   1.450
16360WAT     H151182   5.024   0.460   1.390
16360WAT     H251183   5.111   0.471   1.513
16361WAT      O51184   4.395   1.210   1.566
16361WAT     H151185   4.341   1.282   1.534
16361WAT     H251186   4.420   1.162   1.487
16362WAT      O51187   4.680   1.333   1.592
16362WAT     H151188   4.673   1.423   1.622
16362WAT     H251189   4.590   1.301   1.589
16363WAT      O51190   4.735   1.250   0.354
16363WAT     H151191   4.825   1.284   0.356
16363WAT     H251192   4.738   1.178   0.291
16364WAT      O51193   4.099   0.787   0.177
16364WAT     H151194   4.143   0.841   0.242
16364WAT     H251195   4.147   0.704   0.178
16365WAT      O51196   3.820   1.066   0.922
16365WAT     H151197   3.853   0.979   0.899
16365WAT     H251198   3.863   1.086   1.005
16366WAT      O51199   4.280   0.899   0.688
16366WAT     H151200   4.250   0.887   0.778
16366WAT     H251201   4.269   0.813   0.647
16367WAT      O51202   3.869   1.153   1.196
16367WAT     H151203   3.826   1.171   1.279
16367WAT     H251204   3.926   1.228   1.182
16368WAT      O51205   5.433   1.103   1.625
16368WAT     H151206   5.373   1.109   1.550
16368WAT     H251207   5.446   1.009   1.638
16369WAT      O51208   5.503   0.551   0.409
16369WAT     H151209   5.579   0.608   0.419
16369WAT     H251210   5.504   0.495   0.486
16370WAT      O51211   3.853   0.404   0.832
16370WAT     H151212   3.787   0.377   0.767
16370WAT     H251213   3.936   0.393   0.787
16371WAT      O51214   5.603   0.637   0.893
16371WAT     H151215   5.640   0.559   0.852
16371WAT     H251216   5.667   0.706   0.875
16372WAT      O51217   5.301   0.775   1.434
16372WAT     H151218   5.220   0.818   1.461
16372WAT     H251219   5.342   0.836   1.373
16373WAT      O51220   5.497   0.374   0.624
16373WAT     H151221   5.460   0.298   0.580
16373WAT     H251222   5.424   0.413   0.672
16374WAT      O51223   3.956   0.442   1.286
16374WAT     H151224   3.993   0.434   1.374
16374WAT     H251225   3.899   0.366   1.276
16375WAT      O51226   5.436   0.289   1.587
16375WAT     H151227   5.413   0.266   1.497
16375WAT     H251228   5.462   0.381   1.583
16376WAT      O51229   5.425   0.197   0.954
16376WAT     H151230   5.477   0.148   0.891
16376WAT     H251231   5.483   0.211   1.028
16377WAT      O51232   5.443   0.205   1.306
16377WAT     H151233   5.348   0.202   1.317
16377WAT     H251234   5.461   0.296   1.282
16378WAT      O51235   5.307   1.250   0.787
16378WAT     H151236   5.367   1.218   0.719
16378WAT     H251237   5.333   1.203   0.866
16379WAT      O51238   4.098   0.894   1.802
16379WAT     H151239   4.094   0.857   1.890
16379WAT     H251240   4.111   0.987   1.816
16380WAT      O51241   4.468   1.049   1.362
16380WAT     H151242   4.444   1.076   1.273
16380WAT     H251243   4.562   1.066   1.368
16381WAT      O51244   5.594   1.251   1.442
16381WAT     H151245   5.545   1.291   1.370
16381WAT     H251246   5.533   1.189   1.482
16382WAT      O51247   4.082   1.188   1.514
16382WAT     H151248   4.022   1.175   1.588
16382WAT     H251249   4.081   1.105   1.467
16383WAT      O51250   5.362   1.315   1.170
16383WAT     H151251   5.316   1.391   1.133
16383WAT     H251252   5.299   1.243   1.164
16384WAT      O51253   4.045   0.925   1.409
16384WAT     H151254   3.972   0.863   1.402
16384WAT     H251255   4.051   0.964   1.322
16385WAT      O51256   4.405   1.146   1.088
16385WAT     H151257   4.457   1.085   1.035
16385WAT     H251258   4.470   1.197   1.137
16386WAT      O51259   4.679   1.235   1.170
16386WAT     H151260   4.708   1.210   1.083
16386WAT     H251261   4.730   1.180   1.229
16387WAT      O51262   3.873   1.257   0.730
16387WAT     H151263   3.856   1.193   0.800
16387WAT     H251264   3.787   1.277   0.695
16388WAT      O51265   4.034   1.126   0.474
16388WAT     H151266   3.981   1.164   0.404
16388WAT     H251267   4.026   1.188   0.547
16389WAT      O51268   4.686   1.328   1.907
16389WAT     H151269   4.779   1.304   1.911
16389WAT     H251270   4.684   1.410   1.859
16390WAT      O51271   5.509   1.282   0.607
16390WAT     H151272   5.527   1.213   0.542
16390WAT     H251273   5.440   1.334   0.567
16391WAT      O51274   4.294   1.321   0.362
16391WAT     H151275   4.367   1.292   0.307
16391WAT     H251276   4.320   1.297   0.451
16392WAT      O51277   4.210   0.932   0.362
16392WAT     H151278   4.147   0.979   0.417
16392WAT     H251279   4.221   0.848   0.406
16393WAT      O51280   5.343   1.250   1.889
16393WAT     H151281   5.422   1.201   1.869
16393WAT     H251282   5.372   1.318   1.950
16394WAT      O51283   3.078   9.725   6.487
16394WAT     H151284   3.070   9.633   6.460
16394WAT     H251285   3.037   9.774   6.417
16395WAT      O51286   2.891   9.902   6.675
16395WAT     H151287   2.814   9.854   6.704
16395WAT     H251288   2.956   9.834   6.658
16396WAT      O51289   2.293   9.934   6.763
16396WAT     H151290   2.210   9.908   6.803
16396WAT     H251291   2.354   9.941   6.837
16397WAT      O51292   2.134   9.430   6.141
16397WAT     H151293   2.045   9.464   6.131
16397WAT     H251294   2.162   9.410   6.052
16398WAT      O51295   1.930   9.690   6.730
16398WAT     H151296   1.987   9.613   6.730
16398WAT     H251297   1.930   9.720   6.639
16399WAT      O51298   2.054   9.231   6.909
16399WAT     H151299   2.036   9.141   6.937
16399WAT     H251300   2.014   9.285   6.976
16400WAT      O51301   2.938   9.451   6.699
16400WAT     H151302   2.976   9.363   6.687
16400WAT     H251303   2.928   9.484   6.610
16401WAT      O51304   2.351   9.288   6.245
16401WAT     H151305   2.362   9.378   6.276
16401WAT     H251306   2.260   9.283   6.216
16402WAT      O51307   3.316   9.200   6.392
16402WAT     H151308   3.399   9.151   6.396
16402WAT     H251309   3.320   9.259   6.467
16403WAT      O51310   2.116   9.480   6.769
16403WAT     H151311   2.184   9.507   6.831
16403WAT     H251312   2.085   9.396   6.803
16404WAT      O51313   2.535   9.585   6.678
16404WAT     H151314   2.586   9.635   6.742
16404WAT     H251315   2.589   9.507   6.661
16405WAT      O51316   3.745   9.402   7.048
16405WAT     H151317   3.675   9.441   6.997
16405WAT     H251318   3.772   9.471   7.109
16406WAT      O51319   2.364   9.049   7.105
16406WAT     H151320   2.364   9.101   7.024
16406WAT     H251321   2.281   9.001   7.102
16407WAT      O51322   2.489  10.013   6.922
16407WAT     H151323   2.455  10.075   6.987
16407WAT     H251324   2.506  10.065   6.845
16408WAT      O51325   3.340   9.394   6.669
16408WAT     H151326   3.270   9.423   6.727
16408WAT     H251327   3.376   9.475   6.633
16409WAT      O51328   2.332   9.220   6.905
16409WAT     H151329   2.366   9.304   6.876
16409WAT     H251330   2.238   9.235   6.917
16410WAT      O51331   3.647   9.339   6.708
16410WAT     H151332   3.552   9.342   6.721
16410WAT     H251333   3.679   9.420   6.747
16411WAT      O51334   2.700   8.969   6.538
16411WAT     H151335   2.731   8.913   6.466
16411WAT     H251336   2.607   8.982   6.520
16412WAT      O51337   3.195  10.031   6.900
16412WAT     H151338   3.237  10.009   6.816
16412WAT     H251339   3.268  10.056   6.957
16413WAT      O51340   2.939   9.775   6.212
16413WAT     H151341   2.846   9.769   6.234
16413WAT     H251342   2.954   9.869   6.200
16414WAT      O51343   2.938   9.402   5.911
16414WAT     H151344   2.844   9.419   5.920
16414WAT     H251345   2.970   9.474   5.857
16415WAT      O51346   3.590   9.871   6.909
16415WAT     H151347   3.507   9.878   6.861
16415WAT     H251348   3.649   9.929   6.862
16416WAT      O51349   3.342   9.931   6.262
16416WAT     H151350   3.280   9.898   6.197
16416WAT     H251351   3.340   9.867   6.333
16417WAT      O51352   3.286   9.549   7.004
16417WAT     H151353   3.245   9.632   7.029
16417WAT     H251354   3.213   9.491   6.984
16418WAT      O51355   2.500   9.828   6.490
16418WAT     H151356   2.459   9.757   6.440
16418WAT     H251357   2.508   9.793   6.579
16419WAT      O51358   2.371   9.505   6.868
16419WAT     H151359   2.426   9.516   6.790
16419WAT     H251360   2.422   9.543   6.939
16420WAT      O51361   3.160   9.855   5.963
16420WAT     H151362   3.204   9.772   5.948
16420WAT     H251363   3.231   9.919   5.971
16421WAT      O51364   2.338   9.857   7.229
16421WAT     H151365   2.324   9.945   7.266
16421WAT     H251366   2.250   9.823   7.214
16422WAT      O51367   3.518   8.981   5.794
16422WAT     H151368   3.486   8.990   5.884
16422WAT     H251369   3.594   9.039   5.789
16423WAT      O51370   2.170   9.717   6.240
16423WAT     H151371   2.158   9.790   6.179
16423WAT     H251372   2.139   9.640   6.192
16424WAT      O51373   1.933  10.034   6.820
16424WAT     H151374   1.941  10.048   6.726
16424WAT     H251375   1.995   9.964   6.840
16425WAT      O51376   3.639   9.454   7.392
16425WAT     H151377   3.577   9.505   7.339
16425WAT     H251378   3.607   9.364   7.386
16426WAT      O51379   2.416   9.052   6.578
16426WAT     H151380   2.372   9.130   6.545
16426WAT     H251381   2.472   9.084   6.649
16427WAT      O51382   2.845   9.338   7.138
16427WAT     H151383   2.799   9.359   7.220
16427WAT     H251384   2.805   9.257   7.108
16428WAT      O51385   3.345   9.460   7.251
16428WAT     H151386   3.260   9.431   7.283
16428WAT     H251387   3.329   9.485   7.160
16429WAT      O51388   3.054   9.610   7.461
16429WAT     H151389   3.087   9.527   7.427
16429WAT     H251390   3.133   9.663   7.476
16430WAT      O51391   2.728   9.014   6.066
16430WAT     H151392   2.665   9.013   6.139
16430WAT     H251393   2.719   8.927   6.026
16431WAT      O51394   2.620   9.106   6.764
16431WAT     H151395   2.650   9.197   6.756
16431WAT     H251396   2.675   9.057   6.702
16432WAT      O51397   2.395   9.564   6.351
16432WAT     H151398   2.373   9.542   6.441
16432WAT     H251399   2.317   9.607   6.316
16433WAT      O51400   3.118   9.565   6.211
16433WAT     H151401   3.058   9.637   6.192
16433WAT     H251402   3.173   9.558   6.132
16434WAT      O51403   2.639   9.654   7.417
16434WAT     H151404   2.630   9.560   7.402
16434WAT     H251405   2.724   9.676   7.378
16435WAT      O51406   2.979   9.428   6.414
16435WAT     H151407   3.018   9.460   6.332
16435WAT     H251408   3.015   9.340   6.425
16436WAT      O51409   2.152   9.295   7.233
16436WAT     H151410   2.113   9.380   7.253
16436WAT     H251411   2.084   9.231   7.252
16437WAT      O51412   1.883   9.087   6.636
16437WAT     H151413   1.854   9.144   6.707
16437WAT     H251414   1.957   9.039   6.672
16438WAT      O51415   1.901   9.481   5.757
16438WAT     H151416   1.893   9.576   5.771
16438WAT     H251417   1.866   9.467   5.669
16439WAT      O51418   3.038   9.687   6.823
16439WAT     H151419   2.964   9.738   6.858
16439WAT     H251420   2.998   9.606   6.793
16440WAT      O51421   2.681   9.355   6.664
16440WAT     H151422   2.682   9.311   6.579
16440WAT     H251423   2.771   9.387   6.675
16441WAT      O51424   2.266   9.343   6.560
16441WAT     H151425   2.232   9.391   6.635
16441WAT     H251426   2.190   9.298   6.524
16442WAT      O51427   2.688   9.455   5.963
16442WAT     H151428   2.700   9.451   6.058
16442WAT     H251429   2.649   9.541   5.947
16443WAT      O51430   3.084   9.233   6.764
16443WAT     H151431   3.086   9.278   6.849
16443WAT     H251432   3.059   9.143   6.786
16444WAT      O51433   2.589   9.686   5.903
16444WAT     H151434   2.532   9.641   5.840
16444WAT     H251435   2.660   9.722   5.849
16445WAT      O51436   3.427   8.974   7.348
16445WAT     H151437   3.459   8.901   7.401
16445WAT     H251438   3.430   8.942   7.258
16446WAT      O51439   2.711   9.761   6.838
16446WAT     H151440   2.748   9.713   6.913
16446WAT     H251441   2.692   9.848   6.873
16447WAT      O51442   1.998   9.235   6.451
16447WAT     H151443   1.969   9.199   6.535
16447WAT     H251444   1.992   9.162   6.390
16448WAT      O51445   2.490   9.665   7.070
16448WAT     H151446   2.460   9.753   7.093
16448WAT     H251447   2.586   9.671   7.074
16449WAT      O51448   2.343  10.086   6.130
16449WAT     H151449   2.266  10.032   6.114
16449WAT     H251450   2.416  10.034   6.096
16450WAT      O51451   3.419   9.985   6.709
16450WAT     H151452   3.491  10.035   6.670
16450WAT     H251453   3.399   9.917   6.645
16451WAT      O51454   2.965   9.125   6.124
16451WAT     H151455   2.884   9.075   6.116
16451WAT     H251456   2.946   9.209   6.082
16452WAT      O51457   2.957   9.992   7.298
16452WAT     H151458   2.951   9.900   7.272
16452WAT     H251459   2.894  10.002   7.369
16453WAT      O51460   3.237   9.562   5.953
16453WAT     H151461   3.325   9.593   5.936
16453WAT     H251462   3.234   9.475   5.914
16454WAT      O51463   2.348  10.052   6.494
16454WAT     H151464   2.399   9.972   6.488
16454WAT     H251465   2.302  10.046   6.578
16455WAT      O51466   2.096   9.749   7.185
16455WAT     H151467   2.060   9.816   7.244
16455WAT     H251468   2.067   9.666   7.222
16456WAT      O51469   2.416   9.795   7.473
16456WAT     H151470   2.386   9.809   7.384
16456WAT     H251471   2.493   9.739   7.464
16457WAT      O51472   3.464   9.693   5.900
16457WAT     H151473   3.455   9.736   5.815
16457WAT     H251474   3.536   9.739   5.943
16458WAT      O51475   3.572   9.939   7.208
16458WAT     H151476   3.499   9.998   7.188
16458WAT     H251477   3.624   9.938   7.128
16459WAT      O51478   1.947   9.749   5.847
16459WAT     H151479   2.034   9.777   5.876
16459WAT     H251480   1.898   9.830   5.836
16460WAT      O51481   2.663   9.888   6.259
16460WAT     H151482   2.709   9.969   6.282
16460WAT     H251483   2.628   9.856   6.343
16461WAT      O51484   2.254   8.922   6.307
16461WAT     H151485   2.241   8.921   6.402
16461WAT     H251486   2.171   8.956   6.272
16462WAT      O51487   1.954   9.098   7.253
16462WAT     H151488   1.882   9.118   7.313
16462WAT     H251489   1.995   9.020   7.290
16463WAT      O51490   2.146   9.931   6.060
16463WAT     H151491   2.085  10.005   6.061
16463WAT     H251492   2.193   9.940   5.978
16464WAT      O51493   3.103   9.347   7.028
16464WAT     H151494   3.140   9.265   7.061
16464WAT     H251495   3.017   9.353   7.069
16465WAT      O51496   3.440   9.243   6.109
16465WAT     H151497   3.377   9.253   6.037
16465WAT     H251498   3.390   9.265   6.188
16466WAT      O51499   2.636   9.471   6.250
16466WAT     H151500   2.566   9.517   6.294
16466WAT     H251501   2.665   9.405   6.314
16467WAT      O51502   2.799   9.613   7.050
16467WAT     H151503   2.849   9.660   7.117
16467WAT     H251504   2.813   9.520   7.071
16468WAT      O51505   3.040   9.143   6.394
16468WAT     H151506   3.027   9.145   6.299
16468WAT     H251507   3.134   9.148   6.406
16469WAT      O51508   2.457   9.301   5.988
16469WAT     H151509   2.542   9.345   5.981
16469WAT     H251510   2.420   9.333   6.070
16470WAT      O51511   3.520   9.234   7.134
16470WAT     H151512   3.469   9.308   7.168
16470WAT     H251513   3.601   9.273   7.103
16471WAT      O51514   3.349   9.759   6.479
16471WAT     H151515   3.255   9.760   6.496
16471WAT     H251516   3.380   9.680   6.524
16472WAT      O51517   2.347   9.927   5.835
16472WAT     H151518   2.423   9.916   5.891
16472WAT     H251519   2.354   9.857   5.770
16473WAT      O51520   2.216   9.670   5.903
16473WAT     H151521   2.224   9.575   5.915
16473WAT     H251522   2.305   9.703   5.914
16474WAT      O51523   1.969   9.852   7.427
16474WAT     H151524   2.019   9.794   7.484
16474WAT     H251525   1.895   9.881   7.481
16475WAT      O51526   2.674   9.993   7.380
16475WAT     H151527   2.598  10.050   7.372
16475WAT     H251528   2.692   9.964   7.291
16476WAT      O51529   2.983  10.031   5.843
16476WAT     H151530   2.928  10.075   5.907
16476WAT     H251531   3.045   9.980   5.895
16477WAT      O51532   2.550   9.926   6.032
16477WAT     H151533   2.592   9.910   6.117
16477WAT     H251534   2.562   9.845   5.983
16478WAT      O51535   2.366   9.524   7.313
16478WAT     H151536   2.313   9.475   7.250
16478WAT     H251537   2.433   9.567   7.260
16479WAT      O51538   2.801   9.829   5.757
16479WAT     H151539   2.853   9.757   5.721
16479WAT     H251540   2.866   9.893   5.787
16480WAT      O51541   3.256   9.971   7.290
16480WAT     H151542   3.297   9.987   7.375
16480WAT     H251543   3.162   9.984   7.306
16481WAT      O51544   3.303   9.705   7.490
16481WAT     H151545   3.361   9.630   7.481
16481WAT     H251546   3.321   9.758   7.412
16482WAT      O51547   2.415   9.221   7.321
16482WAT     H151548   2.405   9.159   7.249
16482WAT     H251549   2.357   9.294   7.298
16483WAT      O51550   2.691   9.077   7.024
16483WAT     H151551   2.647   9.079   6.940
16483WAT     H251552   2.628   9.037   7.084
16484WAT      O51553   2.732   9.966   7.087
16484WAT     H151554   2.774  10.051   7.069
16484WAT     H251555   2.640   9.980   7.064
16485WAT      O51556   2.966   9.739   7.225
16485WAT     H151557   2.978   9.680   7.299
16485WAT     H251558   3.052   9.743   7.183
16486WAT      O51559   3.200   9.795   7.083
16486WAT     H151560   3.147   9.847   7.022
16486WAT     H251561   3.234   9.858   7.146
16487WAT      O51562   2.439   9.534   5.727
16487WAT     H151563   2.419   9.447   5.763
16487WAT     H251564   2.422   9.525   5.633
16488WAT      O51565   2.642   9.394   7.351
16488WAT     H151566   2.701   9.363   7.419
16488WAT     H251567   2.561   9.346   7.366
16489WAT      O51568   3.124   9.355   7.374
16489WAT     H151569   3.055   9.289   7.368
16489WAT     H251570   3.196   9.311   7.419
16490WAT      O51571   3.187   9.015   5.980
16490WAT     H151572   3.215   8.931   6.016
16490WAT     H251573   3.110   9.038   6.031
16491WAT      O51574   2.319   9.244   5.726
16491WAT     H151575   2.349   9.244   5.635
16491WAT     H251576   2.393   9.209   5.776
16492WAT      O51577   2.641   9.138   5.824
16492WAT     H151578   2.606   9.070   5.766
16492WAT     H251579   2.661   9.092   5.906
16493WAT      O51580   3.625   9.939   6.041
16493WAT     H151581   3.701   9.996   6.052
16493WAT     H251582   3.627   9.882   6.118
16494WAT      O51583   1.975   9.791   6.464
16494WAT     H151584   1.910   9.764   6.400
16494WAT     H251585   2.059   9.780   6.419
16495WAT      O51586   3.630   9.968   5.757
16495WAT     H151587   3.658  10.059   5.744
16495WAT     H251588   3.611   9.962   5.850
16496WAT      O51589   3.270   9.270   5.886
16496WAT     H151590   3.312   9.252   5.802
16496WAT     H251591   3.239   9.185   5.917
16497WAT      O51592   3.620   9.762   6.256
16497WAT     H151593   3.582   9.685   6.213
16497WAT     H251594   3.547   9.800   6.305
16498WAT      O51595   2.079   9.830   6.918
16498WAT     H151596   2.116   9.821   7.006
16498WAT     H251597   2.022   9.753   6.908
16499WAT      O51598   3.559   9.676   7.219
16499WAT     H151599   3.536   9.653   7.129
16499WAT     H251600   3.585   9.768   7.215
16500WAT      O51601   2.034   9.521   7.309
16500WAT     H151602   1.945   9.517   7.343
16500WAT     H251603   2.088   9.540   7.385
16501WAT      O51604   1.897   9.512   6.058
16501WAT     H151605   1.806   9.538   6.041
16501WAT     H251606   1.945   9.539   5.980
16502WAT      O51607   3.547   9.584   6.586
16502WAT     H151608   3.600   9.535   6.523
16502WAT     H251609   3.606   9.598   6.661
16503WAT      O51610   3.565   9.593   6.938
16503WAT     H151611   3.470   9.589   6.950
16503WAT     H251612   3.583   9.684   6.915
16504WAT      O51613   2.151   9.418   5.849
16504WAT     H151614   2.222   9.375   5.801
16504WAT     H251615   2.079   9.424   5.786
16505WAT      O51616   2.116   9.023   5.753
16505WAT     H151617   2.188   9.077   5.785
16505WAT     H251618   2.143   8.996   5.666
16506WAT      O51619   3.496   9.510   6.180
16506WAT     H151620   3.546   9.487   6.258
16506WAT     H251621   3.477   9.426   6.138
16507WAT      O51622   2.084   8.948   6.743
16507WAT     H151623   2.149   8.893   6.699
16507WAT     H251624   2.126   8.974   6.826
16508WAT      O51625   3.639   9.374   6.433
16508WAT     H151626   3.628   9.358   6.527
16508WAT     H251627   3.715   9.321   6.409
16509WAT      O51628   3.474   8.967   7.079
16509WAT     H151629   3.538   9.029   7.116
16509WAT     H251630   3.489   8.971   6.985
16510WAT      O51631   3.728   9.157   5.757
16510WAT     H151632   3.821   9.143   5.737
16510WAT     H251633   3.726   9.165   5.853
16511WAT      O51634   3.736   9.234   6.020
16511WAT     H151635   3.656   9.227   6.073
16511WAT     H251636   3.756   9.327   6.019
16512WAT      O51637   2.060   8.964   7.018
16512WAT     H151638   2.025   9.009   7.094
16512WAT     H251639   2.027   8.874   7.026
16513WAT      O51640   2.811   9.083   7.370
16513WAT     H151641   2.805   9.142   7.445
16513WAT     H251642   2.905   9.072   7.355
16514WAT      O51643   3.075   9.048   7.334
16514WAT     H151644   3.136   9.080   7.268
16514WAT     H251645   3.129   9.000   7.396
16515WAT      O51646   2.127   8.916   7.345
16515WAT     H151647   2.182   8.898   7.269
16515WAT     H251648   2.134   8.837   7.399
16516WAT      O51649   3.149   8.905   6.967
16516WAT     H151650   3.061   8.938   6.946
16516WAT     H251651   3.138   8.858   7.049
16517WAT      O51652   3.240   9.125   7.105
16517WAT     H151653   3.207   9.044   7.067
16517WAT     H251654   3.334   9.121   7.093
16518WAT      O51655   2.924   8.996   6.860
16518WAT     H151656   2.845   9.044   6.888
16518WAT     H251657   2.894   8.906   6.850
16519WAT      O51658   3.379   9.067   6.665
16519WAT     H151659   3.423   9.061   6.580
16519WAT     H251660   3.352   9.158   6.672
16520WAT      O51661   3.565   9.030   6.466
16520WAT     H151662   3.559   8.935   6.451
16520WAT     H251663   3.643   9.041   6.521
16521WAT      O51664   2.058   9.027   6.113
16521WAT     H151665   2.134   9.038   6.055
16521WAT     H251666   2.012   9.111   6.108
16522WAT      O51667   2.712   9.238   6.412
16522WAT     H151668   2.631   9.201   6.378
16522WAT     H251669   2.763   9.163   6.442
16523WAT      O51670   3.162   8.905   6.535
16523WAT     H151671   3.223   8.962   6.583
16523WAT     H251672   3.088   8.961   6.513
16524WAT      O51673   3.477   8.945   6.063
16524WAT     H151674   3.496   9.035   6.090
16524WAT     H251675   3.398   8.922   6.112
16525WAT      O51676   2.295   9.080   5.967
16525WAT     H151677   2.348   9.001   5.954
16525WAT     H251678   2.359   9.147   5.990
16526WAT      O51679   2.515   9.053   6.272
16526WAT     H151680   2.452   8.983   6.289
16526WAT     H251681   2.461   9.129   6.250
16527WAT      O51682   3.078   9.725   4.610
16527WAT     H151683   3.070   9.633   4.583
16527WAT     H251684   3.037   9.774   4.539
16528WAT      O51685   2.891   9.902   4.798
16528WAT     H151686   2.814   9.854   4.827
16528WAT     H251687   2.956   9.834   4.780
16529WAT      O51688   2.293   9.934   4.886
16529WAT     H151689   2.210   9.908   4.926
16529WAT     H251690   2.354   9.941   4.959
16530WAT      O51691   2.134   9.430   4.264
16530WAT     H151692   2.045   9.464   4.254
16530WAT     H251693   2.162   9.410   4.175
16531WAT      O51694   1.930   9.690   4.852
16531WAT     H151695   1.987   9.613   4.852
16531WAT     H251696   1.930   9.720   4.762
16532WAT      O51697   2.054   9.231   5.031
16532WAT     H151698   2.036   9.141   5.059
16532WAT     H251699   2.014   9.285   5.099
16533WAT      O51700   2.938   9.451   4.821
16533WAT     H151701   2.976   9.363   4.810
16533WAT     H251702   2.928   9.484   4.732
16534WAT      O51703   2.351   9.288   4.367
16534WAT     H151704   2.362   9.378   4.398
16534WAT     H251705   2.260   9.283   4.338
16535WAT      O51706   3.316   9.200   4.515
16535WAT     H151707   3.399   9.151   4.519
16535WAT     H251708   3.320   9.259   4.590
16536WAT      O51709   2.116   9.480   4.892
16536WAT     H151710   2.184   9.507   4.954
16536WAT     H251711   2.085   9.396   4.925
16537WAT      O51712   2.535   9.585   4.801
16537WAT     H151713   2.586   9.635   4.865
16537WAT     H251714   2.589   9.507   4.783
16538WAT      O51715   3.745   9.402   5.171
16538WAT     H151716   3.675   9.441   5.119
16538WAT     H251717   3.772   9.471   5.231
16539WAT      O51718   2.364   9.049   5.227
16539WAT     H151719   2.364   9.101   5.147
16539WAT     H251720   2.281   9.001   5.225
16540WAT      O51721   2.489  10.013   5.045
16540WAT     H151722   2.455  10.075   5.109
16540WAT     H251723   2.506  10.065   4.967
16541WAT      O51724   3.340   9.394   4.792
16541WAT     H151725   3.270   9.423   4.850
16541WAT     H251726   3.376   9.475   4.756
16542WAT      O51727   2.332   9.220   5.028
16542WAT     H151728   2.366   9.304   4.999
16542WAT     H251729   2.238   9.235   5.040
16543WAT      O51730   3.647   9.339   4.831
16543WAT     H151731   3.552   9.342   4.844
16543WAT     H251732   3.679   9.420   4.869
16544WAT      O51733   2.700   8.969   4.660
16544WAT     H151734   2.731   8.913   4.589
16544WAT     H251735   2.607   8.982   4.642
16545WAT      O51736   3.195  10.031   5.022
16545WAT     H151737   3.237  10.009   4.939
16545WAT     H251738   3.268  10.056   5.079
16546WAT      O51739   2.939   9.775   4.334
16546WAT     H151740   2.846   9.769   4.357
16546WAT     H251741   2.954   9.869   4.323
16547WAT      O51742   2.938   9.402   4.034
16547WAT     H151743   2.844   9.419   4.042
16547WAT     H251744   2.970   9.474   3.979
16548WAT      O51745   3.590   9.871   5.032
16548WAT     H151746   3.507   9.878   4.984
16548WAT     H251747   3.649   9.929   4.985
16549WAT      O51748   3.342   9.931   4.384
16549WAT     H151749   3.280   9.898   4.320
16549WAT     H251750   3.340   9.867   4.455
16550WAT      O51751   3.286   9.549   5.126
16550WAT     H151752   3.245   9.632   5.151
16550WAT     H251753   3.213   9.491   5.107
16551WAT      O51754   2.500   9.828   4.612
16551WAT     H151755   2.459   9.757   4.563
16551WAT     H251756   2.508   9.793   4.701
16552WAT      O51757   2.371   9.505   4.990
16552WAT     H151758   2.426   9.516   4.913
16552WAT     H251759   2.422   9.543   5.062
16553WAT      O51760   3.160   9.855   4.085
16553WAT     H151761   3.204   9.772   4.071
16553WAT     H251762   3.231   9.919   4.094
16554WAT      O51763   2.338   9.857   5.351
16554WAT     H151764   2.324   9.945   5.388
16554WAT     H251765   2.250   9.823   5.337
16555WAT      O51766   3.518   8.981   3.917
16555WAT     H151767   3.486   8.990   4.007
16555WAT     H251768   3.594   9.039   3.912
16556WAT      O51769   2.170   9.717   4.362
16556WAT     H151770   2.158   9.790   4.301
16556WAT     H251771   2.139   9.640   4.315
16557WAT      O51772   1.933  10.034   4.943
16557WAT     H151773   1.941  10.048   4.849
16557WAT     H251774   1.995   9.964   4.962
16558WAT      O51775   3.639   9.454   5.514
16558WAT     H151776   3.577   9.505   5.461
16558WAT     H251777   3.607   9.364   5.509
16559WAT      O51778   2.416   9.052   4.701
16559WAT     H151779   2.372   9.130   4.667
16559WAT     H251780   2.472   9.084   4.771
16560WAT      O51781   2.845   9.338   5.261
16560WAT     H151782   2.799   9.359   5.342
16560WAT     H251783   2.805   9.257   5.231
16561WAT      O51784   3.345   9.460   5.374
16561WAT     H151785   3.260   9.431   5.406
16561WAT     H251786   3.329   9.485   5.283
16562WAT      O51787   3.054   9.610   5.584
16562WAT     H151788   3.087   9.527   5.550
16562WAT     H251789   3.133   9.663   5.599
16563WAT      O51790   2.728   9.014   4.189
16563WAT     H151791   2.665   9.013   4.261
16563WAT     H251792   2.719   8.927   4.149
16564WAT      O51793   2.620   9.106   4.886
16564WAT     H151794   2.650   9.197   4.878
16564WAT     H251795   2.675   9.057   4.825
16565WAT      O51796   2.395   9.564   4.473
16565WAT     H151797   2.373   9.542   4.564
16565WAT     H251798   2.317   9.607   4.439
16566WAT      O51799   3.118   9.565   4.333
16566WAT     H151800   3.058   9.637   4.315
16566WAT     H251801   3.173   9.558   4.255
16567WAT      O51802   2.639   9.654   5.540
16567WAT     H151803   2.630   9.560   5.525
16567WAT     H251804   2.724   9.676   5.500
16568WAT      O51805   2.979   9.428   4.536
16568WAT     H151806   3.018   9.460   4.455
16568WAT     H251807   3.015   9.340   4.548
16569WAT      O51808   2.152   9.295   5.355
16569WAT     H151809   2.113   9.380   5.376
16569WAT     H251810   2.084   9.231   5.374
16570WAT      O51811   2.810   9.303   5.662
16570WAT     H151812   2.741   9.284   5.726
16570WAT     H251813   2.884   9.332   5.716
16571WAT      O51814   1.883   9.087   4.759
16571WAT     H151815   1.854   9.144   4.830
16571WAT     H251816   1.957   9.039   4.795
16572WAT      O51817   1.901   9.481   3.880
16572WAT     H151818   1.893   9.576   3.894
16572WAT     H251819   1.866   9.467   3.792
16573WAT      O51820   3.038   9.687   4.946
16573WAT     H151821   2.964   9.738   4.981
16573WAT     H251822   2.998   9.606   4.916
16574WAT      O51823   2.681   9.355   4.786
16574WAT     H151824   2.682   9.311   4.701
16574WAT     H251825   2.771   9.387   4.797
16575WAT      O51826   2.266   9.343   4.682
16575WAT     H151827   2.232   9.391   4.758
16575WAT     H251828   2.190   9.298   4.646
16576WAT      O51829   2.688   9.455   4.085
16576WAT     H151830   2.700   9.451   4.180
16576WAT     H251831   2.649   9.541   4.070
16577WAT      O51832   3.084   9.233   4.887
16577WAT     H151833   3.086   9.278   4.971
16577WAT     H251834   3.059   9.143   4.908
16578WAT      O51835   2.589   9.686   4.025
16578WAT     H151836   2.532   9.641   3.963
16578WAT     H251837   2.660   9.722   3.972
16579WAT      O51838   3.427   8.974   5.471
16579WAT     H151839   3.459   8.901   5.524
16579WAT     H251840   3.430   8.942   5.381
16580WAT      O51841   2.711   9.761   4.961
16580WAT     H151842   2.748   9.713   5.036
16580WAT     H251843   2.692   9.848   4.995
16581WAT      O51844   1.998   9.235   4.574
16581WAT     H151845   1.969   9.199   4.658
16581WAT     H251846   1.992   9.162   4.513
16582WAT      O51847   2.490   9.665   5.193
16582WAT     H151848   2.460   9.753   5.215
16582WAT     H251849   2.586   9.671   5.196
16583WAT      O51850   2.343  10.086   4.253
16583WAT     H151851   2.266  10.032   4.237
16583WAT     H251852   2.416  10.034   4.219
16584WAT      O51853   3.419   9.985   4.832
16584WAT     H151854   3.491  10.035   4.793
16584WAT     H251855   3.399   9.917   4.767
16585WAT      O51856   2.965   9.125   4.246
16585WAT     H151857   2.884   9.075   4.239
16585WAT     H251858   2.946   9.209   4.204
16586WAT      O51859   2.957   9.992   5.420
16586WAT     H151860   2.951   9.900   5.395
16586WAT     H251861   2.894  10.002   5.492
16587WAT      O51862   3.237   9.562   4.076
16587WAT     H151863   3.325   9.593   4.058
16587WAT     H251864   3.234   9.475   4.037
16588WAT      O51865   2.348  10.052   4.616
16588WAT     H151866   2.399   9.972   4.611
16588WAT     H251867   2.302  10.046   4.700
16589WAT      O51868   2.096   9.749   5.308
16589WAT     H151869   2.060   9.816   5.366
16589WAT     H251870   2.067   9.666   5.345
16590WAT      O51871   2.416   9.795   5.596
16590WAT     H151872   2.386   9.809   5.506
16590WAT     H251873   2.493   9.739   5.587
16591WAT      O51874   3.464   9.693   4.022
16591WAT     H151875   3.455   9.736   3.937
16591WAT     H251876   3.536   9.739   4.066
16592WAT      O51877   3.572   9.939   5.330
16592WAT     H151878   3.499   9.998   5.310
16592WAT     H251879   3.624   9.938   5.250
16593WAT      O51880   1.947   9.749   3.970
16593WAT     H151881   2.034   9.777   3.998
16593WAT     H251882   1.898   9.830   3.958
16594WAT      O51883   2.663   9.888   4.382
16594WAT     H151884   2.709   9.969   4.405
16594WAT     H251885   2.628   9.856   4.465
16595WAT      O51886   2.254   8.922   4.429
16595WAT     H151887   2.241   8.921   4.524
16595WAT     H251888   2.171   8.956   4.394
16596WAT      O51889   1.954   9.098   5.375
16596WAT     H151890   1.882   9.118   5.436
16596WAT     H251891   1.995   9.020   5.412
16597WAT      O51892   2.146   9.931   4.183
16597WAT     H151893   2.085  10.005   4.184
16597WAT     H251894   2.193   9.940   4.100
16598WAT      O51895   3.103   9.347   5.150
16598WAT     H151896   3.140   9.265   5.183
16598WAT     H251897   3.017   9.353   5.192
16599WAT      O51898   3.440   9.243   4.231
16599WAT     H151899   3.377   9.253   4.160
16599WAT     H251900   3.390   9.265   4.310
16600WAT      O51901   2.636   9.471   4.373
16600WAT     H151902   2.566   9.517   4.417
16600WAT     H251903   2.665   9.405   4.436
16601WAT      O51904   2.799   9.613   5.173
16601WAT     H151905   2.849   9.660   5.239
16601WAT     H251906   2.813   9.520   5.193
16602WAT      O51907   3.040   9.143   4.517
16602WAT     H151908   3.027   9.145   4.422
16602WAT     H251909   3.134   9.148   4.529
16603WAT      O51910   2.457   9.301   4.110
16603WAT     H151911   2.542   9.345   4.104
16603WAT     H251912   2.420   9.333   4.193
16604WAT      O51913   3.520   9.234   5.257
16604WAT     H151914   3.469   9.308   5.291
16604WAT     H251915   3.601   9.273   5.225
16605WAT      O51916   3.349   9.759   4.602
16605WAT     H151917   3.255   9.760   4.619
16605WAT     H251918   3.380   9.680   4.646
16606WAT      O51919   2.347   9.927   3.958
16606WAT     H151920   2.423   9.916   4.014
16606WAT     H251921   2.354   9.857   3.892
16607WAT      O51922   2.216   9.670   4.026
16607WAT     H151923   2.224   9.575   4.037
16607WAT     H251924   2.305   9.703   4.037
16608WAT      O51925   1.969   9.852   5.550
16608WAT     H151926   2.019   9.794   5.607
16608WAT     H251927   1.895   9.881   5.603
16609WAT      O51928   2.674   9.993   5.503
16609WAT     H151929   2.598  10.050   5.494
16609WAT     H251930   2.692   9.964   5.414
16610WAT      O51931   2.983  10.031   3.965
16610WAT     H151932   2.928  10.075   4.030
16610WAT     H251933   3.045   9.980   4.018
16611WAT      O51934   2.172   9.666   5.639
16611WAT     H151935   2.176   9.637   5.730
16611WAT     H251936   2.257   9.707   5.623
16612WAT      O51937   2.550   9.926   4.155
16612WAT     H151938   2.592   9.910   4.239
16612WAT     H251939   2.562   9.845   4.106
16613WAT      O51940   2.366   9.524   5.436
16613WAT     H151941   2.313   9.475   5.373
16613WAT     H251942   2.433   9.567   5.382
16614WAT      O51943   2.801   9.829   3.880
16614WAT     H151944   2.853   9.757   3.843
16614WAT     H251945   2.866   9.893   3.910
16615WAT      O51946   3.256   9.971   5.412
16615WAT     H151947   3.297   9.987   5.497
16615WAT     H251948   3.162   9.984   5.428
16616WAT      O51949   3.303   9.705   5.613
16616WAT     H151950   3.361   9.630   5.604
16616WAT     H251951   3.321   9.758   5.535
16617WAT      O51952   2.415   9.221   5.444
16617WAT     H151953   2.405   9.159   5.371
16617WAT     H251954   2.357   9.294   5.421
16618WAT      O51955   2.691   9.077   5.147
16618WAT     H151956   2.647   9.079   5.062
16618WAT     H251957   2.628   9.037   5.207
16619WAT      O51958   2.732   9.966   5.209
16619WAT     H151959   2.774  10.051   5.192
16619WAT     H251960   2.640   9.980   5.186
16620WAT      O51961   2.966   9.739   5.348
16620WAT     H151962   2.978   9.680   5.421
16620WAT     H251963   3.052   9.743   5.306
16621WAT      O51964   3.200   9.795   5.205
16621WAT     H151965   3.147   9.847   5.145
16621WAT     H251966   3.234   9.858   5.268
16622WAT      O51967   2.439   9.534   3.850
16622WAT     H151968   2.419   9.447   3.886
16622WAT     H251969   2.422   9.525   3.756
16623WAT      O51970   2.642   9.394   5.473
16623WAT     H151971   2.701   9.363   5.542
16623WAT     H251972   2.561   9.346   5.489
16624WAT      O51973   3.124   9.355   5.497
16624WAT     H151974   3.055   9.289   5.490
16624WAT     H251975   3.196   9.311   5.541
16625WAT      O51976   3.187   9.015   4.102
16625WAT     H151977   3.215   8.931   4.138
16625WAT     H251978   3.110   9.038   4.154
16626WAT      O51979   2.319   9.244   3.848
16626WAT     H151980   2.349   9.244   3.758
16626WAT     H251981   2.393   9.209   3.898
16627WAT      O51982   2.641   9.138   3.947
16627WAT     H151983   2.606   9.070   3.889
16627WAT     H251984   2.661   9.092   4.028
16628WAT      O51985   3.625   9.939   4.164
16628WAT     H151986   3.701   9.996   4.174
16628WAT     H251987   3.627   9.882   4.241
16629WAT      O51988   1.975   9.791   4.587
16629WAT     H151989   1.910   9.764   4.522
16629WAT     H251990   2.059   9.780   4.542
16630WAT      O51991   3.630   9.968   3.879
16630WAT     H151992   3.658  10.059   3.866
16630WAT     H251993   3.611   9.962   3.973
16631WAT      O51994   3.270   9.270   4.009
16631WAT     H151995   3.312   9.252   3.925
16631WAT     H251996   3.239   9.185   4.040
16632WAT      O51997   3.620   9.762   4.379
16632WAT     H151998   3.582   9.685   4.335
16632WAT     H251999   3.547   9.800   4.427
16633WAT      O52000   2.079   9.830   5.041
16633WAT     H152001   2.116   9.821   5.129
16633WAT     H252002   2.022   9.753   5.031
16634WAT      O52003   3.559   9.676   5.342
16634WAT     H152004   3.536   9.653   5.252
16634WAT     H252005   3.585   9.768   5.337
16635WAT      O52006   2.034   9.521   5.431
16635WAT     H152007   1.945   9.517   5.465
16635WAT     H252008   2.088   9.540   5.508
16636WAT      O52009   3.403   9.199   5.620
16636WAT     H152010   3.491   9.200   5.658
16636WAT     H252011   3.404   9.125   5.559
16637WAT      O52012   1.897   9.512   4.181
16637WAT     H152013   1.806   9.538   4.163
16637WAT     H252014   1.945   9.539   4.103
16638WAT      O52015   3.547   9.584   4.709
16638WAT     H152016   3.600   9.535   4.646
16638WAT     H252017   3.606   9.598   4.783
16639WAT      O52018   3.565   9.593   5.061
16639WAT     H152019   3.470   9.589   5.072
16639WAT     H252020   3.583   9.684   5.037
16640WAT      O52021   2.151   9.418   3.972
16640WAT     H152022   2.222   9.375   3.923
16640WAT     H252023   2.079   9.424   3.909
16641WAT      O52024   2.116   9.023   3.876
16641WAT     H152025   2.188   9.077   3.908
16641WAT     H252026   2.143   8.996   3.788
16642WAT      O52027   3.496   9.510   4.303
16642WAT     H152028   3.546   9.487   4.381
16642WAT     H252029   3.477   9.426   4.261
16643WAT      O52030   2.084   8.948   4.866
16643WAT     H152031   2.149   8.893   4.822
16643WAT     H252032   2.126   8.974   4.948
16644WAT      O52033   3.639   9.374   4.556
16644WAT     H152034   3.628   9.358   4.650
16644WAT     H252035   3.715   9.321   4.532
16645WAT      O52036   3.474   8.967   5.202
16645WAT     H152037   3.538   9.029   5.238
16645WAT     H252038   3.489   8.971   5.107
16646WAT      O52039   3.728   9.157   3.880
16646WAT     H152040   3.821   9.143   3.859
16646WAT     H252041   3.726   9.165   3.975
16647WAT      O52042   3.736   9.234   4.143
16647WAT     H152043   3.656   9.227   4.195
16647WAT     H252044   3.756   9.327   4.141
16648WAT      O52045   2.060   8.964   5.140
16648WAT     H152046   2.025   9.009   5.217
16648WAT     H252047   2.027   8.874   5.149
16649WAT      O52048   2.811   9.083   5.493
16649WAT     H152049   2.805   9.142   5.567
16649WAT     H252050   2.905   9.072   5.478
16650WAT      O52051   3.075   9.048   5.456
16650WAT     H152052   3.136   9.080   5.390
16650WAT     H252053   3.129   9.000   5.518
16651WAT      O52054   2.127   8.916   5.468
16651WAT     H152055   2.182   8.898   5.391
16651WAT     H252056   2.134   8.837   5.521
16652WAT      O52057   3.149   8.905   5.089
16652WAT     H152058   3.061   8.938   5.069
16652WAT     H252059   3.138   8.858   5.172
16653WAT      O52060   3.240   9.125   5.228
16653WAT     H152061   3.207   9.044   5.190
16653WAT     H252062   3.334   9.121   5.215
16654WAT      O52063   2.924   8.996   4.983
16654WAT     H152064   2.845   9.044   5.011
16654WAT     H252065   2.894   8.906   4.972
16655WAT      O52066   3.379   9.067   4.788
16655WAT     H152067   3.423   9.061   4.703
16655WAT     H252068   3.352   9.158   4.795
16656WAT      O52069   3.565   9.030   4.589
16656WAT     H152070   3.559   8.935   4.574
16656WAT     H252071   3.643   9.041   4.643
16657WAT      O52072   2.058   9.027   4.235
16657WAT     H152073   2.134   9.038   4.178
16657WAT     H252074   2.012   9.111   4.231
16658WAT      O52075   2.712   9.238   4.534
16658WAT     H152076   2.631   9.201   4.500
16658WAT     H252077   2.763   9.163   4.564
16659WAT      O52078   3.162   8.905   4.658
16659WAT     H152079   3.223   8.962   4.706
16659WAT     H252080   3.088   8.961   4.636
16660WAT      O52081   3.477   8.945   4.185
16660WAT     H152082   3.496   9.035   4.212
16660WAT     H252083   3.398   8.922   4.235
16661WAT      O52084   2.295   9.080   4.089
16661WAT     H152085   2.348   9.001   4.076
16661WAT     H252086   2.359   9.147   4.113
16662WAT      O52087   2.515   9.053   4.395
16662WAT     H152088   2.452   8.983   4.411
16662WAT     H252089   2.461   9.129   4.373
16663WAT      O52090   2.527   8.981   5.638
16663WAT     H152091   2.499   9.032   5.562
16663WAT     H252092   2.565   8.901   5.602
16664WAT      O52093   3.187   8.923   5.696
16664WAT     H152094   3.176   8.955   5.786
16664WAT     H252095   3.269   8.963   5.666
16665WAT      O52096   3.078   9.725   2.732
16665WAT     H152097   3.070   9.633   2.705
16665WAT     H252098   3.037   9.774   2.662
16666WAT      O52099   2.891   9.902   2.920
16666WAT     H152100   2.814   9.854   2.949
16666WAT     H252101   2.956   9.834   2.903
16667WAT      O52102   2.293   9.934   3.008
16667WAT     H152103   2.210   9.908   3.048
16667WAT     H252104   2.354   9.941   3.082
16668WAT      O52105   2.134   9.430   2.387
16668WAT     H152106   2.045   9.464   2.376
16668WAT     H252107   2.162   9.410   2.297
16669WAT      O52108   1.930   9.690   2.975
16669WAT     H152109   1.987   9.613   2.975
16669WAT     H252110   1.930   9.720   2.884
16670WAT      O52111   2.054   9.231   3.154
16670WAT     H152112   2.036   9.141   3.182
16670WAT     H252113   2.014   9.285   3.221
16671WAT      O52114   2.938   9.451   2.944
16671WAT     H152115   2.976   9.363   2.933
16671WAT     H252116   2.928   9.484   2.855
16672WAT      O52117   2.351   9.288   2.490
16672WAT     H152118   2.362   9.378   2.521
16672WAT     H252119   2.260   9.283   2.461
16673WAT      O52120   3.316   9.200   2.637
16673WAT     H152121   3.399   9.151   2.641
16673WAT     H252122   3.320   9.259   2.712
16674WAT      O52123   2.116   9.480   3.015
16674WAT     H152124   2.184   9.507   3.076
16674WAT     H252125   2.085   9.396   3.048
16675WAT      O52126   2.535   9.585   2.923
16675WAT     H152127   2.586   9.635   2.987
16675WAT     H252128   2.589   9.507   2.906
16676WAT      O52129   3.745   9.402   3.294
16676WAT     H152130   3.675   9.441   3.242
16676WAT     H252131   3.772   9.471   3.354
16677WAT      O52132   2.364   9.049   3.350
16677WAT     H152133   2.364   9.101   3.269
16677WAT     H252134   2.281   9.001   3.348
16678WAT      O52135   2.489  10.013   3.168
16678WAT     H152136   2.455  10.075   3.232
16678WAT     H252137   2.506  10.065   3.090
16679WAT      O52138   3.340   9.394   2.914
16679WAT     H152139   3.270   9.423   2.972
16679WAT     H252140   3.376   9.475   2.878
16680WAT      O52141   2.332   9.220   3.151
16680WAT     H152142   2.366   9.304   3.121
16680WAT     H252143   2.238   9.235   3.162
16681WAT      O52144   3.647   9.339   2.953
16681WAT     H152145   3.552   9.342   2.967
16681WAT     H252146   3.679   9.420   2.992
16682WAT      O52147   2.700   8.969   2.783
16682WAT     H152148   2.731   8.913   2.711
16682WAT     H252149   2.607   8.982   2.765
16683WAT      O52150   3.195  10.031   3.145
16683WAT     H152151   3.237  10.009   3.061
16683WAT     H252152   3.268  10.056   3.202
16684WAT      O52153   2.939   9.775   2.457
16684WAT     H152154   2.846   9.769   2.480
16684WAT     H252155   2.954   9.869   2.445
16685WAT      O52156   2.938   9.402   2.156
16685WAT     H152157   2.844   9.419   2.165
16685WAT     H252158   2.970   9.474   2.102
16686WAT      O52159   3.590   9.871   3.154
16686WAT     H152160   3.507   9.878   3.107
16686WAT     H252161   3.649   9.929   3.107
16687WAT      O52162   3.342   9.931   2.507
16687WAT     H152163   3.280   9.898   2.442
16687WAT     H252164   3.340   9.867   2.578
16688WAT      O52165   3.286   9.549   3.249
16688WAT     H152166   3.245   9.632   3.274
16688WAT     H252167   3.213   9.491   3.229
16689WAT      O52168   2.500   9.828   2.735
16689WAT     H152169   2.459   9.757   2.685
16689WAT     H252170   2.508   9.793   2.824
16690WAT      O52171   2.371   9.505   3.113
16690WAT     H152172   2.426   9.516   3.035
16690WAT     H252173   2.422   9.543   3.184
16691WAT      O52174   3.160   9.855   2.208
16691WAT     H152175   3.204   9.772   2.193
16691WAT     H252176   3.231   9.919   2.216
16692WAT      O52177   2.338   9.857   3.474
16692WAT     H152178   2.324   9.945   3.511
16692WAT     H252179   2.250   9.823   3.459
16693WAT      O52180   3.518   8.981   2.039
16693WAT     H152181   3.486   8.990   2.129
16693WAT     H252182   3.594   9.039   2.034
16694WAT      O52183   2.170   9.717   2.485
16694WAT     H152184   2.158   9.790   2.424
16694WAT     H252185   2.139   9.640   2.437
16695WAT      O52186   1.933  10.034   3.066
16695WAT     H152187   1.941  10.048   2.971
16695WAT     H252188   1.995   9.964   3.085
16696WAT      O52189   3.639   9.454   3.637
16696WAT     H152190   3.577   9.505   3.584
16696WAT     H252191   3.607   9.364   3.631
16697WAT      O52192   2.416   9.052   2.823
16697WAT     H152193   2.372   9.130   2.790
16697WAT     H252194   2.472   9.084   2.894
16698WAT      O52195   2.845   9.338   3.383
16698WAT     H152196   2.799   9.359   3.465
16698WAT     H252197   2.805   9.257   3.353
16699WAT      O52198   3.345   9.460   3.496
16699WAT     H152199   3.260   9.431   3.529
16699WAT     H252200   3.329   9.485   3.405
16700WAT      O52201   3.054   9.610   3.706
16700WAT     H152202   3.087   9.527   3.672
16700WAT     H252203   3.133   9.663   3.721
16701WAT      O52204   2.728   9.014   2.311
16701WAT     H152205   2.665   9.013   2.384
16701WAT     H252206   2.719   8.927   2.272
16702WAT      O52207   2.620   9.106   3.009
16702WAT     H152208   2.650   9.197   3.001
16702WAT     H252209   2.675   9.057   2.948
16703WAT      O52210   2.395   9.564   2.596
16703WAT     H152211   2.373   9.542   2.686
16703WAT     H252212   2.317   9.607   2.561
16704WAT      O52213   3.118   9.565   2.456
16704WAT     H152214   3.058   9.637   2.437
16704WAT     H252215   3.173   9.558   2.378
16705WAT      O52216   2.639   9.654   3.663
16705WAT     H152217   2.630   9.560   3.648
16705WAT     H252218   2.724   9.676   3.623
16706WAT      O52219   2.979   9.428   2.659
16706WAT     H152220   3.018   9.460   2.578
16706WAT     H252221   3.015   9.340   2.670
16707WAT      O52222   2.152   9.295   3.478
16707WAT     H152223   2.113   9.380   3.499
16707WAT     H252224   2.084   9.231   3.497
16708WAT      O52225   2.810   9.303   3.785
16708WAT     H152226   2.741   9.284   3.848
16708WAT     H252227   2.884   9.332   3.838
16709WAT      O52228   1.883   9.087   2.881
16709WAT     H152229   1.854   9.144   2.952
16709WAT     H252230   1.957   9.039   2.917
16710WAT      O52231   1.901   9.481   2.002
16710WAT     H152232   1.893   9.576   2.016
16710WAT     H252233   1.866   9.467   1.914
16711WAT      O52234   3.038   9.687   3.068
16711WAT     H152235   2.964   9.738   3.103
16711WAT     H252236   2.998   9.606   3.038
16712WAT      O52237   2.681   9.355   2.909
16712WAT     H152238   2.682   9.311   2.824
16712WAT     H252239   2.771   9.387   2.920
16713WAT      O52240   2.266   9.343   2.805
16713WAT     H152241   2.232   9.391   2.881
16713WAT     H252242   2.190   9.298   2.769
16714WAT      O52243   2.688   9.455   2.208
16714WAT     H152244   2.700   9.451   2.303
16714WAT     H252245   2.649   9.541   2.192
16715WAT      O52246   3.084   9.233   3.010
16715WAT     H152247   3.086   9.278   3.094
16715WAT     H252248   3.059   9.143   3.031
16716WAT      O52249   2.589   9.686   2.148
16716WAT     H152250   2.532   9.641   2.085
16716WAT     H252251   2.660   9.722   2.094
16717WAT      O52252   3.427   8.974   3.593
16717WAT     H152253   3.459   8.901   3.646
16717WAT     H252254   3.430   8.942   3.503
16718WAT      O52255   2.711   9.761   3.084
16718WAT     H152256   2.748   9.713   3.158
16718WAT     H252257   2.692   9.848   3.118
16719WAT      O52258   1.998   9.235   2.697
16719WAT     H152259   1.969   9.199   2.780
16719WAT     H252260   1.992   9.162   2.635
16720WAT      O52261   2.490   9.665   3.315
16720WAT     H152262   2.460   9.753   3.338
16720WAT     H252263   2.586   9.671   3.319
16721WAT      O52264   2.343  10.086   2.375
16721WAT     H152265   2.266  10.032   2.359
16721WAT     H252266   2.416  10.034   2.341
16722WAT      O52267   3.419   9.985   2.954
16722WAT     H152268   3.491  10.035   2.915
16722WAT     H252269   3.399   9.917   2.890
16723WAT      O52270   2.965   9.125   2.369
16723WAT     H152271   2.884   9.075   2.361
16723WAT     H252272   2.946   9.209   2.327
16724WAT      O52273   2.957   9.992   3.543
16724WAT     H152274   2.951   9.900   3.518
16724WAT     H252275   2.894  10.002   3.614
16725WAT      O52276   3.237   9.562   2.198
16725WAT     H152277   3.325   9.593   2.181
16725WAT     H252278   3.234   9.475   2.159
16726WAT      O52279   2.348  10.052   2.739
16726WAT     H152280   2.399   9.972   2.733
16726WAT     H252281   2.302  10.046   2.823
16727WAT      O52282   2.096   9.749   3.430
16727WAT     H152283   2.060   9.816   3.489
16727WAT     H252284   2.067   9.666   3.467
16728WAT      O52285   2.416   9.795   3.719
16728WAT     H152286   2.386   9.809   3.629
16728WAT     H252287   2.493   9.739   3.709
16729WAT      O52288   3.464   9.693   2.145
16729WAT     H152289   3.455   9.736   2.060
16729WAT     H252290   3.536   9.739   2.188
16730WAT      O52291   3.572   9.939   3.453
16730WAT     H152292   3.499   9.998   3.433
16730WAT     H252293   3.624   9.938   3.373
16731WAT      O52294   1.947   9.749   2.092
16731WAT     H152295   2.034   9.777   2.121
16731WAT     H252296   1.898   9.830   2.081
16732WAT      O52297   2.663   9.888   2.505
16732WAT     H152298   2.709   9.969   2.527
16732WAT     H252299   2.628   9.856   2.588
16733WAT      O52300   2.254   8.922   2.552
16733WAT     H152301   2.241   8.921   2.647
16733WAT     H252302   2.171   8.956   2.517
16734WAT      O52303   1.954   9.098   3.498
16734WAT     H152304   1.882   9.118   3.558
16734WAT     H252305   1.995   9.020   3.535
16735WAT      O52306   2.146   9.931   2.305
16735WAT     H152307   2.085  10.005   2.306
16735WAT     H252308   2.193   9.940   2.223
16736WAT      O52309   3.103   9.347   3.273
16736WAT     H152310   3.140   9.265   3.306
16736WAT     H252311   3.017   9.353   3.314
16737WAT      O52312   3.440   9.243   2.354
16737WAT     H152313   3.377   9.253   2.282
16737WAT     H252314   3.390   9.265   2.433
16738WAT      O52315   2.636   9.471   2.495
16738WAT     H152316   2.566   9.517   2.539
16738WAT     H252317   2.665   9.405   2.559
16739WAT      O52318   2.799   9.613   3.295
16739WAT     H152319   2.849   9.660   3.362
16739WAT     H252320   2.813   9.520   3.316
16740WAT      O52321   3.040   9.143   2.639
16740WAT     H152322   3.027   9.145   2.544
16740WAT     H252323   3.134   9.148   2.651
16741WAT      O52324   2.457   9.301   2.233
16741WAT     H152325   2.542   9.345   2.226
16741WAT     H252326   2.420   9.333   2.316
16742WAT      O52327   3.520   9.234   3.380
16742WAT     H152328   3.469   9.308   3.413
16742WAT     H252329   3.601   9.273   3.348
16743WAT      O52330   3.349   9.759   2.724
16743WAT     H152331   3.255   9.760   2.742
16743WAT     H252332   3.380   9.680   2.769
16744WAT      O52333   2.347   9.927   2.080
16744WAT     H152334   2.423   9.916   2.136
16744WAT     H252335   2.354   9.857   2.015
16745WAT      O52336   2.216   9.670   2.149
16745WAT     H152337   2.224   9.575   2.160
16745WAT     H252338   2.305   9.703   2.159
16746WAT      O52339   1.969   9.852   3.672
16746WAT     H152340   2.019   9.794   3.729
16746WAT     H252341   1.895   9.881   3.726
16747WAT      O52342   2.674   9.993   3.625
16747WAT     H152343   2.598  10.050   3.617
16747WAT     H252344   2.692   9.964   3.536
16748WAT      O52345   2.983  10.031   2.088
16748WAT     H152346   2.928  10.075   2.152
16748WAT     H252347   3.045   9.980   2.140
16749WAT      O52348   2.172   9.666   3.762
16749WAT     H152349   2.176   9.637   3.852
16749WAT     H252350   2.257   9.707   3.746
16750WAT      O52351   2.550   9.926   2.278
16750WAT     H152352   2.592   9.910   2.362
16750WAT     H252353   2.562   9.845   2.228
16751WAT      O52354   2.366   9.524   3.558
16751WAT     H152355   2.313   9.475   3.496
16751WAT     H252356   2.433   9.567   3.505
16752WAT      O52357   2.801   9.829   2.002
16752WAT     H152358   2.853   9.757   1.966
16752WAT     H252359   2.866   9.893   2.032
16753WAT      O52360   3.256   9.971   3.535
16753WAT     H152361   3.297   9.987   3.620
16753WAT     H252362   3.162   9.984   3.551
16754WAT      O52363   3.303   9.705   3.735
16754WAT     H152364   3.361   9.630   3.726
16754WAT     H252365   3.321   9.758   3.657
16755WAT      O52366   2.415   9.221   3.566
16755WAT     H152367   2.405   9.159   3.494
16755WAT     H252368   2.357   9.294   3.544
16756WAT      O52369   2.691   9.077   3.270
16756WAT     H152370   2.647   9.079   3.185
16756WAT     H252371   2.628   9.037   3.329
16757WAT      O52372   2.732   9.966   3.332
16757WAT     H152373   2.774  10.051   3.314
16757WAT     H252374   2.640   9.980   3.309
16758WAT      O52375   2.966   9.739   3.470
16758WAT     H152376   2.978   9.680   3.544
16758WAT     H252377   3.052   9.743   3.428
16759WAT      O52378   3.200   9.795   3.328
16759WAT     H152379   3.147   9.847   3.267
16759WAT     H252380   3.234   9.858   3.391
16760WAT      O52381   2.439   9.534   1.972
16760WAT     H152382   2.419   9.447   2.008
16760WAT     H252383   2.422   9.525   1.878
16761WAT      O52384   2.642   9.394   3.596
16761WAT     H152385   2.701   9.363   3.665
16761WAT     H252386   2.561   9.346   3.611
16762WAT      O52387   3.124   9.355   3.619
16762WAT     H152388   3.055   9.289   3.613
16762WAT     H252389   3.196   9.311   3.664
16763WAT      O52390   3.187   9.015   2.225
16763WAT     H152391   3.215   8.931   2.261
16763WAT     H252392   3.110   9.038   2.276
16764WAT      O52393   2.319   9.244   1.971
16764WAT     H152394   2.349   9.244   1.880
16764WAT     H252395   2.393   9.209   2.021
16765WAT      O52396   2.641   9.138   2.070
16765WAT     H152397   2.606   9.070   2.012
16765WAT     H252398   2.661   9.092   2.151
16766WAT      O52399   3.625   9.939   2.286
16766WAT     H152400   3.701   9.996   2.297
16766WAT     H252401   3.627   9.882   2.363
16767WAT      O52402   1.975   9.791   2.709
16767WAT     H152403   1.910   9.764   2.645
16767WAT     H252404   2.059   9.780   2.664
16768WAT      O52405   3.630   9.968   2.002
16768WAT     H152406   3.658  10.059   1.989
16768WAT     H252407   3.611   9.962   2.095
16769WAT      O52408   3.270   9.270   2.131
16769WAT     H152409   3.312   9.252   2.047
16769WAT     H252410   3.239   9.185   2.162
16770WAT      O52411   3.620   9.762   2.501
16770WAT     H152412   3.582   9.685   2.458
16770WAT     H252413   3.547   9.800   2.550
16771WAT      O52414   2.079   9.830   3.163
16771WAT     H152415   2.116   9.821   3.251
16771WAT     H252416   2.022   9.753   3.153
16772WAT      O52417   3.559   9.676   3.465
16772WAT     H152418   3.536   9.653   3.374
16772WAT     H252419   3.585   9.768   3.460
16773WAT      O52420   2.034   9.521   3.554
16773WAT     H152421   1.945   9.517   3.588
16773WAT     H252422   2.088   9.540   3.630
16774WAT      O52423   3.403   9.199   3.742
16774WAT     H152424   3.491   9.200   3.781
16774WAT     H252425   3.404   9.125   3.681
16775WAT      O52426   1.897   9.512   2.303
16775WAT     H152427   1.806   9.538   2.286
16775WAT     H252428   1.945   9.539   2.225
16776WAT      O52429   3.547   9.584   2.831
16776WAT     H152430   3.600   9.535   2.768
16776WAT     H252431   3.606   9.598   2.906
16777WAT      O52432   3.565   9.593   3.183
16777WAT     H152433   3.470   9.589   3.195
16777WAT     H252434   3.583   9.684   3.160
16778WAT      O52435   2.151   9.418   2.094
16778WAT     H152436   2.222   9.375   2.046
16778WAT     H252437   2.079   9.424   2.031
16779WAT      O52438   2.116   9.023   1.998
16779WAT     H152439   2.188   9.077   2.030
16779WAT     H252440   2.143   8.996   1.911
16780WAT      O52441   3.496   9.510   2.425
16780WAT     H152442   3.546   9.487   2.504
16780WAT     H252443   3.477   9.426   2.383
16781WAT      O52444   2.084   8.948   2.989
16781WAT     H152445   2.149   8.893   2.945
16781WAT     H252446   2.126   8.974   3.071
16782WAT      O52447   3.639   9.374   2.678
16782WAT     H152448   3.628   9.358   2.772
16782WAT     H252449   3.715   9.321   2.654
16783WAT      O52450   3.474   8.967   3.324
16783WAT     H152451   3.538   9.029   3.361
16783WAT     H252452   3.489   8.971   3.230
16784WAT      O52453   3.728   9.157   2.003
16784WAT     H152454   3.821   9.143   1.982
16784WAT     H252455   3.726   9.165   2.098
16785WAT      O52456   3.736   9.234   2.265
16785WAT     H152457   3.656   9.227   2.318
16785WAT     H252458   3.756   9.327   2.264
16786WAT      O52459   2.060   8.964   3.263
16786WAT     H152460   2.025   9.009   3.339
16786WAT     H252461   2.027   8.874   3.271
16787WAT      O52462   2.811   9.083   3.615
16787WAT     H152463   2.805   9.142   3.690
16787WAT     H252464   2.905   9.072   3.601
16788WAT      O52465   3.075   9.048   3.579
16788WAT     H152466   3.136   9.080   3.513
16788WAT     H252467   3.129   9.000   3.641
16789WAT      O52468   2.127   8.916   3.590
16789WAT     H152469   2.182   8.898   3.514
16789WAT     H252470   2.134   8.837   3.644
16790WAT      O52471   3.149   8.905   3.212
16790WAT     H152472   3.061   8.938   3.191
16790WAT     H252473   3.138   8.858   3.294
16791WAT      O52474   3.240   9.125   3.350
16791WAT     H152475   3.207   9.044   3.312
16791WAT     H252476   3.334   9.121   3.338
16792WAT      O52477   2.924   8.996   3.106
16792WAT     H152478   2.845   9.044   3.134
16792WAT     H252479   2.894   8.906   3.095
16793WAT      O52480   3.379   9.067   2.910
16793WAT     H152481   3.423   9.061   2.825
16793WAT     H252482   3.352   9.158   2.917
16794WAT      O52483   3.565   9.030   2.711
16794WAT     H152484   3.559   8.935   2.697
16794WAT     H252485   3.643   9.041   2.766
16795WAT      O52486   2.058   9.027   2.358
16795WAT     H152487   2.134   9.038   2.300
16795WAT     H252488   2.012   9.111   2.353
16796WAT      O52489   2.712   9.238   2.657
16796WAT     H152490   2.631   9.201   2.623
16796WAT     H252491   2.763   9.163   2.687
16797WAT      O52492   3.162   8.905   2.781
16797WAT     H152493   3.223   8.962   2.828
16797WAT     H252494   3.088   8.961   2.758
16798WAT      O52495   3.477   8.945   2.308
16798WAT     H152496   3.496   9.035   2.335
16798WAT     H252497   3.398   8.922   2.357
16799WAT      O52498   2.295   9.080   2.212
16799WAT     H152499   2.348   9.001   2.199
16799WAT     H252500   2.359   9.147   2.235
16800WAT      O52501   2.515   9.053   2.517
16800WAT     H152502   2.452   8.983   2.534
16800WAT     H252503   2.461   9.129   2.496
16801WAT      O52504   2.527   8.981   3.761
16801WAT     H152505   2.499   9.032   3.684
16801WAT     H252506   2.565   8.901   3.724
16802WAT      O52507   3.187   8.923   3.819
16802WAT     H152508   3.176   8.955   3.908
16802WAT     H252509   3.269   8.963   3.789
16803WAT      O52510   3.078   9.725   0.855
16803WAT     H152511   3.070   9.633   0.828
16803WAT     H252512   3.037   9.774   0.784
16804WAT      O52513   2.891   9.902   1.043
16804WAT     H152514   2.814   9.854   1.072
16804WAT     H252515   2.956   9.834   1.026
16805WAT      O52516   2.293   9.934   1.131
16805WAT     H152517   2.210   9.908   1.171
16805WAT     H252518   2.354   9.941   1.204
16806WAT      O52519   2.134   9.430   0.509
16806WAT     H152520   2.045   9.464   0.499
16806WAT     H252521   2.162   9.410   0.420
16807WAT      O52522   1.930   9.690   1.098
16807WAT     H152523   1.987   9.613   1.098
16807WAT     H252524   1.930   9.720   1.007
16808WAT      O52525   2.054   9.231   1.276
16808WAT     H152526   2.036   9.141   1.304
16808WAT     H252527   2.014   9.285   1.344
16809WAT      O52528   2.938   9.451   1.066
16809WAT     H152529   2.976   9.363   1.055
16809WAT     H252530   2.928   9.484   0.977
16810WAT      O52531   2.351   9.288   0.613
16810WAT     H152532   2.362   9.378   0.643
16810WAT     H252533   2.260   9.283   0.584
16811WAT      O52534   3.316   9.200   0.760
16811WAT     H152535   3.399   9.151   0.764
16811WAT     H252536   3.320   9.259   0.835
16812WAT      O52537   2.116   9.480   1.137
16812WAT     H152538   2.184   9.507   1.199
16812WAT     H252539   2.085   9.396   1.170
16813WAT      O52540   2.535   9.585   1.046
16813WAT     H152541   2.586   9.635   1.110
16813WAT     H252542   2.589   9.507   1.028
16814WAT      O52543   3.745   9.402   1.416
16814WAT     H152544   3.675   9.441   1.364
16814WAT     H252545   3.772   9.471   1.476
16815WAT      O52546   2.364   9.049   1.472
16815WAT     H152547   2.364   9.101   1.392
16815WAT     H252548   2.281   9.001   1.470
16816WAT      O52549   2.489  10.013   1.290
16816WAT     H152550   2.455  10.075   1.354
16816WAT     H252551   2.506  10.065   1.212
16817WAT      O52552   3.340   9.394   1.037
16817WAT     H152553   3.270   9.423   1.095
16817WAT     H252554   3.376   9.475   1.001
16818WAT      O52555   2.332   9.220   1.273
16818WAT     H152556   2.366   9.304   1.244
16818WAT     H252557   2.238   9.235   1.285
16819WAT      O52558   3.647   9.339   1.076
16819WAT     H152559   3.552   9.342   1.089
16819WAT     H252560   3.679   9.420   1.115
16820WAT      O52561   2.700   8.969   0.906
16820WAT     H152562   2.731   8.913   0.834
16820WAT     H252563   2.607   8.982   0.887
16821WAT      O52564   3.195  10.031   1.267
16821WAT     H152565   3.237  10.009   1.184
16821WAT     H252566   3.268  10.056   1.325
16822WAT      O52567   2.939   9.775   0.579
16822WAT     H152568   2.846   9.769   0.602
16822WAT     H252569   2.954   9.869   0.568
16823WAT      O52570   2.938   9.402   0.279
16823WAT     H152571   2.844   9.419   0.287
16823WAT     H252572   2.970   9.474   0.224
16824WAT      O52573   3.590   9.871   1.277
16824WAT     H152574   3.507   9.878   1.229
16824WAT     H252575   3.649   9.929   1.230
16825WAT      O52576   3.342   9.931   0.630
16825WAT     H152577   3.280   9.898   0.565
16825WAT     H252578   3.340   9.867   0.700
16826WAT      O52579   3.286   9.549   1.371
16826WAT     H152580   3.245   9.632   1.397
16826WAT     H252581   3.213   9.491   1.352
16827WAT      O52582   2.500   9.828   0.857
16827WAT     H152583   2.459   9.757   0.808
16827WAT     H252584   2.508   9.793   0.946
16828WAT      O52585   2.371   9.505   1.235
16828WAT     H152586   2.426   9.516   1.158
16828WAT     H252587   2.422   9.543   1.307
16829WAT      O52588   3.160   9.855   0.330
16829WAT     H152589   3.204   9.772   0.316
16829WAT     H252590   3.231   9.919   0.339
16830WAT      O52591   2.338   9.857   1.596
16830WAT     H152592   2.324   9.945   1.633
16830WAT     H252593   2.250   9.823   1.582
16831WAT      O52594   2.170   9.717   0.607
16831WAT     H152595   2.158   9.790   0.546
16831WAT     H252596   2.139   9.640   0.560
16832WAT      O52597   1.933  10.034   1.188
16832WAT     H152598   1.941  10.048   1.094
16832WAT     H252599   1.995   9.964   1.207
16833WAT      O52600   3.639   9.454   1.759
16833WAT     H152601   3.577   9.505   1.707
16833WAT     H252602   3.607   9.364   1.754
16834WAT      O52603   2.416   9.052   0.946
16834WAT     H152604   2.372   9.130   0.913
16834WAT     H252605   2.472   9.084   1.016
16835WAT      O52606   2.845   9.338   1.506
16835WAT     H152607   2.799   9.359   1.587
16835WAT     H252608   2.805   9.257   1.476
16836WAT      O52609   3.345   9.460   1.619
16836WAT     H152610   3.260   9.431   1.651
16836WAT     H252611   3.329   9.485   1.528
16837WAT      O52612   3.054   9.610   1.829
16837WAT     H152613   3.087   9.527   1.795
16837WAT     H252614   3.133   9.663   1.844
16838WAT      O52615   2.728   9.014   0.434
16838WAT     H152616   2.665   9.013   0.506
16838WAT     H252617   2.719   8.927   0.394
16839WAT      O52618   2.620   9.106   1.132
16839WAT     H152619   2.650   9.197   1.124
16839WAT     H252620   2.675   9.057   1.070
16840WAT      O52621   2.395   9.564   0.719
16840WAT     H152622   2.373   9.542   0.809
16840WAT     H252623   2.317   9.607   0.684
16841WAT      O52624   3.118   9.565   0.578
16841WAT     H152625   3.058   9.637   0.560
16841WAT     H252626   3.173   9.558   0.500
16842WAT      O52627   2.639   9.654   1.785
16842WAT     H152628   2.630   9.560   1.770
16842WAT     H252629   2.724   9.676   1.746
16843WAT      O52630   2.979   9.428   0.781
16843WAT     H152631   3.018   9.460   0.700
16843WAT     H252632   3.015   9.340   0.793
16844WAT      O52633   2.152   9.295   1.600
16844WAT     H152634   2.113   9.380   1.621
16844WAT     H252635   2.084   9.231   1.620
16845WAT      O52636   2.810   9.303   1.907
16845WAT     H152637   2.741   9.284   1.971
16845WAT     H252638   2.884   9.332   1.961
16846WAT      O52639   1.883   9.087   1.004
16846WAT     H152640   1.854   9.144   1.075
16846WAT     H252641   1.957   9.039   1.040
16847WAT      O52642   3.038   9.687   1.191
16847WAT     H152643   2.964   9.738   1.226
16847WAT     H252644   2.998   9.606   1.161
16848WAT      O52645   2.681   9.355   1.031
16848WAT     H152646   2.682   9.311   0.947
16848WAT     H252647   2.771   9.387   1.042
16849WAT      O52648   2.266   9.343   0.927
16849WAT     H152649   2.232   9.391   1.003
16849WAT     H252650   2.190   9.298   0.891
16850WAT      O52651   2.688   9.455   0.331
16850WAT     H152652   2.700   9.451   0.425
16850WAT     H252653   2.649   9.541   0.315
16851WAT      O52654   3.084   9.233   1.132
16851WAT     H152655   3.086   9.278   1.217
16851WAT     H252656   3.059   9.143   1.154
16852WAT      O52657   2.589   9.686   0.270
16852WAT     H152658   2.532   9.641   0.208
16852WAT     H252659   2.660   9.722   0.217
16853WAT      O52660   3.427   8.974   1.716
16853WAT     H152661   3.459   8.901   1.769
16853WAT     H252662   3.430   8.942   1.626
16854WAT      O52663   2.711   9.761   1.206
16854WAT     H152664   2.748   9.713   1.281
16854WAT     H252665   2.692   9.848   1.240
16855WAT      O52666   1.998   9.235   0.819
16855WAT     H152667   1.969   9.199   0.903
16855WAT     H252668   1.992   9.162   0.758
16856WAT      O52669   2.490   9.665   1.438
16856WAT     H152670   2.460   9.753   1.460
16856WAT     H252671   2.586   9.671   1.442
16857WAT      O52672   2.343  10.086   0.498
16857WAT     H152673   2.266  10.032   0.482
16857WAT     H252674   2.416  10.034   0.464
16858WAT      O52675   3.419   9.985   1.077
16858WAT     H152676   3.491  10.035   1.038
16858WAT     H252677   3.399   9.917   1.012
16859WAT      O52678   2.965   9.125   0.491
16859WAT     H152679   2.884   9.075   0.484
16859WAT     H252680   2.946   9.209   0.450
16860WAT      O52681   2.957   9.992   1.666
16860WAT     H152682   2.951   9.900   1.640
16860WAT     H252683   2.894  10.002   1.737
16861WAT      O52684   3.237   9.562   0.321
16861WAT     H152685   3.325   9.593   0.303
16861WAT     H252686   3.234   9.475   0.282
16862WAT      O52687   2.348  10.052   0.861
16862WAT     H152688   2.399   9.972   0.856
16862WAT     H252689   2.302  10.046   0.946
16863WAT      O52690   2.096   9.749   1.553
16863WAT     H152691   2.060   9.816   1.611
16863WAT     H252692   2.067   9.666   1.590
16864WAT      O52693   2.416   9.795   1.841
16864WAT     H152694   2.386   9.809   1.751
16864WAT     H252695   2.493   9.739   1.832
16865WAT      O52696   3.464   9.693   0.268
16865WAT     H152697   3.455   9.736   0.183
16865WAT     H252698   3.536   9.739   0.311
16866WAT      O52699   3.572   9.939   1.575
16866WAT     H152700   3.499   9.998   1.556
16866WAT     H252701   3.624   9.938   1.495
16867WAT      O52702   1.947   9.749   0.215
16867WAT     H152703   2.034   9.777   0.243
16867WAT     H252704   1.898   9.830   0.204
16868WAT      O52705   2.663   9.888   0.627
16868WAT     H152706   2.709   9.969   0.650
16868WAT     H252707   2.628   9.856   0.710
16869WAT      O52708   2.254   8.922   0.674
16869WAT     H152709   2.241   8.921   0.769
16869WAT     H252710   2.171   8.956   0.639
16870WAT      O52711   1.954   9.098   1.620
16870WAT     H152712   1.882   9.118   1.681
16870WAT     H252713   1.995   9.020   1.658
16871WAT      O52714   2.146   9.931   0.428
16871WAT     H152715   2.085  10.005   0.429
16871WAT     H252716   2.193   9.940   0.345
16872WAT      O52717   3.103   9.347   1.395
16872WAT     H152718   3.140   9.265   1.428
16872WAT     H252719   3.017   9.353   1.437
16873WAT      O52720   3.440   9.243   0.476
16873WAT     H152721   3.377   9.253   0.405
16873WAT     H252722   3.390   9.265   0.555
16874WAT      O52723   2.636   9.471   0.618
16874WAT     H152724   2.566   9.517   0.662
16874WAT     H252725   2.665   9.405   0.681
16875WAT      O52726   2.799   9.613   1.418
16875WAT     H152727   2.849   9.660   1.484
16875WAT     H252728   2.813   9.520   1.439
16876WAT      O52729   3.040   9.143   0.762
16876WAT     H152730   3.027   9.145   0.667
16876WAT     H252731   3.134   9.148   0.774
16877WAT      O52732   2.457   9.301   0.355
16877WAT     H152733   2.542   9.345   0.349
16877WAT     H252734   2.420   9.333   0.438
16878WAT      O52735   3.520   9.234   1.502
16878WAT     H152736   3.469   9.308   1.536
16878WAT     H252737   3.601   9.273   1.470
16879WAT      O52738   3.349   9.759   0.847
16879WAT     H152739   3.255   9.760   0.864
16879WAT     H252740   3.380   9.680   0.891
16880WAT      O52741   2.216   9.670   0.271
16880WAT     H152742   2.224   9.575   0.282
16880WAT     H252743   2.305   9.703   0.282
16881WAT      O52744   1.969   9.852   1.795
16881WAT     H152745   2.019   9.794   1.852
16881WAT     H252746   1.895   9.881   1.848
16882WAT      O52747   2.674   9.993   1.748
16882WAT     H152748   2.598  10.050   1.740
16882WAT     H252749   2.692   9.964   1.659
16883WAT      O52750   2.983  10.031   0.211
16883WAT     H152751   2.928  10.075   0.275
16883WAT     H252752   3.045   9.980   0.263
16884WAT      O52753   2.172   9.666   1.884
16884WAT     H152754   2.176   9.637   1.975
16884WAT     H252755   2.257   9.707   1.868
16885WAT      O52756   2.550   9.926   0.400
16885WAT     H152757   2.592   9.910   0.484
16885WAT     H252758   2.562   9.845   0.351
16886WAT      O52759   2.366   9.524   1.681
16886WAT     H152760   2.313   9.475   1.618
16886WAT     H252761   2.433   9.567   1.627
16887WAT      O52762   3.256   9.971   1.657
16887WAT     H152763   3.297   9.987   1.742
16887WAT     H252764   3.162   9.984   1.674
16888WAT      O52765   3.303   9.705   1.858
16888WAT     H152766   3.361   9.630   1.849
16888WAT     H252767   3.321   9.758   1.780
16889WAT      O52768   2.415   9.221   1.689
16889WAT     H152769   2.405   9.159   1.616
16889WAT     H252770   2.357   9.294   1.666
16890WAT      O52771   2.691   9.077   1.392
16890WAT     H152772   2.647   9.079   1.308
16890WAT     H252773   2.628   9.037   1.452
16891WAT      O52774   2.732   9.966   1.454
16891WAT     H152775   2.774  10.051   1.437
16891WAT     H252776   2.640   9.980   1.431
16892WAT      O52777   2.966   9.739   1.593
16892WAT     H152778   2.978   9.680   1.667
16892WAT     H252779   3.052   9.743   1.551
16893WAT      O52780   3.200   9.795   1.450
16893WAT     H152781   3.147   9.847   1.390
16893WAT     H252782   3.234   9.858   1.513
16894WAT      O52783   2.642   9.394   1.718
16894WAT     H152784   2.701   9.363   1.787
16894WAT     H252785   2.561   9.346   1.734
16895WAT      O52786   3.124   9.355   1.742
16895WAT     H152787   3.055   9.289   1.735
16895WAT     H252788   3.196   9.311   1.786
16896WAT      O52789   3.187   9.015   0.348
16896WAT     H152790   3.215   8.931   0.383
16896WAT     H252791   3.110   9.038   0.399
16897WAT      O52792   3.625   9.939   0.409
16897WAT     H152793   3.701   9.996   0.419
16897WAT     H252794   3.627   9.882   0.486
16898WAT      O52795   1.975   9.791   0.832
16898WAT     H152796   1.910   9.764   0.767
16898WAT     H252797   2.059   9.780   0.787
16899WAT      O52798   3.270   9.270   0.254
16899WAT     H152799   3.312   9.252   0.170
16899WAT     H252800   3.239   9.185   0.285
16900WAT      O52801   3.620   9.762   0.624
16900WAT     H152802   3.582   9.685   0.580
16900WAT     H252803   3.547   9.800   0.672
16901WAT      O52804   2.079   9.830   1.286
16901WAT     H152805   2.116   9.821   1.374
16901WAT     H252806   2.022   9.753   1.276
16902WAT      O52807   3.559   9.676   1.587
16902WAT     H152808   3.536   9.653   1.497
16902WAT     H252809   3.585   9.768   1.583
16903WAT      O52810   2.034   9.521   1.676
16903WAT     H152811   1.945   9.517   1.710
16903WAT     H252812   2.088   9.540   1.753
16904WAT      O52813   3.403   9.199   1.865
16904WAT     H152814   3.491   9.200   1.903
16904WAT     H252815   3.404   9.125   1.804
16905WAT      O52816   1.897   9.512   0.426
16905WAT     H152817   1.806   9.538   0.409
16905WAT     H252818   1.945   9.539   0.348
16906WAT      O52819   3.547   9.584   0.954
16906WAT     H152820   3.600   9.535   0.891
16906WAT     H252821   3.606   9.598   1.028
16907WAT      O52822   3.565   9.593   1.306
16907WAT     H152823   3.470   9.589   1.317
16907WAT     H252824   3.583   9.684   1.282
16908WAT      O52825   3.496   9.510   0.548
16908WAT     H152826   3.546   9.487   0.626
16908WAT     H252827   3.477   9.426   0.506
16909WAT      O52828   2.084   8.948   1.111
16909WAT     H152829   2.149   8.893   1.067
16909WAT     H252830   2.126   8.974   1.193
16910WAT      O52831   3.639   9.374   0.801
16910WAT     H152832   3.628   9.358   0.895
16910WAT     H252833   3.715   9.321   0.777
16911WAT      O52834   3.474   8.967   1.447
16911WAT     H152835   3.538   9.029   1.483
16911WAT     H252836   3.489   8.971   1.352
16912WAT      O52837   3.736   9.234   0.388
16912WAT     H152838   3.656   9.227   0.441
16912WAT     H252839   3.756   9.327   0.387
16913WAT      O52840   2.060   8.964   1.385
16913WAT     H152841   2.025   9.009   1.462
16913WAT     H252842   2.027   8.874   1.394
16914WAT      O52843   2.811   9.083   1.738
16914WAT     H152844   2.805   9.142   1.813
16914WAT     H252845   2.905   9.072   1.723
16915WAT      O52846   3.075   9.048   1.702
16915WAT     H152847   3.136   9.080   1.635
16915WAT     H252848   3.129   9.000   1.764
16916WAT      O52849   2.127   8.916   1.713
16916WAT     H152850   2.182   8.898   1.637
16916WAT     H252851   2.134   8.837   1.767
16917WAT      O52852   3.149   8.905   1.334
16917WAT     H152853   3.061   8.938   1.314
16917WAT     H252854   3.138   8.858   1.417
16918WAT      O52855   3.240   9.125   1.473
16918WAT     H152856   3.207   9.044   1.435
16918WAT     H252857   3.334   9.121   1.460
16919WAT      O52858   2.924   8.996   1.228
16919WAT     H152859   2.845   9.044   1.256
16919WAT     H252860   2.894   8.906   1.217
16920WAT      O52861   3.379   9.067   1.033
16920WAT     H152862   3.423   9.061   0.948
16920WAT     H252863   3.352   9.158   1.040
16921WAT      O52864   3.565   9.030   0.834
16921WAT     H152865   3.559   8.935   0.819
16921WAT     H252866   3.643   9.041   0.888
16922WAT      O52867   2.058   9.027   0.480
16922WAT     H152868   2.134   9.038   0.423
16922WAT     H252869   2.012   9.111   0.476
16923WAT      O52870   2.712   9.238   0.779
16923WAT     H152871   2.631   9.201   0.745
16923WAT     H252872   2.763   9.163   0.810
16924WAT      O52873   3.162   8.905   0.903
16924WAT     H152874   3.223   8.962   0.951
16924WAT     H252875   3.088   8.961   0.881
16925WAT      O52876   3.477   8.945   0.431
16925WAT     H152877   3.496   9.035   0.457
16925WAT     H252878   3.398   8.922   0.480
16926WAT      O52879   2.295   9.080   0.334
16926WAT     H152880   2.348   9.001   0.321
16926WAT     H252881   2.359   9.147   0.358
16927WAT      O52882   2.515   9.053   0.640
16927WAT     H152883   2.452   8.983   0.656
16927WAT     H252884   2.461   9.129   0.618
16928WAT      O52885   2.527   8.981   1.883
16928WAT     H152886   2.499   9.032   1.807
16928WAT     H252887   2.565   8.901   1.847
16929WAT      O52888   3.187   8.923   1.941
16929WAT     H152889   3.176   8.955   2.031
16929WAT     H252890   3.269   8.963   1.911
16930WAT      O52891   3.078   7.847   6.487
16930WAT     H152892   3.070   7.756   6.460
16930WAT     H252893   3.037   7.897   6.417
16931WAT      O52894   2.891   8.025   6.675
16931WAT     H152895   2.814   7.977   6.704
16931WAT     H252896   2.956   7.957   6.658
16932WAT      O52897   2.293   8.056   6.763
16932WAT     H152898   2.210   8.031   6.803
16932WAT     H252899   2.354   8.063   6.837
16933WAT      O52900   3.293   8.466   6.553
16933WAT     H152901   3.247   8.388   6.586
16933WAT     H252902   3.374   8.468   6.604
16934WAT      O52903   2.291   8.460   6.783
16934WAT     H152904   2.321   8.371   6.765
16934WAT     H252905   2.365   8.515   6.760
16935WAT      O52906   2.134   7.552   6.141
16935WAT     H152907   2.045   7.586   6.131
16935WAT     H252908   2.162   7.532   6.052
16936WAT      O52909   1.930   7.812   6.730
16936WAT     H152910   1.987   7.735   6.730
16936WAT     H252911   1.930   7.842   6.639
16937WAT      O52912   2.916   8.694   6.515
16937WAT     H152913   2.854   8.740   6.458
16937WAT     H252914   3.001   8.710   6.475
16938WAT      O52915   2.835   8.293   6.676
16938WAT     H152916   2.828   8.198   6.660
16938WAT     H252917   2.911   8.302   6.733
16939WAT      O52918   2.054   7.353   6.909
16939WAT     H152919   2.036   7.263   6.937
16939WAT     H252920   2.014   7.408   6.976
16940WAT      O52921   2.938   7.573   6.699
16940WAT     H152922   2.976   7.486   6.687
16940WAT     H252923   2.928   7.607   6.610
16941WAT      O52924   2.351   7.411   6.245
16941WAT     H152925   2.362   7.501   6.276
16941WAT     H252926   2.260   7.406   6.216
16942WAT      O52927   3.316   7.323   6.392
16942WAT     H152928   3.399   7.274   6.396
16942WAT     H252929   3.320   7.382   6.467
16943WAT      O52930   2.116   7.603   6.769
16943WAT     H152931   2.184   7.629   6.831
16943WAT     H252932   2.085   7.519   6.803
16944WAT      O52933   2.535   7.707   6.678
16944WAT     H152934   2.586   7.757   6.742
16944WAT     H252935   2.589   7.630   6.661
16945WAT      O52936   3.745   7.524   7.048
16945WAT     H152937   3.675   7.563   6.997
16945WAT     H252938   3.772   7.594   7.109
16946WAT      O52939   2.364   7.171   7.105
16946WAT     H152940   2.364   7.223   7.024
16946WAT     H252941   2.281   7.124   7.102
16947WAT      O52942   3.002   8.183   6.255
16947WAT     H152943   2.941   8.229   6.198
16947WAT     H252944   3.054   8.252   6.296
16948WAT      O52945   2.489   8.135   6.922
16948WAT     H152946   2.455   8.198   6.987
16948WAT     H252947   2.506   8.188   6.845
16949WAT      O52948   3.340   7.517   6.669
16949WAT     H152949   3.270   7.546   6.727
16949WAT     H252950   3.376   7.598   6.633
16950WAT      O52951   2.332   7.342   6.905
16950WAT     H152952   2.366   7.427   6.876
16950WAT     H252953   2.238   7.357   6.917
16951WAT      O52954   2.410   8.332   7.104
16951WAT     H152955   2.472   8.400   7.076
16951WAT     H252956   2.324   8.373   7.095
16952WAT      O52957   1.939   8.251   5.992
16952WAT     H152958   1.902   8.300   5.919
16952WAT     H252959   1.965   8.318   6.055
16953WAT      O52960   3.502   8.479   6.896
16953WAT     H152961   3.433   8.546   6.895
16953WAT     H252962   3.556   8.498   6.819
16954WAT      O52963   3.647   7.461   6.708
16954WAT     H152964   3.552   7.465   6.721
16954WAT     H252965   3.679   7.543   6.747
16955WAT      O52966   2.700   7.091   6.538
16955WAT     H152967   2.731   7.036   6.466
16955WAT     H252968   2.607   7.105   6.520
16956WAT      O52969   3.255   8.663   6.767
16956WAT     H152970   3.257   8.623   6.680
16956WAT     H252971   3.200   8.740   6.757
16957WAT      O52972   3.385   8.335   6.276
16957WAT     H152973   3.374   8.241   6.288
16957WAT     H252974   3.384   8.371   6.365
16958WAT      O52975   3.195   8.153   6.900
16958WAT     H152976   3.237   8.132   6.816
16958WAT     H252977   3.268   8.179   6.957
16959WAT      O52978   2.939   7.898   6.212
16959WAT     H152979   2.846   7.891   6.234
16959WAT     H252980   2.954   7.992   6.200
16960WAT      O52981   2.938   7.525   5.911
16960WAT     H152982   2.844   7.541   5.920
16960WAT     H252983   2.970   7.597   5.857
16961WAT      O52984   3.590   7.993   6.909
16961WAT     H152985   3.507   8.000   6.861
16961WAT     H252986   3.649   8.052   6.862
16962WAT      O52987   3.342   8.054   6.262
16962WAT     H152988   3.280   8.020   6.197
16962WAT     H252989   3.340   7.990   6.333
16963WAT      O52990   3.286   7.672   7.004
16963WAT     H152991   3.245   7.754   7.029
16963WAT     H252992   3.213   7.613   6.984
16964WAT      O52993   2.500   7.950   6.490
16964WAT     H152994   2.459   7.879   6.440
16964WAT     H252995   2.508   7.916   6.579
16965WAT      O52996   2.546   8.319   6.706
16965WAT     H152997   2.517   8.259   6.638
16965WAT     H252998   2.641   8.323   6.695
16966WAT      O52999   2.371   7.628   6.868
16966WAT     H153000   2.426   7.639   6.790
16966WAT     H253001   2.422   7.665   6.939
16967WAT      O53002   3.355   8.676   7.072
16967WAT     H153003   3.308   8.757   7.053
16967WAT     H253004   3.287   8.611   7.088
16968WAT      O53005   2.456   8.293   7.371
16968WAT     H153006   2.366   8.315   7.396
16968WAT     H253007   2.458   8.305   7.276
16969WAT      O53008   3.160   7.978   5.963
16969WAT     H153009   3.204   7.894   5.948
16969WAT     H253010   3.231   8.041   5.971
16970WAT      O53011   2.338   7.980   7.229
16970WAT     H153012   2.324   8.067   7.266
16970WAT     H253013   2.250   7.946   7.214
16971WAT      O53014   2.971   8.472   6.359
16971WAT     H153015   3.015   8.546   6.318
16971WAT     H253016   2.964   8.496   6.452
16972WAT      O53017   2.518   8.574   7.450
16972WAT     H153018   2.515   8.615   7.363
16972WAT     H253019   2.502   8.481   7.433
16973WAT      O53020   3.518   7.103   5.794
16973WAT     H153021   3.486   7.113   5.884
16973WAT     H253022   3.594   7.161   5.789
16974WAT      O53023   2.170   7.840   6.240
16974WAT     H153024   2.158   7.913   6.179
16974WAT     H253025   2.139   7.763   6.192
16975WAT      O53026   1.933   8.157   6.820
16975WAT     H153027   1.941   8.171   6.726
16975WAT     H253028   1.995   8.086   6.840
16976WAT      O53029   2.058   8.327   6.462
16976WAT     H153030   2.017   8.341   6.376
16976WAT     H253031   2.147   8.299   6.441
16977WAT      O53032   3.654   8.372   7.295
16977WAT     H153033   3.666   8.348   7.203
16977WAT     H253034   3.658   8.289   7.342
16978WAT      O53035   3.040   8.742   7.152
16978WAT     H153036   3.091   8.733   7.232
16978WAT     H253037   2.955   8.777   7.181
16979WAT      O53038   3.237   8.771   6.095
16979WAT     H153039   3.221   8.742   6.185
16979WAT     H253040   3.221   8.693   6.041
16980WAT      O53041   2.485   8.748   6.273
16980WAT     H153042   2.468   8.657   6.251
16980WAT     H253043   2.400   8.784   6.297
16981WAT      O53044   3.208   8.521   5.951
16981WAT     H153045   3.138   8.521   5.885
16981WAT     H253046   3.282   8.479   5.908
16982WAT      O53047   3.164   8.684   6.358
16982WAT     H153048   3.210   8.606   6.390
16982WAT     H253049   3.198   8.755   6.413
16983WAT      O53050   3.639   7.577   7.392
16983WAT     H153051   3.577   7.628   7.339
16983WAT     H253052   3.607   7.487   7.386
16984WAT      O53053   1.939   8.261   7.074
16984WAT     H153054   1.955   8.214   6.993
16984WAT     H253055   1.986   8.210   7.141
16985WAT      O53056   2.416   7.174   6.578
16985WAT     H153057   2.372   7.252   6.545
16985WAT     H253058   2.472   7.207   6.649
16986WAT      O53059   2.845   7.461   7.138
16986WAT     H153060   2.799   7.482   7.220
16986WAT     H253061   2.805   7.380   7.108
16987WAT      O53062   3.345   7.583   7.251
16987WAT     H153063   3.260   7.553   7.283
16987WAT     H253064   3.329   7.607   7.160
16988WAT      O53065   3.054   7.733   7.461
16988WAT     H153066   3.087   7.650   7.427
16988WAT     H253067   3.133   7.785   7.476
16989WAT      O53068   2.728   7.136   6.066
16989WAT     H153069   2.665   7.136   6.139
16989WAT     H253070   2.719   7.050   6.026
16990WAT      O53071   2.620   7.229   6.764
16990WAT     H153072   2.650   7.319   6.756
16990WAT     H253073   2.675   7.180   6.702
16991WAT      O53074   2.395   7.687   6.351
16991WAT     H153075   2.373   7.665   6.441
16991WAT     H253076   2.317   7.730   6.316
16992WAT      O53077   3.118   7.687   6.211
16992WAT     H153078   3.058   7.760   6.192
16992WAT     H253079   3.173   7.681   6.132
16993WAT      O53080   2.639   7.776   7.417
16993WAT     H153081   2.630   7.682   7.402
16993WAT     H253082   2.724   7.799   7.378
16994WAT      O53083   2.979   7.551   6.414
16994WAT     H153084   3.018   7.583   6.332
16994WAT     H253085   3.015   7.463   6.425
16995WAT      O53086   2.152   7.418   7.233
16995WAT     H153087   2.113   7.502   7.253
16995WAT     H253088   2.084   7.354   7.252
16996WAT      O53089   1.883   7.210   6.636
16996WAT     H153090   1.854   7.267   6.707
16996WAT     H253091   1.957   7.162   6.672
16997WAT      O53092   1.901   7.604   5.757
16997WAT     H153093   1.893   7.698   5.771
16997WAT     H253094   1.866   7.590   5.669
16998WAT      O53095   3.038   7.810   6.823
16998WAT     H153096   2.964   7.861   6.858
16998WAT     H253097   2.998   7.728   6.793
16999WAT      O53098   2.681   7.477   6.664
16999WAT     H153099   2.682   7.433   6.579
16999WAT     H253100   2.771   7.510   6.675
17000WAT      O53101   2.266   7.466   6.560
17000WAT     H153102   2.232   7.513   6.635
17000WAT     H253103   2.190   7.420   6.524
17001WAT      O53104   2.688   7.578   5.963
17001WAT     H153105   2.700   7.573   6.058
17001WAT     H253106   2.649   7.664   5.947
17002WAT      O53107   3.084   7.355   6.764
17002WAT     H153108   3.086   7.400   6.849
17002WAT     H253109   3.059   7.265   6.786
17003WAT      O53110   2.589   7.809   5.903
17003WAT     H153111   2.532   7.764   5.840
17003WAT     H253112   2.660   7.844   5.849
17004WAT      O53113   3.427   7.097   7.348
17004WAT     H153114   3.459   7.023   7.401
17004WAT     H253115   3.430   7.065   7.258
17005WAT      O53116   2.096   8.199   7.290
17005WAT     H153117   2.058   8.135   7.350
17005WAT     H253118   2.128   8.269   7.347
17006WAT      O53119   2.711   7.883   6.838
17006WAT     H153120   2.748   7.836   6.913
17006WAT     H253121   2.692   7.971   6.873
17007WAT      O53122   1.998   7.358   6.451
17007WAT     H153123   1.969   7.321   6.535
17007WAT     H253124   1.992   7.285   6.390
17008WAT      O53125   2.490   7.788   7.070
17008WAT     H153126   2.460   7.875   7.093
17008WAT     H253127   2.586   7.794   7.074
17009WAT      O53128   2.343   8.208   6.130
17009WAT     H153129   2.266   8.154   6.114
17009WAT     H253130   2.416   8.156   6.096
17010WAT      O53131   3.419   8.108   6.709
17010WAT     H153132   3.491   8.157   6.670
17010WAT     H253133   3.399   8.040   6.645
17011WAT      O53134   2.965   7.247   6.124
17011WAT     H153135   2.884   7.197   6.116
17011WAT     H253136   2.946   7.331   6.082
17012WAT      O53137   2.957   8.115   7.298
17012WAT     H153138   2.951   8.023   7.272
17012WAT     H253139   2.894   8.125   7.369
17013WAT      O53140   3.237   7.684   5.953
17013WAT     H153141   3.325   7.716   5.936
17013WAT     H253142   3.234   7.597   5.914
17014WAT      O53143   2.348   8.175   6.494
17014WAT     H153144   2.399   8.095   6.488
17014WAT     H253145   2.302   8.169   6.578
17015WAT      O53146   2.836   8.302   6.021
17015WAT     H153147   2.870   8.376   5.971
17015WAT     H253148   2.753   8.333   6.057
17016WAT      O53149   2.096   7.872   7.185
17016WAT     H153150   2.060   7.938   7.244
17016WAT     H253151   2.067   7.788   7.222
17017WAT      O53152   2.416   7.917   7.473
17017WAT     H153153   2.386   7.932   7.384
17017WAT     H253154   2.493   7.861   7.464
17018WAT      O53155   2.950   8.397   7.273
17018WAT     H153156   2.952   8.304   7.251
17018WAT     H253157   2.880   8.406   7.337
17019WAT      O53158   3.464   7.816   5.900
17019WAT     H153159   3.455   7.859   5.815
17019WAT     H253160   3.536   7.861   5.943
17020WAT      O53161   3.572   8.061   7.208
17020WAT     H153162   3.499   8.120   7.188
17020WAT     H253163   3.624   8.060   7.128
17021WAT      O53164   3.567   8.501   6.173
17021WAT     H153165   3.502   8.435   6.200
17021WAT     H253166   3.528   8.541   6.095
17022WAT      O53167   3.125   8.234   6.557
17022WAT     H153168   3.160   8.174   6.491
17022WAT     H253169   3.036   8.201   6.575
17023WAT      O53170   2.733   8.310   6.298
17023WAT     H153171   2.802   8.364   6.336
17023WAT     H253172   2.655   8.364   6.302
17024WAT      O53173   1.947   7.871   5.847
17024WAT     H153174   2.034   7.900   5.876
17024WAT     H253175   1.898   7.953   5.836
17025WAT      O53176   2.663   8.010   6.259
17025WAT     H153177   2.709   8.091   6.282
17025WAT     H253178   2.628   7.978   6.343
17026WAT      O53179   2.894   8.561   6.982
17026WAT     H153180   2.958   8.582   7.050
17026WAT     H253181   2.930   8.485   6.937
17027WAT      O53182   2.254   7.045   6.307
17027WAT     H153183   2.241   7.044   6.402
17027WAT     H253184   2.171   7.078   6.272
17028WAT      O53185   3.021   8.362   6.854
17028WAT     H153186   3.085   8.292   6.865
17028WAT     H253187   3.074   8.440   6.836
17029WAT      O53188   3.406   8.390   5.827
17029WAT     H153189   3.383   8.318   5.886
17029WAT     H253190   3.367   8.365   5.743
17030WAT      O53191   3.198   8.442   7.174
17030WAT     H153192   3.232   8.500   7.242
17030WAT     H253193   3.106   8.428   7.197
17031WAT      O53194   1.984   8.793   5.904
17031WAT     H153195   2.020   8.853   5.839
17031WAT     H253196   1.970   8.847   5.981
17032WAT      O53197   1.954   7.221   7.253
17032WAT     H153198   1.882   7.240   7.313
17032WAT     H253199   1.995   7.143   7.290
17033WAT      O53200   3.364   8.182   5.993
17033WAT     H153201   3.335   8.228   6.071
17033WAT     H253202   3.443   8.136   6.019
17034WAT      O53203   1.982   8.619   7.351
17034WAT     H153204   1.993   8.525   7.337
17034WAT     H253205   1.917   8.646   7.287
17035WAT      O53206   2.586   8.531   5.986
17035WAT     H153207   2.585   8.604   5.924
17035WAT     H253208   2.493   8.506   5.995
17036WAT      O53209   2.146   8.053   6.060
17036WAT     H153210   2.085   8.127   6.061
17036WAT     H253211   2.193   8.062   5.978
17037WAT      O53212   3.103   7.470   7.028
17037WAT     H153213   3.140   7.388   7.061
17037WAT     H253214   3.017   7.476   7.069
17038WAT      O53215   3.440   7.365   6.109
17038WAT     H153216   3.377   7.376   6.037
17038WAT     H253217   3.390   7.387   6.188
17039WAT      O53218   2.884   8.537   5.852
17039WAT     H153219   2.894   8.517   5.759
17039WAT     H253220   2.794   8.512   5.872
17040WAT      O53221   2.636   7.593   6.250
17040WAT     H153222   2.566   7.640   6.294
17040WAT     H253223   2.665   7.527   6.314
17041WAT      O53224   2.799   7.735   7.050
17041WAT     H153225   2.849   7.783   7.117
17041WAT     H253226   2.813   7.643   7.071
17042WAT      O53227   3.040   7.266   6.394
17042WAT     H153228   3.027   7.268   6.299
17042WAT     H253229   3.134   7.270   6.406
17043WAT      O53230   2.748   8.789   6.321
17043WAT     H153231   2.774   8.785   6.229
17043WAT     H253232   2.653   8.777   6.321
17044WAT      O53233   2.457   7.424   5.988
17044WAT     H153234   2.542   7.468   5.981
17044WAT     H253235   2.420   7.455   6.070
17045WAT      O53236   3.520   7.357   7.134
17045WAT     H153237   3.469   7.431   7.168
17045WAT     H253238   3.601   7.396   7.103
17046WAT      O53239   3.349   7.881   6.479
17046WAT     H153240   3.255   7.883   6.496
17046WAT     H253241   3.380   7.802   6.524
17047WAT      O53242   2.347   8.049   5.835
17047WAT     H153243   2.423   8.038   5.891
17047WAT     H253244   2.354   7.980   5.770
17048WAT      O53245   2.216   7.793   5.903
17048WAT     H153246   2.224   7.698   5.915
17048WAT     H253247   2.305   7.826   5.914
17049WAT      O53248   3.549   8.598   6.647
17049WAT     H153249   3.562   8.681   6.694
17049WAT     H253250   3.636   8.577   6.612
17050WAT      O53251   2.296   8.808   6.614
17050WAT     H153252   2.370   8.753   6.641
17050WAT     H253253   2.335   8.894   6.600
17051WAT      O53254   1.985   8.414   6.201
17051WAT     H153255   1.892   8.438   6.200
17051WAT     H253256   2.031   8.497   6.189
17052WAT      O53257   2.607   8.725   5.796
17052WAT     H153258   2.687   8.754   5.751
17052WAT     H253259   2.555   8.682   5.728
17053WAT      O53260   3.223   8.710   7.388
17053WAT     H153261   3.319   8.701   7.383
17053WAT     H253262   3.209   8.776   7.456
17054WAT      O53263   3.513   8.648   5.938
17054WAT     H153264   3.484   8.606   5.857
17054WAT     H253265   3.493   8.740   5.926
17055WAT      O53266   1.969   7.975   7.427
17055WAT     H153267   2.019   7.917   7.484
17055WAT     H253268   1.895   8.003   7.481
17056WAT      O53269   2.659   8.247   5.782
17056WAT     H153270   2.649   8.185   5.855
17056WAT     H253271   2.642   8.195   5.704
17057WAT      O53272   2.674   8.115   7.380
17057WAT     H153273   2.598   8.172   7.372
17057WAT     H253274   2.692   8.086   7.291
17058WAT      O53275   2.983   8.153   5.843
17058WAT     H153276   2.928   8.198   5.907
17058WAT     H253277   3.045   8.103   5.895
17059WAT      O53278   3.388   8.288   7.436
17059WAT     H153279   3.463   8.322   7.386
17059WAT     H253280   3.312   8.305   7.381
17060WAT      O53281   2.550   8.049   6.032
17060WAT     H153282   2.592   8.032   6.117
17060WAT     H253283   2.562   7.968   5.983
17061WAT      O53284   2.366   7.647   7.313
17061WAT     H153285   2.313   7.598   7.250
17061WAT     H253286   2.433   7.690   7.260
17062WAT      O53287   2.801   7.951   5.757
17062WAT     H153288   2.853   7.880   5.721
17062WAT     H253289   2.866   8.015   5.787
17063WAT      O53290   3.256   8.094   7.290
17063WAT     H153291   3.297   8.109   7.375
17063WAT     H253292   3.162   8.106   7.306
17064WAT      O53293   3.303   7.828   7.490
17064WAT     H153294   3.361   7.752   7.481
17064WAT     H253295   3.321   7.881   7.412
17065WAT      O53296   2.415   7.344   7.321
17065WAT     H153297   2.405   7.282   7.249
17065WAT     H253298   2.357   7.416   7.298
17066WAT      O53299   2.691   7.199   7.024
17066WAT     H153300   2.647   7.202   6.940
17066WAT     H253301   2.628   7.159   7.084
17067WAT      O53302   2.732   8.089   7.087
17067WAT     H153303   2.774   8.173   7.069
17067WAT     H253304   2.640   8.103   7.064
17068WAT      O53305   2.966   7.862   7.225
17068WAT     H153306   2.978   7.802   7.299
17068WAT     H253307   3.052   7.866   7.183
17069WAT      O53308   3.200   7.917   7.083
17069WAT     H153309   3.147   7.970   7.022
17069WAT     H253310   3.234   7.981   7.146
17070WAT      O53311   2.439   7.656   5.727
17070WAT     H153312   2.419   7.570   5.763
17070WAT     H253313   2.422   7.648   5.633
17071WAT      O53314   2.517   8.719   7.198
17071WAT     H153315   2.463   8.792   7.166
17071WAT     H253316   2.542   8.672   7.119
17072WAT      O53317   2.642   7.516   7.351
17072WAT     H153318   2.701   7.485   7.419
17072WAT     H253319   2.561   7.469   7.366
17073WAT      O53320   3.124   7.478   7.374
17073WAT     H153321   3.055   7.412   7.368
17073WAT     H253322   3.196   7.433   7.419
17074WAT      O53323   3.187   7.137   5.980
17074WAT     H153324   3.215   7.053   6.016
17074WAT     H253325   3.110   7.161   6.031
17075WAT      O53326   2.319   7.366   5.726
17075WAT     H153327   2.349   7.367   5.635
17075WAT     H253328   2.393   7.331   5.776
17076WAT      O53329   2.803   8.843   7.224
17076WAT     H153330   2.795   8.933   7.255
17076WAT     H253331   2.713   8.811   7.221
17077WAT      O53332   2.641   7.261   5.824
17077WAT     H153333   2.606   7.193   5.766
17077WAT     H253334   2.661   7.215   5.906
17078WAT      O53335   2.858   8.759   5.986
17078WAT     H153336   2.947   8.793   5.988
17078WAT     H253337   2.861   8.687   5.924
17079WAT      O53338   2.222   8.297   5.809
17079WAT     H153339   2.265   8.351   5.875
17079WAT     H253340   2.270   8.214   5.810
17080WAT      O53341   1.943   8.576   6.554
17080WAT     H153342   1.976   8.489   6.531
17080WAT     H253343   1.986   8.596   6.637
17081WAT      O53344   2.403   8.409   6.320
17081WAT     H153345   2.373   8.396   6.410
17081WAT     H253346   2.392   8.323   6.280
17082WAT      O53347   1.992   8.662   6.828
17082WAT     H153348   1.948   8.680   6.911
17082WAT     H253349   2.049   8.738   6.814
17083WAT      O53350   3.556   8.613   7.257
17083WAT     H153351   3.496   8.618   7.183
17083WAT     H253352   3.568   8.519   7.270
17084WAT      O53353   3.680   8.387   5.791
17084WAT     H153354   3.596   8.393   5.838
17084WAT     H253355   3.697   8.476   5.760
17085WAT      O53356   3.625   8.061   6.041
17085WAT     H153357   3.701   8.118   6.052
17085WAT     H253358   3.627   8.004   6.118
17086WAT      O53359   1.975   7.914   6.464
17086WAT     H153360   1.910   7.887   6.400
17086WAT     H253361   2.059   7.903   6.419
17087WAT      O53362   3.726   8.147   6.525
17087WAT     H153363   3.763   8.068   6.485
17087WAT     H253364   3.790   8.216   6.508
17088WAT      O53365   3.424   8.285   7.067
17088WAT     H153366   3.343   8.328   7.093
17088WAT     H253367   3.465   8.346   7.005
17089WAT      O53368   3.630   8.091   5.757
17089WAT     H153369   3.658   8.181   5.744
17089WAT     H253370   3.611   8.084   5.850
17090WAT      O53371   3.270   7.393   5.886
17090WAT     H153372   3.312   7.374   5.802
17090WAT     H253373   3.239   7.308   5.917
17091WAT      O53374   3.620   7.884   6.256
17091WAT     H153375   3.582   7.807   6.213
17091WAT     H253376   3.547   7.922   6.305
17092WAT      O53377   2.079   7.952   6.918
17092WAT     H153378   2.116   7.943   7.006
17092WAT     H253379   2.022   7.876   6.908
17093WAT      O53380   3.559   7.799   7.219
17093WAT     H153381   3.536   7.776   7.129
17093WAT     H253382   3.585   7.891   7.215
17094WAT      O53383   2.034   7.643   7.309
17094WAT     H153384   1.945   7.640   7.343
17094WAT     H253385   2.088   7.663   7.385
17095WAT      O53386   1.897   7.635   6.058
17095WAT     H153387   1.806   7.661   6.041
17095WAT     H253388   1.945   7.662   5.980
17096WAT      O53389   3.547   7.707   6.586
17096WAT     H153390   3.600   7.657   6.523
17096WAT     H253391   3.606   7.720   6.661
17097WAT      O53392   3.565   7.715   6.938
17097WAT     H153393   3.470   7.712   6.950
17097WAT     H253394   3.583   7.806   6.915
17098WAT      O53395   2.151   7.540   5.849
17098WAT     H153396   2.222   7.498   5.801
17098WAT     H253397   2.079   7.547   5.786
17099WAT      O53398   2.116   7.146   5.753
17099WAT     H153399   2.188   7.200   5.785
17099WAT     H253400   2.143   7.118   5.666
17100WAT      O53401   3.496   7.633   6.180
17100WAT     H153402   3.546   7.609   6.258
17100WAT     H253403   3.477   7.549   6.138
17101WAT      O53404   2.084   7.071   6.743
17101WAT     H153405   2.149   7.016   6.699
17101WAT     H253406   2.126   7.096   6.826
17102WAT      O53407   3.639   7.496   6.433
17102WAT     H153408   3.628   7.481   6.527
17102WAT     H253409   3.715   7.443   6.409
17103WAT      O53410   3.474   7.090   7.079
17103WAT     H153411   3.538   7.151   7.116
17103WAT     H253412   3.489   7.094   6.985
17104WAT      O53413   3.728   7.279   5.757
17104WAT     H153414   3.821   7.266   5.737
17104WAT     H253415   3.726   7.287   5.853
17105WAT      O53416   3.736   7.356   6.020
17105WAT     H153417   3.656   7.350   6.073
17105WAT     H253418   3.756   7.450   6.019
17106WAT      O53419   3.430   8.760   6.419
17106WAT     H153420   3.489   8.728   6.352
17106WAT     H253421   3.456   8.713   6.499
17107WAT      O53422   2.060   7.086   7.018
17107WAT     H153423   2.025   7.132   7.094
17107WAT     H253424   2.027   6.997   7.026
17108WAT      O53425   2.590   8.559   6.994
17108WAT     H153426   2.566   8.586   6.906
17108WAT     H253427   2.685   8.576   7.000
17109WAT      O53428   2.811   7.205   7.370
17109WAT     H153429   2.805   7.265   7.445
17109WAT     H253430   2.905   7.195   7.355
17110WAT      O53431   3.075   7.171   7.334
17110WAT     H153432   3.136   7.203   7.268
17110WAT     H253433   3.129   7.123   7.396
17111WAT      O53434   3.717   8.761   7.074
17111WAT     H153435   3.667   8.801   7.003
17111WAT     H253436   3.656   8.698   7.114
17112WAT      O53437   2.127   7.039   7.345
17112WAT     H153438   2.182   7.021   7.269
17112WAT     H253439   2.134   6.960   7.399
17113WAT      O53440   2.204   8.698   7.146
17113WAT     H153441   2.145   8.685   7.220
17113WAT     H253442   2.204   8.614   7.100
17114WAT      O53443   3.149   7.027   6.967
17114WAT     H153444   3.061   7.061   6.946
17114WAT     H253445   3.138   6.980   7.049
17115WAT      O53446   3.240   7.248   7.105
17115WAT     H153447   3.207   7.167   7.067
17115WAT     H253448   3.334   7.244   7.093
17116WAT      O53449   3.485   8.825   6.802
17116WAT     H153450   3.439   8.900   6.765
17116WAT     H253451   3.422   8.753   6.796
17117WAT      O53452   2.167   8.435   7.041
17117WAT     H153453   2.095   8.373   7.035
17117WAT     H253454   2.174   8.474   6.954
17118WAT      O53455   2.528   8.656   6.720
17118WAT     H153456   2.580   8.595   6.667
17118WAT     H253457   2.593   8.706   6.769
17119WAT      O53458   2.802   8.745   6.803
17119WAT     H153459   2.831   8.720   6.715
17119WAT     H253460   2.853   8.690   6.862
17120WAT      O53461   2.924   7.119   6.860
17120WAT     H153462   2.845   7.166   6.888
17120WAT     H253463   2.894   7.029   6.850
17121WAT      O53464   3.379   7.189   6.665
17121WAT     H153465   3.423   7.184   6.580
17121WAT     H253466   3.352   7.281   6.672
17122WAT      O53467   3.565   7.152   6.466
17122WAT     H153468   3.559   7.058   6.451
17122WAT     H253469   3.643   7.163   6.521
17123WAT      O53470   1.996   8.766   6.362
17123WAT     H153471   1.979   8.703   6.432
17123WAT     H253472   1.909   8.787   6.327
17124WAT      O53473   2.058   7.150   6.113
17124WAT     H153474   2.134   7.161   6.055
17124WAT     H253475   2.012   7.233   6.108
17125WAT      O53476   2.712   7.361   6.412
17125WAT     H153477   2.631   7.323   6.378
17125WAT     H253478   2.763   7.285   6.442
17126WAT      O53479   3.162   7.027   6.535
17126WAT     H153480   3.223   7.085   6.583
17126WAT     H253481   3.088   7.084   6.513
17127WAT      O53482   3.477   7.068   6.063
17127WAT     H153483   3.496   7.157   6.090
17127WAT     H253484   3.398   7.044   6.112
17128WAT      O53485   2.156   8.636   6.107
17128WAT     H153486   2.104   8.674   6.036
17128WAT     H253487   2.149   8.698   6.179
17129WAT      O53488   2.295   7.202   5.967
17129WAT     H153489   2.348   7.123   5.954
17129WAT     H253490   2.359   7.270   5.990
17130WAT      O53491   2.515   7.176   6.272
17130WAT     H153492   2.452   7.106   6.289
17130WAT     H253493   2.461   7.252   6.250
17131WAT      O53494   3.632   8.792   6.239
17131WAT     H153495   3.650   8.723   6.175
17131WAT     H253496   3.562   8.844   6.200
17132WAT      O53497   2.416   8.831   5.994
17132WAT     H153498   2.489   8.802   5.940
17132WAT     H253499   2.442   8.807   6.083
17133WAT      O53500   2.332   8.442   5.995
17133WAT     H153501   2.270   8.489   6.050
17133WAT     H253502   2.344   8.358   6.038
17134WAT      O53503   2.891   8.025   4.798
17134WAT     H153504   2.814   7.977   4.827
17134WAT     H253505   2.956   7.957   4.780
17135WAT      O53506   2.293   8.056   4.886
17135WAT     H153507   2.210   8.031   4.926
17135WAT     H253508   2.354   8.063   4.959
17136WAT      O53509   3.293   8.466   4.676
17136WAT     H153510   3.247   8.388   4.709
17136WAT     H253511   3.374   8.468   4.726
17137WAT      O53512   2.291   8.460   4.905
17137WAT     H153513   2.321   8.371   4.887
17137WAT     H253514   2.365   8.515   4.882
17138WAT      O53515   2.134   7.552   4.264
17138WAT     H153516   2.045   7.586   4.254
17138WAT     H253517   2.162   7.532   4.175
17139WAT      O53518   1.930   7.812   4.852
17139WAT     H153519   1.987   7.735   4.852
17139WAT     H253520   1.930   7.842   4.762
17140WAT      O53521   2.916   8.694   4.638
17140WAT     H153522   2.854   8.740   4.581
17140WAT     H253523   3.001   8.710   4.598
17141WAT      O53524   2.835   8.293   4.799
17141WAT     H153525   2.828   8.198   4.782
17141WAT     H253526   2.911   8.302   4.856
17142WAT      O53527   2.054   7.353   5.031
17142WAT     H153528   2.036   7.263   5.059
17142WAT     H253529   2.014   7.408   5.099
17143WAT      O53530   2.116   7.603   4.892
17143WAT     H153531   2.184   7.629   4.954
17143WAT     H253532   2.085   7.519   4.925
17144WAT      O53533   2.535   7.707   4.801
17144WAT     H153534   2.586   7.757   4.865
17144WAT     H253535   2.589   7.630   4.783
17145WAT      O53536   3.745   7.524   5.171
17145WAT     H153537   3.675   7.563   5.119
17145WAT     H253538   3.772   7.594   5.231
17146WAT      O53539   2.364   7.171   5.227
17146WAT     H153540   2.364   7.223   5.147
17146WAT     H253541   2.281   7.124   5.225
17147WAT      O53542   2.489   8.135   5.045
17147WAT     H153543   2.455   8.198   5.109
17147WAT     H253544   2.506   8.188   4.967
17148WAT      O53545   2.332   7.342   5.028
17148WAT     H153546   2.366   7.427   4.999
17148WAT     H253547   2.238   7.357   5.040
17149WAT      O53548   2.410   8.332   5.227
17149WAT     H153549   2.472   8.400   5.198
17149WAT     H253550   2.324   8.373   5.217
17150WAT      O53551   1.939   8.251   4.115
17150WAT     H153552   1.902   8.300   4.041
17150WAT     H253553   1.965   8.318   4.178
17151WAT      O53554   3.502   8.479   5.018
17151WAT     H153555   3.433   8.546   5.017
17151WAT     H253556   3.556   8.498   4.942
17152WAT      O53557   2.700   7.091   4.660
17152WAT     H153558   2.731   7.036   4.589
17152WAT     H253559   2.607   7.105   4.642
17153WAT      O53560   3.255   8.663   4.890
17153WAT     H153561   3.257   8.623   4.803
17153WAT     H253562   3.200   8.740   4.879
17154WAT      O53563   3.195   8.153   5.022
17154WAT     H153564   3.237   8.132   4.939
17154WAT     H253565   3.268   8.179   5.079
17155WAT      O53566   3.590   7.993   5.032
17155WAT     H153567   3.507   8.000   4.984
17155WAT     H253568   3.649   8.052   4.985
17156WAT      O53569   3.286   7.672   5.126
17156WAT     H153570   3.245   7.754   5.151
17156WAT     H253571   3.213   7.613   5.107
17157WAT      O53572   2.500   7.950   4.612
17157WAT     H153573   2.459   7.879   4.563
17157WAT     H253574   2.508   7.916   4.701
17158WAT      O53575   2.546   8.319   4.829
17158WAT     H153576   2.517   8.259   4.761
17158WAT     H253577   2.641   8.323   4.818
17159WAT      O53578   2.371   7.628   4.990
17159WAT     H153579   2.426   7.639   4.913
17159WAT     H253580   2.422   7.665   5.062
17160WAT      O53581   3.355   8.676   5.195
17160WAT     H153582   3.308   8.757   5.176
17160WAT     H253583   3.287   8.611   5.210
17161WAT      O53584   2.456   8.293   5.494
17161WAT     H153585   2.366   8.315   5.518
17161WAT     H253586   2.458   8.305   5.399
17162WAT      O53587   2.338   7.980   5.351
17162WAT     H153588   2.324   8.067   5.388
17162WAT     H253589   2.250   7.946   5.337
17163WAT      O53590   2.518   8.574   5.572
17163WAT     H153591   2.515   8.615   5.485
17163WAT     H253592   2.502   8.481   5.556
17164WAT      O53593   2.170   7.840   4.362
17164WAT     H153594   2.158   7.913   4.301
17164WAT     H253595   2.139   7.763   4.315
17165WAT      O53596   3.713   8.653   5.702
17165WAT     H153597   3.761   8.700   5.770
17165WAT     H253598   3.775   8.646   5.629
17166WAT      O53599   1.933   8.157   4.943
17166WAT     H153600   1.941   8.171   4.849
17166WAT     H253601   1.995   8.086   4.962
17167WAT      O53602   2.058   8.327   4.584
17167WAT     H153603   2.017   8.341   4.499
17167WAT     H253604   2.147   8.299   4.564
17168WAT      O53605   3.654   8.372   5.418
17168WAT     H153606   3.666   8.348   5.326
17168WAT     H253607   3.658   8.289   5.465
17169WAT      O53608   3.040   8.742   5.275
17169WAT     H153609   3.091   8.733   5.355
17169WAT     H253610   2.955   8.777   5.304
17170WAT      O53611   3.237   8.771   4.218
17170WAT     H153612   3.221   8.742   4.307
17170WAT     H253613   3.221   8.693   4.164
17171WAT      O53614   2.485   8.748   4.395
17171WAT     H153615   2.468   8.657   4.374
17171WAT     H253616   2.400   8.784   4.419
17172WAT      O53617   3.164   8.684   4.481
17172WAT     H153618   3.210   8.606   4.512
17172WAT     H253619   3.198   8.755   4.535
17173WAT      O53620   3.639   7.577   5.514
17173WAT     H153621   3.577   7.628   5.461
17173WAT     H253622   3.607   7.487   5.509
17174WAT      O53623   1.939   8.261   5.197
17174WAT     H153624   1.955   8.214   5.115
17174WAT     H253625   1.986   8.210   5.263
17175WAT      O53626   2.416   7.174   4.701
17175WAT     H153627   2.372   7.252   4.667
17175WAT     H253628   2.472   7.207   4.771
17176WAT      O53629   2.845   7.461   5.261
17176WAT     H153630   2.799   7.482   5.342
17176WAT     H253631   2.805   7.380   5.231
17177WAT      O53632   3.345   7.583   5.374
17177WAT     H153633   3.260   7.553   5.406
17177WAT     H253634   3.329   7.607   5.283
17178WAT      O53635   3.054   7.733   5.584
17178WAT     H153636   3.087   7.650   5.550
17178WAT     H253637   3.133   7.785   5.599
17179WAT      O53638   2.620   7.229   4.886
17179WAT     H153639   2.650   7.319   4.878
17179WAT     H253640   2.675   7.180   4.825
17180WAT      O53641   2.395   7.687   4.473
17180WAT     H153642   2.373   7.665   4.564
17180WAT     H253643   2.317   7.730   4.439
17181WAT      O53644   2.639   7.776   5.540
17181WAT     H153645   2.630   7.682   5.525
17181WAT     H253646   2.724   7.799   5.500
17182WAT      O53647   2.152   7.418   5.355
17182WAT     H153648   2.113   7.502   5.376
17182WAT     H253649   2.084   7.354   5.374
17183WAT      O53650   2.810   7.426   5.662
17183WAT     H153651   2.741   7.407   5.726
17183WAT     H253652   2.884   7.454   5.716
17184WAT      O53653   1.883   7.210   4.759
17184WAT     H153654   1.854   7.267   4.830
17184WAT     H253655   1.957   7.162   4.795
17185WAT      O53656   1.901   7.604   3.880
17185WAT     H153657   1.893   7.698   3.894
17185WAT     H253658   1.866   7.590   3.792
17186WAT      O53659   3.038   7.810   4.946
17186WAT     H153660   2.964   7.861   4.981
17186WAT     H253661   2.998   7.728   4.916
17187WAT      O53662   2.681   7.477   4.786
17187WAT     H153663   2.682   7.433   4.701
17187WAT     H253664   2.771   7.510   4.797
17188WAT      O53665   2.266   7.466   4.682
17188WAT     H153666   2.232   7.513   4.758
17188WAT     H253667   2.190   7.420   4.646
17189WAT      O53668   3.427   7.097   5.471
17189WAT     H153669   3.459   7.023   5.524
17189WAT     H253670   3.430   7.065   5.381
17190WAT      O53671   2.096   8.199   5.413
17190WAT     H153672   2.058   8.135   5.473
17190WAT     H253673   2.128   8.269   5.470
17191WAT      O53674   2.711   7.883   4.961
17191WAT     H153675   2.748   7.836   5.036
17191WAT     H253676   2.692   7.971   4.995
17192WAT      O53677   1.998   7.358   4.574
17192WAT     H153678   1.969   7.321   4.658
17192WAT     H253679   1.992   7.285   4.513
17193WAT      O53680   2.490   7.788   5.193
17193WAT     H153681   2.460   7.875   5.215
17193WAT     H253682   2.586   7.794   5.196
17194WAT      O53683   2.343   8.208   4.253
17194WAT     H153684   2.266   8.154   4.237
17194WAT     H253685   2.416   8.156   4.219
17195WAT      O53686   3.419   8.108   4.832
17195WAT     H153687   3.491   8.157   4.793
17195WAT     H253688   3.399   8.040   4.767
17196WAT      O53689   2.957   8.115   5.420
17196WAT     H153690   2.951   8.023   5.395
17196WAT     H253691   2.894   8.125   5.492
17197WAT      O53692   2.348   8.175   4.616
17197WAT     H153693   2.399   8.095   4.611
17197WAT     H253694   2.302   8.169   4.700
17198WAT      O53695   2.096   7.872   5.308
17198WAT     H153696   2.060   7.938   5.366
17198WAT     H253697   2.067   7.788   5.345
17199WAT      O53698   2.416   7.917   5.596
17199WAT     H153699   2.386   7.932   5.506
17199WAT     H253700   2.493   7.861   5.587
17200WAT      O53701   2.950   8.397   5.396
17200WAT     H153702   2.952   8.304   5.374
17200WAT     H253703   2.880   8.406   5.459
17201WAT      O53704   3.572   8.061   5.330
17201WAT     H153705   3.499   8.120   5.310
17201WAT     H253706   3.624   8.060   5.250
17202WAT      O53707   3.567   8.501   4.295
17202WAT     H153708   3.502   8.435   4.323
17202WAT     H253709   3.528   8.541   4.218
17203WAT      O53710   3.125   8.234   4.680
17203WAT     H153711   3.160   8.174   4.614
17203WAT     H253712   3.036   8.201   4.697
17204WAT      O53713   2.733   8.310   4.421
17204WAT     H153714   2.802   8.364   4.459
17204WAT     H253715   2.655   8.364   4.424
17205WAT      O53716   1.947   7.871   3.970
17205WAT     H153717   2.034   7.900   3.998
17205WAT     H253718   1.898   7.953   3.958
17206WAT      O53719   2.894   8.561   5.105
17206WAT     H153720   2.958   8.582   5.173
17206WAT     H253721   2.930   8.485   5.060
17207WAT      O53722   3.021   8.362   4.977
17207WAT     H153723   3.085   8.292   4.988
17207WAT     H253724   3.074   8.440   4.959
17208WAT      O53725   3.198   8.442   5.297
17208WAT     H153726   3.232   8.500   5.365
17208WAT     H253727   3.106   8.428   5.320
17209WAT      O53728   1.984   8.793   4.027
17209WAT     H153729   2.020   8.853   3.961
17209WAT     H253730   1.970   8.847   4.104
17210WAT      O53731   1.954   7.221   5.375
17210WAT     H153732   1.882   7.240   5.436
17210WAT     H253733   1.995   7.143   5.412
17211WAT      O53734   1.982   8.619   5.474
17211WAT     H153735   1.993   8.525   5.460
17211WAT     H253736   1.917   8.646   5.409
17212WAT      O53737   2.781   8.446   5.614
17212WAT     H153738   2.749   8.375   5.668
17212WAT     H253739   2.714   8.514   5.621
17213WAT      O53740   2.146   8.053   4.183
17213WAT     H153741   2.085   8.127   4.184
17213WAT     H253742   2.193   8.062   4.100
17214WAT      O53743   3.103   7.470   5.150
17214WAT     H153744   3.140   7.388   5.183
17214WAT     H253745   3.017   7.476   5.192
17215WAT      O53746   2.636   7.593   4.373
17215WAT     H153747   2.566   7.640   4.417
17215WAT     H253748   2.665   7.527   4.436
17216WAT      O53749   2.799   7.735   5.173
17216WAT     H153750   2.849   7.783   5.239
17216WAT     H253751   2.813   7.643   5.193
17217WAT      O53752   2.748   8.789   4.444
17217WAT     H153753   2.774   8.785   4.352
17217WAT     H253754   2.653   8.777   4.443
17218WAT      O53755   3.520   7.357   5.257
17218WAT     H153756   3.469   7.431   5.291
17218WAT     H253757   3.601   7.396   5.225
17219WAT      O53758   2.347   8.049   3.958
17219WAT     H153759   2.423   8.038   4.014
17219WAT     H253760   2.354   7.980   3.892
17220WAT      O53761   2.216   7.793   4.026
17220WAT     H153762   2.224   7.698   4.037
17220WAT     H253763   2.305   7.826   4.037
17221WAT      O53764   3.549   8.598   4.769
17221WAT     H153765   3.562   8.681   4.816
17221WAT     H253766   3.636   8.577   4.734
17222WAT      O53767   2.296   8.808   4.736
17222WAT     H153768   2.370   8.753   4.763
17222WAT     H253769   2.335   8.894   4.722
17223WAT      O53770   1.985   8.414   4.324
17223WAT     H153771   1.892   8.438   4.323
17223WAT     H253772   2.031   8.497   4.312
17224WAT      O53773   2.197   8.726   5.655
17224WAT     H153774   2.277   8.758   5.696
17224WAT     H253775   2.145   8.690   5.727
17225WAT      O53776   2.607   8.725   3.919
17225WAT     H153777   2.687   8.754   3.873
17225WAT     H253778   2.555   8.682   3.851
17226WAT      O53779   3.080   8.337   5.650
17226WAT     H153780   3.020   8.339   5.576
17226WAT     H253781   3.050   8.264   5.704
17227WAT      O53782   3.223   8.710   5.511
17227WAT     H153783   3.319   8.701   5.506
17227WAT     H253784   3.209   8.776   5.578
17228WAT      O53785   3.513   8.648   4.061
17228WAT     H153786   3.484   8.606   3.979
17228WAT     H253787   3.493   8.740   4.049
17229WAT      O53788   1.969   7.975   5.550
17229WAT     H153789   2.019   7.917   5.607
17229WAT     H253790   1.895   8.003   5.603
17230WAT      O53791   2.674   8.115   5.503
17230WAT     H153792   2.598   8.172   5.494
17230WAT     H253793   2.692   8.086   5.414
17231WAT      O53794   3.388   8.288   5.559
17231WAT     H153795   3.463   8.322   5.508
17231WAT     H253796   3.312   8.305   5.503
17232WAT      O53797   2.172   7.789   5.639
17232WAT     H153798   2.176   7.759   5.730
17232WAT     H253799   2.257   7.829   5.623
17233WAT      O53800   2.366   7.647   5.436
17233WAT     H153801   2.313   7.598   5.373
17233WAT     H253802   2.433   7.690   5.382
17234WAT      O53803   3.256   8.094   5.412
17234WAT     H153804   3.297   8.109   5.497
17234WAT     H253805   3.162   8.106   5.428
17235WAT      O53806   3.303   7.828   5.613
17235WAT     H153807   3.361   7.752   5.604
17235WAT     H253808   3.321   7.881   5.535
17236WAT      O53809   2.415   7.344   5.444
17236WAT     H153810   2.405   7.282   5.371
17236WAT     H253811   2.357   7.416   5.421
17237WAT      O53812   2.691   7.199   5.147
17237WAT     H153813   2.647   7.202   5.062
17237WAT     H253814   2.628   7.159   5.207
17238WAT      O53815   2.732   8.089   5.209
17238WAT     H153816   2.774   8.173   5.192
17238WAT     H253817   2.640   8.103   5.186
17239WAT      O53818   2.966   7.862   5.348
17239WAT     H153819   2.978   7.802   5.421
17239WAT     H253820   3.052   7.866   5.306
17240WAT      O53821   3.200   7.917   5.205
17240WAT     H153822   3.147   7.970   5.145
17240WAT     H253823   3.234   7.981   5.268
17241WAT      O53824   2.517   8.719   5.321
17241WAT     H153825   2.463   8.792   5.289
17241WAT     H253826   2.542   8.672   5.242
17242WAT      O53827   2.642   7.516   5.473
17242WAT     H153828   2.701   7.485   5.542
17242WAT     H253829   2.561   7.469   5.489
17243WAT      O53830   3.124   7.478   5.497
17243WAT     H153831   3.055   7.412   5.490
17243WAT     H253832   3.196   7.433   5.541
17244WAT      O53833   2.803   8.843   5.347
17244WAT     H153834   2.795   8.933   5.377
17244WAT     H253835   2.713   8.811   5.344
17245WAT      O53836   2.222   8.297   3.932
17245WAT     H153837   2.265   8.351   3.997
17245WAT     H253838   2.270   8.214   3.933
17246WAT      O53839   1.943   8.576   4.677
17246WAT     H153840   1.976   8.489   4.654
17246WAT     H253841   1.986   8.596   4.760
17247WAT      O53842   2.403   8.409   4.443
17247WAT     H153843   2.373   8.396   4.533
17247WAT     H253844   2.392   8.323   4.402
17248WAT      O53845   1.992   8.662   4.951
17248WAT     H153846   1.948   8.680   5.034
17248WAT     H253847   2.049   8.738   4.937
17249WAT      O53848   3.556   8.613   5.379
17249WAT     H153849   3.496   8.618   5.305
17249WAT     H253850   3.568   8.519   5.392
17250WAT      O53851   3.680   8.387   3.913
17250WAT     H153852   3.596   8.393   3.960
17250WAT     H253853   3.697   8.476   3.883
17251WAT      O53854   1.975   7.914   4.587
17251WAT     H153855   1.910   7.887   4.522
17251WAT     H253856   2.059   7.903   4.542
17252WAT      O53857   3.726   8.147   4.648
17252WAT     H153858   3.763   8.068   4.607
17252WAT     H253859   3.790   8.216   4.630
17253WAT      O53860   3.424   8.285   5.189
17253WAT     H153861   3.343   8.328   5.216
17253WAT     H253862   3.465   8.346   5.128
17254WAT      O53863   2.079   7.952   5.041
17254WAT     H153864   2.116   7.943   5.129
17254WAT     H253865   2.022   7.876   5.031
17255WAT      O53866   3.559   7.799   5.342
17255WAT     H153867   3.536   7.776   5.252
17255WAT     H253868   3.585   7.891   5.337
17256WAT      O53869   2.034   7.643   5.431
17256WAT     H153870   1.945   7.640   5.465
17256WAT     H253871   2.088   7.663   5.508
17257WAT      O53872   3.403   7.321   5.620
17257WAT     H153873   3.491   7.322   5.658
17257WAT     H253874   3.404   7.248   5.559
17258WAT      O53875   1.897   7.635   4.181
17258WAT     H153876   1.806   7.661   4.163
17258WAT     H253877   1.945   7.662   4.103
17259WAT      O53878   3.565   7.715   5.061
17259WAT     H153879   3.470   7.712   5.072
17259WAT     H253880   3.583   7.806   5.037
17260WAT      O53881   2.084   7.071   4.866
17260WAT     H153882   2.149   7.016   4.822
17260WAT     H253883   2.126   7.096   4.948
17261WAT      O53884   3.474   7.090   5.202
17261WAT     H153885   3.538   7.151   5.238
17261WAT     H253886   3.489   7.094   5.107
17262WAT      O53887   3.736   7.356   4.143
17262WAT     H153888   3.656   7.350   4.195
17262WAT     H253889   3.756   7.450   4.141
17263WAT      O53890   3.430   8.760   4.542
17263WAT     H153891   3.489   8.728   4.474
17263WAT     H253892   3.456   8.713   4.621
17264WAT      O53893   2.060   7.086   5.140
17264WAT     H153894   2.025   7.132   5.217
17264WAT     H253895   2.027   6.997   5.149
17265WAT      O53896   2.220   8.403   5.557
17265WAT     H153897   2.216   8.366   5.645
17265WAT     H253898   2.234   8.497   5.571
17266WAT      O53899   2.590   8.559   5.117
17266WAT     H153900   2.566   8.586   5.028
17266WAT     H253901   2.685   8.576   5.122
17267WAT      O53902   2.811   7.205   5.493
17267WAT     H153903   2.805   7.265   5.567
17267WAT     H253904   2.905   7.195   5.478
17268WAT      O53905   3.075   7.171   5.456
17268WAT     H153906   3.136   7.203   5.390
17268WAT     H253907   3.129   7.123   5.518
17269WAT      O53908   3.717   8.761   5.197
17269WAT     H153909   3.667   8.801   5.125
17269WAT     H253910   3.656   8.698   5.236
17270WAT      O53911   2.127   7.039   5.468
17270WAT     H153912   2.182   7.021   5.391
17270WAT     H253913   2.134   6.960   5.521
17271WAT      O53914   2.204   8.698   5.269
17271WAT     H153915   2.145   8.685   5.343
17271WAT     H253916   2.204   8.614   5.222
17272WAT      O53917   3.149   7.027   5.089
17272WAT     H153918   3.061   7.061   5.069
17272WAT     H253919   3.138   6.980   5.172
17273WAT      O53920   3.240   7.248   5.228
17273WAT     H153921   3.207   7.167   5.190
17273WAT     H253922   3.334   7.244   5.215
17274WAT      O53923   3.485   8.825   4.925
17274WAT     H153924   3.439   8.900   4.887
17274WAT     H253925   3.422   8.753   4.919
17275WAT      O53926   2.167   8.435   5.164
17275WAT     H153927   2.095   8.373   5.157
17275WAT     H253928   2.174   8.474   5.077
17276WAT      O53929   2.528   8.656   4.842
17276WAT     H153930   2.580   8.595   4.790
17276WAT     H253931   2.593   8.706   4.892
17277WAT      O53932   2.802   8.745   4.925
17277WAT     H153933   2.831   8.720   4.837
17277WAT     H253934   2.853   8.690   4.984
17278WAT      O53935   2.924   7.119   4.983
17278WAT     H153936   2.845   7.166   5.011
17278WAT     H253937   2.894   7.029   4.972
17279WAT      O53938   1.996   8.766   4.485
17279WAT     H153939   1.979   8.703   4.555
17279WAT     H253940   1.909   8.787   4.450
17280WAT      O53941   2.156   8.636   4.229
17280WAT     H153942   2.104   8.674   4.159
17280WAT     H253943   2.149   8.698   4.301
17281WAT      O53944   2.809   8.837   5.662
17281WAT     H153945   2.901   8.814   5.666
17281WAT     H253946   2.807   8.920   5.614
17282WAT      O53947   3.632   8.792   4.362
17282WAT     H153948   3.650   8.723   4.297
17282WAT     H253949   3.562   8.844   4.322
17283WAT      O53950   2.527   7.104   5.638
17283WAT     H153951   2.499   7.154   5.562
17283WAT     H253952   2.565   7.024   5.602
17284WAT      O53953   2.416   8.831   4.117
17284WAT     H153954   2.489   8.802   4.062
17284WAT     H253955   2.442   8.807   4.206
17285WAT      O53956   2.332   8.442   4.117
17285WAT     H153957   2.270   8.489   4.172
17285WAT     H253958   2.344   8.358   4.161
17286WAT      O53959   3.187   7.045   5.696
17286WAT     H153960   3.176   7.077   5.786
17286WAT     H253961   3.269   7.085   5.666
17287WAT      O53962   3.465   8.760   5.644
17287WAT     H153963   3.545   8.710   5.623
17287WAT     H253964   3.495   8.828   5.705
17288WAT      O53965   3.078   7.847   2.732
17288WAT     H153966   3.070   7.756   2.705
17288WAT     H253967   3.037   7.897   2.662
17289WAT      O53968   3.293   8.466   2.798
17289WAT     H153969   3.247   8.388   2.831
17289WAT     H253970   3.374   8.468   2.849
17290WAT      O53971   2.134   7.552   2.387
17290WAT     H153972   2.045   7.586   2.376
17290WAT     H253973   2.162   7.532   2.297
17291WAT      O53974   2.351   7.411   2.490
17291WAT     H153975   2.362   7.501   2.521
17291WAT     H253976   2.260   7.406   2.461
17292WAT      O53977   3.002   8.183   2.500
17292WAT     H153978   2.941   8.229   2.443
17292WAT     H253979   3.054   8.252   2.541
17293WAT      O53980   3.502   8.479   3.141
17293WAT     H153981   3.433   8.546   3.140
17293WAT     H253982   3.556   8.498   3.064
17294WAT      O53983   3.255   8.663   3.012
17294WAT     H153984   3.257   8.623   2.925
17294WAT     H253985   3.200   8.740   3.002
17295WAT      O53986   3.385   8.335   2.521
17295WAT     H153987   3.374   8.241   2.534
17295WAT     H253988   3.384   8.371   2.610
17296WAT      O53989   2.939   7.898   2.457
17296WAT     H153990   2.846   7.891   2.480
17296WAT     H253991   2.954   7.992   2.445
17297WAT      O53992   2.938   7.525   2.156
17297WAT     H153993   2.844   7.541   2.165
17297WAT     H253994   2.970   7.597   2.102
17298WAT      O53995   3.342   8.054   2.507
17298WAT     H153996   3.280   8.020   2.442
17298WAT     H253997   3.340   7.990   2.578
17299WAT      O53998   3.355   8.676   3.317
17299WAT     H153999   3.308   8.757   3.298
17299WAT     H254000   3.287   8.611   3.333
17300WAT      O54001   3.160   7.978   2.208
17300WAT     H154002   3.204   7.894   2.193
17300WAT     H254003   3.231   8.041   2.216
17301WAT      O54004   2.971   8.472   2.605
17301WAT     H154005   3.015   8.546   2.563
17301WAT     H254006   2.964   8.496   2.697
17302WAT      O54007   3.713   8.653   3.824
17302WAT     H154008   3.761   8.700   3.892
17302WAT     H254009   3.775   8.646   3.752
17303WAT      O54010   3.040   8.742   3.397
17303WAT     H154011   3.091   8.733   3.478
17303WAT     H254012   2.955   8.777   3.427
17304WAT      O54013   3.237   8.771   2.340
17304WAT     H154014   3.221   8.742   2.430
17304WAT     H254015   3.221   8.693   2.287
17305WAT      O54016   2.485   8.748   2.518
17305WAT     H154017   2.468   8.657   2.497
17305WAT     H254018   2.400   8.784   2.542
17306WAT      O54019   3.208   8.521   2.196
17306WAT     H154020   3.138   8.521   2.130
17306WAT     H254021   3.282   8.479   2.153
17307WAT      O54022   3.164   8.684   2.604
17307WAT     H154023   3.210   8.606   2.635
17307WAT     H254024   3.198   8.755   2.658
17308WAT      O54025   2.395   7.687   2.596
17308WAT     H154026   2.373   7.665   2.686
17308WAT     H254027   2.317   7.730   2.561
17309WAT      O54028   3.118   7.687   2.456
17309WAT     H154029   3.058   7.760   2.437
17309WAT     H254030   3.173   7.681   2.378
17310WAT      O54031   1.883   7.210   2.881
17310WAT     H154032   1.854   7.267   2.952
17310WAT     H254033   1.957   7.162   2.917
17311WAT      O54034   1.901   7.604   2.002
17311WAT     H154035   1.893   7.698   2.016
17311WAT     H254036   1.866   7.590   1.914
17312WAT      O54037   2.266   7.466   2.805
17312WAT     H154038   2.232   7.513   2.881
17312WAT     H254039   2.190   7.420   2.769
17313WAT      O54040   2.688   7.578   2.208
17313WAT     H154041   2.700   7.573   2.303
17313WAT     H254042   2.649   7.664   2.192
17314WAT      O54043   2.589   7.809   2.148
17314WAT     H154044   2.532   7.764   2.085
17314WAT     H254045   2.660   7.844   2.094
17315WAT      O54046   1.998   7.358   2.697
17315WAT     H154047   1.969   7.321   2.780
17315WAT     H254048   1.992   7.285   2.635
17316WAT      O54049   3.237   7.684   2.198
17316WAT     H154050   3.325   7.716   2.181
17316WAT     H254051   3.234   7.597   2.159
17317WAT      O54052   2.836   8.302   2.266
17317WAT     H154053   2.870   8.376   2.217
17317WAT     H254054   2.753   8.333   2.302
17318WAT      O54055   3.464   7.816   2.145
17318WAT     H154056   3.455   7.859   2.060
17318WAT     H254057   3.536   7.861   2.188
17319WAT      O54058   3.567   8.501   2.418
17319WAT     H154059   3.502   8.435   2.445
17319WAT     H254060   3.528   8.541   2.340
17320WAT      O54061   3.125   8.234   2.803
17320WAT     H154062   3.160   8.174   2.737
17320WAT     H254063   3.036   8.201   2.820
17321WAT      O54064   2.733   8.310   2.543
17321WAT     H154065   2.802   8.364   2.581
17321WAT     H254066   2.655   8.364   2.547
17322WAT      O54067   1.947   7.871   2.092
17322WAT     H154068   2.034   7.900   2.121
17322WAT     H254069   1.898   7.953   2.081
17323WAT      O54070   3.406   8.390   2.072
17323WAT     H154071   3.383   8.318   2.131
17323WAT     H254072   3.367   8.365   1.988
17324WAT      O54073   1.984   8.793   2.149
17324WAT     H154074   2.020   8.853   2.084
17324WAT     H254075   1.970   8.847   2.226
17325WAT      O54076   3.364   8.182   2.238
17325WAT     H154077   3.335   8.228   2.317
17325WAT     H254078   3.443   8.136   2.265
17326WAT      O54079   1.982   8.619   3.597
17326WAT     H154080   1.993   8.525   3.582
17326WAT     H254081   1.917   8.646   3.532
17327WAT      O54082   2.586   8.531   2.231
17327WAT     H154083   2.585   8.604   2.169
17327WAT     H254084   2.493   8.506   2.240
17328WAT      O54085   2.884   8.537   2.097
17328WAT     H154086   2.894   8.517   2.004
17328WAT     H254087   2.794   8.512   2.118
17329WAT      O54088   2.636   7.593   2.495
17329WAT     H154089   2.566   7.640   2.539
17329WAT     H254090   2.665   7.527   2.559
17330WAT      O54091   2.748   8.789   2.567
17330WAT     H154092   2.774   8.785   2.474
17330WAT     H254093   2.653   8.777   2.566
17331WAT      O54094   2.457   7.424   2.233
17331WAT     H154095   2.542   7.468   2.226
17331WAT     H254096   2.420   7.455   2.316
17332WAT      O54097   2.347   8.049   2.080
17332WAT     H154098   2.423   8.038   2.136
17332WAT     H254099   2.354   7.980   2.015
17333WAT      O54100   2.216   7.793   2.149
17333WAT     H154101   2.224   7.698   2.160
17333WAT     H254102   2.305   7.826   2.159
17334WAT      O54103   3.549   8.598   2.892
17334WAT     H154104   3.562   8.681   2.939
17334WAT     H254105   3.636   8.577   2.857
17335WAT      O54106   2.197   8.726   3.778
17335WAT     H154107   2.277   8.758   3.819
17335WAT     H254108   2.145   8.690   3.850
17336WAT      O54109   2.607   8.725   2.041
17336WAT     H154110   2.687   8.754   1.996
17336WAT     H254111   2.555   8.682   1.973
17337WAT      O54112   3.513   8.648   2.183
17337WAT     H154113   3.484   8.606   2.102
17337WAT     H254114   3.493   8.740   2.171
17338WAT      O54115   2.659   8.247   2.028
17338WAT     H154116   2.649   8.185   2.100
17338WAT     H254117   2.642   8.195   1.949
17339WAT      O54118   2.983   8.153   2.088
17339WAT     H154119   2.928   8.198   2.152
17339WAT     H254120   3.045   8.103   2.140
17340WAT      O54121   2.550   8.049   2.278
17340WAT     H154122   2.592   8.032   2.362
17340WAT     H254123   2.562   7.968   2.228
17341WAT      O54124   2.801   7.951   2.002
17341WAT     H154125   2.853   7.880   1.966
17341WAT     H254126   2.866   8.015   2.032
17342WAT      O54127   2.439   7.656   1.972
17342WAT     H154128   2.419   7.570   2.008
17342WAT     H254129   2.422   7.648   1.878
17343WAT      O54130   2.319   7.366   1.971
17343WAT     H154131   2.349   7.367   1.880
17343WAT     H254132   2.393   7.331   2.021
17344WAT      O54133   2.803   8.843   3.469
17344WAT     H154134   2.795   8.933   3.500
17344WAT     H254135   2.713   8.811   3.466
17345WAT      O54136   2.858   8.759   2.231
17345WAT     H154137   2.947   8.793   2.234
17345WAT     H254138   2.861   8.687   2.169
17346WAT      O54139   2.222   8.297   2.054
17346WAT     H154140   2.265   8.351   2.120
17346WAT     H254141   2.270   8.214   2.055
17347WAT      O54142   3.556   8.613   3.502
17347WAT     H154143   3.496   8.618   3.428
17347WAT     H254144   3.568   8.519   3.515
17348WAT      O54145   3.680   8.387   2.036
17348WAT     H154146   3.596   8.393   2.083
17348WAT     H254147   3.697   8.476   2.005
17349WAT      O54148   3.625   8.061   2.286
17349WAT     H154149   3.701   8.118   2.297
17349WAT     H254150   3.627   8.004   2.363
17350WAT      O54151   3.630   8.091   2.002
17350WAT     H154152   3.658   8.181   1.989
17350WAT     H254153   3.611   8.084   2.095
17351WAT      O54154   3.620   7.884   2.501
17351WAT     H154155   3.582   7.807   2.458
17351WAT     H254156   3.547   7.922   2.550
17352WAT      O54157   1.897   7.635   2.303
17352WAT     H154158   1.806   7.661   2.286
17352WAT     H254159   1.945   7.662   2.225
17353WAT      O54160   2.151   7.540   2.094
17353WAT     H154161   2.222   7.498   2.046
17353WAT     H254162   2.079   7.547   2.031
17354WAT      O54163   2.116   7.146   1.998
17354WAT     H154164   2.188   7.200   2.030
17354WAT     H254165   2.143   7.118   1.911
17355WAT      O54166   2.084   7.071   2.989
17355WAT     H154167   2.149   7.016   2.945
17355WAT     H254168   2.126   7.096   3.071
17356WAT      O54169   3.430   8.760   2.665
17356WAT     H154170   3.489   8.728   2.597
17356WAT     H254171   3.456   8.713   2.744
17357WAT      O54172   3.717   8.761   3.320
17357WAT     H154173   3.667   8.801   3.248
17357WAT     H254174   3.656   8.698   3.359
17358WAT      O54175   3.485   8.825   3.047
17358WAT     H154176   3.439   8.900   3.010
17358WAT     H254177   3.422   8.753   3.042
17359WAT      O54178   2.058   7.150   2.358
17359WAT     H154179   2.134   7.161   2.300
17359WAT     H254180   2.012   7.233   2.353
17360WAT      O54181   2.295   7.202   2.212
17360WAT     H154182   2.348   7.123   2.199
17360WAT     H254183   2.359   7.270   2.235
17361WAT      O54184   2.809   8.837   3.784
17361WAT     H154185   2.901   8.814   3.789
17361WAT     H254186   2.807   8.920   3.736
17362WAT      O54187   3.632   8.792   2.484
17362WAT     H154188   3.650   8.723   2.420
17362WAT     H254189   3.562   8.844   2.445
17363WAT      O54190   2.416   8.831   2.239
17363WAT     H154191   2.489   8.802   2.185
17363WAT     H254192   2.442   8.807   2.328
17364WAT      O54193   3.465   8.760   3.767
17364WAT     H154194   3.545   8.710   3.746
17364WAT     H254195   3.495   8.828   3.827
17365WAT      O54196   3.078   7.847   0.855
17365WAT     H154197   3.070   7.756   0.828
17365WAT     H254198   3.037   7.897   0.784
17366WAT      O54199   2.891   8.025   1.043
17366WAT     H154200   2.814   7.977   1.072
17366WAT     H254201   2.956   7.957   1.026
17367WAT      O54202   2.293   8.056   1.131
17367WAT     H154203   2.210   8.031   1.171
17367WAT     H254204   2.354   8.063   1.204
17368WAT      O54205   3.293   8.466   0.921
17368WAT     H154206   3.247   8.388   0.954
17368WAT     H254207   3.374   8.468   0.972
17369WAT      O54208   2.291   8.460   1.150
17369WAT     H154209   2.321   8.371   1.132
17369WAT     H254210   2.365   8.515   1.128
17370WAT      O54211   2.134   7.552   0.509
17370WAT     H154212   2.045   7.586   0.499
17370WAT     H254213   2.162   7.532   0.420
17371WAT      O54214   1.930   7.812   1.098
17371WAT     H154215   1.987   7.735   1.098
17371WAT     H254216   1.930   7.842   1.007
17372WAT      O54217   2.916   8.694   0.883
17372WAT     H154218   2.854   8.740   0.826
17372WAT     H254219   3.001   8.710   0.843
17373WAT      O54220   2.835   8.293   1.044
17373WAT     H154221   2.828   8.198   1.028
17373WAT     H254222   2.911   8.302   1.101
17374WAT      O54223   2.054   7.353   1.276
17374WAT     H154224   2.036   7.263   1.304
17374WAT     H254225   2.014   7.408   1.344
17375WAT      O54226   2.938   7.573   1.066
17375WAT     H154227   2.976   7.486   1.055
17375WAT     H254228   2.928   7.607   0.977
17376WAT      O54229   2.351   7.411   0.613
17376WAT     H154230   2.362   7.501   0.643
17376WAT     H254231   2.260   7.406   0.584
17377WAT      O54232   3.316   7.323   0.760
17377WAT     H154233   3.399   7.274   0.764
17377WAT     H254234   3.320   7.382   0.835
17378WAT      O54235   2.116   7.603   1.137
17378WAT     H154236   2.184   7.629   1.199
17378WAT     H254237   2.085   7.519   1.170
17379WAT      O54238   2.535   7.707   1.046
17379WAT     H154239   2.586   7.757   1.110
17379WAT     H254240   2.589   7.630   1.028
17380WAT      O54241   2.364   7.171   1.472
17380WAT     H154242   2.364   7.223   1.392
17380WAT     H254243   2.281   7.124   1.470
17381WAT      O54244   3.002   8.183   0.622
17381WAT     H154245   2.941   8.229   0.566
17381WAT     H254246   3.054   8.252   0.664
17382WAT      O54247   2.489   8.135   1.290
17382WAT     H154248   2.455   8.198   1.354
17382WAT     H254249   2.506   8.188   1.212
17383WAT      O54250   3.340   7.517   1.037
17383WAT     H154251   3.270   7.546   1.095
17383WAT     H254252   3.376   7.598   1.001
17384WAT      O54253   2.332   7.342   1.273
17384WAT     H154254   2.366   7.427   1.244
17384WAT     H254255   2.238   7.357   1.285
17385WAT      O54256   2.410   8.332   1.472
17385WAT     H154257   2.472   8.400   1.444
17385WAT     H254258   2.324   8.373   1.463
17386WAT      O54259   1.939   8.251   0.360
17386WAT     H154260   1.902   8.300   0.287
17386WAT     H254261   1.965   8.318   0.423
17387WAT      O54262   3.502   8.479   1.263
17387WAT     H154263   3.433   8.546   1.262
17387WAT     H254264   3.556   8.498   1.187
17388WAT      O54265   3.647   7.461   1.076
17388WAT     H154266   3.552   7.465   1.089
17388WAT     H254267   3.679   7.543   1.115
17389WAT      O54268   2.700   7.091   0.906
17389WAT     H154269   2.731   7.036   0.834
17389WAT     H254270   2.607   7.105   0.887
17390WAT      O54271   3.255   8.663   1.135
17390WAT     H154272   3.257   8.623   1.048
17390WAT     H254273   3.200   8.740   1.124
17391WAT      O54274   3.385   8.335   0.644
17391WAT     H154275   3.374   8.241   0.656
17391WAT     H254276   3.384   8.371   0.732
17392WAT      O54277   3.195   8.153   1.267
17392WAT     H154278   3.237   8.132   1.184
17392WAT     H254279   3.268   8.179   1.325
17393WAT      O54280   2.939   7.898   0.579
17393WAT     H154281   2.846   7.891   0.602
17393WAT     H254282   2.954   7.992   0.568
17394WAT      O54283   2.938   7.525   0.279
17394WAT     H154284   2.844   7.541   0.287
17394WAT     H254285   2.970   7.597   0.224
17395WAT      O54286   3.590   7.993   1.277
17395WAT     H154287   3.507   8.000   1.229
17395WAT     H254288   3.649   8.052   1.230
17396WAT      O54289   3.342   8.054   0.630
17396WAT     H154290   3.280   8.020   0.565
17396WAT     H254291   3.340   7.990   0.700
17397WAT      O54292   3.286   7.672   1.371
17397WAT     H154293   3.245   7.754   1.397
17397WAT     H254294   3.213   7.613   1.352
17398WAT      O54295   2.500   7.950   0.857
17398WAT     H154296   2.459   7.879   0.808
17398WAT     H254297   2.508   7.916   0.946
17399WAT      O54298   2.546   8.319   1.074
17399WAT     H154299   2.517   8.259   1.006
17399WAT     H254300   2.641   8.323   1.063
17400WAT      O54301   2.371   7.628   1.235
17400WAT     H154302   2.426   7.639   1.158
17400WAT     H254303   2.422   7.665   1.307
17401WAT      O54304   3.355   8.676   1.440
17401WAT     H154305   3.308   8.757   1.421
17401WAT     H254306   3.287   8.611   1.455
17402WAT      O54307   2.456   8.293   1.739
17402WAT     H154308   2.366   8.315   1.764
17402WAT     H254309   2.458   8.305   1.644
17403WAT      O54310   3.160   7.978   0.330
17403WAT     H154311   3.204   7.894   0.316
17403WAT     H254312   3.231   8.041   0.339
17404WAT      O54313   2.338   7.980   1.596
17404WAT     H154314   2.324   8.067   1.633
17404WAT     H254315   2.250   7.946   1.582
17405WAT      O54316   2.971   8.472   0.727
17405WAT     H154317   3.015   8.546   0.686
17405WAT     H254318   2.964   8.496   0.819
17406WAT      O54319   2.518   8.574   1.817
17406WAT     H154320   2.515   8.615   1.731
17406WAT     H254321   2.502   8.481   1.801
17407WAT      O54322   2.170   7.840   0.607
17407WAT     H154323   2.158   7.913   0.546
17407WAT     H254324   2.139   7.763   0.560
17408WAT      O54325   3.713   8.653   1.947
17408WAT     H154326   3.761   8.700   2.015
17408WAT     H254327   3.775   8.646   1.874
17409WAT      O54328   1.933   8.157   1.188
17409WAT     H154329   1.941   8.171   1.094
17409WAT     H254330   1.995   8.086   1.207
17410WAT      O54331   2.058   8.327   0.829
17410WAT     H154332   2.017   8.341   0.744
17410WAT     H254333   2.147   8.299   0.809
17411WAT      O54334   3.654   8.372   1.663
17411WAT     H154335   3.666   8.348   1.571
17411WAT     H254336   3.658   8.289   1.710
17412WAT      O54337   3.040   8.742   1.520
17412WAT     H154338   3.091   8.733   1.600
17412WAT     H254339   2.955   8.777   1.549
17413WAT      O54340   3.237   8.771   0.463
17413WAT     H154341   3.221   8.742   0.553
17413WAT     H254342   3.221   8.693   0.409
17414WAT      O54343   2.485   8.748   0.640
17414WAT     H154344   2.468   8.657   0.619
17414WAT     H254345   2.400   8.784   0.664
17415WAT      O54346   3.208   8.521   0.319
17415WAT     H154347   3.138   8.521   0.253
17415WAT     H254348   3.282   8.479   0.276
17416WAT      O54349   3.164   8.684   0.726
17416WAT     H154350   3.210   8.606   0.758
17416WAT     H254351   3.198   8.755   0.781
17417WAT      O54352   1.939   8.261   1.442
17417WAT     H154353   1.955   8.214   1.360
17417WAT     H254354   1.986   8.210   1.509
17418WAT      O54355   2.416   7.174   0.946
17418WAT     H154356   2.372   7.252   0.913
17418WAT     H254357   2.472   7.207   1.016
17419WAT      O54358   2.845   7.461   1.506
17419WAT     H154359   2.799   7.482   1.587
17419WAT     H254360   2.805   7.380   1.476
17420WAT      O54361   3.345   7.583   1.619
17420WAT     H154362   3.260   7.553   1.651
17420WAT     H254363   3.329   7.607   1.528
17421WAT      O54364   3.054   7.733   1.829
17421WAT     H154365   3.087   7.650   1.795
17421WAT     H254366   3.133   7.785   1.844
17422WAT      O54367   2.728   7.136   0.434
17422WAT     H154368   2.665   7.136   0.506
17422WAT     H254369   2.719   7.050   0.394
17423WAT      O54370   2.620   7.229   1.132
17423WAT     H154371   2.650   7.319   1.124
17423WAT     H254372   2.675   7.180   1.070
17424WAT      O54373   2.395   7.687   0.719
17424WAT     H154374   2.373   7.665   0.809
17424WAT     H254375   2.317   7.730   0.684
17425WAT      O54376   3.118   7.687   0.578
17425WAT     H154377   3.058   7.760   0.560
17425WAT     H254378   3.173   7.681   0.500
17426WAT      O54379   2.639   7.776   1.785
17426WAT     H154380   2.630   7.682   1.770
17426WAT     H254381   2.724   7.799   1.746
17427WAT      O54382   2.979   7.551   0.781
17427WAT     H154383   3.018   7.583   0.700
17427WAT     H254384   3.015   7.463   0.793
17428WAT      O54385   2.152   7.418   1.600
17428WAT     H154386   2.113   7.502   1.621
17428WAT     H254387   2.084   7.354   1.620
17429WAT      O54388   2.810   7.426   1.907
17429WAT     H154389   2.741   7.407   1.971
17429WAT     H254390   2.884   7.454   1.961
17430WAT      O54391   1.883   7.210   1.004
17430WAT     H154392   1.854   7.267   1.075
17430WAT     H254393   1.957   7.162   1.040
17431WAT      O54394   3.038   7.810   1.191
17431WAT     H154395   2.964   7.861   1.226
17431WAT     H254396   2.998   7.728   1.161
17432WAT      O54397   2.681   7.477   1.031
17432WAT     H154398   2.682   7.433   0.947
17432WAT     H254399   2.771   7.510   1.042
17433WAT      O54400   2.266   7.466   0.927
17433WAT     H154401   2.232   7.513   1.003
17433WAT     H254402   2.190   7.420   0.891
17434WAT      O54403   2.688   7.578   0.331
17434WAT     H154404   2.700   7.573   0.425
17434WAT     H254405   2.649   7.664   0.315
17435WAT      O54406   3.084   7.355   1.132
17435WAT     H154407   3.086   7.400   1.217
17435WAT     H254408   3.059   7.265   1.154
17436WAT      O54409   2.589   7.809   0.270
17436WAT     H154410   2.532   7.764   0.208
17436WAT     H254411   2.660   7.844   0.217
17437WAT      O54412   2.096   8.199   1.658
17437WAT     H154413   2.058   8.135   1.718
17437WAT     H254414   2.128   8.269   1.715
17438WAT      O54415   2.711   7.883   1.206
17438WAT     H154416   2.748   7.836   1.281
17438WAT     H254417   2.692   7.971   1.240
17439WAT      O54418   1.998   7.358   0.819
17439WAT     H154419   1.969   7.321   0.903
17439WAT     H254420   1.992   7.285   0.758
17440WAT      O54421   2.490   7.788   1.438
17440WAT     H154422   2.460   7.875   1.460
17440WAT     H254423   2.586   7.794   1.442
17441WAT      O54424   2.343   8.208   0.498
17441WAT     H154425   2.266   8.154   0.482
17441WAT     H254426   2.416   8.156   0.464
17442WAT      O54427   3.419   8.108   1.077
17442WAT     H154428   3.491   8.157   1.038
17442WAT     H254429   3.399   8.040   1.012
17443WAT      O54430   2.965   7.247   0.491
17443WAT     H154431   2.884   7.197   0.484
17443WAT     H254432   2.946   7.331   0.450
17444WAT      O54433   2.957   8.115   1.666
17444WAT     H154434   2.951   8.023   1.640
17444WAT     H254435   2.894   8.125   1.737
17445WAT      O54436   3.237   7.684   0.321
17445WAT     H154437   3.325   7.716   0.303
17445WAT     H254438   3.234   7.597   0.282
17446WAT      O54439   2.348   8.175   0.861
17446WAT     H154440   2.399   8.095   0.856
17446WAT     H254441   2.302   8.169   0.946
17447WAT      O54442   2.836   8.302   0.389
17447WAT     H154443   2.870   8.376   0.339
17447WAT     H254444   2.753   8.333   0.425
17448WAT      O54445   2.096   7.872   1.553
17448WAT     H154446   2.060   7.938   1.611
17448WAT     H254447   2.067   7.788   1.590
17449WAT      O54448   2.416   7.917   1.841
17449WAT     H154449   2.386   7.932   1.751
17449WAT     H254450   2.493   7.861   1.832
17450WAT      O54451   2.950   8.397   1.641
17450WAT     H154452   2.952   8.304   1.619
17450WAT     H254453   2.880   8.406   1.705
17451WAT      O54454   3.464   7.816   0.268
17451WAT     H154455   3.455   7.859   0.183
17451WAT     H254456   3.536   7.861   0.311
17452WAT      O54457   3.572   8.061   1.575
17452WAT     H154458   3.499   8.120   1.556
17452WAT     H254459   3.624   8.060   1.495
17453WAT      O54460   3.567   8.501   0.540
17453WAT     H154461   3.502   8.435   0.568
17453WAT     H254462   3.528   8.541   0.463
17454WAT      O54463   3.125   8.234   0.925
17454WAT     H154464   3.160   8.174   0.859
17454WAT     H254465   3.036   8.201   0.942
17455WAT      O54466   2.733   8.310   0.666
17455WAT     H154467   2.802   8.364   0.704
17455WAT     H254468   2.655   8.364   0.669
17456WAT      O54469   1.947   7.871   0.215
17456WAT     H154470   2.034   7.900   0.243
17456WAT     H254471   1.898   7.953   0.204
17457WAT      O54472   2.663   8.010   0.627
17457WAT     H154473   2.709   8.091   0.650
17457WAT     H254474   2.628   7.978   0.710
17458WAT      O54475   2.894   8.561   1.350
17458WAT     H154476   2.958   8.582   1.418
17458WAT     H254477   2.930   8.485   1.305
17459WAT      O54478   2.254   7.045   0.674
17459WAT     H154479   2.241   7.044   0.769
17459WAT     H254480   2.171   7.078   0.639
17460WAT      O54481   3.021   8.362   1.222
17460WAT     H154482   3.085   8.292   1.233
17460WAT     H254483   3.074   8.440   1.204
17461WAT      O54484   3.198   8.442   1.542
17461WAT     H154485   3.232   8.500   1.610
17461WAT     H254486   3.106   8.428   1.565
17462WAT      O54487   1.984   8.793   0.272
17462WAT     H154488   2.020   8.853   0.206
17462WAT     H254489   1.970   8.847   0.349
17463WAT      O54490   1.954   7.221   1.620
17463WAT     H154491   1.882   7.240   1.681
17463WAT     H254492   1.995   7.143   1.658
17464WAT      O54493   3.364   8.182   0.360
17464WAT     H154494   3.335   8.228   0.439
17464WAT     H254495   3.443   8.136   0.387
17465WAT      O54496   1.982   8.619   1.719
17465WAT     H154497   1.993   8.525   1.705
17465WAT     H254498   1.917   8.646   1.654
17466WAT      O54499   2.781   8.446   1.859
17466WAT     H154500   2.749   8.375   1.914
17466WAT     H254501   2.714   8.514   1.866
17467WAT      O54502   2.586   8.531   0.353
17467WAT     H154503   2.585   8.604   0.292
17467WAT     H254504   2.493   8.506   0.363
17468WAT      O54505   2.146   8.053   0.428
17468WAT     H154506   2.085   8.127   0.429
17468WAT     H254507   2.193   8.062   0.345
17469WAT      O54508   3.103   7.470   1.395
17469WAT     H154509   3.140   7.388   1.428
17469WAT     H254510   3.017   7.476   1.437
17470WAT      O54511   3.440   7.365   0.476
17470WAT     H154512   3.377   7.376   0.405
17470WAT     H254513   3.390   7.387   0.555
17471WAT      O54514   2.636   7.593   0.618
17471WAT     H154515   2.566   7.640   0.662
17471WAT     H254516   2.665   7.527   0.681
17472WAT      O54517   2.799   7.735   1.418
17472WAT     H154518   2.849   7.783   1.484
17472WAT     H254519   2.813   7.643   1.439
17473WAT      O54520   3.040   7.266   0.762
17473WAT     H154521   3.027   7.268   0.667
17473WAT     H254522   3.134   7.270   0.774
17474WAT      O54523   2.748   8.789   0.689
17474WAT     H154524   2.774   8.785   0.597
17474WAT     H254525   2.653   8.777   0.688
17475WAT      O54526   2.457   7.424   0.355
17475WAT     H154527   2.542   7.468   0.349
17475WAT     H254528   2.420   7.455   0.438
17476WAT      O54529   3.349   7.881   0.847
17476WAT     H154530   3.255   7.883   0.864
17476WAT     H254531   3.380   7.802   0.891
17477WAT      O54532   2.216   7.793   0.271
17477WAT     H154533   2.224   7.698   0.282
17477WAT     H254534   2.305   7.826   0.282
17478WAT      O54535   3.549   8.598   1.014
17478WAT     H154536   3.562   8.681   1.061
17478WAT     H254537   3.636   8.577   0.979
17479WAT      O54538   2.296   8.808   0.981
17479WAT     H154539   2.370   8.753   1.009
17479WAT     H254540   2.335   8.894   0.967
17480WAT      O54541   1.985   8.414   0.569
17480WAT     H154542   1.892   8.438   0.568
17480WAT     H254543   2.031   8.497   0.557
17481WAT      O54544   2.197   8.726   1.900
17481WAT     H154545   2.277   8.758   1.942
17481WAT     H254546   2.145   8.690   1.972
17482WAT      O54547   3.080   8.337   1.895
17482WAT     H154548   3.020   8.339   1.821
17482WAT     H254549   3.050   8.264   1.949
17483WAT      O54550   3.223   8.710   1.756
17483WAT     H154551   3.319   8.701   1.751
17483WAT     H254552   3.209   8.776   1.823
17484WAT      O54553   3.513   8.648   0.306
17484WAT     H154554   3.484   8.606   0.225
17484WAT     H254555   3.493   8.740   0.294
17485WAT      O54556   1.969   7.975   1.795
17485WAT     H154557   2.019   7.917   1.852
17485WAT     H254558   1.895   8.003   1.848
17486WAT      O54559   2.674   8.115   1.748
17486WAT     H154560   2.598   8.172   1.740
17486WAT     H254561   2.692   8.086   1.659
17487WAT      O54562   2.983   8.153   0.211
17487WAT     H154563   2.928   8.198   0.275
17487WAT     H254564   3.045   8.103   0.263
17488WAT      O54565   3.388   8.288   1.804
17488WAT     H154566   3.463   8.322   1.753
17488WAT     H254567   3.312   8.305   1.748
17489WAT      O54568   2.172   7.789   1.884
17489WAT     H154569   2.176   7.759   1.975
17489WAT     H254570   2.257   7.829   1.868
17490WAT      O54571   2.550   8.049   0.400
17490WAT     H154572   2.592   8.032   0.484
17490WAT     H254573   2.562   7.968   0.351
17491WAT      O54574   2.366   7.647   1.681
17491WAT     H154575   2.313   7.598   1.618
17491WAT     H254576   2.433   7.690   1.627
17492WAT      O54577   3.256   8.094   1.657
17492WAT     H154578   3.297   8.109   1.742
17492WAT     H254579   3.162   8.106   1.674
17493WAT      O54580   3.303   7.828   1.858
17493WAT     H154581   3.361   7.752   1.849
17493WAT     H254582   3.321   7.881   1.780
17494WAT      O54583   2.415   7.344   1.689
17494WAT     H154584   2.405   7.282   1.616
17494WAT     H254585   2.357   7.416   1.666
17495WAT      O54586   2.691   7.199   1.392
17495WAT     H154587   2.647   7.202   1.308
17495WAT     H254588   2.628   7.159   1.452
17496WAT      O54589   2.732   8.089   1.454
17496WAT     H154590   2.774   8.173   1.437
17496WAT     H254591   2.640   8.103   1.431
17497WAT      O54592   2.966   7.862   1.593
17497WAT     H154593   2.978   7.802   1.667
17497WAT     H254594   3.052   7.866   1.551
17498WAT      O54595   3.200   7.917   1.450
17498WAT     H154596   3.147   7.970   1.390
17498WAT     H254597   3.234   7.981   1.513
17499WAT      O54598   2.517   8.719   1.566
17499WAT     H154599   2.463   8.792   1.534
17499WAT     H254600   2.542   8.672   1.487
17500WAT      O54601   2.642   7.516   1.718
17500WAT     H154602   2.701   7.485   1.787
17500WAT     H254603   2.561   7.469   1.734
17501WAT      O54604   3.124   7.478   1.742
17501WAT     H154605   3.055   7.412   1.735
17501WAT     H254606   3.196   7.433   1.786
17502WAT      O54607   3.187   7.137   0.348
17502WAT     H154608   3.215   7.053   0.383
17502WAT     H254609   3.110   7.161   0.399
17503WAT      O54610   2.803   8.843   1.592
17503WAT     H154611   2.795   8.933   1.622
17503WAT     H254612   2.713   8.811   1.589
17504WAT      O54613   2.858   8.759   0.354
17504WAT     H154614   2.947   8.793   0.356
17504WAT     H254615   2.861   8.687   0.291
17505WAT      O54616   2.222   8.297   0.177
17505WAT     H154617   2.265   8.351   0.242
17505WAT     H254618   2.270   8.214   0.178
17506WAT      O54619   1.943   8.576   0.922
17506WAT     H154620   1.976   8.489   0.899
17506WAT     H254621   1.986   8.596   1.005
17507WAT      O54622   2.403   8.409   0.688
17507WAT     H154623   2.373   8.396   0.778
17507WAT     H254624   2.392   8.323   0.647
17508WAT      O54625   1.992   8.662   1.196
17508WAT     H154626   1.948   8.680   1.279
17508WAT     H254627   2.049   8.738   1.182
17509WAT      O54628   3.556   8.613   1.625
17509WAT     H154629   3.496   8.618   1.550
17509WAT     H254630   3.568   8.519   1.638
17510WAT      O54631   3.625   8.061   0.409
17510WAT     H154632   3.701   8.118   0.419
17510WAT     H254633   3.627   8.004   0.486
17511WAT      O54634   1.975   7.914   0.832
17511WAT     H154635   1.910   7.887   0.767
17511WAT     H254636   2.059   7.903   0.787
17512WAT      O54637   3.726   8.147   0.893
17512WAT     H154638   3.763   8.068   0.852
17512WAT     H254639   3.790   8.216   0.875
17513WAT      O54640   3.424   8.285   1.434
17513WAT     H154641   3.343   8.328   1.461
17513WAT     H254642   3.465   8.346   1.373
17514WAT      O54643   3.270   7.393   0.254
17514WAT     H154644   3.312   7.374   0.170
17514WAT     H254645   3.239   7.308   0.285
17515WAT      O54646   3.620   7.884   0.624
17515WAT     H154647   3.582   7.807   0.580
17515WAT     H254648   3.547   7.922   0.672
17516WAT      O54649   2.079   7.952   1.286
17516WAT     H154650   2.116   7.943   1.374
17516WAT     H254651   2.022   7.876   1.276
17517WAT      O54652   3.559   7.799   1.587
17517WAT     H154653   3.536   7.776   1.497
17517WAT     H254654   3.585   7.891   1.583
17518WAT      O54655   2.034   7.643   1.676
17518WAT     H154656   1.945   7.640   1.710
17518WAT     H254657   2.088   7.663   1.753
17519WAT      O54658   1.897   7.635   0.426
17519WAT     H154659   1.806   7.661   0.409
17519WAT     H254660   1.945   7.662   0.348
17520WAT      O54661   3.547   7.707   0.954
17520WAT     H154662   3.600   7.657   0.891
17520WAT     H254663   3.606   7.720   1.028
17521WAT      O54664   3.565   7.715   1.306
17521WAT     H154665   3.470   7.712   1.317
17521WAT     H254666   3.583   7.806   1.282
17522WAT      O54667   3.496   7.633   0.548
17522WAT     H154668   3.546   7.609   0.626
17522WAT     H254669   3.477   7.549   0.506
17523WAT      O54670   2.084   7.071   1.111
17523WAT     H154671   2.149   7.016   1.067
17523WAT     H254672   2.126   7.096   1.193
17524WAT      O54673   3.639   7.496   0.801
17524WAT     H154674   3.628   7.481   0.895
17524WAT     H254675   3.715   7.443   0.777
17525WAT      O54676   3.474   7.090   1.447
17525WAT     H154677   3.538   7.151   1.483
17525WAT     H254678   3.489   7.094   1.352
17526WAT      O54679   3.736   7.356   0.388
17526WAT     H154680   3.656   7.350   0.441
17526WAT     H254681   3.756   7.450   0.387
17527WAT      O54682   3.430   8.760   0.787
17527WAT     H154683   3.489   8.728   0.719
17527WAT     H254684   3.456   8.713   0.866
17528WAT      O54685   2.060   7.086   1.385
17528WAT     H154686   2.025   7.132   1.462
17528WAT     H254687   2.027   6.997   1.394
17529WAT      O54688   2.220   8.403   1.802
17529WAT     H154689   2.216   8.366   1.890
17529WAT     H254690   2.234   8.497   1.816
17530WAT      O54691   2.590   8.559   1.362
17530WAT     H154692   2.566   8.586   1.273
17530WAT     H254693   2.685   8.576   1.368
17531WAT      O54694   2.811   7.205   1.738
17531WAT     H154695   2.805   7.265   1.813
17531WAT     H254696   2.905   7.195   1.723
17532WAT      O54697   3.075   7.171   1.702
17532WAT     H154698   3.136   7.203   1.635
17532WAT     H254699   3.129   7.123   1.764
17533WAT      O54700   3.717   8.761   1.442
17533WAT     H154701   3.667   8.801   1.370
17533WAT     H254702   3.656   8.698   1.482
17534WAT      O54703   2.127   7.039   1.713
17534WAT     H154704   2.182   7.021   1.637
17534WAT     H254705   2.134   6.960   1.767
17535WAT      O54706   2.204   8.698   1.514
17535WAT     H154707   2.145   8.685   1.588
17535WAT     H254708   2.204   8.614   1.467
17536WAT      O54709   3.149   7.027   1.334
17536WAT     H154710   3.061   7.061   1.314
17536WAT     H254711   3.138   6.980   1.417
17537WAT      O54712   3.240   7.248   1.473
17537WAT     H154713   3.207   7.167   1.435
17537WAT     H254714   3.334   7.244   1.460
17538WAT      O54715   3.485   8.825   1.170
17538WAT     H154716   3.439   8.900   1.133
17538WAT     H254717   3.422   8.753   1.164
17539WAT      O54718   2.167   8.435   1.409
17539WAT     H154719   2.095   8.373   1.402
17539WAT     H254720   2.174   8.474   1.322
17540WAT      O54721   2.528   8.656   1.088
17540WAT     H154722   2.580   8.595   1.035
17540WAT     H254723   2.593   8.706   1.137
17541WAT      O54724   2.802   8.745   1.170
17541WAT     H154725   2.831   8.720   1.083
17541WAT     H254726   2.853   8.690   1.229
17542WAT      O54727   2.924   7.119   1.228
17542WAT     H154728   2.845   7.166   1.256
17542WAT     H254729   2.894   7.029   1.217
17543WAT      O54730   3.379   7.189   1.033
17543WAT     H154731   3.423   7.184   0.948
17543WAT     H254732   3.352   7.281   1.040
17544WAT      O54733   3.565   7.152   0.834
17544WAT     H154734   3.559   7.058   0.819
17544WAT     H254735   3.643   7.163   0.888
17545WAT      O54736   1.996   8.766   0.730
17545WAT     H154737   1.979   8.703   0.800
17545WAT     H254738   1.909   8.787   0.695
17546WAT      O54739   2.058   7.150   0.480
17546WAT     H154740   2.134   7.161   0.423
17546WAT     H254741   2.012   7.233   0.476
17547WAT      O54742   2.712   7.361   0.779
17547WAT     H154743   2.631   7.323   0.745
17547WAT     H254744   2.763   7.285   0.810
17548WAT      O54745   3.162   7.027   0.903
17548WAT     H154746   3.223   7.085   0.951
17548WAT     H254747   3.088   7.084   0.881
17549WAT      O54748   3.477   7.068   0.431
17549WAT     H154749   3.496   7.157   0.457
17549WAT     H254750   3.398   7.044   0.480
17550WAT      O54751   2.156   8.636   0.474
17550WAT     H154752   2.104   8.674   0.404
17550WAT     H254753   2.149   8.698   0.547
17551WAT      O54754   2.295   7.202   0.334
17551WAT     H154755   2.348   7.123   0.321
17551WAT     H254756   2.359   7.270   0.358
17552WAT      O54757   2.515   7.176   0.640
17552WAT     H154758   2.452   7.106   0.656
17552WAT     H254759   2.461   7.252   0.618
17553WAT      O54760   2.809   8.837   1.907
17553WAT     H154761   2.901   8.814   1.911
17553WAT     H254762   2.807   8.920   1.859
17554WAT      O54763   3.632   8.792   0.607
17554WAT     H154764   3.650   8.723   0.542
17554WAT     H254765   3.562   8.844   0.567
17555WAT      O54766   2.527   7.104   1.883
17555WAT     H154767   2.499   7.154   1.807
17555WAT     H254768   2.565   7.024   1.847
17556WAT      O54769   2.416   8.831   0.362
17556WAT     H154770   2.489   8.802   0.307
17556WAT     H254771   2.442   8.807   0.451
17557WAT      O54772   2.332   8.442   0.362
17557WAT     H154773   2.270   8.489   0.417
17557WAT     H254774   2.344   8.358   0.406
17558WAT      O54775   3.465   8.760   1.889
17558WAT     H154776   3.545   8.710   1.869
17558WAT     H254777   3.495   8.828   1.950
17559WAT      O54778   3.078   5.970   6.487
17559WAT     H154779   3.070   5.878   6.460
17559WAT     H254780   3.037   6.019   6.417
17560WAT      O54781   2.891   6.148   6.675
17560WAT     H154782   2.814   6.100   6.704
17560WAT     H254783   2.956   6.080   6.658
17561WAT      O54784   2.293   6.179   6.763
17561WAT     H154785   2.210   6.153   6.803
17561WAT     H254786   2.354   6.186   6.837
17562WAT      O54787   3.293   6.588   6.553
17562WAT     H154788   3.247   6.511   6.586
17562WAT     H254789   3.374   6.591   6.604
17563WAT      O54790   2.291   6.582   6.783
17563WAT     H154791   2.321   6.493   6.765
17563WAT     H254792   2.365   6.638   6.760
17564WAT      O54793   2.134   5.675   6.141
17564WAT     H154794   2.045   5.709   6.131
17564WAT     H254795   2.162   5.655   6.052
17565WAT      O54796   1.930   5.935   6.730
17565WAT     H154797   1.987   5.858   6.730
17565WAT     H254798   1.930   5.965   6.639
17566WAT      O54799   2.916   6.817   6.515
17566WAT     H154800   2.854   6.862   6.458
17566WAT     H254801   3.001   6.832   6.475
17567WAT      O54802   2.835   6.415   6.676
17567WAT     H154803   2.828   6.321   6.660
17567WAT     H254804   2.911   6.424   6.733
17568WAT      O54805   2.054   5.476   6.909
17568WAT     H154806   2.036   5.386   6.937
17568WAT     H254807   2.014   5.530   6.976
17569WAT      O54808   2.938   5.696   6.699
17569WAT     H154809   2.976   5.609   6.687
17569WAT     H254810   2.928   5.729   6.610
17570WAT      O54811   2.351   5.533   6.245
17570WAT     H154812   2.362   5.623   6.276
17570WAT     H254813   2.260   5.528   6.216
17571WAT      O54814   3.316   5.445   6.392
17571WAT     H154815   3.399   5.396   6.396
17571WAT     H254816   3.320   5.504   6.467
17572WAT      O54817   2.116   5.725   6.769
17572WAT     H154818   2.184   5.752   6.831
17572WAT     H254819   2.085   5.641   6.803
17573WAT      O54820   2.535   5.830   6.678
17573WAT     H154821   2.586   5.880   6.742
17573WAT     H254822   2.589   5.752   6.661
17574WAT      O54823   3.745   5.647   7.048
17574WAT     H154824   3.675   5.686   6.997
17574WAT     H254825   3.772   5.717   7.109
17575WAT      O54826   2.364   5.294   7.105
17575WAT     H154827   2.364   5.346   7.024
17575WAT     H254828   2.281   5.246   7.102
17576WAT      O54829   3.002   6.305   6.255
17576WAT     H154830   2.941   6.352   6.198
17576WAT     H254831   3.054   6.374   6.296
17577WAT      O54832   2.489   6.258   6.922
17577WAT     H154833   2.455   6.321   6.987
17577WAT     H254834   2.506   6.311   6.845
17578WAT      O54835   3.340   5.639   6.669
17578WAT     H154836   3.270   5.668   6.727
17578WAT     H254837   3.376   5.720   6.633
17579WAT      O54838   2.332   5.465   6.905
17579WAT     H154839   2.366   5.549   6.876
17579WAT     H254840   2.238   5.480   6.917
17580WAT      O54841   2.410   6.455   7.104
17580WAT     H154842   2.472   6.522   7.076
17580WAT     H254843   2.324   6.496   7.095
17581WAT      O54844   1.939   6.374   5.992
17581WAT     H154845   1.902   6.423   5.919
17581WAT     H254846   1.965   6.441   6.055
17582WAT      O54847   3.502   6.601   6.896
17582WAT     H154848   3.433   6.668   6.895
17582WAT     H254849   3.556   6.621   6.819
17583WAT      O54850   3.647   5.584   6.708
17583WAT     H154851   3.552   5.587   6.721
17583WAT     H254852   3.679   5.665   6.747
17584WAT      O54853   2.700   5.214   6.538
17584WAT     H154854   2.731   5.158   6.466
17584WAT     H254855   2.607   5.227   6.520
17585WAT      O54856   3.255   6.786   6.767
17585WAT     H154857   3.257   6.745   6.680
17585WAT     H254858   3.200   6.863   6.757
17586WAT      O54859   3.385   6.458   6.276
17586WAT     H154860   3.374   6.363   6.288
17586WAT     H254861   3.384   6.494   6.365
17587WAT      O54862   3.195   6.276   6.900
17587WAT     H154863   3.237   6.254   6.816
17587WAT     H254864   3.268   6.302   6.957
17588WAT      O54865   2.939   6.020   6.212
17588WAT     H154866   2.846   6.014   6.234
17588WAT     H254867   2.954   6.114   6.200
17589WAT      O54868   3.590   6.116   6.909
17589WAT     H154869   3.507   6.123   6.861
17589WAT     H254870   3.649   6.174   6.862
17590WAT      O54871   3.342   6.177   6.262
17590WAT     H154872   3.280   6.143   6.197
17590WAT     H254873   3.340   6.112   6.333
17591WAT      O54874   3.286   5.794   7.004
17591WAT     H154875   3.245   5.877   7.029
17591WAT     H254876   3.213   5.736   6.984
17592WAT      O54877   2.500   6.073   6.490
17592WAT     H154878   2.459   6.002   6.440
17592WAT     H254879   2.508   6.039   6.579
17593WAT      O54880   2.546   6.442   6.706
17593WAT     H154881   2.517   6.381   6.638
17593WAT     H254882   2.641   6.445   6.695
17594WAT      O54883   2.371   5.750   6.868
17594WAT     H154884   2.426   5.761   6.790
17594WAT     H254885   2.422   5.788   6.939
17595WAT      O54886   3.355   6.799   7.072
17595WAT     H154887   3.308   6.880   7.053
17595WAT     H254888   3.287   6.734   7.088
17596WAT      O54889   2.456   6.415   7.371
17596WAT     H154890   2.366   6.438   7.396
17596WAT     H254891   2.458   6.428   7.276
17597WAT      O54892   3.160   6.100   5.963
17597WAT     H154893   3.204   6.017   5.948
17597WAT     H254894   3.231   6.164   5.971
17598WAT      O54895   2.338   6.103   7.229
17598WAT     H154896   2.324   6.190   7.266
17598WAT     H254897   2.250   6.068   7.214
17599WAT      O54898   2.971   6.594   6.359
17599WAT     H154899   3.015   6.669   6.318
17599WAT     H254900   2.964   6.619   6.452
17600WAT      O54901   2.518   6.697   7.450
17600WAT     H154902   2.515   6.737   7.363
17600WAT     H254903   2.502   6.604   7.433
17601WAT      O54904   3.518   5.226   5.794
17601WAT     H154905   3.486   5.235   5.884
17601WAT     H254906   3.594   5.284   5.789
17602WAT      O54907   2.170   5.962   6.240
17602WAT     H154908   2.158   6.035   6.179
17602WAT     H254909   2.139   5.885   6.192
17603WAT      O54910   1.933   6.280   6.820
17603WAT     H154911   1.941   6.293   6.726
17603WAT     H254912   1.995   6.209   6.840
17604WAT      O54913   2.058   6.450   6.462
17604WAT     H154914   2.017   6.464   6.376
17604WAT     H254915   2.147   6.421   6.441
17605WAT      O54916   3.654   6.494   7.295
17605WAT     H154917   3.666   6.470   7.203
17605WAT     H254918   3.658   6.411   7.342
17606WAT      O54919   3.040   6.865   7.152
17606WAT     H154920   3.091   6.856   7.232
17606WAT     H254921   2.955   6.899   7.181
17607WAT      O54922   3.237   6.893   6.095
17607WAT     H154923   3.221   6.864   6.185
17607WAT     H254924   3.221   6.815   6.041
17608WAT      O54925   2.485   6.871   6.273
17608WAT     H154926   2.468   6.779   6.251
17608WAT     H254927   2.400   6.907   6.297
17609WAT      O54928   3.208   6.644   5.951
17609WAT     H154929   3.138   6.644   5.885
17609WAT     H254930   3.282   6.602   5.908
17610WAT      O54931   3.164   6.807   6.358
17610WAT     H154932   3.210   6.728   6.390
17610WAT     H254933   3.198   6.878   6.413
17611WAT      O54934   3.639   5.700   7.392
17611WAT     H154935   3.577   5.750   7.339
17611WAT     H254936   3.607   5.610   7.386
17612WAT      O54937   1.939   6.384   7.074
17612WAT     H154938   1.955   6.337   6.993
17612WAT     H254939   1.986   6.333   7.141
17613WAT      O54940   2.416   5.297   6.578
17613WAT     H154941   2.372   5.375   6.545
17613WAT     H254942   2.472   5.329   6.649
17614WAT      O54943   2.845   5.583   7.138
17614WAT     H154944   2.799   5.604   7.220
17614WAT     H254945   2.805   5.502   7.108
17615WAT      O54946   3.345   5.706   7.251
17615WAT     H154947   3.260   5.676   7.283
17615WAT     H254948   3.329   5.730   7.160
17616WAT      O54949   3.054   5.856   7.461
17616WAT     H154950   3.087   5.772   7.427
17616WAT     H254951   3.133   5.908   7.476
17617WAT      O54952   2.620   5.351   6.764
17617WAT     H154953   2.650   5.442   6.756
17617WAT     H254954   2.675   5.302   6.702
17618WAT      O54955   2.395   5.809   6.351
17618WAT     H154956   2.373   5.788   6.441
17618WAT     H254957   2.317   5.852   6.316
17619WAT      O54958   3.118   5.810   6.211
17619WAT     H154959   3.058   5.882   6.192
17619WAT     H254960   3.173   5.804   6.132
17620WAT      O54961   2.639   5.899   7.417
17620WAT     H154962   2.630   5.805   7.402
17620WAT     H254963   2.724   5.921   7.378
17621WAT      O54964   2.979   5.673   6.414
17621WAT     H154965   3.018   5.705   6.332
17621WAT     H254966   3.015   5.586   6.425
17622WAT      O54967   2.152   5.540   7.233
17622WAT     H154968   2.113   5.625   7.253
17622WAT     H254969   2.084   5.476   7.252
17623WAT      O54970   1.883   5.332   6.636
17623WAT     H154971   1.854   5.389   6.707
17623WAT     H254972   1.957   5.284   6.672
17624WAT      O54973   1.901   5.727   5.757
17624WAT     H154974   1.893   5.821   5.771
17624WAT     H254975   1.866   5.712   5.669
17625WAT      O54976   3.038   5.932   6.823
17625WAT     H154977   2.964   5.983   6.858
17625WAT     H254978   2.998   5.851   6.793
17626WAT      O54979   2.681   5.600   6.664
17626WAT     H154980   2.682   5.556   6.579
17626WAT     H254981   2.771   5.632   6.675
17627WAT      O54982   2.266   5.588   6.560
17627WAT     H154983   2.232   5.636   6.635
17627WAT     H254984   2.190   5.543   6.524
17628WAT      O54985   3.084   5.478   6.764
17628WAT     H154986   3.086   5.523   6.849
17628WAT     H254987   3.059   5.388   6.786
17629WAT      O54988   3.427   5.219   7.348
17629WAT     H154989   3.459   5.146   7.401
17629WAT     H254990   3.430   5.187   7.258
17630WAT      O54991   2.096   6.321   7.290
17630WAT     H154992   2.058   6.257   7.350
17630WAT     H254993   2.128   6.392   7.347
17631WAT      O54994   2.711   6.006   6.838
17631WAT     H154995   2.748   5.959   6.913
17631WAT     H254996   2.692   6.093   6.873
17632WAT      O54997   1.998   5.480   6.451
17632WAT     H154998   1.969   5.444   6.535
17632WAT     H254999   1.992   5.407   6.390
17633WAT      O55000   2.490   5.910   7.070
17633WAT     H155001   2.460   5.998   7.093
17633WAT     H255002   2.586   5.916   7.074
17634WAT      O55003   2.343   6.331   6.130
17634WAT     H155004   2.266   6.277   6.114
17634WAT     H255005   2.416   6.279   6.096
17635WAT      O55006   3.419   6.230   6.709
17635WAT     H155007   3.491   6.280   6.670
17635WAT     H255008   3.399   6.163   6.645
17636WAT      O55009   2.957   6.237   7.298
17636WAT     H155010   2.951   6.145   7.272
17636WAT     H255011   2.894   6.247   7.369
17637WAT      O55012   3.237   5.807   5.953
17637WAT     H155013   3.325   5.838   5.936
17637WAT     H255014   3.234   5.720   5.914
17638WAT      O55015   2.348   6.298   6.494
17638WAT     H155016   2.399   6.217   6.488
17638WAT     H255017   2.302   6.291   6.578
17639WAT      O55018   2.836   6.424   6.021
17639WAT     H155019   2.870   6.499   5.971
17639WAT     H255020   2.753   6.455   6.057
17640WAT      O55021   2.096   5.994   7.185
17640WAT     H155022   2.060   6.061   7.244
17640WAT     H255023   2.067   5.911   7.222
17641WAT      O55024   2.416   6.040   7.473
17641WAT     H155025   2.386   6.055   7.384
17641WAT     H255026   2.493   5.984   7.464
17642WAT      O55027   2.950   6.520   7.273
17642WAT     H155028   2.952   6.426   7.251
17642WAT     H255029   2.880   6.528   7.337
17643WAT      O55030   3.464   5.938   5.900
17643WAT     H155031   3.455   5.981   5.815
17643WAT     H255032   3.536   5.984   5.943
17644WAT      O55033   3.572   6.184   7.208
17644WAT     H155034   3.499   6.243   7.188
17644WAT     H255035   3.624   6.183   7.128
17645WAT      O55036   3.567   6.623   6.173
17645WAT     H155037   3.502   6.558   6.200
17645WAT     H255038   3.528   6.664   6.095
17646WAT      O55039   3.125   6.356   6.557
17646WAT     H155040   3.160   6.297   6.491
17646WAT     H255041   3.036   6.324   6.575
17647WAT      O55042   2.733   6.432   6.298
17647WAT     H155043   2.802   6.487   6.336
17647WAT     H255044   2.655   6.487   6.302
17648WAT      O55045   1.947   5.994   5.847
17648WAT     H155046   2.034   6.022   5.876
17648WAT     H255047   1.898   6.075   5.836
17649WAT      O55048   2.663   6.133   6.259
17649WAT     H155049   2.709   6.214   6.282
17649WAT     H255050   2.628   6.101   6.343
17650WAT      O55051   2.894   6.684   6.982
17650WAT     H155052   2.958   6.704   7.050
17650WAT     H255053   2.930   6.608   6.937
17651WAT      O55054   2.254   5.167   6.307
17651WAT     H155055   2.241   5.166   6.402
17651WAT     H255056   2.171   5.201   6.272
17652WAT      O55057   3.021   6.484   6.854
17652WAT     H155058   3.085   6.414   6.865
17652WAT     H255059   3.074   6.562   6.836
17653WAT      O55060   3.406   6.513   5.827
17653WAT     H155061   3.383   6.441   5.886
17653WAT     H255062   3.367   6.488   5.743
17654WAT      O55063   3.198   6.564   7.174
17654WAT     H155064   3.232   6.623   7.242
17654WAT     H255065   3.106   6.551   7.197
17655WAT      O55066   1.984   6.915   5.904
17655WAT     H155067   2.020   6.975   5.839
17655WAT     H255068   1.970   6.970   5.981
17656WAT      O55069   1.954   5.343   7.253
17656WAT     H155070   1.882   5.363   7.313
17656WAT     H255071   1.995   5.265   7.290
17657WAT      O55072   3.364   6.304   5.993
17657WAT     H155073   3.335   6.350   6.071
17657WAT     H255074   3.443   6.258   6.019
17658WAT      O55075   1.982   6.742   7.351
17658WAT     H155076   1.993   6.648   7.337
17658WAT     H255077   1.917   6.768   7.287
17659WAT      O55078   2.586   6.654   5.986
17659WAT     H155079   2.585   6.727   5.924
17659WAT     H255080   2.493   6.629   5.995
17660WAT      O55081   2.146   6.176   6.060
17660WAT     H155082   2.085   6.250   6.061
17660WAT     H255083   2.193   6.185   5.978
17661WAT      O55084   3.103   5.592   7.028
17661WAT     H155085   3.140   5.510   7.061
17661WAT     H255086   3.017   5.598   7.069
17662WAT      O55087   3.440   5.488   6.109
17662WAT     H155088   3.377   5.498   6.037
17662WAT     H255089   3.390   5.510   6.188
17663WAT      O55090   2.884   6.660   5.852
17663WAT     H155091   2.894   6.640   5.759
17663WAT     H255092   2.794   6.634   5.872
17664WAT      O55093   2.636   5.716   6.250
17664WAT     H155094   2.566   5.763   6.294
17664WAT     H255095   2.665   5.650   6.314
17665WAT      O55096   2.799   5.858   7.050
17665WAT     H155097   2.849   5.905   7.117
17665WAT     H255098   2.813   5.765   7.071
17666WAT      O55099   2.748   6.912   6.321
17666WAT     H155100   2.774   6.908   6.229
17666WAT     H255101   2.653   6.899   6.321
17667WAT      O55102   3.520   5.479   7.134
17667WAT     H155103   3.469   5.553   7.168
17667WAT     H255104   3.601   5.518   7.103
17668WAT      O55105   3.349   6.004   6.479
17668WAT     H155106   3.255   6.005   6.496
17668WAT     H255107   3.380   5.925   6.524
17669WAT      O55108   2.216   5.915   5.903
17669WAT     H155109   2.224   5.820   5.915
17669WAT     H255110   2.305   5.948   5.914
17670WAT      O55111   3.549   6.721   6.647
17670WAT     H155112   3.562   6.803   6.694
17670WAT     H255113   3.636   6.700   6.612
17671WAT      O55114   2.296   6.930   6.614
17671WAT     H155115   2.370   6.875   6.641
17671WAT     H255116   2.335   7.017   6.600
17672WAT      O55117   1.985   6.537   6.201
17672WAT     H155118   1.892   6.561   6.200
17672WAT     H255119   2.031   6.620   6.189
17673WAT      O55120   2.607   6.847   5.796
17673WAT     H155121   2.687   6.876   5.751
17673WAT     H255122   2.555   6.804   5.728
17674WAT      O55123   3.223   6.832   7.388
17674WAT     H155124   3.319   6.824   7.383
17674WAT     H255125   3.209   6.899   7.456
17675WAT      O55126   3.513   6.770   5.938
17675WAT     H155127   3.484   6.729   5.857
17675WAT     H255128   3.493   6.863   5.926
17676WAT      O55129   1.969   6.097   7.427
17676WAT     H155130   2.019   6.039   7.484
17676WAT     H255131   1.895   6.126   7.481
17677WAT      O55132   2.674   6.238   7.380
17677WAT     H155133   2.598   6.295   7.372
17677WAT     H255134   2.692   6.209   7.291
17678WAT      O55135   2.983   6.276   5.843
17678WAT     H155136   2.928   6.320   5.907
17678WAT     H255137   3.045   6.225   5.895
17679WAT      O55138   3.388   6.411   7.436
17679WAT     H155139   3.463   6.445   7.386
17679WAT     H255140   3.312   6.428   7.381
17680WAT      O55141   2.550   6.172   6.032
17680WAT     H155142   2.592   6.155   6.117
17680WAT     H255143   2.562   6.091   5.983
17681WAT      O55144   2.366   5.770   7.313
17681WAT     H155145   2.313   5.720   7.250
17681WAT     H255146   2.433   5.812   7.260
17682WAT      O55147   3.256   6.216   7.290
17682WAT     H155148   3.297   6.232   7.375
17682WAT     H255149   3.162   6.229   7.306
17683WAT      O55150   3.303   5.950   7.490
17683WAT     H155151   3.361   5.875   7.481
17683WAT     H255152   3.321   6.003   7.412
17684WAT      O55153   2.415   5.466   7.321
17684WAT     H155154   2.405   5.404   7.249
17684WAT     H255155   2.357   5.539   7.298
17685WAT      O55156   2.691   5.322   7.024
17685WAT     H155157   2.647   5.324   6.940
17685WAT     H255158   2.628   5.282   7.084
17686WAT      O55159   2.732   6.211   7.087
17686WAT     H155160   2.774   6.296   7.069
17686WAT     H255161   2.640   6.225   7.064
17687WAT      O55162   2.966   5.985   7.225
17687WAT     H155163   2.978   5.925   7.299
17687WAT     H255164   3.052   5.988   7.183
17688WAT      O55165   3.200   6.040   7.083
17688WAT     H155166   3.147   6.092   7.022
17688WAT     H255167   3.234   6.103   7.146
17689WAT      O55168   2.517   6.842   7.198
17689WAT     H155169   2.463   6.914   7.166
17689WAT     H255170   2.542   6.794   7.119
17690WAT      O55171   2.642   5.639   7.351
17690WAT     H155172   2.701   5.608   7.419
17690WAT     H255173   2.561   5.592   7.366
17691WAT      O55174   3.124   5.600   7.374
17691WAT     H155175   3.055   5.534   7.368
17691WAT     H255176   3.196   5.556   7.419
17692WAT      O55177   2.803   6.965   7.224
17692WAT     H155178   2.795   7.056   7.255
17692WAT     H255179   2.713   6.934   7.221
17693WAT      O55180   2.858   6.882   5.986
17693WAT     H155181   2.947   6.916   5.988
17693WAT     H255182   2.861   6.810   5.924
17694WAT      O55183   1.943   6.698   6.554
17694WAT     H155184   1.976   6.611   6.531
17694WAT     H255185   1.986   6.719   6.637
17695WAT      O55186   2.403   6.531   6.320
17695WAT     H155187   2.373   6.519   6.410
17695WAT     H255188   2.392   6.445   6.280
17696WAT      O55189   1.992   6.785   6.828
17696WAT     H155190   1.948   6.803   6.911
17696WAT     H255191   2.049   6.861   6.814
17697WAT      O55192   3.556   6.735   7.257
17697WAT     H155193   3.496   6.741   7.183
17697WAT     H255194   3.568   6.641   7.270
17698WAT      O55195   3.680   6.509   5.791
17698WAT     H155196   3.596   6.516   5.838
17698WAT     H255197   3.697   6.598   5.760
17699WAT      O55198   3.625   6.184   6.041
17699WAT     H155199   3.701   6.241   6.052
17699WAT     H255200   3.627   6.127   6.118
17700WAT      O55201   1.975   6.036   6.464
17700WAT     H155202   1.910   6.009   6.400
17700WAT     H255203   2.059   6.025   6.419
17701WAT      O55204   3.726   6.269   6.525
17701WAT     H155205   3.763   6.191   6.485
17701WAT     H255206   3.790   6.338   6.508
17702WAT      O55207   3.424   6.408   7.067
17702WAT     H155208   3.343   6.451   7.093
17702WAT     H255209   3.465   6.469   7.005
17703WAT      O55210   3.630   6.213   5.757
17703WAT     H155211   3.658   6.304   5.744
17703WAT     H255212   3.611   6.207   5.850
17704WAT      O55213   3.270   5.516   5.886
17704WAT     H155214   3.312   5.497   5.802
17704WAT     H255215   3.239   5.430   5.917
17705WAT      O55216   3.620   6.007   6.256
17705WAT     H155217   3.582   5.930   6.213
17705WAT     H255218   3.547   6.045   6.305
17706WAT      O55219   2.079   6.075   6.918
17706WAT     H155220   2.116   6.066   7.006
17706WAT     H255221   2.022   5.998   6.908
17707WAT      O55222   3.559   5.921   7.219
17707WAT     H155223   3.536   5.899   7.129
17707WAT     H255224   3.585   6.013   7.215
17708WAT      O55225   2.034   5.766   7.309
17708WAT     H155226   1.945   5.762   7.343
17708WAT     H255227   2.088   5.786   7.385
17709WAT      O55228   1.897   5.757   6.058
17709WAT     H155229   1.806   5.783   6.041
17709WAT     H255230   1.945   5.784   5.980
17710WAT      O55231   3.547   5.829   6.586
17710WAT     H155232   3.600   5.780   6.523
17710WAT     H255233   3.606   5.843   6.661
17711WAT      O55234   3.565   5.838   6.938
17711WAT     H155235   3.470   5.834   6.950
17711WAT     H255236   3.583   5.929   6.915
17712WAT      O55237   2.151   5.663   5.849
17712WAT     H155238   2.222   5.621   5.801
17712WAT     H255239   2.079   5.670   5.786
17713WAT      O55240   2.116   5.268   5.753
17713WAT     H155241   2.188   5.322   5.785
17713WAT     H255242   2.143   5.241   5.666
17714WAT      O55243   3.496   5.755   6.180
17714WAT     H155244   3.546   5.732   6.258
17714WAT     H255245   3.477   5.671   6.138
17715WAT      O55246   2.084   5.193   6.743
17715WAT     H155247   2.149   5.138   6.699
17715WAT     H255248   2.126   5.219   6.826
17716WAT      O55249   3.639   5.619   6.433
17716WAT     H155250   3.628   5.603   6.527
17716WAT     H255251   3.715   5.566   6.409
17717WAT      O55252   3.474   5.213   7.079
17717WAT     H155253   3.538   5.274   7.116
17717WAT     H255254   3.489   5.216   6.985
17718WAT      O55255   3.728   5.402   5.757
17718WAT     H155256   3.821   5.389   5.737
17718WAT     H255257   3.726   5.410   5.853
17719WAT      O55258   3.736   5.479   6.020
17719WAT     H155259   3.656   5.472   6.073
17719WAT     H255260   3.756   5.572   6.019
17720WAT      O55261   3.430   6.883   6.419
17720WAT     H155262   3.489   6.851   6.352
17720WAT     H255263   3.456   6.835   6.499
17721WAT      O55264   2.060   5.209   7.018
17721WAT     H155265   2.025   5.254   7.094
17721WAT     H255266   2.027   5.119   7.026
17722WAT      O55267   2.590   6.682   6.994
17722WAT     H155268   2.566   6.708   6.906
17722WAT     H255269   2.685   6.699   7.000
17723WAT      O55270   2.811   5.328   7.370
17723WAT     H155271   2.805   5.387   7.445
17723WAT     H255272   2.905   5.317   7.355
17724WAT      O55273   3.075   5.294   7.334
17724WAT     H155274   3.136   5.325   7.268
17724WAT     H255275   3.129   5.245   7.396
17725WAT      O55276   3.717   6.883   7.074
17725WAT     H155277   3.667   6.923   7.003
17725WAT     H255278   3.656   6.821   7.114
17726WAT      O55279   2.127   5.162   7.345
17726WAT     H155280   2.182   5.143   7.269
17726WAT     H255281   2.134   5.082   7.399
17727WAT      O55282   2.204   6.821   7.146
17727WAT     H155283   2.145   6.807   7.220
17727WAT     H255284   2.204   6.737   7.100
17728WAT      O55285   3.149   5.150   6.967
17728WAT     H155286   3.061   5.183   6.946
17728WAT     H255287   3.138   5.103   7.049
17729WAT      O55288   3.240   5.371   7.105
17729WAT     H155289   3.207   5.289   7.067
17729WAT     H255290   3.334   5.366   7.093
17730WAT      O55291   3.485   6.948   6.802
17730WAT     H155292   3.439   7.023   6.765
17730WAT     H255293   3.422   6.876   6.796
17731WAT      O55294   2.167   6.557   7.041
17731WAT     H155295   2.095   6.495   7.035
17731WAT     H255296   2.174   6.597   6.954
17732WAT      O55297   2.528   6.779   6.720
17732WAT     H155298   2.580   6.717   6.667
17732WAT     H255299   2.593   6.829   6.769
17733WAT      O55300   2.802   6.868   6.803
17733WAT     H155301   2.831   6.842   6.715
17733WAT     H255302   2.853   6.812   6.862
17734WAT      O55303   2.924   5.242   6.860
17734WAT     H155304   2.845   5.289   6.888
17734WAT     H255305   2.894   5.151   6.850
17735WAT      O55306   3.379   5.312   6.665
17735WAT     H155307   3.423   5.306   6.580
17735WAT     H255308   3.352   5.403   6.672
17736WAT      O55309   3.565   5.275   6.466
17736WAT     H155310   3.559   5.181   6.451
17736WAT     H255311   3.643   5.286   6.521
17737WAT      O55312   1.996   6.889   6.362
17737WAT     H155313   1.979   6.826   6.432
17737WAT     H255314   1.909   6.910   6.327
17738WAT      O55315   2.058   5.272   6.113
17738WAT     H155316   2.134   5.283   6.055
17738WAT     H255317   2.012   5.356   6.108
17739WAT      O55318   2.712   5.483   6.412
17739WAT     H155319   2.631   5.446   6.378
17739WAT     H255320   2.763   5.408   6.442
17740WAT      O55321   3.162   5.150   6.535
17740WAT     H155322   3.223   5.207   6.583
17740WAT     H255323   3.088   5.206   6.513
17741WAT      O55324   3.477   5.190   6.063
17741WAT     H155325   3.496   5.280   6.090
17741WAT     H255326   3.398   5.167   6.112
17742WAT      O55327   2.156   6.758   6.107
17742WAT     H155328   2.104   6.796   6.036
17742WAT     H255329   2.149   6.821   6.179
17743WAT      O55330   2.515   5.298   6.272
17743WAT     H155331   2.452   5.228   6.289
17743WAT     H255332   2.461   5.375   6.250
17744WAT      O55333   3.632   6.914   6.239
17744WAT     H155334   3.650   6.845   6.175
17744WAT     H255335   3.562   6.967   6.200
17745WAT      O55336   2.416   6.953   5.994
17745WAT     H155337   2.489   6.925   5.940
17745WAT     H255338   2.442   6.929   6.083
17746WAT      O55339   2.332   6.565   5.995
17746WAT     H155340   2.270   6.612   6.050
17746WAT     H255341   2.344   6.480   6.038
17747WAT      O55342   3.293   6.588   4.676
17747WAT     H155343   3.247   6.511   4.709
17747WAT     H255344   3.374   6.591   4.726
17748WAT      O55345   2.835   6.415   4.799
17748WAT     H155346   2.828   6.321   4.782
17748WAT     H255347   2.911   6.424   4.856
17749WAT      O55348   3.745   5.647   5.171
17749WAT     H155349   3.675   5.686   5.119
17749WAT     H255350   3.772   5.717   5.231
17750WAT      O55351   1.939   6.374   4.115
17750WAT     H155352   1.902   6.423   4.041
17750WAT     H255353   1.965   6.441   4.178
17751WAT      O55354   3.502   6.601   5.018
17751WAT     H155355   3.433   6.668   5.017
17751WAT     H255356   3.556   6.621   4.942
17752WAT      O55357   3.255   6.786   4.890
17752WAT     H155358   3.257   6.745   4.803
17752WAT     H255359   3.200   6.863   4.879
17753WAT      O55360   3.195   6.276   5.022
17753WAT     H155361   3.237   6.254   4.939
17753WAT     H255362   3.268   6.302   5.079
17754WAT      O55363   3.590   6.116   5.032
17754WAT     H155364   3.507   6.123   4.984
17754WAT     H255365   3.649   6.174   4.985
17755WAT      O55366   2.500   6.073   4.612
17755WAT     H155367   2.459   6.002   4.563
17755WAT     H255368   2.508   6.039   4.701
17756WAT      O55369   3.355   6.799   5.195
17756WAT     H155370   3.308   6.880   5.176
17756WAT     H255371   3.287   6.734   5.210
17757WAT      O55372   3.518   5.226   3.917
17757WAT     H155373   3.486   5.235   4.007
17757WAT     H255374   3.594   5.284   3.912
17758WAT      O55375   3.713   6.775   5.702
17758WAT     H155376   3.761   6.823   5.770
17758WAT     H255377   3.775   6.768   5.629
17759WAT      O55378   2.058   6.450   4.584
17759WAT     H155379   2.017   6.464   4.499
17759WAT     H255380   2.147   6.421   4.564
17760WAT      O55381   3.654   6.494   5.418
17760WAT     H155382   3.666   6.470   5.326
17760WAT     H255383   3.658   6.411   5.465
17761WAT      O55384   3.040   6.865   5.275
17761WAT     H155385   3.091   6.856   5.355
17761WAT     H255386   2.955   6.899   5.304
17762WAT      O55387   3.639   5.700   5.514
17762WAT     H155388   3.577   5.750   5.461
17762WAT     H255389   3.607   5.610   5.509
17763WAT      O55390   1.939   6.384   5.197
17763WAT     H155391   1.955   6.337   5.115
17763WAT     H255392   1.986   6.333   5.263
17764WAT      O55393   1.901   5.727   3.880
17764WAT     H155394   1.893   5.821   3.894
17764WAT     H255395   1.866   5.712   3.792
17765WAT      O55396   3.419   6.230   4.832
17765WAT     H155397   3.491   6.280   4.793
17765WAT     H255398   3.399   6.163   4.767
17766WAT      O55399   2.348   6.298   4.616
17766WAT     H155400   2.399   6.217   4.611
17766WAT     H255401   2.302   6.291   4.700
17767WAT      O55402   2.950   6.520   5.396
17767WAT     H155403   2.952   6.426   5.374
17767WAT     H255404   2.880   6.528   5.459
17768WAT      O55405   3.572   6.184   5.330
17768WAT     H155406   3.499   6.243   5.310
17768WAT     H255407   3.624   6.183   5.250
17769WAT      O55408   1.947   5.994   3.970
17769WAT     H155409   2.034   6.022   3.998
17769WAT     H255410   1.898   6.075   3.958
17770WAT      O55411   2.894   6.684   5.105
17770WAT     H155412   2.958   6.704   5.173
17770WAT     H255413   2.930   6.608   5.060
17771WAT      O55414   3.021   6.484   4.977
17771WAT     H155415   3.085   6.414   4.988
17771WAT     H255416   3.074   6.562   4.959
17772WAT      O55417   3.198   6.564   5.297
17772WAT     H155418   3.232   6.623   5.365
17772WAT     H255419   3.106   6.551   5.320
17773WAT      O55420   1.954   5.343   5.375
17773WAT     H155421   1.882   5.363   5.436
17773WAT     H255422   1.995   5.265   5.412
17774WAT      O55423   1.982   6.742   5.474
17774WAT     H155424   1.993   6.648   5.460
17774WAT     H255425   1.917   6.768   5.409
17775WAT      O55426   2.781   6.569   5.614
17775WAT     H155427   2.749   6.497   5.668
17775WAT     H255428   2.714   6.637   5.621
17776WAT      O55429   2.146   6.176   4.183
17776WAT     H155430   2.085   6.250   4.184
17776WAT     H255431   2.193   6.185   4.100
17777WAT      O55432   3.520   5.479   5.257
17777WAT     H155433   3.469   5.553   5.291
17777WAT     H255434   3.601   5.518   5.225
17778WAT      O55435   2.347   6.172   3.958
17778WAT     H155436   2.423   6.161   4.014
17778WAT     H255437   2.354   6.102   3.892
17779WAT      O55438   2.216   5.915   4.026
17779WAT     H155439   2.224   5.820   4.037
17779WAT     H255440   2.305   5.948   4.037
17780WAT      O55441   2.296   6.930   4.736
17780WAT     H155442   2.370   6.875   4.763
17780WAT     H255443   2.335   7.017   4.722
17781WAT      O55444   1.985   6.537   4.324
17781WAT     H155445   1.892   6.561   4.323
17781WAT     H255446   2.031   6.620   4.312
17782WAT      O55447   2.197   6.849   5.655
17782WAT     H155448   2.277   6.881   5.696
17782WAT     H255449   2.145   6.813   5.727
17783WAT      O55450   3.080   6.459   5.650
17783WAT     H155451   3.020   6.462   5.576
17783WAT     H255452   3.050   6.386   5.704
17784WAT      O55453   3.223   6.832   5.511
17784WAT     H155454   3.319   6.824   5.506
17784WAT     H255455   3.209   6.899   5.578
17785WAT      O55456   3.388   6.411   5.559
17785WAT     H155457   3.463   6.445   5.508
17785WAT     H255458   3.312   6.428   5.503
17786WAT      O55459   3.256   6.216   5.412
17786WAT     H155460   3.297   6.232   5.497
17786WAT     H255461   3.162   6.229   5.428
17787WAT      O55462   3.303   5.950   5.613
17787WAT     H155463   3.361   5.875   5.604
17787WAT     H255464   3.321   6.003   5.535
17788WAT      O55465   3.200   6.040   5.205
17788WAT     H155466   3.147   6.092   5.145
17788WAT     H255467   3.234   6.103   5.268
17789WAT      O55468   2.517   6.842   5.321
17789WAT     H155469   2.463   6.914   5.289
17789WAT     H255470   2.542   6.794   5.242
17790WAT      O55471   2.803   6.965   5.347
17790WAT     H155472   2.795   7.056   5.377
17790WAT     H255473   2.713   6.934   5.344
17791WAT      O55474   1.943   6.698   4.677
17791WAT     H155475   1.976   6.611   4.654
17791WAT     H255476   1.986   6.719   4.760
17792WAT      O55477   1.992   6.785   4.951
17792WAT     H155478   1.948   6.803   5.034
17792WAT     H255479   2.049   6.861   4.937
17793WAT      O55480   3.556   6.735   5.379
17793WAT     H155481   3.496   6.741   5.305
17793WAT     H255482   3.568   6.641   5.392
17794WAT      O55483   3.726   6.269   4.648
17794WAT     H155484   3.763   6.191   4.607
17794WAT     H255485   3.790   6.338   4.630
17795WAT      O55486   3.424   6.408   5.189
17795WAT     H155487   3.343   6.451   5.216
17795WAT     H255488   3.465   6.469   5.128
17796WAT      O55489   3.270   5.516   4.009
17796WAT     H155490   3.312   5.497   3.925
17796WAT     H255491   3.239   5.430   4.040
17797WAT      O55492   3.559   5.921   5.342
17797WAT     H155493   3.536   5.899   5.252
17797WAT     H255494   3.585   6.013   5.337
17798WAT      O55495   3.565   5.838   5.061
17798WAT     H155496   3.470   5.834   5.072
17798WAT     H255497   3.583   5.929   5.037
17799WAT      O55498   2.151   5.663   3.972
17799WAT     H155499   2.222   5.621   3.923
17799WAT     H255500   2.079   5.670   3.909
17800WAT      O55501   2.116   5.268   3.876
17800WAT     H155502   2.188   5.322   3.908
17800WAT     H255503   2.143   5.241   3.788
17801WAT      O55504   3.639   5.619   4.556
17801WAT     H155505   3.628   5.603   4.650
17801WAT     H255506   3.715   5.566   4.532
17802WAT      O55507   3.728   5.402   3.880
17802WAT     H155508   3.821   5.389   3.859
17802WAT     H255509   3.726   5.410   3.975
17803WAT      O55510   3.736   5.479   4.143
17803WAT     H155511   3.656   5.472   4.195
17803WAT     H255512   3.756   5.572   4.141
17804WAT      O55513   2.060   5.209   5.140
17804WAT     H155514   2.025   5.254   5.217
17804WAT     H255515   2.027   5.119   5.149
17805WAT      O55516   3.717   6.883   5.197
17805WAT     H155517   3.667   6.923   5.125
17805WAT     H255518   3.656   6.821   5.236
17806WAT      O55519   2.127   5.162   5.468
17806WAT     H155520   2.182   5.143   5.391
17806WAT     H255521   2.134   5.082   5.521
17807WAT      O55522   2.204   6.821   5.269
17807WAT     H155523   2.145   6.807   5.343
17807WAT     H255524   2.204   6.737   5.222
17808WAT      O55525   2.528   6.779   4.842
17808WAT     H155526   2.580   6.717   4.790
17808WAT     H255527   2.593   6.829   4.892
17809WAT      O55528   2.802   6.868   4.925
17809WAT     H155529   2.831   6.842   4.837
17809WAT     H255530   2.853   6.812   4.984
17810WAT      O55531   1.996   6.889   4.485
17810WAT     H155532   1.979   6.826   4.555
17810WAT     H255533   1.909   6.910   4.450
17811WAT      O55534   2.809   6.960   5.662
17811WAT     H155535   2.901   6.936   5.666
17811WAT     H255536   2.807   7.043   5.614
17812WAT      O55537   3.465   6.883   5.644
17812WAT     H155538   3.545   6.833   5.623
17812WAT     H255539   3.495   6.950   5.705
17813WAT      O55540   3.078   5.970   2.732
17813WAT     H155541   3.070   5.878   2.705
17813WAT     H255542   3.037   6.019   2.662
17814WAT      O55543   2.891   6.148   2.920
17814WAT     H155544   2.814   6.100   2.949
17814WAT     H255545   2.956   6.080   2.903
17815WAT      O55546   2.293   6.179   3.008
17815WAT     H155547   2.210   6.153   3.048
17815WAT     H255548   2.354   6.186   3.082
17816WAT      O55549   3.293   6.588   2.798
17816WAT     H155550   3.247   6.511   2.831
17816WAT     H255551   3.374   6.591   2.849
17817WAT      O55552   2.291   6.582   3.028
17817WAT     H155553   2.321   6.493   3.010
17817WAT     H255554   2.365   6.638   3.005
17818WAT      O55555   2.134   5.675   2.387
17818WAT     H155556   2.045   5.709   2.376
17818WAT     H255557   2.162   5.655   2.297
17819WAT      O55558   1.930   5.935   2.975
17819WAT     H155559   1.987   5.858   2.975
17819WAT     H255560   1.930   5.965   2.884
17820WAT      O55561   2.054   5.476   3.154
17820WAT     H155562   2.036   5.386   3.182
17820WAT     H255563   2.014   5.530   3.221
17821WAT      O55564   2.938   5.696   2.944
17821WAT     H155565   2.976   5.609   2.933
17821WAT     H255566   2.928   5.729   2.855
17822WAT      O55567   2.351   5.533   2.490
17822WAT     H155568   2.362   5.623   2.521
17822WAT     H255569   2.260   5.528   2.461
17823WAT      O55570   3.316   5.445   2.637
17823WAT     H155571   3.399   5.396   2.641
17823WAT     H255572   3.320   5.504   2.712
17824WAT      O55573   2.116   5.725   3.015
17824WAT     H155574   2.184   5.752   3.076
17824WAT     H255575   2.085   5.641   3.048
17825WAT      O55576   2.535   5.830   2.923
17825WAT     H155577   2.586   5.880   2.987
17825WAT     H255578   2.589   5.752   2.906
17826WAT      O55579   3.745   5.647   3.294
17826WAT     H155580   3.675   5.686   3.242
17826WAT     H255581   3.772   5.717   3.354
17827WAT      O55582   2.364   5.294   3.350
17827WAT     H155583   2.364   5.346   3.269
17827WAT     H255584   2.281   5.246   3.348
17828WAT      O55585   3.002   6.305   2.500
17828WAT     H155586   2.941   6.352   2.443
17828WAT     H255587   3.054   6.374   2.541
17829WAT      O55588   2.489   6.258   3.168
17829WAT     H155589   2.455   6.321   3.232
17829WAT     H255590   2.506   6.311   3.090
17830WAT      O55591   3.340   5.639   2.914
17830WAT     H155592   3.270   5.668   2.972
17830WAT     H255593   3.376   5.720   2.878
17831WAT      O55594   2.332   5.465   3.151
17831WAT     H155595   2.366   5.549   3.121
17831WAT     H255596   2.238   5.480   3.162
17832WAT      O55597   2.410   6.455   3.349
17832WAT     H155598   2.472   6.522   3.321
17832WAT     H255599   2.324   6.496   3.340
17833WAT      O55600   1.939   6.374   2.237
17833WAT     H155601   1.902   6.423   2.164
17833WAT     H255602   1.965   6.441   2.300
17834WAT      O55603   3.502   6.601   3.141
17834WAT     H155604   3.433   6.668   3.140
17834WAT     H255605   3.556   6.621   3.064
17835WAT      O55606   3.647   5.584   2.953
17835WAT     H155607   3.552   5.587   2.967
17835WAT     H255608   3.679   5.665   2.992
17836WAT      O55609   2.700   5.214   2.783
17836WAT     H155610   2.731   5.158   2.711
17836WAT     H255611   2.607   5.227   2.765
17837WAT      O55612   3.385   6.458   2.521
17837WAT     H155613   3.374   6.363   2.534
17837WAT     H255614   3.384   6.494   2.610
17838WAT      O55615   3.195   6.276   3.145
17838WAT     H155616   3.237   6.254   3.061
17838WAT     H255617   3.268   6.302   3.202
17839WAT      O55618   2.939   6.020   2.457
17839WAT     H155619   2.846   6.014   2.480
17839WAT     H255620   2.954   6.114   2.445
17840WAT      O55621   2.938   5.648   2.156
17840WAT     H155622   2.844   5.664   2.165
17840WAT     H255623   2.970   5.719   2.102
17841WAT      O55624   3.590   6.116   3.154
17841WAT     H155625   3.507   6.123   3.107
17841WAT     H255626   3.649   6.174   3.107
17842WAT      O55627   3.342   6.177   2.507
17842WAT     H155628   3.280   6.143   2.442
17842WAT     H255629   3.340   6.112   2.578
17843WAT      O55630   3.286   5.794   3.249
17843WAT     H155631   3.245   5.877   3.274
17843WAT     H255632   3.213   5.736   3.229
17844WAT      O55633   2.500   6.073   2.735
17844WAT     H155634   2.459   6.002   2.685
17844WAT     H255635   2.508   6.039   2.824
17845WAT      O55636   2.546   6.442   2.951
17845WAT     H155637   2.517   6.381   2.883
17845WAT     H255638   2.641   6.445   2.940
17846WAT      O55639   2.371   5.750   3.113
17846WAT     H155640   2.426   5.761   3.035
17846WAT     H255641   2.422   5.788   3.184
17847WAT      O55642   2.456   6.415   3.616
17847WAT     H155643   2.366   6.438   3.641
17847WAT     H255644   2.458   6.428   3.521
17848WAT      O55645   3.160   6.100   2.208
17848WAT     H155646   3.204   6.017   2.193
17848WAT     H255647   3.231   6.164   2.216
17849WAT      O55648   2.338   6.103   3.474
17849WAT     H155649   2.324   6.190   3.511
17849WAT     H255650   2.250   6.068   3.459
17850WAT      O55651   2.518   6.697   3.695
17850WAT     H155652   2.515   6.737   3.608
17850WAT     H255653   2.502   6.604   3.678
17851WAT      O55654   3.518   5.226   2.039
17851WAT     H155655   3.486   5.235   2.129
17851WAT     H255656   3.594   5.284   2.034
17852WAT      O55657   2.170   5.962   2.485
17852WAT     H155658   2.158   6.035   2.424
17852WAT     H255659   2.139   5.885   2.437
17853WAT      O55660   1.933   6.280   3.066
17853WAT     H155661   1.941   6.293   2.971
17853WAT     H255662   1.995   6.209   3.085
17854WAT      O55663   2.058   6.450   2.707
17854WAT     H155664   2.017   6.464   2.621
17854WAT     H255665   2.147   6.421   2.686
17855WAT      O55666   3.040   6.865   3.397
17855WAT     H155667   3.091   6.856   3.478
17855WAT     H255668   2.955   6.899   3.427
17856WAT      O55669   3.639   5.700   3.637
17856WAT     H155670   3.577   5.750   3.584
17856WAT     H255671   3.607   5.610   3.631
17857WAT      O55672   1.939   6.384   3.320
17857WAT     H155673   1.955   6.337   3.238
17857WAT     H255674   1.986   6.333   3.386
17858WAT      O55675   2.416   5.297   2.823
17858WAT     H155676   2.372   5.375   2.790
17858WAT     H255677   2.472   5.329   2.894
17859WAT      O55678   2.845   5.583   3.383
17859WAT     H155679   2.799   5.604   3.465
17859WAT     H255680   2.805   5.502   3.353
17860WAT      O55681   3.345   5.706   3.496
17860WAT     H155682   3.260   5.676   3.529
17860WAT     H255683   3.329   5.730   3.405
17861WAT      O55684   3.054   5.856   3.706
17861WAT     H155685   3.087   5.772   3.672
17861WAT     H255686   3.133   5.908   3.721
17862WAT      O55687   2.728   5.259   2.311
17862WAT     H155688   2.665   5.259   2.384
17862WAT     H255689   2.719   5.172   2.272
17863WAT      O55690   2.620   5.351   3.009
17863WAT     H155691   2.650   5.442   3.001
17863WAT     H255692   2.675   5.302   2.948
17864WAT      O55693   2.395   5.809   2.596
17864WAT     H155694   2.373   5.788   2.686
17864WAT     H255695   2.317   5.852   2.561
17865WAT      O55696   3.118   5.810   2.456
17865WAT     H155697   3.058   5.882   2.437
17865WAT     H255698   3.173   5.804   2.378
17866WAT      O55699   2.639   5.899   3.663
17866WAT     H155700   2.630   5.805   3.648
17866WAT     H255701   2.724   5.921   3.623
17867WAT      O55702   2.979   5.673   2.659
17867WAT     H155703   3.018   5.705   2.578
17867WAT     H255704   3.015   5.586   2.670
17868WAT      O55705   2.152   5.540   3.478
17868WAT     H155706   2.113   5.625   3.499
17868WAT     H255707   2.084   5.476   3.497
17869WAT      O55708   1.883   5.332   2.881
17869WAT     H155709   1.854   5.389   2.952
17869WAT     H255710   1.957   5.284   2.917
17870WAT      O55711   1.901   5.727   2.002
17870WAT     H155712   1.893   5.821   2.016
17870WAT     H255713   1.866   5.712   1.914
17871WAT      O55714   3.038   5.932   3.068
17871WAT     H155715   2.964   5.983   3.103
17871WAT     H255716   2.998   5.851   3.038
17872WAT      O55717   2.681   5.600   2.909
17872WAT     H155718   2.682   5.556   2.824
17872WAT     H255719   2.771   5.632   2.920
17873WAT      O55720   2.266   5.588   2.805
17873WAT     H155721   2.232   5.636   2.881
17873WAT     H255722   2.190   5.543   2.769
17874WAT      O55723   2.688   5.700   2.208
17874WAT     H155724   2.700   5.696   2.303
17874WAT     H255725   2.649   5.786   2.192
17875WAT      O55726   3.084   5.478   3.010
17875WAT     H155727   3.086   5.523   3.094
17875WAT     H255728   3.059   5.388   3.031
17876WAT      O55729   2.589   5.931   2.148
17876WAT     H155730   2.532   5.886   2.085
17876WAT     H255731   2.660   5.967   2.094
17877WAT      O55732   3.427   5.219   3.593
17877WAT     H155733   3.459   5.146   3.646
17877WAT     H255734   3.430   5.187   3.503
17878WAT      O55735   2.096   6.321   3.535
17878WAT     H155736   2.058   6.257   3.595
17878WAT     H255737   2.128   6.392   3.592
17879WAT      O55738   2.711   6.006   3.084
17879WAT     H155739   2.748   5.959   3.158
17879WAT     H255740   2.692   6.093   3.118
17880WAT      O55741   1.998   5.480   2.697
17880WAT     H155742   1.969   5.444   2.780
17880WAT     H255743   1.992   5.407   2.635
17881WAT      O55744   2.490   5.910   3.315
17881WAT     H155745   2.460   5.998   3.338
17881WAT     H255746   2.586   5.916   3.319
17882WAT      O55747   2.343   6.331   2.375
17882WAT     H155748   2.266   6.277   2.359
17882WAT     H255749   2.416   6.279   2.341
17883WAT      O55750   3.419   6.230   2.954
17883WAT     H155751   3.491   6.280   2.915
17883WAT     H255752   3.399   6.163   2.890
17884WAT      O55753   2.965   5.370   2.369
17884WAT     H155754   2.884   5.320   2.361
17884WAT     H255755   2.946   5.454   2.327
17885WAT      O55756   2.957   6.237   3.543
17885WAT     H155757   2.951   6.145   3.518
17885WAT     H255758   2.894   6.247   3.614
17886WAT      O55759   3.237   5.807   2.198
17886WAT     H155760   3.325   5.838   2.181
17886WAT     H255761   3.234   5.720   2.159
17887WAT      O55762   2.348   6.298   2.739
17887WAT     H155763   2.399   6.217   2.733
17887WAT     H255764   2.302   6.291   2.823
17888WAT      O55765   2.836   6.424   2.266
17888WAT     H155766   2.870   6.499   2.217
17888WAT     H255767   2.753   6.455   2.302
17889WAT      O55768   2.096   5.994   3.430
17889WAT     H155769   2.060   6.061   3.489
17889WAT     H255770   2.067   5.911   3.467
17890WAT      O55771   2.416   6.040   3.719
17890WAT     H155772   2.386   6.055   3.629
17890WAT     H255773   2.493   5.984   3.709
17891WAT      O55774   2.950   6.520   3.518
17891WAT     H155775   2.952   6.426   3.496
17891WAT     H255776   2.880   6.528   3.582
17892WAT      O55777   3.464   5.938   2.145
17892WAT     H155778   3.455   5.981   2.060
17892WAT     H255779   3.536   5.984   2.188
17893WAT      O55780   3.125   6.356   2.803
17893WAT     H155781   3.160   6.297   2.737
17893WAT     H255782   3.036   6.324   2.820
17894WAT      O55783   2.733   6.432   2.543
17894WAT     H155784   2.802   6.487   2.581
17894WAT     H255785   2.655   6.487   2.547
17895WAT      O55786   1.947   5.994   2.092
17895WAT     H155787   2.034   6.022   2.121
17895WAT     H255788   1.898   6.075   2.081
17896WAT      O55789   2.663   6.133   2.505
17896WAT     H155790   2.709   6.214   2.527
17896WAT     H255791   2.628   6.101   2.588
17897WAT      O55792   2.894   6.684   3.227
17897WAT     H155793   2.958   6.704   3.295
17897WAT     H255794   2.930   6.608   3.182
17898WAT      O55795   2.254   5.167   2.552
17898WAT     H155796   2.241   5.166   2.647
17898WAT     H255797   2.171   5.201   2.517
17899WAT      O55798   3.021   6.484   3.099
17899WAT     H155799   3.085   6.414   3.111
17899WAT     H255800   3.074   6.562   3.081
17900WAT      O55801   3.198   6.564   3.420
17900WAT     H155802   3.232   6.623   3.487
17900WAT     H255803   3.106   6.551   3.443
17901WAT      O55804   1.984   6.915   2.149
17901WAT     H155805   2.020   6.975   2.084
17901WAT     H255806   1.970   6.970   2.226
17902WAT      O55807   1.954   5.343   3.498
17902WAT     H155808   1.882   5.363   3.558
17902WAT     H255809   1.995   5.265   3.535
17903WAT      O55810   3.364   6.304   2.238
17903WAT     H155811   3.335   6.350   2.317
17903WAT     H255812   3.443   6.258   2.265
17904WAT      O55813   1.982   6.742   3.597
17904WAT     H155814   1.993   6.648   3.582
17904WAT     H255815   1.917   6.768   3.532
17905WAT      O55816   2.781   6.569   3.736
17905WAT     H155817   2.749   6.497   3.791
17905WAT     H255818   2.714   6.637   3.744
17906WAT      O55819   2.146   6.176   2.305
17906WAT     H155820   2.085   6.250   2.306
17906WAT     H255821   2.193   6.185   2.223
17907WAT      O55822   3.103   5.592   3.273
17907WAT     H155823   3.140   5.510   3.306
17907WAT     H255824   3.017   5.598   3.314
17908WAT      O55825   3.440   5.488   2.354
17908WAT     H155826   3.377   5.498   2.282
17908WAT     H255827   3.390   5.510   2.433
17909WAT      O55828   2.636   5.716   2.495
17909WAT     H155829   2.566   5.763   2.539
17909WAT     H255830   2.665   5.650   2.559
17910WAT      O55831   2.799   5.858   3.295
17910WAT     H155832   2.849   5.905   3.362
17910WAT     H255833   2.813   5.765   3.316
17911WAT      O55834   3.040   5.388   2.639
17911WAT     H155835   3.027   5.390   2.544
17911WAT     H255836   3.134   5.393   2.651
17912WAT      O55837   2.457   5.547   2.233
17912WAT     H155838   2.542   5.590   2.226
17912WAT     H255839   2.420   5.578   2.316
17913WAT      O55840   3.520   5.479   3.380
17913WAT     H155841   3.469   5.553   3.413
17913WAT     H255842   3.601   5.518   3.348
17914WAT      O55843   3.349   6.004   2.724
17914WAT     H155844   3.255   6.005   2.742
17914WAT     H255845   3.380   5.925   2.769
17915WAT      O55846   2.347   6.172   2.080
17915WAT     H155847   2.423   6.161   2.136
17915WAT     H255848   2.354   6.102   2.015
17916WAT      O55849   2.216   5.915   2.149
17916WAT     H155850   2.224   5.820   2.160
17916WAT     H255851   2.305   5.948   2.159
17917WAT      O55852   1.985   6.537   2.446
17917WAT     H155853   1.892   6.561   2.445
17917WAT     H255854   2.031   6.620   2.434
17918WAT      O55855   3.080   6.459   3.772
17918WAT     H155856   3.020   6.462   3.698
17918WAT     H255857   3.050   6.386   3.826
17919WAT      O55858   1.969   6.097   3.672
17919WAT     H155859   2.019   6.039   3.729
17919WAT     H255860   1.895   6.126   3.726
17920WAT      O55861   2.659   6.369   2.028
17920WAT     H155862   2.649   6.308   2.100
17920WAT     H255863   2.642   6.317   1.949
17921WAT      O55864   2.674   6.238   3.625
17921WAT     H155865   2.598   6.295   3.617
17921WAT     H255866   2.692   6.209   3.536
17922WAT      O55867   2.983   6.276   2.088
17922WAT     H155868   2.928   6.320   2.152
17922WAT     H255869   3.045   6.225   2.140
17923WAT      O55870   2.172   5.912   3.762
17923WAT     H155871   2.176   5.882   3.852
17923WAT     H255872   2.257   5.952   3.746
17924WAT      O55873   2.550   6.172   2.278
17924WAT     H155874   2.592   6.155   2.362
17924WAT     H255875   2.562   6.091   2.228
17925WAT      O55876   2.366   5.770   3.558
17925WAT     H155877   2.313   5.720   3.496
17925WAT     H255878   2.433   5.812   3.505
17926WAT      O55879   2.801   6.074   2.002
17926WAT     H155880   2.853   6.002   1.966
17926WAT     H255881   2.866   6.138   2.032
17927WAT      O55882   3.256   6.216   3.535
17927WAT     H155883   3.297   6.232   3.620
17927WAT     H255884   3.162   6.229   3.551
17928WAT      O55885   2.691   5.322   3.270
17928WAT     H155886   2.647   5.324   3.185
17928WAT     H255887   2.628   5.282   3.329
17929WAT      O55888   2.732   6.211   3.332
17929WAT     H155889   2.774   6.296   3.314
17929WAT     H255890   2.640   6.225   3.309
17930WAT      O55891   2.966   5.985   3.470
17930WAT     H155892   2.978   5.925   3.544
17930WAT     H255893   3.052   5.988   3.428
17931WAT      O55894   3.200   6.040   3.328
17931WAT     H155895   3.147   6.092   3.267
17931WAT     H255896   3.234   6.103   3.391
17932WAT      O55897   2.439   5.779   1.972
17932WAT     H155898   2.419   5.693   2.008
17932WAT     H255899   2.422   5.770   1.878
17933WAT      O55900   2.517   6.842   3.443
17933WAT     H155901   2.463   6.914   3.411
17933WAT     H255902   2.542   6.794   3.364
17934WAT      O55903   3.124   5.600   3.619
17934WAT     H155904   3.055   5.534   3.613
17934WAT     H255905   3.196   5.556   3.664
17935WAT      O55906   3.187   5.260   2.225
17935WAT     H155907   3.215   5.176   2.261
17935WAT     H255908   3.110   5.283   2.276
17936WAT      O55909   2.319   5.489   1.971
17936WAT     H155910   2.349   5.490   1.880
17936WAT     H255911   2.393   5.454   2.021
17937WAT      O55912   2.641   5.383   2.070
17937WAT     H155913   2.606   5.315   2.012
17937WAT     H255914   2.661   5.337   2.151
17938WAT      O55915   2.222   6.419   2.054
17938WAT     H155916   2.265   6.474   2.120
17938WAT     H255917   2.270   6.337   2.055
17939WAT      O55918   1.943   6.698   2.799
17939WAT     H155919   1.976   6.611   2.776
17939WAT     H255920   1.986   6.719   2.883
17940WAT      O55921   1.992   6.785   3.073
17940WAT     H155922   1.948   6.803   3.157
17940WAT     H255923   2.049   6.861   3.059
17941WAT      O55924   3.625   6.184   2.286
17941WAT     H155925   3.701   6.241   2.297
17941WAT     H255926   3.627   6.127   2.363
17942WAT      O55927   1.975   6.036   2.709
17942WAT     H155928   1.910   6.009   2.645
17942WAT     H255929   2.059   6.025   2.664
17943WAT      O55930   3.630   6.213   2.002
17943WAT     H155931   3.658   6.304   1.989
17943WAT     H255932   3.611   6.207   2.095
17944WAT      O55933   3.270   5.516   2.131
17944WAT     H155934   3.312   5.497   2.047
17944WAT     H255935   3.239   5.430   2.162
17945WAT      O55936   3.620   6.007   2.501
17945WAT     H155937   3.582   5.930   2.458
17945WAT     H255938   3.547   6.045   2.550
17946WAT      O55939   2.079   6.075   3.163
17946WAT     H155940   2.116   6.066   3.251
17946WAT     H255941   2.022   5.998   3.153
17947WAT      O55942   3.559   5.921   3.465
17947WAT     H155943   3.536   5.899   3.374
17947WAT     H255944   3.585   6.013   3.460
17948WAT      O55945   2.034   5.766   3.554
17948WAT     H155946   1.945   5.762   3.588
17948WAT     H255947   2.088   5.786   3.630
17949WAT      O55948   3.403   5.444   3.742
17949WAT     H155949   3.491   5.445   3.781
17949WAT     H255950   3.404   5.370   3.681
17950WAT      O55951   1.897   5.757   2.303
17950WAT     H155952   1.806   5.783   2.286
17950WAT     H255953   1.945   5.784   2.225
17951WAT      O55954   3.547   5.829   2.831
17951WAT     H155955   3.600   5.780   2.768
17951WAT     H255956   3.606   5.843   2.906
17952WAT      O55957   3.565   5.838   3.183
17952WAT     H155958   3.470   5.834   3.195
17952WAT     H255959   3.583   5.929   3.160
17953WAT      O55960   2.151   5.663   2.094
17953WAT     H155961   2.222   5.621   2.046
17953WAT     H255962   2.079   5.670   2.031
17954WAT      O55963   2.116   5.268   1.998
17954WAT     H155964   2.188   5.322   2.030
17954WAT     H255965   2.143   5.241   1.911
17955WAT      O55966   3.496   5.755   2.425
17955WAT     H155967   3.546   5.732   2.504
17955WAT     H255968   3.477   5.671   2.383
17956WAT      O55969   2.084   5.193   2.989
17956WAT     H155970   2.149   5.138   2.945
17956WAT     H255971   2.126   5.219   3.071
17957WAT      O55972   3.639   5.619   2.678
17957WAT     H155973   3.628   5.603   2.772
17957WAT     H255974   3.715   5.566   2.654
17958WAT      O55975   3.474   5.213   3.324
17958WAT     H155976   3.538   5.274   3.361
17958WAT     H255977   3.489   5.216   3.230
17959WAT      O55978   3.728   5.402   2.003
17959WAT     H155979   3.821   5.389   1.982
17959WAT     H255980   3.726   5.410   2.098
17960WAT      O55981   3.736   5.479   2.265
17960WAT     H155982   3.656   5.472   2.318
17960WAT     H255983   3.756   5.572   2.264
17961WAT      O55984   2.060   5.209   3.263
17961WAT     H155985   2.025   5.254   3.339
17961WAT     H255986   2.027   5.119   3.271
17962WAT      O55987   2.220   6.526   3.679
17962WAT     H155988   2.216   6.489   3.768
17962WAT     H255989   2.234   6.620   3.693
17963WAT      O55990   2.590   6.682   3.240
17963WAT     H155991   2.566   6.708   3.151
17963WAT     H255992   2.685   6.699   3.245
17964WAT      O55993   3.075   5.294   3.579
17964WAT     H155994   3.136   5.325   3.513
17964WAT     H255995   3.129   5.245   3.641
17965WAT      O55996   2.127   5.162   3.590
17965WAT     H155997   2.182   5.143   3.514
17965WAT     H255998   2.134   5.082   3.644
17966WAT      O55999   2.204   6.821   3.391
17966WAT     H156000   2.145   6.807   3.465
17966WAT     H256001   2.204   6.737   3.345
17967WAT      O56002   3.149   5.150   3.212
17967WAT     H156003   3.061   5.183   3.191
17967WAT     H256004   3.138   5.103   3.294
17968WAT      O56005   3.240   5.371   3.350
17968WAT     H156006   3.207   5.289   3.312
17968WAT     H256007   3.334   5.366   3.338
17969WAT      O56008   2.167   6.557   3.286
17969WAT     H156009   2.095   6.495   3.280
17969WAT     H256010   2.174   6.597   3.199
17970WAT      O56011   2.924   5.242   3.106
17970WAT     H156012   2.845   5.289   3.134
17970WAT     H256013   2.894   5.151   3.095
17971WAT      O56014   3.379   5.312   2.910
17971WAT     H156015   3.423   5.306   2.825
17971WAT     H256016   3.352   5.403   2.917
17972WAT      O56017   3.565   5.275   2.711
17972WAT     H156018   3.559   5.181   2.697
17972WAT     H256019   3.643   5.286   2.766
17973WAT      O56020   1.996   6.889   2.607
17973WAT     H156021   1.979   6.826   2.677
17973WAT     H256022   1.909   6.910   2.572
17974WAT      O56023   2.058   5.272   2.358
17974WAT     H156024   2.134   5.283   2.300
17974WAT     H256025   2.012   5.356   2.353
17975WAT      O56026   2.712   5.483   2.657
17975WAT     H156027   2.631   5.446   2.623
17975WAT     H256028   2.763   5.408   2.687
17976WAT      O56029   3.162   5.150   2.781
17976WAT     H156030   3.223   5.207   2.828
17976WAT     H256031   3.088   5.206   2.758
17977WAT      O56032   3.477   5.190   2.308
17977WAT     H156033   3.496   5.280   2.335
17977WAT     H256034   3.398   5.167   2.357
17978WAT      O56035   2.156   6.758   2.352
17978WAT     H156036   2.104   6.796   2.282
17978WAT     H256037   2.149   6.821   2.424
17979WAT      O56038   2.295   5.325   2.212
17979WAT     H156039   2.348   5.246   2.199
17979WAT     H256040   2.359   5.393   2.235
17980WAT      O56041   2.515   5.298   2.517
17980WAT     H156042   2.452   5.228   2.534
17980WAT     H256043   2.461   5.375   2.496
17981WAT      O56044   2.332   6.565   2.240
17981WAT     H156045   2.270   6.612   2.295
17981WAT     H256046   2.344   6.480   2.283
17982WAT      O56047   3.187   5.168   3.819
17982WAT     H156048   3.176   5.200   3.908
17982WAT     H256049   3.269   5.208   3.789
17983WAT      O56050   3.078   5.970   0.855
17983WAT     H156051   3.070   5.878   0.828
17983WAT     H256052   3.037   6.019   0.784
17984WAT      O56053   2.891   6.148   1.043
17984WAT     H156054   2.814   6.100   1.072
17984WAT     H256055   2.956   6.080   1.026
17985WAT      O56056   2.293   6.179   1.131
17985WAT     H156057   2.210   6.153   1.171
17985WAT     H256058   2.354   6.186   1.204
17986WAT      O56059   3.293   6.588   0.921
17986WAT     H156060   3.247   6.511   0.954
17986WAT     H256061   3.374   6.591   0.972
17987WAT      O56062   2.291   6.582   1.150
17987WAT     H156063   2.321   6.493   1.132
17987WAT     H256064   2.365   6.638   1.128
17988WAT      O56065   2.134   5.675   0.509
17988WAT     H156066   2.045   5.709   0.499
17988WAT     H256067   2.162   5.655   0.420
17989WAT      O56068   1.930   5.935   1.098
17989WAT     H156069   1.987   5.858   1.098
17989WAT     H256070   1.930   5.965   1.007
17990WAT      O56071   2.916   6.817   0.883
17990WAT     H156072   2.854   6.862   0.826
17990WAT     H256073   3.001   6.832   0.843
17991WAT      O56074   2.835   6.415   1.044
17991WAT     H156075   2.828   6.321   1.028
17991WAT     H256076   2.911   6.424   1.101
17992WAT      O56077   2.054   5.476   1.276
17992WAT     H156078   2.036   5.386   1.304
17992WAT     H256079   2.014   5.530   1.344
17993WAT      O56080   2.938   5.696   1.066
17993WAT     H156081   2.976   5.609   1.055
17993WAT     H256082   2.928   5.729   0.977
17994WAT      O56083   2.351   5.533   0.613
17994WAT     H156084   2.362   5.623   0.643
17994WAT     H256085   2.260   5.528   0.584
17995WAT      O56086   3.316   5.445   0.760
17995WAT     H156087   3.399   5.396   0.764
17995WAT     H256088   3.320   5.504   0.835
17996WAT      O56089   2.116   5.725   1.137
17996WAT     H156090   2.184   5.752   1.199
17996WAT     H256091   2.085   5.641   1.170
17997WAT      O56092   2.535   5.830   1.046
17997WAT     H156093   2.586   5.880   1.110
17997WAT     H256094   2.589   5.752   1.028
17998WAT      O56095   3.745   5.647   1.416
17998WAT     H156096   3.675   5.686   1.364
17998WAT     H256097   3.772   5.717   1.476
17999WAT      O56098   2.364   5.294   1.472
17999WAT     H156099   2.364   5.346   1.392
17999WAT     H256100   2.281   5.246   1.470
18000WAT      O56101   3.002   6.305   0.622
18000WAT     H156102   2.941   6.352   0.566
18000WAT     H256103   3.054   6.374   0.664
18001WAT      O56104   2.489   6.258   1.290
18001WAT     H156105   2.455   6.321   1.354
18001WAT     H256106   2.506   6.311   1.212
18002WAT      O56107   3.340   5.639   1.037
18002WAT     H156108   3.270   5.668   1.095
18002WAT     H256109   3.376   5.720   1.001
18003WAT      O56110   2.332   5.465   1.273
18003WAT     H156111   2.366   5.549   1.244
18003WAT     H256112   2.238   5.480   1.285
18004WAT      O56113   2.410   6.455   1.472
18004WAT     H156114   2.472   6.522   1.444
18004WAT     H256115   2.324   6.496   1.463
18005WAT      O56116   1.939   6.374   0.360
18005WAT     H156117   1.902   6.423   0.287
18005WAT     H256118   1.965   6.441   0.423
18006WAT      O56119   3.502   6.601   1.263
18006WAT     H156120   3.433   6.668   1.262
18006WAT     H256121   3.556   6.621   1.187
18007WAT      O56122   3.647   5.584   1.076
18007WAT     H156123   3.552   5.587   1.089
18007WAT     H256124   3.679   5.665   1.115
18008WAT      O56125   2.700   5.214   0.906
18008WAT     H156126   2.731   5.158   0.834
18008WAT     H256127   2.607   5.227   0.887
18009WAT      O56128   3.255   6.786   1.135
18009WAT     H156129   3.257   6.745   1.048
18009WAT     H256130   3.200   6.863   1.124
18010WAT      O56131   3.385   6.458   0.644
18010WAT     H156132   3.374   6.363   0.656
18010WAT     H256133   3.384   6.494   0.732
18011WAT      O56134   3.195   6.276   1.267
18011WAT     H156135   3.237   6.254   1.184
18011WAT     H256136   3.268   6.302   1.325
18012WAT      O56137   2.939   6.020   0.579
18012WAT     H156138   2.846   6.014   0.602
18012WAT     H256139   2.954   6.114   0.568
18013WAT      O56140   2.938   5.648   0.279
18013WAT     H156141   2.844   5.664   0.287
18013WAT     H256142   2.970   5.719   0.224
18014WAT      O56143   3.590   6.116   1.277
18014WAT     H156144   3.507   6.123   1.229
18014WAT     H256145   3.649   6.174   1.230
18015WAT      O56146   3.342   6.177   0.630
18015WAT     H156147   3.280   6.143   0.565
18015WAT     H256148   3.340   6.112   0.700
18016WAT      O56149   3.286   5.794   1.371
18016WAT     H156150   3.245   5.877   1.397
18016WAT     H256151   3.213   5.736   1.352
18017WAT      O56152   2.500   6.073   0.857
18017WAT     H156153   2.459   6.002   0.808
18017WAT     H256154   2.508   6.039   0.946
18018WAT      O56155   2.546   6.442   1.074
18018WAT     H156156   2.517   6.381   1.006
18018WAT     H256157   2.641   6.445   1.063
18019WAT      O56158   2.371   5.750   1.235
18019WAT     H156159   2.426   5.761   1.158
18019WAT     H256160   2.422   5.788   1.307
18020WAT      O56161   3.355   6.799   1.440
18020WAT     H156162   3.308   6.880   1.421
18020WAT     H256163   3.287   6.734   1.455
18021WAT      O56164   2.456   6.415   1.739
18021WAT     H156165   2.366   6.438   1.764
18021WAT     H256166   2.458   6.428   1.644
18022WAT      O56167   3.160   6.100   0.330
18022WAT     H156168   3.204   6.017   0.316
18022WAT     H256169   3.231   6.164   0.339
18023WAT      O56170   2.338   6.103   1.596
18023WAT     H156171   2.324   6.190   1.633
18023WAT     H256172   2.250   6.068   1.582
18024WAT      O56173   2.971   6.594   0.727
18024WAT     H156174   3.015   6.669   0.686
18024WAT     H256175   2.964   6.619   0.819
18025WAT      O56176   2.518   6.697   1.817
18025WAT     H156177   2.515   6.737   1.731
18025WAT     H256178   2.502   6.604   1.801
18026WAT      O56179   2.170   5.962   0.607
18026WAT     H156180   2.158   6.035   0.546
18026WAT     H256181   2.139   5.885   0.560
18027WAT      O56182   1.933   6.280   1.188
18027WAT     H156183   1.941   6.293   1.094
18027WAT     H256184   1.995   6.209   1.207
18028WAT      O56185   2.058   6.450   0.829
18028WAT     H156186   2.017   6.464   0.744
18028WAT     H256187   2.147   6.421   0.809
18029WAT      O56188   3.654   6.494   1.663
18029WAT     H156189   3.666   6.470   1.571
18029WAT     H256190   3.658   6.411   1.710
18030WAT      O56191   3.040   6.865   1.520
18030WAT     H156192   3.091   6.856   1.600
18030WAT     H256193   2.955   6.899   1.549
18031WAT      O56194   3.237   6.893   0.463
18031WAT     H156195   3.221   6.864   0.553
18031WAT     H256196   3.221   6.815   0.409
18032WAT      O56197   2.485   6.871   0.640
18032WAT     H156198   2.468   6.779   0.619
18032WAT     H256199   2.400   6.907   0.664
18033WAT      O56200   3.208   6.644   0.319
18033WAT     H156201   3.138   6.644   0.253
18033WAT     H256202   3.282   6.602   0.276
18034WAT      O56203   3.164   6.807   0.726
18034WAT     H156204   3.210   6.728   0.758
18034WAT     H256205   3.198   6.878   0.781
18035WAT      O56206   3.639   5.700   1.759
18035WAT     H156207   3.577   5.750   1.707
18035WAT     H256208   3.607   5.610   1.754
18036WAT      O56209   1.939   6.384   1.442
18036WAT     H156210   1.955   6.337   1.360
18036WAT     H256211   1.986   6.333   1.509
18037WAT      O56212   2.416   5.297   0.946
18037WAT     H156213   2.372   5.375   0.913
18037WAT     H256214   2.472   5.329   1.016
18038WAT      O56215   2.845   5.583   1.506
18038WAT     H156216   2.799   5.604   1.587
18038WAT     H256217   2.805   5.502   1.476
18039WAT      O56218   3.345   5.706   1.619
18039WAT     H156219   3.260   5.676   1.651
18039WAT     H256220   3.329   5.730   1.528
18040WAT      O56221   3.054   5.856   1.829
18040WAT     H156222   3.087   5.772   1.795
18040WAT     H256223   3.133   5.908   1.844
18041WAT      O56224   2.728   5.259   0.434
18041WAT     H156225   2.665   5.259   0.506
18041WAT     H256226   2.719   5.172   0.394
18042WAT      O56227   2.620   5.351   1.132
18042WAT     H156228   2.650   5.442   1.124
18042WAT     H256229   2.675   5.302   1.070
18043WAT      O56230   2.395   5.809   0.719
18043WAT     H156231   2.373   5.788   0.809
18043WAT     H256232   2.317   5.852   0.684
18044WAT      O56233   3.118   5.810   0.578
18044WAT     H156234   3.058   5.882   0.560
18044WAT     H256235   3.173   5.804   0.500
18045WAT      O56236   2.639   5.899   1.785
18045WAT     H156237   2.630   5.805   1.770
18045WAT     H256238   2.724   5.921   1.746
18046WAT      O56239   2.979   5.673   0.781
18046WAT     H156240   3.018   5.705   0.700
18046WAT     H256241   3.015   5.586   0.793
18047WAT      O56242   2.152   5.540   1.600
18047WAT     H156243   2.113   5.625   1.621
18047WAT     H256244   2.084   5.476   1.620
18048WAT      O56245   2.810   5.548   1.907
18048WAT     H156246   2.741   5.529   1.971
18048WAT     H256247   2.884   5.577   1.961
18049WAT      O56248   1.883   5.332   1.004
18049WAT     H156249   1.854   5.389   1.075
18049WAT     H256250   1.957   5.284   1.040
18050WAT      O56251   3.038   5.932   1.191
18050WAT     H156252   2.964   5.983   1.226
18050WAT     H256253   2.998   5.851   1.161
18051WAT      O56254   2.681   5.600   1.031
18051WAT     H156255   2.682   5.556   0.947
18051WAT     H256256   2.771   5.632   1.042
18052WAT      O56257   2.266   5.588   0.927
18052WAT     H156258   2.232   5.636   1.003
18052WAT     H256259   2.190   5.543   0.891
18053WAT      O56260   2.688   5.700   0.331
18053WAT     H156261   2.700   5.696   0.425
18053WAT     H256262   2.649   5.786   0.315
18054WAT      O56263   3.084   5.478   1.132
18054WAT     H156264   3.086   5.523   1.217
18054WAT     H256265   3.059   5.388   1.154
18055WAT      O56266   2.589   5.931   0.270
18055WAT     H156267   2.532   5.886   0.208
18055WAT     H256268   2.660   5.967   0.217
18056WAT      O56269   3.427   5.219   1.716
18056WAT     H156270   3.459   5.146   1.769
18056WAT     H256271   3.430   5.187   1.626
18057WAT      O56272   2.096   6.321   1.658
18057WAT     H156273   2.058   6.257   1.718
18057WAT     H256274   2.128   6.392   1.715
18058WAT      O56275   2.711   6.006   1.206
18058WAT     H156276   2.748   5.959   1.281
18058WAT     H256277   2.692   6.093   1.240
18059WAT      O56278   1.998   5.480   0.819
18059WAT     H156279   1.969   5.444   0.903
18059WAT     H256280   1.992   5.407   0.758
18060WAT      O56281   2.490   5.910   1.438
18060WAT     H156282   2.460   5.998   1.460
18060WAT     H256283   2.586   5.916   1.442
18061WAT      O56284   2.343   6.331   0.498
18061WAT     H156285   2.266   6.277   0.482
18061WAT     H256286   2.416   6.279   0.464
18062WAT      O56287   3.419   6.230   1.077
18062WAT     H156288   3.491   6.280   1.038
18062WAT     H256289   3.399   6.163   1.012
18063WAT      O56290   2.965   5.370   0.491
18063WAT     H156291   2.884   5.320   0.484
18063WAT     H256292   2.946   5.454   0.450
18064WAT      O56293   2.957   6.237   1.666
18064WAT     H156294   2.951   6.145   1.640
18064WAT     H256295   2.894   6.247   1.737
18065WAT      O56296   3.237   5.807   0.321
18065WAT     H156297   3.325   5.838   0.303
18065WAT     H256298   3.234   5.720   0.282
18066WAT      O56299   2.348   6.298   0.861
18066WAT     H156300   2.399   6.217   0.856
18066WAT     H256301   2.302   6.291   0.946
18067WAT      O56302   2.836   6.424   0.389
18067WAT     H156303   2.870   6.499   0.339
18067WAT     H256304   2.753   6.455   0.425
18068WAT      O56305   2.096   5.994   1.553
18068WAT     H156306   2.060   6.061   1.611
18068WAT     H256307   2.067   5.911   1.590
18069WAT      O56308   2.416   6.040   1.841
18069WAT     H156309   2.386   6.055   1.751
18069WAT     H256310   2.493   5.984   1.832
18070WAT      O56311   2.950   6.520   1.641
18070WAT     H156312   2.952   6.426   1.619
18070WAT     H256313   2.880   6.528   1.705
18071WAT      O56314   3.464   5.938   0.268
18071WAT     H156315   3.455   5.981   0.183
18071WAT     H256316   3.536   5.984   0.311
18072WAT      O56317   3.572   6.184   1.575
18072WAT     H156318   3.499   6.243   1.556
18072WAT     H256319   3.624   6.183   1.495
18073WAT      O56320   3.567   6.623   0.540
18073WAT     H156321   3.502   6.558   0.568
18073WAT     H256322   3.528   6.664   0.463
18074WAT      O56323   3.125   6.356   0.925
18074WAT     H156324   3.160   6.297   0.859
18074WAT     H256325   3.036   6.324   0.942
18075WAT      O56326   2.733   6.432   0.666
18075WAT     H156327   2.802   6.487   0.704
18075WAT     H256328   2.655   6.487   0.669
18076WAT      O56329   1.947   5.994   0.215
18076WAT     H156330   2.034   6.022   0.243
18076WAT     H256331   1.898   6.075   0.204
18077WAT      O56332   2.663   6.133   0.627
18077WAT     H156333   2.709   6.214   0.650
18077WAT     H256334   2.628   6.101   0.710
18078WAT      O56335   2.894   6.684   1.350
18078WAT     H156336   2.958   6.704   1.418
18078WAT     H256337   2.930   6.608   1.305
18079WAT      O56338   2.254   5.167   0.674
18079WAT     H156339   2.241   5.166   0.769
18079WAT     H256340   2.171   5.201   0.639
18080WAT      O56341   3.021   6.484   1.222
18080WAT     H156342   3.085   6.414   1.233
18080WAT     H256343   3.074   6.562   1.204
18081WAT      O56344   3.198   6.564   1.542
18081WAT     H156345   3.232   6.623   1.610
18081WAT     H256346   3.106   6.551   1.565
18082WAT      O56347   1.984   6.915   0.272
18082WAT     H156348   2.020   6.975   0.206
18082WAT     H256349   1.970   6.970   0.349
18083WAT      O56350   1.954   5.343   1.620
18083WAT     H156351   1.882   5.363   1.681
18083WAT     H256352   1.995   5.265   1.658
18084WAT      O56353   3.364   6.304   0.360
18084WAT     H156354   3.335   6.350   0.439
18084WAT     H256355   3.443   6.258   0.387
18085WAT      O56356   1.982   6.742   1.719
18085WAT     H156357   1.993   6.648   1.705
18085WAT     H256358   1.917   6.768   1.654
18086WAT      O56359   2.586   6.654   0.353
18086WAT     H156360   2.585   6.727   0.292
18086WAT     H256361   2.493   6.629   0.363
18087WAT      O56362   2.146   6.176   0.428
18087WAT     H156363   2.085   6.250   0.429
18087WAT     H256364   2.193   6.185   0.345
18088WAT      O56365   3.103   5.592   1.395
18088WAT     H156366   3.140   5.510   1.428
18088WAT     H256367   3.017   5.598   1.437
18089WAT      O56368   3.440   5.488   0.476
18089WAT     H156369   3.377   5.498   0.405
18089WAT     H256370   3.390   5.510   0.555
18090WAT      O56371   2.636   5.716   0.618
18090WAT     H156372   2.566   5.763   0.662
18090WAT     H256373   2.665   5.650   0.681
18091WAT      O56374   2.799   5.858   1.418
18091WAT     H156375   2.849   5.905   1.484
18091WAT     H256376   2.813   5.765   1.439
18092WAT      O56377   3.040   5.388   0.762
18092WAT     H156378   3.027   5.390   0.667
18092WAT     H256379   3.134   5.393   0.774
18093WAT      O56380   2.748   6.912   0.689
18093WAT     H156381   2.774   6.908   0.597
18093WAT     H256382   2.653   6.899   0.688
18094WAT      O56383   2.457   5.547   0.355
18094WAT     H156384   2.542   5.590   0.349
18094WAT     H256385   2.420   5.578   0.438
18095WAT      O56386   3.520   5.479   1.502
18095WAT     H156387   3.469   5.553   1.536
18095WAT     H256388   3.601   5.518   1.470
18096WAT      O56389   3.349   6.004   0.847
18096WAT     H156390   3.255   6.005   0.864
18096WAT     H256391   3.380   5.925   0.891
18097WAT      O56392   2.216   5.915   0.271
18097WAT     H156393   2.224   5.820   0.282
18097WAT     H256394   2.305   5.948   0.282
18098WAT      O56395   3.549   6.721   1.014
18098WAT     H156396   3.562   6.803   1.061
18098WAT     H256397   3.636   6.700   0.979
18099WAT      O56398   2.296   6.930   0.981
18099WAT     H156399   2.370   6.875   1.009
18099WAT     H256400   2.335   7.017   0.967
18100WAT      O56401   1.985   6.537   0.569
18100WAT     H156402   1.892   6.561   0.568
18100WAT     H256403   2.031   6.620   0.557
18101WAT      O56404   2.197   6.849   1.900
18101WAT     H156405   2.277   6.881   1.942
18101WAT     H256406   2.145   6.813   1.972
18102WAT      O56407   3.513   6.770   0.306
18102WAT     H156408   3.484   6.729   0.225
18102WAT     H256409   3.493   6.863   0.294
18103WAT      O56410   1.969   6.097   1.795
18103WAT     H156411   2.019   6.039   1.852
18103WAT     H256412   1.895   6.126   1.848
18104WAT      O56413   2.674   6.238   1.748
18104WAT     H156414   2.598   6.295   1.740
18104WAT     H256415   2.692   6.209   1.659
18105WAT      O56416   2.983   6.276   0.211
18105WAT     H156417   2.928   6.320   0.275
18105WAT     H256418   3.045   6.225   0.263
18106WAT      O56419   3.388   6.411   1.804
18106WAT     H156420   3.463   6.445   1.753
18106WAT     H256421   3.312   6.428   1.748
18107WAT      O56422   2.172   5.912   1.884
18107WAT     H156423   2.176   5.882   1.975
18107WAT     H256424   2.257   5.952   1.868
18108WAT      O56425   2.550   6.172   0.400
18108WAT     H156426   2.592   6.155   0.484
18108WAT     H256427   2.562   6.091   0.351
18109WAT      O56428   2.366   5.770   1.681
18109WAT     H156429   2.313   5.720   1.618
18109WAT     H256430   2.433   5.812   1.627
18110WAT      O56431   3.256   6.216   1.657
18110WAT     H156432   3.297   6.232   1.742
18110WAT     H256433   3.162   6.229   1.674
18111WAT      O56434   3.303   5.950   1.858
18111WAT     H156435   3.361   5.875   1.849
18111WAT     H256436   3.321   6.003   1.780
18112WAT      O56437   2.415   5.466   1.689
18112WAT     H156438   2.405   5.404   1.616
18112WAT     H256439   2.357   5.539   1.666
18113WAT      O56440   2.691   5.322   1.392
18113WAT     H156441   2.647   5.324   1.308
18113WAT     H256442   2.628   5.282   1.452
18114WAT      O56443   2.732   6.211   1.454
18114WAT     H156444   2.774   6.296   1.437
18114WAT     H256445   2.640   6.225   1.431
18115WAT      O56446   2.966   5.985   1.593
18115WAT     H156447   2.978   5.925   1.667
18115WAT     H256448   3.052   5.988   1.551
18116WAT      O56449   3.200   6.040   1.450
18116WAT     H156450   3.147   6.092   1.390
18116WAT     H256451   3.234   6.103   1.513
18117WAT      O56452   2.517   6.842   1.566
18117WAT     H156453   2.463   6.914   1.534
18117WAT     H256454   2.542   6.794   1.487
18118WAT      O56455   2.642   5.639   1.718
18118WAT     H156456   2.701   5.608   1.787
18118WAT     H256457   2.561   5.592   1.734
18119WAT      O56458   3.124   5.600   1.742
18119WAT     H156459   3.055   5.534   1.735
18119WAT     H256460   3.196   5.556   1.786
18120WAT      O56461   3.187   5.260   0.348
18120WAT     H156462   3.215   5.176   0.383
18120WAT     H256463   3.110   5.283   0.399
18121WAT      O56464   2.803   6.965   1.592
18121WAT     H156465   2.795   7.056   1.622
18121WAT     H256466   2.713   6.934   1.589
18122WAT      O56467   2.858   6.882   0.354
18122WAT     H156468   2.947   6.916   0.356
18122WAT     H256469   2.861   6.810   0.291
18123WAT      O56470   2.222   6.419   0.177
18123WAT     H156471   2.265   6.474   0.242
18123WAT     H256472   2.270   6.337   0.178
18124WAT      O56473   1.943   6.698   0.922
18124WAT     H156474   1.976   6.611   0.899
18124WAT     H256475   1.986   6.719   1.005
18125WAT      O56476   2.403   6.531   0.688
18125WAT     H156477   2.373   6.519   0.778
18125WAT     H256478   2.392   6.445   0.647
18126WAT      O56479   1.992   6.785   1.196
18126WAT     H156480   1.948   6.803   1.279
18126WAT     H256481   2.049   6.861   1.182
18127WAT      O56482   3.556   6.735   1.625
18127WAT     H156483   3.496   6.741   1.550
18127WAT     H256484   3.568   6.641   1.638
18128WAT      O56485   3.625   6.184   0.409
18128WAT     H156486   3.701   6.241   0.419
18128WAT     H256487   3.627   6.127   0.486
18129WAT      O56488   1.975   6.036   0.832
18129WAT     H156489   1.910   6.009   0.767
18129WAT     H256490   2.059   6.025   0.787
18130WAT      O56491   3.726   6.269   0.893
18130WAT     H156492   3.763   6.191   0.852
18130WAT     H256493   3.790   6.338   0.875
18131WAT      O56494   3.424   6.408   1.434
18131WAT     H156495   3.343   6.451   1.461
18131WAT     H256496   3.465   6.469   1.373
18132WAT      O56497   3.270   5.516   0.254
18132WAT     H156498   3.312   5.497   0.170
18132WAT     H256499   3.239   5.430   0.285
18133WAT      O56500   3.620   6.007   0.624
18133WAT     H156501   3.582   5.930   0.580
18133WAT     H256502   3.547   6.045   0.672
18134WAT      O56503   2.079   6.075   1.286
18134WAT     H156504   2.116   6.066   1.374
18134WAT     H256505   2.022   5.998   1.276
18135WAT      O56506   3.559   5.921   1.587
18135WAT     H156507   3.536   5.899   1.497
18135WAT     H256508   3.585   6.013   1.583
18136WAT      O56509   2.034   5.766   1.676
18136WAT     H156510   1.945   5.762   1.710
18136WAT     H256511   2.088   5.786   1.753
18137WAT      O56512   3.403   5.444   1.865
18137WAT     H156513   3.491   5.445   1.903
18137WAT     H256514   3.404   5.370   1.804
18138WAT      O56515   1.897   5.757   0.426
18138WAT     H156516   1.806   5.783   0.409
18138WAT     H256517   1.945   5.784   0.348
18139WAT      O56518   3.547   5.829   0.954
18139WAT     H156519   3.600   5.780   0.891
18139WAT     H256520   3.606   5.843   1.028
18140WAT      O56521   3.565   5.838   1.306
18140WAT     H156522   3.470   5.834   1.317
18140WAT     H256523   3.583   5.929   1.282
18141WAT      O56524   3.496   5.755   0.548
18141WAT     H156525   3.546   5.732   0.626
18141WAT     H256526   3.477   5.671   0.506
18142WAT      O56527   2.084   5.193   1.111
18142WAT     H156528   2.149   5.138   1.067
18142WAT     H256529   2.126   5.219   1.193
18143WAT      O56530   3.639   5.619   0.801
18143WAT     H156531   3.628   5.603   0.895
18143WAT     H256532   3.715   5.566   0.777
18144WAT      O56533   3.474   5.213   1.447
18144WAT     H156534   3.538   5.274   1.483
18144WAT     H256535   3.489   5.216   1.352
18145WAT      O56536   3.736   5.479   0.388
18145WAT     H156537   3.656   5.472   0.441
18145WAT     H256538   3.756   5.572   0.387
18146WAT      O56539   3.430   6.883   0.787
18146WAT     H156540   3.489   6.851   0.719
18146WAT     H256541   3.456   6.835   0.866
18147WAT      O56542   2.060   5.209   1.385
18147WAT     H156543   2.025   5.254   1.462
18147WAT     H256544   2.027   5.119   1.394
18148WAT      O56545   2.220   6.526   1.802
18148WAT     H156546   2.216   6.489   1.890
18148WAT     H256547   2.234   6.620   1.816
18149WAT      O56548   2.590   6.682   1.362
18149WAT     H156549   2.566   6.708   1.273
18149WAT     H256550   2.685   6.699   1.368
18150WAT      O56551   2.811   5.328   1.738
18150WAT     H156552   2.805   5.387   1.813
18150WAT     H256553   2.905   5.317   1.723
18151WAT      O56554   3.075   5.294   1.702
18151WAT     H156555   3.136   5.325   1.635
18151WAT     H256556   3.129   5.245   1.764
18152WAT      O56557   3.717   6.883   1.442
18152WAT     H156558   3.667   6.923   1.370
18152WAT     H256559   3.656   6.821   1.482
18153WAT      O56560   2.127   5.162   1.713
18153WAT     H156561   2.182   5.143   1.637
18153WAT     H256562   2.134   5.082   1.767
18154WAT      O56563   2.204   6.821   1.514
18154WAT     H156564   2.145   6.807   1.588
18154WAT     H256565   2.204   6.737   1.467
18155WAT      O56566   3.149   5.150   1.334
18155WAT     H156567   3.061   5.183   1.314
18155WAT     H256568   3.138   5.103   1.417
18156WAT      O56569   3.240   5.371   1.473
18156WAT     H156570   3.207   5.289   1.435
18156WAT     H256571   3.334   5.366   1.460
18157WAT      O56572   3.485   6.948   1.170
18157WAT     H156573   3.439   7.023   1.133
18157WAT     H256574   3.422   6.876   1.164
18158WAT      O56575   2.167   6.557   1.409
18158WAT     H156576   2.095   6.495   1.402
18158WAT     H256577   2.174   6.597   1.322
18159WAT      O56578   2.528   6.779   1.088
18159WAT     H156579   2.580   6.717   1.035
18159WAT     H256580   2.593   6.829   1.137
18160WAT      O56581   2.802   6.868   1.170
18160WAT     H156582   2.831   6.842   1.083
18160WAT     H256583   2.853   6.812   1.229
18161WAT      O56584   2.924   5.242   1.228
18161WAT     H156585   2.845   5.289   1.256
18161WAT     H256586   2.894   5.151   1.217
18162WAT      O56587   3.379   5.312   1.033
18162WAT     H156588   3.423   5.306   0.948
18162WAT     H256589   3.352   5.403   1.040
18163WAT      O56590   3.565   5.275   0.834
18163WAT     H156591   3.559   5.181   0.819
18163WAT     H256592   3.643   5.286   0.888
18164WAT      O56593   1.996   6.889   0.730
18164WAT     H156594   1.979   6.826   0.800
18164WAT     H256595   1.909   6.910   0.695
18165WAT      O56596   2.058   5.272   0.480
18165WAT     H156597   2.134   5.283   0.423
18165WAT     H256598   2.012   5.356   0.476
18166WAT      O56599   2.712   5.483   0.779
18166WAT     H156600   2.631   5.446   0.745
18166WAT     H256601   2.763   5.408   0.810
18167WAT      O56602   3.162   5.150   0.903
18167WAT     H156603   3.223   5.207   0.951
18167WAT     H256604   3.088   5.206   0.881
18168WAT      O56605   3.477   5.190   0.431
18168WAT     H156606   3.496   5.280   0.457
18168WAT     H256607   3.398   5.167   0.480
18169WAT      O56608   2.156   6.758   0.474
18169WAT     H156609   2.104   6.796   0.404
18169WAT     H256610   2.149   6.821   0.547
18170WAT      O56611   2.295   5.325   0.334
18170WAT     H156612   2.348   5.246   0.321
18170WAT     H256613   2.359   5.393   0.358
18171WAT      O56614   2.515   5.298   0.640
18171WAT     H156615   2.452   5.228   0.656
18171WAT     H256616   2.461   5.375   0.618
18172WAT      O56617   3.632   6.914   0.607
18172WAT     H156618   3.650   6.845   0.542
18172WAT     H256619   3.562   6.967   0.567
18173WAT      O56620   2.527   5.226   1.883
18173WAT     H156621   2.499   5.277   1.807
18173WAT     H256622   2.565   5.147   1.847
18174WAT      O56623   2.416   6.953   0.362
18174WAT     H156624   2.489   6.925   0.307
18174WAT     H256625   2.442   6.929   0.451
18175WAT      O56626   2.332   6.565   0.362
18175WAT     H156627   2.270   6.612   0.417
18175WAT     H256628   2.344   6.480   0.406
18176WAT      O56629   3.187   5.168   1.941
18176WAT     H156630   3.176   5.200   2.031
18176WAT     H256631   3.269   5.208   1.911
18177WAT      O56632   3.078   4.092   6.487
18177WAT     H156633   3.070   4.001   6.460
18177WAT     H256634   3.037   4.142   6.417
18178WAT      O56635   2.891   4.270   6.675
18178WAT     H156636   2.814   4.222   6.704
18178WAT     H256637   2.956   4.202   6.658
18179WAT      O56638   2.293   4.301   6.763
18179WAT     H156639   2.210   4.276   6.803
18179WAT     H256640   2.354   4.308   6.837
18180WAT      O56641   3.293   4.711   6.553
18180WAT     H156642   3.247   4.634   6.586
18180WAT     H256643   3.374   4.713   6.604
18181WAT      O56644   2.291   4.705   6.783
18181WAT     H156645   2.321   4.616   6.765
18181WAT     H256646   2.365   4.760   6.760
18182WAT      O56647   2.134   3.797   6.141
18182WAT     H156648   2.045   3.832   6.131
18182WAT     H256649   2.162   3.777   6.052
18183WAT      O56650   1.930   4.057   6.730
18183WAT     H156651   1.987   3.981   6.730
18183WAT     H256652   1.930   4.087   6.639
18184WAT      O56653   2.916   4.939   6.515
18184WAT     H156654   2.854   4.985   6.458
18184WAT     H256655   3.001   4.955   6.475
18185WAT      O56656   2.835   4.538   6.676
18185WAT     H156657   2.828   4.444   6.660
18185WAT     H256658   2.911   4.547   6.733
18186WAT      O56659   2.054   3.598   6.909
18186WAT     H156660   2.036   3.508   6.937
18186WAT     H256661   2.014   3.653   6.976
18187WAT      O56662   2.938   3.818   6.699
18187WAT     H156663   2.976   3.731   6.687
18187WAT     H256664   2.928   3.852   6.610
18188WAT      O56665   2.351   3.656   6.245
18188WAT     H156666   2.362   3.746   6.276
18188WAT     H256667   2.260   3.651   6.216
18189WAT      O56668   3.316   3.568   6.392
18189WAT     H156669   3.399   3.519   6.396
18189WAT     H256670   3.320   3.627   6.467
18190WAT      O56671   2.116   3.848   6.769
18190WAT     H156672   2.184   3.874   6.831
18190WAT     H256673   2.085   3.764   6.803
18191WAT      O56674   2.535   3.953   6.678
18191WAT     H156675   2.586   4.002   6.742
18191WAT     H256676   2.589   3.875   6.661
18192WAT      O56677   3.745   3.770   7.048
18192WAT     H156678   3.675   3.808   6.997
18192WAT     H256679   3.772   3.839   7.109
18193WAT      O56680   2.364   3.417   7.105
18193WAT     H156681   2.364   3.468   7.024
18193WAT     H256682   2.281   3.369   7.102
18194WAT      O56683   3.002   4.428   6.255
18194WAT     H156684   2.941   4.474   6.198
18194WAT     H256685   3.054   4.497   6.296
18195WAT      O56686   2.489   4.380   6.922
18195WAT     H156687   2.455   4.443   6.987
18195WAT     H256688   2.506   4.433   6.845
18196WAT      O56689   3.340   3.762   6.669
18196WAT     H156690   3.270   3.791   6.727
18196WAT     H256691   3.376   3.843   6.633
18197WAT      O56692   2.332   3.588   6.905
18197WAT     H156693   2.366   3.672   6.876
18197WAT     H256694   2.238   3.602   6.917
18198WAT      O56695   2.410   4.577   7.104
18198WAT     H156696   2.472   4.645   7.076
18198WAT     H256697   2.324   4.618   7.095
18199WAT      O56698   1.939   4.496   5.992
18199WAT     H156699   1.902   4.545   5.919
18199WAT     H256700   1.965   4.564   6.055
18200WAT      O56701   3.502   4.724   6.896
18200WAT     H156702   3.433   4.791   6.895
18200WAT     H256703   3.556   4.743   6.819
18201WAT      O56704   3.647   3.706   6.708
18201WAT     H156705   3.552   3.710   6.721
18201WAT     H256706   3.679   3.788   6.747
18202WAT      O56707   2.700   3.336   6.538
18202WAT     H156708   2.731   3.281   6.466
18202WAT     H256709   2.607   3.350   6.520
18203WAT      O56710   3.255   4.908   6.767
18203WAT     H156711   3.257   4.868   6.680
18203WAT     H256712   3.200   4.986   6.757
18204WAT      O56713   3.385   4.580   6.276
18204WAT     H156714   3.374   4.486   6.288
18204WAT     H256715   3.384   4.616   6.365
18205WAT      O56716   3.195   4.398   6.900
18205WAT     H156717   3.237   4.377   6.816
18205WAT     H256718   3.268   4.424   6.957
18206WAT      O56719   2.939   4.143   6.212
18206WAT     H156720   2.846   4.136   6.234
18206WAT     H256721   2.954   4.237   6.200
18207WAT      O56722   2.938   3.770   5.911
18207WAT     H156723   2.844   3.786   5.920
18207WAT     H256724   2.970   3.842   5.857
18208WAT      O56725   3.590   4.238   6.909
18208WAT     H156726   3.507   4.245   6.861
18208WAT     H256727   3.649   4.297   6.862
18209WAT      O56728   3.342   4.299   6.262
18209WAT     H156729   3.280   4.265   6.197
18209WAT     H256730   3.340   4.235   6.333
18210WAT      O56731   3.286   3.917   7.004
18210WAT     H156732   3.245   4.000   7.029
18210WAT     H256733   3.213   3.858   6.984
18211WAT      O56734   2.500   4.196   6.490
18211WAT     H156735   2.459   4.124   6.440
18211WAT     H256736   2.508   4.161   6.579
18212WAT      O56737   2.546   4.564   6.706
18212WAT     H156738   2.517   4.504   6.638
18212WAT     H256739   2.641   4.568   6.695
18213WAT      O56740   2.371   3.873   6.868
18213WAT     H156741   2.426   3.884   6.790
18213WAT     H256742   2.422   3.910   6.939
18214WAT      O56743   3.355   4.922   7.072
18214WAT     H156744   3.308   5.002   7.053
18214WAT     H256745   3.287   4.856   7.088
18215WAT      O56746   2.456   4.538   7.371
18215WAT     H156747   2.366   4.560   7.396
18215WAT     H256748   2.458   4.550   7.276
18216WAT      O56749   3.160   4.223   5.963
18216WAT     H156750   3.204   4.139   5.948
18216WAT     H256751   3.231   4.286   5.971
18217WAT      O56752   2.338   4.225   7.229
18217WAT     H156753   2.324   4.312   7.266
18217WAT     H256754   2.250   4.191   7.214
18218WAT      O56755   2.971   4.717   6.359
18218WAT     H156756   3.015   4.791   6.318
18218WAT     H256757   2.964   4.741   6.452
18219WAT      O56758   2.518   4.819   7.450
18219WAT     H156759   2.515   4.860   7.363
18219WAT     H256760   2.502   4.727   7.433
18220WAT      O56761   3.518   3.348   5.794
18220WAT     H156762   3.486   3.358   5.884
18220WAT     H256763   3.594   3.406   5.789
18221WAT      O56764   2.170   4.085   6.240
18221WAT     H156765   2.158   4.158   6.179
18221WAT     H256766   2.139   4.008   6.192
18222WAT      O56767   1.933   4.402   6.820
18222WAT     H156768   1.941   4.416   6.726
18222WAT     H256769   1.995   4.331   6.840
18223WAT      O56770   2.058   4.572   6.462
18223WAT     H156771   2.017   4.586   6.376
18223WAT     H256772   2.147   4.544   6.441
18224WAT      O56773   3.654   4.617   7.295
18224WAT     H156774   3.666   4.593   7.203
18224WAT     H256775   3.658   4.534   7.342
18225WAT      O56776   3.040   4.987   7.152
18225WAT     H156777   3.091   4.978   7.232
18225WAT     H256778   2.955   5.022   7.181
18226WAT      O56779   2.485   4.994   6.273
18226WAT     H156780   2.468   4.902   6.251
18226WAT     H256781   2.400   5.029   6.297
18227WAT      O56782   3.208   4.767   5.951
18227WAT     H156783   3.138   4.766   5.885
18227WAT     H256784   3.282   4.724   5.908
18228WAT      O56785   3.164   4.929   6.358
18228WAT     H156786   3.210   4.851   6.390
18228WAT     H256787   3.198   5.000   6.413
18229WAT      O56788   3.639   3.822   7.392
18229WAT     H156789   3.577   3.873   7.339
18229WAT     H256790   3.607   3.732   7.386
18230WAT      O56791   1.939   4.506   7.074
18230WAT     H156792   1.955   4.459   6.993
18230WAT     H256793   1.986   4.456   7.141
18231WAT      O56794   2.416   3.419   6.578
18231WAT     H156795   2.372   3.497   6.545
18231WAT     H256796   2.472   3.452   6.649
18232WAT      O56797   2.845   3.706   7.138
18232WAT     H156798   2.799   3.727   7.220
18232WAT     H256799   2.805   3.625   7.108
18233WAT      O56800   3.345   3.828   7.251
18233WAT     H156801   3.260   3.798   7.283
18233WAT     H256802   3.329   3.853   7.160
18234WAT      O56803   3.054   3.978   7.461
18234WAT     H156804   3.087   3.895   7.427
18234WAT     H256805   3.133   4.030   7.476
18235WAT      O56806   2.728   3.381   6.066
18235WAT     H156807   2.665   3.381   6.139
18235WAT     H256808   2.719   3.295   6.026
18236WAT      O56809   2.620   3.474   6.764
18236WAT     H156810   2.650   3.564   6.756
18236WAT     H256811   2.675   3.425   6.702
18237WAT      O56812   2.395   3.932   6.351
18237WAT     H156813   2.373   3.910   6.441
18237WAT     H256814   2.317   3.975   6.316
18238WAT      O56815   3.118   3.932   6.211
18238WAT     H156816   3.058   4.005   6.192
18238WAT     H256817   3.173   3.926   6.132
18239WAT      O56818   2.639   4.022   7.417
18239WAT     H156819   2.630   3.928   7.402
18239WAT     H256820   2.724   4.044   7.378
18240WAT      O56821   2.979   3.796   6.414
18240WAT     H156822   3.018   3.828   6.332
18240WAT     H256823   3.015   3.708   6.425
18241WAT      O56824   2.152   3.663   7.233
18241WAT     H156825   2.113   3.747   7.253
18241WAT     H256826   2.084   3.599   7.252
18242WAT      O56827   1.883   3.455   6.636
18242WAT     H156828   1.854   3.512   6.707
18242WAT     H256829   1.957   3.407   6.672
18243WAT      O56830   1.901   3.849   5.757
18243WAT     H156831   1.893   3.943   5.771
18243WAT     H256832   1.866   3.835   5.669
18244WAT      O56833   3.038   4.055   6.823
18244WAT     H156834   2.964   4.106   6.858
18244WAT     H256835   2.998   3.973   6.793
18245WAT      O56836   2.681   3.723   6.664
18245WAT     H156837   2.682   3.678   6.579
18245WAT     H256838   2.771   3.755   6.675
18246WAT      O56839   2.266   3.711   6.560
18246WAT     H156840   2.232   3.759   6.635
18246WAT     H256841   2.190   3.665   6.524
18247WAT      O56842   2.688   3.823   5.963
18247WAT     H156843   2.700   3.819   6.058
18247WAT     H256844   2.649   3.909   5.947
18248WAT      O56845   3.084   3.600   6.764
18248WAT     H156846   3.086   3.645   6.849
18248WAT     H256847   3.059   3.510   6.786
18249WAT      O56848   2.589   4.054   5.903
18249WAT     H156849   2.532   4.009   5.840
18249WAT     H256850   2.660   4.090   5.849
18250WAT      O56851   3.427   3.342   7.348
18250WAT     H156852   3.459   3.269   7.401
18250WAT     H256853   3.430   3.310   7.258
18251WAT      O56854   2.096   4.444   7.290
18251WAT     H156855   2.058   4.380   7.350
18251WAT     H256856   2.128   4.514   7.347
18252WAT      O56857   2.711   4.129   6.838
18252WAT     H156858   2.748   4.081   6.913
18252WAT     H256859   2.692   4.216   6.873
18253WAT      O56860   1.998   3.603   6.451
18253WAT     H156861   1.969   3.567   6.535
18253WAT     H256862   1.992   3.530   6.390
18254WAT      O56863   2.490   4.033   7.070
18254WAT     H156864   2.460   4.121   7.093
18254WAT     H256865   2.586   4.039   7.074
18255WAT      O56866   2.343   4.453   6.130
18255WAT     H156867   2.266   4.399   6.114
18255WAT     H256868   2.416   4.401   6.096
18256WAT      O56869   3.419   4.353   6.709
18256WAT     H156870   3.491   4.402   6.670
18256WAT     H256871   3.399   4.285   6.645
18257WAT      O56872   2.965   3.492   6.124
18257WAT     H156873   2.884   3.442   6.116
18257WAT     H256874   2.946   3.576   6.082
18258WAT      O56875   2.957   4.360   7.298
18258WAT     H156876   2.951   4.268   7.272
18258WAT     H256877   2.894   4.370   7.369
18259WAT      O56878   3.237   3.930   5.953
18259WAT     H156879   3.325   3.961   5.936
18259WAT     H256880   3.234   3.842   5.914
18260WAT      O56881   2.348   4.420   6.494
18260WAT     H156882   2.399   4.340   6.488
18260WAT     H256883   2.302   4.414   6.578
18261WAT      O56884   2.836   4.547   6.021
18261WAT     H156885   2.870   4.621   5.971
18261WAT     H256886   2.753   4.578   6.057
18262WAT      O56887   2.096   4.117   7.185
18262WAT     H156888   2.060   4.183   7.244
18262WAT     H256889   2.067   4.034   7.222
18263WAT      O56890   2.416   4.163   7.473
18263WAT     H156891   2.386   4.177   7.384
18263WAT     H256892   2.493   4.107   7.464
18264WAT      O56893   2.950   4.642   7.273
18264WAT     H156894   2.952   4.549   7.251
18264WAT     H256895   2.880   4.651   7.337
18265WAT      O56896   3.464   4.061   5.900
18265WAT     H156897   3.455   4.104   5.815
18265WAT     H256898   3.536   4.107   5.943
18266WAT      O56899   3.572   4.306   7.208
18266WAT     H156900   3.499   4.366   7.188
18266WAT     H256901   3.624   4.306   7.128
18267WAT      O56902   3.567   4.746   6.173
18267WAT     H156903   3.502   4.681   6.200
18267WAT     H256904   3.528   4.787   6.095
18268WAT      O56905   3.125   4.479   6.557
18268WAT     H156906   3.160   4.419   6.491
18268WAT     H256907   3.036   4.446   6.575
18269WAT      O56908   2.733   4.555   6.298
18269WAT     H156909   2.802   4.610   6.336
18269WAT     H256910   2.655   4.609   6.302
18270WAT      O56911   1.947   4.117   5.847
18270WAT     H156912   2.034   4.145   5.876
18270WAT     H256913   1.898   4.198   5.836
18271WAT      O56914   2.663   4.255   6.259
18271WAT     H156915   2.709   4.336   6.282
18271WAT     H256916   2.628   4.224   6.343
18272WAT      O56917   2.894   4.806   6.982
18272WAT     H156918   2.958   4.827   7.050
18272WAT     H256919   2.930   4.730   6.937
18273WAT      O56920   2.254   3.290   6.307
18273WAT     H156921   2.241   3.289   6.402
18273WAT     H256922   2.171   3.324   6.272
18274WAT      O56923   3.021   4.607   6.854
18274WAT     H156924   3.085   4.537   6.865
18274WAT     H256925   3.074   4.685   6.836
18275WAT      O56926   3.406   4.635   5.827
18275WAT     H156927   3.383   4.564   5.886
18275WAT     H256928   3.367   4.610   5.743
18276WAT      O56929   3.198   4.687   7.174
18276WAT     H156930   3.232   4.745   7.242
18276WAT     H256931   3.106   4.674   7.197
18277WAT      O56932   1.984   5.038   5.904
18277WAT     H156933   2.020   5.098   5.839
18277WAT     H256934   1.970   5.092   5.981
18278WAT      O56935   1.954   3.466   7.253
18278WAT     H156936   1.882   3.486   7.313
18278WAT     H256937   1.995   3.388   7.290
18279WAT      O56938   3.364   4.427   5.993
18279WAT     H156939   3.335   4.473   6.071
18279WAT     H256940   3.443   4.381   6.019
18280WAT      O56941   1.982   4.864   7.351
18280WAT     H156942   1.993   4.770   7.337
18280WAT     H256943   1.917   4.891   7.287
18281WAT      O56944   2.586   4.776   5.986
18281WAT     H156945   2.585   4.849   5.924
18281WAT     H256946   2.493   4.752   5.995
18282WAT      O56947   2.146   4.298   6.060
18282WAT     H156948   2.085   4.372   6.061
18282WAT     H256949   2.193   4.307   5.978
18283WAT      O56950   3.103   3.715   7.028
18283WAT     H156951   3.140   3.633   7.061
18283WAT     H256952   3.017   3.721   7.069
18284WAT      O56953   3.440   3.610   6.109
18284WAT     H156954   3.377   3.621   6.037
18284WAT     H256955   3.390   3.632   6.188
18285WAT      O56956   2.636   3.838   6.250
18285WAT     H156957   2.566   3.885   6.294
18285WAT     H256958   2.665   3.773   6.314
18286WAT      O56959   2.799   3.980   7.050
18286WAT     H156960   2.849   4.028   7.117
18286WAT     H256961   2.813   3.888   7.071
18287WAT      O56962   3.040   3.511   6.394
18287WAT     H156963   3.027   3.513   6.299
18287WAT     H256964   3.134   3.516   6.406
18288WAT      O56965   2.457   3.669   5.988
18288WAT     H156966   2.542   3.713   5.981
18288WAT     H256967   2.420   3.700   6.070
18289WAT      O56968   3.520   3.602   7.134
18289WAT     H156969   3.469   3.676   7.168
18289WAT     H256970   3.601   3.641   7.103
18290WAT      O56971   3.349   4.126   6.479
18290WAT     H156972   3.255   4.128   6.496
18290WAT     H256973   3.380   4.048   6.524
18291WAT      O56974   2.347   4.294   5.835
18291WAT     H156975   2.423   4.283   5.891
18291WAT     H256976   2.354   4.225   5.770
18292WAT      O56977   2.216   4.038   5.903
18292WAT     H156978   2.224   3.943   5.915
18292WAT     H256979   2.305   4.071   5.914
18293WAT      O56980   3.549   4.843   6.647
18293WAT     H156981   3.562   4.926   6.694
18293WAT     H256982   3.636   4.822   6.612
18294WAT      O56983   2.296   5.053   6.614
18294WAT     H156984   2.370   4.998   6.641
18294WAT     H256985   2.335   5.139   6.600
18295WAT      O56986   1.985   4.659   6.201
18295WAT     H156987   1.892   4.684   6.200
18295WAT     H256988   2.031   4.742   6.189
18296WAT      O56989   3.223   4.955   7.388
18296WAT     H156990   3.319   4.946   7.383
18296WAT     H256991   3.209   5.021   7.456
18297WAT      O56992   3.513   4.893   5.938
18297WAT     H156993   3.484   4.851   5.857
18297WAT     H256994   3.493   4.986   5.926
18298WAT      O56995   1.969   4.220   7.427
18298WAT     H156996   2.019   4.162   7.484
18298WAT     H256997   1.895   4.248   7.481
18299WAT      O56998   2.659   4.492   5.782
18299WAT     H156999   2.649   4.431   5.855
18299WAT     H257000   2.642   4.440   5.704
18300WAT      O57001   2.674   4.361   7.380
18300WAT     H157002   2.598   4.417   7.372
18300WAT     H257003   2.692   4.331   7.291
18301WAT      O57004   2.983   4.398   5.843
18301WAT     H157005   2.928   4.443   5.907
18301WAT     H257006   3.045   4.348   5.895
18302WAT      O57007   3.388   4.534   7.436
18302WAT     H157008   3.463   4.567   7.386
18302WAT     H257009   3.312   4.551   7.381
18303WAT      O57010   2.550   4.294   6.032
18303WAT     H157011   2.592   4.278   6.117
18303WAT     H257012   2.562   4.213   5.983
18304WAT      O57013   2.366   3.892   7.313
18304WAT     H157014   2.313   3.843   7.250
18304WAT     H257015   2.433   3.935   7.260
18305WAT      O57016   2.801   4.196   5.757
18305WAT     H157017   2.853   4.125   5.721
18305WAT     H257018   2.866   4.260   5.787
18306WAT      O57019   3.256   4.339   7.290
18306WAT     H157020   3.297   4.354   7.375
18306WAT     H257021   3.162   4.351   7.306
18307WAT      O57022   3.303   4.073   7.490
18307WAT     H157023   3.361   3.997   7.481
18307WAT     H257024   3.321   4.126   7.412
18308WAT      O57025   2.415   3.589   7.321
18308WAT     H157026   2.405   3.527   7.249
18308WAT     H257027   2.357   3.661   7.298
18309WAT      O57028   2.691   3.444   7.024
18309WAT     H157029   2.647   3.447   6.940
18309WAT     H257030   2.628   3.405   7.084
18310WAT      O57031   2.732   4.334   7.087
18310WAT     H157032   2.774   4.418   7.069
18310WAT     H257033   2.640   4.348   7.064
18311WAT      O57034   2.966   4.107   7.225
18311WAT     H157035   2.978   4.048   7.299
18311WAT     H257036   3.052   4.111   7.183
18312WAT      O57037   3.200   4.163   7.083
18312WAT     H157038   3.147   4.215   7.022
18312WAT     H257039   3.234   4.226   7.146
18313WAT      O57040   2.439   3.901   5.727
18313WAT     H157041   2.419   3.815   5.763
18313WAT     H257042   2.422   3.893   5.633
18314WAT      O57043   2.517   4.965   7.198
18314WAT     H157044   2.463   5.037   7.166
18314WAT     H257045   2.542   4.917   7.119
18315WAT      O57046   2.642   3.761   7.351
18315WAT     H157047   2.701   3.731   7.419
18315WAT     H257048   2.561   3.714   7.366
18316WAT      O57049   3.124   3.723   7.374
18316WAT     H157050   3.055   3.657   7.368
18316WAT     H257051   3.196   3.678   7.419
18317WAT      O57052   3.187   3.383   5.980
18317WAT     H157053   3.215   3.298   6.016
18317WAT     H257054   3.110   3.406   6.031
18318WAT      O57055   2.319   3.611   5.726
18318WAT     H157056   2.349   3.612   5.635
18318WAT     H257057   2.393   3.576   5.776
18319WAT      O57058   2.803   5.088   7.224
18319WAT     H157059   2.795   5.178   7.255
18319WAT     H257060   2.713   5.056   7.221
18320WAT      O57061   2.641   3.506   5.824
18320WAT     H157062   2.606   3.438   5.766
18320WAT     H257063   2.661   3.460   5.906
18321WAT      O57064   2.222   4.542   5.809
18321WAT     H157065   2.265   4.596   5.875
18321WAT     H257066   2.270   4.459   5.810
18322WAT      O57067   1.943   4.821   6.554
18322WAT     H157068   1.976   4.734   6.531
18322WAT     H257069   1.986   4.841   6.637
18323WAT      O57070   2.403   4.654   6.320
18323WAT     H157071   2.373   4.642   6.410
18323WAT     H257072   2.392   4.568   6.280
18324WAT      O57073   1.992   4.907   6.828
18324WAT     H157074   1.948   4.925   6.911
18324WAT     H257075   2.049   4.983   6.814
18325WAT      O57076   3.556   4.858   7.257
18325WAT     H157077   3.496   4.864   7.183
18325WAT     H257078   3.568   4.764   7.270
18326WAT      O57079   3.680   4.632   5.791
18326WAT     H157080   3.596   4.639   5.838
18326WAT     H257081   3.697   4.721   5.760
18327WAT      O57082   3.625   4.306   6.041
18327WAT     H157083   3.701   4.363   6.052
18327WAT     H257084   3.627   4.250   6.118
18328WAT      O57085   1.975   4.159   6.464
18328WAT     H157086   1.910   4.132   6.400
18328WAT     H257087   2.059   4.148   6.419
18329WAT      O57088   3.726   4.392   6.525
18329WAT     H157089   3.763   4.313   6.485
18329WAT     H257090   3.790   4.461   6.508
18330WAT      O57091   3.424   4.530   7.067
18330WAT     H157092   3.343   4.573   7.093
18330WAT     H257093   3.465   4.591   7.005
18331WAT      O57094   3.630   4.336   5.757
18331WAT     H157095   3.658   4.426   5.744
18331WAT     H257096   3.611   4.329   5.850
18332WAT      O57097   3.270   3.638   5.886
18332WAT     H157098   3.312   3.619   5.802
18332WAT     H257099   3.239   3.553   5.917
18333WAT      O57100   3.620   4.129   6.256
18333WAT     H157101   3.582   4.053   6.213
18333WAT     H257102   3.547   4.168   6.305
18334WAT      O57103   2.079   4.197   6.918
18334WAT     H157104   2.116   4.188   7.006
18334WAT     H257105   2.022   4.121   6.908
18335WAT      O57106   3.559   4.044   7.219
18335WAT     H157107   3.536   4.021   7.129
18335WAT     H257108   3.585   4.136   7.215
18336WAT      O57109   2.034   3.888   7.309
18336WAT     H157110   1.945   3.885   7.343
18336WAT     H257111   2.088   3.908   7.385
18337WAT      O57112   1.897   3.880   6.058
18337WAT     H157113   1.806   3.906   6.041
18337WAT     H257114   1.945   3.907   5.980
18338WAT      O57115   3.547   3.952   6.586
18338WAT     H157116   3.600   3.903   6.523
18338WAT     H257117   3.606   3.965   6.661
18339WAT      O57118   3.565   3.960   6.938
18339WAT     H157119   3.470   3.957   6.950
18339WAT     H257120   3.583   4.051   6.915
18340WAT      O57121   2.151   3.785   5.849
18340WAT     H157122   2.222   3.743   5.801
18340WAT     H257123   2.079   3.792   5.786
18341WAT      O57124   2.116   3.391   5.753
18341WAT     H157125   2.188   3.445   5.785
18341WAT     H257126   2.143   3.363   5.666
18342WAT      O57127   3.496   3.878   6.180
18342WAT     H157128   3.546   3.854   6.258
18342WAT     H257129   3.477   3.794   6.138
18343WAT      O57130   2.084   3.316   6.743
18343WAT     H157131   2.149   3.261   6.699
18343WAT     H257132   2.126   3.341   6.826
18344WAT      O57133   3.639   3.741   6.433
18344WAT     H157134   3.628   3.726   6.527
18344WAT     H257135   3.715   3.688   6.409
18345WAT      O57136   3.474   3.335   7.079
18345WAT     H157137   3.538   3.397   7.116
18345WAT     H257138   3.489   3.339   6.985
18346WAT      O57139   3.728   3.524   5.757
18346WAT     H157140   3.821   3.511   5.737
18346WAT     H257141   3.726   3.532   5.853
18347WAT      O57142   3.736   3.601   6.020
18347WAT     H157143   3.656   3.595   6.073
18347WAT     H257144   3.756   3.695   6.019
18348WAT      O57145   3.430   5.005   6.419
18348WAT     H157146   3.489   4.973   6.352
18348WAT     H257147   3.456   4.958   6.499
18349WAT      O57148   2.060   3.331   7.018
18349WAT     H157149   2.025   3.377   7.094
18349WAT     H257150   2.027   3.242   7.026
18350WAT      O57151   2.590   4.804   6.994
18350WAT     H157152   2.566   4.831   6.906
18350WAT     H257153   2.685   4.821   7.000
18351WAT      O57154   2.811   3.450   7.370
18351WAT     H157155   2.805   3.510   7.445
18351WAT     H257156   2.905   3.440   7.355
18352WAT      O57157   3.075   3.416   7.334
18352WAT     H157158   3.136   3.448   7.268
18352WAT     H257159   3.129   3.368   7.396
18353WAT      O57160   3.717   5.006   7.074
18353WAT     H157161   3.667   5.046   7.003
18353WAT     H257162   3.656   4.944   7.114
18354WAT      O57163   2.127   3.284   7.345
18354WAT     H157164   2.182   3.266   7.269
18354WAT     H257165   2.134   3.205   7.399
18355WAT      O57166   2.204   4.943   7.146
18355WAT     H157167   2.145   4.930   7.220
18355WAT     H257168   2.204   4.860   7.100
18356WAT      O57169   3.149   3.272   6.967
18356WAT     H157170   3.061   3.306   6.946
18356WAT     H257171   3.138   3.225   7.049
18357WAT      O57172   3.240   3.493   7.105
18357WAT     H157173   3.207   3.412   7.067
18357WAT     H257174   3.334   3.489   7.093
18358WAT      O57175   3.485   5.070   6.802
18358WAT     H157176   3.439   5.145   6.765
18358WAT     H257177   3.422   4.998   6.796
18359WAT      O57178   2.167   4.680   7.041
18359WAT     H157179   2.095   4.618   7.035
18359WAT     H257180   2.174   4.719   6.954
18360WAT      O57181   2.528   4.901   6.720
18360WAT     H157182   2.580   4.840   6.667
18360WAT     H257183   2.593   4.951   6.769
18361WAT      O57184   2.802   4.990   6.803
18361WAT     H157185   2.831   4.965   6.715
18361WAT     H257186   2.853   4.935   6.862
18362WAT      O57187   2.924   3.364   6.860
18362WAT     H157188   2.845   3.412   6.888
18362WAT     H257189   2.894   3.274   6.850
18363WAT      O57190   3.379   3.434   6.665
18363WAT     H157191   3.423   3.429   6.580
18363WAT     H257192   3.352   3.526   6.672
18364WAT      O57193   3.565   3.398   6.466
18364WAT     H157194   3.559   3.303   6.451
18364WAT     H257195   3.643   3.408   6.521
18365WAT      O57196   1.996   5.011   6.362
18365WAT     H157197   1.979   4.948   6.432
18365WAT     H257198   1.909   5.032   6.327
18366WAT      O57199   2.058   3.395   6.113
18366WAT     H157200   2.134   3.406   6.055
18366WAT     H257201   2.012   3.478   6.108
18367WAT      O57202   2.712   3.606   6.412
18367WAT     H157203   2.631   3.569   6.378
18367WAT     H257204   2.763   3.530   6.442
18368WAT      O57205   3.162   3.272   6.535
18368WAT     H157206   3.223   3.330   6.583
18368WAT     H257207   3.088   3.329   6.513
18369WAT      O57208   3.477   3.313   6.063
18369WAT     H157209   3.496   3.403   6.090
18369WAT     H257210   3.398   3.290   6.112
18370WAT      O57211   2.156   4.881   6.107
18370WAT     H157212   2.104   4.919   6.036
18370WAT     H257213   2.149   4.943   6.179
18371WAT      O57214   2.295   3.447   5.967
18371WAT     H157215   2.348   3.369   5.954
18371WAT     H257216   2.359   3.515   5.990
18372WAT      O57217   2.515   3.421   6.272
18372WAT     H157218   2.452   3.351   6.289
18372WAT     H257219   2.461   3.497   6.250
18373WAT      O57220   3.632   5.037   6.239
18373WAT     H157221   3.650   4.968   6.175
18373WAT     H257222   3.562   5.089   6.200
18374WAT      O57223   2.416   5.076   5.994
18374WAT     H157224   2.489   5.047   5.940
18374WAT     H257225   2.442   5.052   6.083
18375WAT      O57226   2.332   4.687   5.995
18375WAT     H157227   2.270   4.734   6.050
18375WAT     H257228   2.344   4.603   6.038
18376WAT      O57229   2.891   4.270   4.798
18376WAT     H157230   2.814   4.222   4.827
18376WAT     H257231   2.956   4.202   4.780
18377WAT      O57232   2.293   4.301   4.886
18377WAT     H157233   2.210   4.276   4.926
18377WAT     H257234   2.354   4.308   4.959
18378WAT      O57235   2.291   4.705   4.905
18378WAT     H157236   2.321   4.616   4.887
18378WAT     H257237   2.365   4.760   4.882
18379WAT      O57238   2.134   3.797   4.264
18379WAT     H157239   2.045   3.832   4.254
18379WAT     H257240   2.162   3.777   4.175
18380WAT      O57241   1.930   4.057   4.852
18380WAT     H157242   1.987   3.981   4.852
18380WAT     H257243   1.930   4.087   4.762
18381WAT      O57244   2.835   4.538   4.799
18381WAT     H157245   2.828   4.444   4.782
18381WAT     H257246   2.911   4.547   4.856
18382WAT      O57247   2.054   3.598   5.031
18382WAT     H157248   2.036   3.508   5.059
18382WAT     H257249   2.014   3.653   5.099
18383WAT      O57250   2.938   3.818   4.821
18383WAT     H157251   2.976   3.731   4.810
18383WAT     H257252   2.928   3.852   4.732
18384WAT      O57253   2.351   3.656   4.367
18384WAT     H157254   2.362   3.746   4.398
18384WAT     H257255   2.260   3.651   4.338
18385WAT      O57256   3.316   3.568   4.515
18385WAT     H157257   3.399   3.519   4.519
18385WAT     H257258   3.320   3.627   4.590
18386WAT      O57259   2.116   3.848   4.892
18386WAT     H157260   2.184   3.874   4.954
18386WAT     H257261   2.085   3.764   4.925
18387WAT      O57262   2.535   3.953   4.801
18387WAT     H157263   2.586   4.002   4.865
18387WAT     H257264   2.589   3.875   4.783
18388WAT      O57265   3.745   3.770   5.171
18388WAT     H157266   3.675   3.808   5.119
18388WAT     H257267   3.772   3.839   5.231
18389WAT      O57268   2.364   3.417   5.227
18389WAT     H157269   2.364   3.468   5.147
18389WAT     H257270   2.281   3.369   5.225
18390WAT      O57271   3.002   4.428   4.377
18390WAT     H157272   2.941   4.474   4.321
18390WAT     H257273   3.054   4.497   4.419
18391WAT      O57274   2.489   4.380   5.045
18391WAT     H157275   2.455   4.443   5.109
18391WAT     H257276   2.506   4.433   4.967
18392WAT      O57277   2.332   3.588   5.028
18392WAT     H157278   2.366   3.672   4.999
18392WAT     H257279   2.238   3.602   5.040
18393WAT      O57280   2.410   4.577   5.227
18393WAT     H157281   2.472   4.645   5.198
18393WAT     H257282   2.324   4.618   5.217
18394WAT      O57283   1.939   4.496   4.115
18394WAT     H157284   1.902   4.545   4.041
18394WAT     H257285   1.965   4.564   4.178
18395WAT      O57286   2.700   3.336   4.660
18395WAT     H157287   2.731   3.281   4.589
18395WAT     H257288   2.607   3.350   4.642
18396WAT      O57289   2.939   4.143   4.334
18396WAT     H157290   2.846   4.136   4.357
18396WAT     H257291   2.954   4.237   4.323
18397WAT      O57292   2.938   3.770   4.034
18397WAT     H157293   2.844   3.786   4.042
18397WAT     H257294   2.970   3.842   3.979
18398WAT      O57295   2.500   4.196   4.612
18398WAT     H157296   2.459   4.124   4.563
18398WAT     H257297   2.508   4.161   4.701
18399WAT      O57298   2.546   4.564   4.829
18399WAT     H157299   2.517   4.504   4.761
18399WAT     H257300   2.641   4.568   4.818
18400WAT      O57301   2.371   3.873   4.990
18400WAT     H157302   2.426   3.884   4.913
18400WAT     H257303   2.422   3.910   5.062
18401WAT      O57304   2.456   4.538   5.494
18401WAT     H157305   2.366   4.560   5.518
18401WAT     H257306   2.458   4.550   5.399
18402WAT      O57307   3.160   4.223   4.085
18402WAT     H157308   3.204   4.139   4.071
18402WAT     H257309   3.231   4.286   4.094
18403WAT      O57310   2.338   4.225   5.351
18403WAT     H157311   2.324   4.312   5.388
18403WAT     H257312   2.250   4.191   5.337
18404WAT      O57313   3.518   3.348   3.917
18404WAT     H157314   3.486   3.358   4.007
18404WAT     H257315   3.594   3.406   3.912
18405WAT      O57316   2.170   4.085   4.362
18405WAT     H157317   2.158   4.158   4.301
18405WAT     H257318   2.139   4.008   4.315
18406WAT      O57319   1.933   4.402   4.943
18406WAT     H157320   1.941   4.416   4.849
18406WAT     H257321   1.995   4.331   4.962
18407WAT      O57322   2.058   4.572   4.584
18407WAT     H157323   2.017   4.586   4.499
18407WAT     H257324   2.147   4.544   4.564
18408WAT      O57325   3.208   4.767   4.074
18408WAT     H157326   3.138   4.766   4.008
18408WAT     H257327   3.282   4.724   4.031
18409WAT      O57328   3.639   3.822   5.514
18409WAT     H157329   3.577   3.873   5.461
18409WAT     H257330   3.607   3.732   5.509
18410WAT      O57331   1.939   4.506   5.197
18410WAT     H157332   1.955   4.459   5.115
18410WAT     H257333   1.986   4.456   5.263
18411WAT      O57334   2.416   3.419   4.701
18411WAT     H157335   2.372   3.497   4.667
18411WAT     H257336   2.472   3.452   4.771
18412WAT      O57337   2.845   3.706   5.261
18412WAT     H157338   2.799   3.727   5.342
18412WAT     H257339   2.805   3.625   5.231
18413WAT      O57340   3.345   3.828   5.374
18413WAT     H157341   3.260   3.798   5.406
18413WAT     H257342   3.329   3.853   5.283
18414WAT      O57343   3.054   3.978   5.584
18414WAT     H157344   3.087   3.895   5.550
18414WAT     H257345   3.133   4.030   5.599
18415WAT      O57346   2.728   3.381   4.189
18415WAT     H157347   2.665   3.381   4.261
18415WAT     H257348   2.719   3.295   4.149
18416WAT      O57349   2.620   3.474   4.886
18416WAT     H157350   2.650   3.564   4.878
18416WAT     H257351   2.675   3.425   4.825
18417WAT      O57352   2.395   3.932   4.473
18417WAT     H157353   2.373   3.910   4.564
18417WAT     H257354   2.317   3.975   4.439
18418WAT      O57355   3.118   3.932   4.333
18418WAT     H157356   3.058   4.005   4.315
18418WAT     H257357   3.173   3.926   4.255
18419WAT      O57358   2.639   4.022   5.540
18419WAT     H157359   2.630   3.928   5.525
18419WAT     H257360   2.724   4.044   5.500
18420WAT      O57361   2.979   3.796   4.536
18420WAT     H157362   3.018   3.828   4.455
18420WAT     H257363   3.015   3.708   4.548
18421WAT      O57364   2.152   3.663   5.355
18421WAT     H157365   2.113   3.747   5.376
18421WAT     H257366   2.084   3.599   5.374
18422WAT      O57367   2.810   3.671   5.662
18422WAT     H157368   2.741   3.652   5.726
18422WAT     H257369   2.884   3.699   5.716
18423WAT      O57370   1.883   3.455   4.759
18423WAT     H157371   1.854   3.512   4.830
18423WAT     H257372   1.957   3.407   4.795
18424WAT      O57373   1.901   3.849   3.880
18424WAT     H157374   1.893   3.943   3.894
18424WAT     H257375   1.866   3.835   3.792
18425WAT      O57376   2.681   3.723   4.786
18425WAT     H157377   2.682   3.678   4.701
18425WAT     H257378   2.771   3.755   4.797
18426WAT      O57379   2.266   3.711   4.682
18426WAT     H157380   2.232   3.759   4.758
18426WAT     H257381   2.190   3.665   4.646
18427WAT      O57382   2.688   3.823   4.085
18427WAT     H157383   2.700   3.819   4.180
18427WAT     H257384   2.649   3.909   4.070
18428WAT      O57385   3.084   3.600   4.887
18428WAT     H157386   3.086   3.645   4.971
18428WAT     H257387   3.059   3.510   4.908
18429WAT      O57388   2.589   4.054   4.025
18429WAT     H157389   2.532   4.009   3.963
18429WAT     H257390   2.660   4.090   3.972
18430WAT      O57391   3.427   3.342   5.471
18430WAT     H157392   3.459   3.269   5.524
18430WAT     H257393   3.430   3.310   5.381
18431WAT      O57394   2.096   4.444   5.413
18431WAT     H157395   2.058   4.380   5.473
18431WAT     H257396   2.128   4.514   5.470
18432WAT      O57397   2.711   4.129   4.961
18432WAT     H157398   2.748   4.081   5.036
18432WAT     H257399   2.692   4.216   4.995
18433WAT      O57400   1.998   3.603   4.574
18433WAT     H157401   1.969   3.567   4.658
18433WAT     H257402   1.992   3.530   4.513
18434WAT      O57403   2.490   4.033   5.193
18434WAT     H157404   2.460   4.121   5.215
18434WAT     H257405   2.586   4.039   5.196
18435WAT      O57406   2.343   4.453   4.253
18435WAT     H157407   2.266   4.399   4.237
18435WAT     H257408   2.416   4.401   4.219
18436WAT      O57409   2.965   3.492   4.246
18436WAT     H157410   2.884   3.442   4.239
18436WAT     H257411   2.946   3.576   4.204
18437WAT      O57412   2.957   4.360   5.420
18437WAT     H157413   2.951   4.268   5.395
18437WAT     H257414   2.894   4.370   5.492
18438WAT      O57415   2.348   4.420   4.616
18438WAT     H157416   2.399   4.340   4.611
18438WAT     H257417   2.302   4.414   4.700
18439WAT      O57418   2.836   4.547   4.144
18439WAT     H157419   2.870   4.621   4.094
18439WAT     H257420   2.753   4.578   4.180
18440WAT      O57421   2.096   4.117   5.308
18440WAT     H157422   2.060   4.183   5.366
18440WAT     H257423   2.067   4.034   5.345
18441WAT      O57424   2.416   4.163   5.596
18441WAT     H157425   2.386   4.177   5.506
18441WAT     H257426   2.493   4.107   5.587
18442WAT      O57427   2.733   4.555   4.421
18442WAT     H157428   2.802   4.610   4.459
18442WAT     H257429   2.655   4.609   4.424
18443WAT      O57430   1.947   4.117   3.970
18443WAT     H157431   2.034   4.145   3.998
18443WAT     H257432   1.898   4.198   3.958
18444WAT      O57433   2.663   4.255   4.382
18444WAT     H157434   2.709   4.336   4.405
18444WAT     H257435   2.628   4.224   4.465
18445WAT      O57436   2.254   3.290   4.429
18445WAT     H157437   2.241   3.289   4.524
18445WAT     H257438   2.171   3.324   4.394
18446WAT      O57439   3.406   4.635   3.949
18446WAT     H157440   3.383   4.564   4.008
18446WAT     H257441   3.367   4.610   3.865
18447WAT      O57442   1.984   5.038   4.027
18447WAT     H157443   2.020   5.098   3.961
18447WAT     H257444   1.970   5.092   4.104
18448WAT      O57445   1.954   3.466   5.375
18448WAT     H157446   1.882   3.486   5.436
18448WAT     H257447   1.995   3.388   5.412
18449WAT      O57448   1.982   4.864   5.474
18449WAT     H157449   1.993   4.770   5.460
18449WAT     H257450   1.917   4.891   5.409
18450WAT      O57451   2.146   4.298   4.183
18450WAT     H157452   2.085   4.372   4.184
18450WAT     H257453   2.193   4.307   4.100
18451WAT      O57454   3.103   3.715   5.150
18451WAT     H157455   3.140   3.633   5.183
18451WAT     H257456   3.017   3.721   5.192
18452WAT      O57457   3.440   3.610   4.231
18452WAT     H157458   3.377   3.621   4.160
18452WAT     H257459   3.390   3.632   4.310
18453WAT      O57460   2.636   3.838   4.373
18453WAT     H157461   2.566   3.885   4.417
18453WAT     H257462   2.665   3.773   4.436
18454WAT      O57463   2.799   3.980   5.173
18454WAT     H157464   2.849   4.028   5.239
18454WAT     H257465   2.813   3.888   5.193
18455WAT      O57466   3.040   3.511   4.517
18455WAT     H157467   3.027   3.513   4.422
18455WAT     H257468   3.134   3.516   4.529
18456WAT      O57469   2.457   3.669   4.110
18456WAT     H157470   2.542   3.713   4.104
18456WAT     H257471   2.420   3.700   4.193
18457WAT      O57472   3.520   3.602   5.257
18457WAT     H157473   3.469   3.676   5.291
18457WAT     H257474   3.601   3.641   5.225
18458WAT      O57475   2.347   4.294   3.958
18458WAT     H157476   2.423   4.283   4.014
18458WAT     H257477   2.354   4.225   3.892
18459WAT      O57478   2.216   4.038   4.026
18459WAT     H157479   2.224   3.943   4.037
18459WAT     H257480   2.305   4.071   4.037
18460WAT      O57481   1.985   4.659   4.324
18460WAT     H157482   1.892   4.684   4.323
18460WAT     H257483   2.031   4.742   4.312
18461WAT      O57484   2.197   4.971   5.655
18461WAT     H157485   2.277   5.003   5.696
18461WAT     H257486   2.145   4.935   5.727
18462WAT      O57487   3.080   4.582   5.650
18462WAT     H157488   3.020   4.584   5.576
18462WAT     H257489   3.050   4.509   5.704
18463WAT      O57490   3.513   4.893   4.061
18463WAT     H157491   3.484   4.851   3.979
18463WAT     H257492   3.493   4.986   4.049
18464WAT      O57493   1.969   4.220   5.550
18464WAT     H157494   2.019   4.162   5.607
18464WAT     H257495   1.895   4.248   5.603
18465WAT      O57496   2.659   4.492   3.905
18465WAT     H157497   2.649   4.431   3.978
18465WAT     H257498   2.642   4.440   3.827
18466WAT      O57499   2.674   4.361   5.503
18466WAT     H157500   2.598   4.417   5.494
18466WAT     H257501   2.692   4.331   5.414
18467WAT      O57502   2.983   4.398   3.965
18467WAT     H157503   2.928   4.443   4.030
18467WAT     H257504   3.045   4.348   4.018
18468WAT      O57505   3.388   4.534   5.559
18468WAT     H157506   3.463   4.567   5.508
18468WAT     H257507   3.312   4.551   5.503
18469WAT      O57508   2.172   4.034   5.639
18469WAT     H157509   2.176   4.004   5.730
18469WAT     H257510   2.257   4.074   5.623
18470WAT      O57511   2.550   4.294   4.155
18470WAT     H157512   2.592   4.278   4.239
18470WAT     H257513   2.562   4.213   4.106
18471WAT      O57514   2.366   3.892   5.436
18471WAT     H157515   2.313   3.843   5.373
18471WAT     H257516   2.433   3.935   5.382
18472WAT      O57517   2.801   4.196   3.880
18472WAT     H157518   2.853   4.125   3.843
18472WAT     H257519   2.866   4.260   3.910
18473WAT      O57520   3.256   4.339   5.412
18473WAT     H157521   3.297   4.354   5.497
18473WAT     H257522   3.162   4.351   5.428
18474WAT      O57523   3.303   4.073   5.613
18474WAT     H157524   3.361   3.997   5.604
18474WAT     H257525   3.321   4.126   5.535
18475WAT      O57526   2.415   3.589   5.444
18475WAT     H157527   2.405   3.527   5.371
18475WAT     H257528   2.357   3.661   5.421
18476WAT      O57529   2.691   3.444   5.147
18476WAT     H157530   2.647   3.447   5.062
18476WAT     H257531   2.628   3.405   5.207
18477WAT      O57532   2.732   4.334   5.209
18477WAT     H157533   2.774   4.418   5.192
18477WAT     H257534   2.640   4.348   5.186
18478WAT      O57535   2.966   4.107   5.348
18478WAT     H157536   2.978   4.048   5.421
18478WAT     H257537   3.052   4.111   5.306
18479WAT      O57538   2.439   3.901   3.850
18479WAT     H157539   2.419   3.815   3.886
18479WAT     H257540   2.422   3.893   3.756
18480WAT      O57541   2.642   3.761   5.473
18480WAT     H157542   2.701   3.731   5.542
18480WAT     H257543   2.561   3.714   5.489
18481WAT      O57544   3.124   3.723   5.497
18481WAT     H157545   3.055   3.657   5.490
18481WAT     H257546   3.196   3.678   5.541
18482WAT      O57547   3.187   3.383   4.102
18482WAT     H157548   3.215   3.298   4.138
18482WAT     H257549   3.110   3.406   4.154
18483WAT      O57550   2.319   3.611   3.848
18483WAT     H157551   2.349   3.612   3.758
18483WAT     H257552   2.393   3.576   3.898
18484WAT      O57553   2.641   3.506   3.947
18484WAT     H157554   2.606   3.438   3.889
18484WAT     H257555   2.661   3.460   4.028
18485WAT      O57556   2.222   4.542   3.932
18485WAT     H157557   2.265   4.596   3.997
18485WAT     H257558   2.270   4.459   3.933
18486WAT      O57559   1.943   4.821   4.677
18486WAT     H157560   1.976   4.734   4.654
18486WAT     H257561   1.986   4.841   4.760
18487WAT      O57562   2.403   4.654   4.443
18487WAT     H157563   2.373   4.642   4.533
18487WAT     H257564   2.392   4.568   4.402
18488WAT      O57565   1.992   4.907   4.951
18488WAT     H157566   1.948   4.925   5.034
18488WAT     H257567   2.049   4.983   4.937
18489WAT      O57568   3.680   4.632   3.913
18489WAT     H157569   3.596   4.639   3.960
18489WAT     H257570   3.697   4.721   3.883
18490WAT      O57571   1.975   4.159   4.587
18490WAT     H157572   1.910   4.132   4.522
18490WAT     H257573   2.059   4.148   4.542
18491WAT      O57574   3.270   3.638   4.009
18491WAT     H157575   3.312   3.619   3.925
18491WAT     H257576   3.239   3.553   4.040
18492WAT      O57577   2.079   4.197   5.041
18492WAT     H157578   2.116   4.188   5.129
18492WAT     H257579   2.022   4.121   5.031
18493WAT      O57580   3.559   4.044   5.342
18493WAT     H157581   3.536   4.021   5.252
18493WAT     H257582   3.585   4.136   5.337
18494WAT      O57583   2.034   3.888   5.431
18494WAT     H157584   1.945   3.885   5.465
18494WAT     H257585   2.088   3.908   5.508
18495WAT      O57586   3.403   3.567   5.620
18495WAT     H157587   3.491   3.567   5.658
18495WAT     H257588   3.404   3.493   5.559
18496WAT      O57589   1.897   3.880   4.181
18496WAT     H157590   1.806   3.906   4.163
18496WAT     H257591   1.945   3.907   4.103
18497WAT      O57592   2.151   3.785   3.972
18497WAT     H157593   2.222   3.743   3.923
18497WAT     H257594   2.079   3.792   3.909
18498WAT      O57595   2.116   3.391   3.876
18498WAT     H157596   2.188   3.445   3.908
18498WAT     H257597   2.143   3.363   3.788
18499WAT      O57598   2.084   3.316   4.866
18499WAT     H157599   2.149   3.261   4.822
18499WAT     H257600   2.126   3.341   4.948
18500WAT      O57601   3.474   3.335   5.202
18500WAT     H157602   3.538   3.397   5.238
18500WAT     H257603   3.489   3.339   5.107
18501WAT      O57604   3.728   3.524   3.880
18501WAT     H157605   3.821   3.511   3.859
18501WAT     H257606   3.726   3.532   3.975
18502WAT      O57607   3.736   3.601   4.143
18502WAT     H157608   3.656   3.595   4.195
18502WAT     H257609   3.756   3.695   4.141
18503WAT      O57610   2.060   3.331   5.140
18503WAT     H157611   2.025   3.377   5.217
18503WAT     H257612   2.027   3.242   5.149
18504WAT      O57613   2.220   4.649   5.557
18504WAT     H157614   2.216   4.611   5.645
18504WAT     H257615   2.234   4.742   5.571
18505WAT      O57616   2.811   3.450   5.493
18505WAT     H157617   2.805   3.510   5.567
18505WAT     H257618   2.905   3.440   5.478
18506WAT      O57619   3.075   3.416   5.456
18506WAT     H157620   3.136   3.448   5.390
18506WAT     H257621   3.129   3.368   5.518
18507WAT      O57622   2.127   3.284   5.468
18507WAT     H157623   2.182   3.266   5.391
18507WAT     H257624   2.134   3.205   5.521
18508WAT      O57625   2.204   4.943   5.269
18508WAT     H157626   2.145   4.930   5.343
18508WAT     H257627   2.204   4.860   5.222
18509WAT      O57628   3.149   3.272   5.089
18509WAT     H157629   3.061   3.306   5.069
18509WAT     H257630   3.138   3.225   5.172
18510WAT      O57631   3.240   3.493   5.228
18510WAT     H157632   3.207   3.412   5.190
18510WAT     H257633   3.334   3.489   5.215
18511WAT      O57634   2.167   4.680   5.164
18511WAT     H157635   2.095   4.618   5.157
18511WAT     H257636   2.174   4.719   5.077
18512WAT      O57637   2.924   3.364   4.983
18512WAT     H157638   2.845   3.412   5.011
18512WAT     H257639   2.894   3.274   4.972
18513WAT      O57640   3.379   3.434   4.788
18513WAT     H157641   3.423   3.429   4.703
18513WAT     H257642   3.352   3.526   4.795
18514WAT      O57643   3.565   3.398   4.589
18514WAT     H157644   3.559   3.303   4.574
18514WAT     H257645   3.643   3.408   4.643
18515WAT      O57646   2.058   3.395   4.235
18515WAT     H157647   2.134   3.406   4.178
18515WAT     H257648   2.012   3.478   4.231
18516WAT      O57649   2.712   3.606   4.534
18516WAT     H157650   2.631   3.569   4.500
18516WAT     H257651   2.763   3.530   4.564
18517WAT      O57652   3.162   3.272   4.658
18517WAT     H157653   3.223   3.330   4.706
18517WAT     H257654   3.088   3.329   4.636
18518WAT      O57655   3.477   3.313   4.185
18518WAT     H157656   3.496   3.403   4.212
18518WAT     H257657   3.398   3.290   4.235
18519WAT      O57658   2.295   3.447   4.089
18519WAT     H157659   2.348   3.369   4.076
18519WAT     H257660   2.359   3.515   4.113
18520WAT      O57661   2.515   3.421   4.395
18520WAT     H157662   2.452   3.351   4.411
18520WAT     H257663   2.461   3.497   4.373
18521WAT      O57664   2.527   3.349   5.638
18521WAT     H157665   2.499   3.399   5.562
18521WAT     H257666   2.565   3.269   5.602
18522WAT      O57667   2.332   4.687   4.117
18522WAT     H157668   2.270   4.734   4.172
18522WAT     H257669   2.344   4.603   4.161
18523WAT      O57670   3.187   3.290   5.696
18523WAT     H157671   3.176   3.322   5.786
18523WAT     H257672   3.269   3.331   5.666
18524WAT      O57673   3.078   4.092   2.732
18524WAT     H157674   3.070   4.001   2.705
18524WAT     H257675   3.037   4.142   2.662
18525WAT      O57676   2.891   4.270   2.920
18525WAT     H157677   2.814   4.222   2.949
18525WAT     H257678   2.956   4.202   2.903
18526WAT      O57679   2.293   4.301   3.008
18526WAT     H157680   2.210   4.276   3.048
18526WAT     H257681   2.354   4.308   3.082
18527WAT      O57682   3.293   4.711   2.798
18527WAT     H157683   3.247   4.634   2.831
18527WAT     H257684   3.374   4.713   2.849
18528WAT      O57685   2.291   4.705   3.028
18528WAT     H157686   2.321   4.616   3.010
18528WAT     H257687   2.365   4.760   3.005
18529WAT      O57688   2.134   3.797   2.387
18529WAT     H157689   2.045   3.832   2.376
18529WAT     H257690   2.162   3.777   2.297
18530WAT      O57691   1.930   4.057   2.975
18530WAT     H157692   1.987   3.981   2.975
18530WAT     H257693   1.930   4.087   2.884
18531WAT      O57694   2.916   4.939   2.760
18531WAT     H157695   2.854   4.985   2.703
18531WAT     H257696   3.001   4.955   2.720
18532WAT      O57697   2.835   4.538   2.921
18532WAT     H157698   2.828   4.444   2.905
18532WAT     H257699   2.911   4.547   2.978
18533WAT      O57700   2.054   3.598   3.154
18533WAT     H157701   2.036   3.508   3.182
18533WAT     H257702   2.014   3.653   3.221
18534WAT      O57703   2.938   3.818   2.944
18534WAT     H157704   2.976   3.731   2.933
18534WAT     H257705   2.928   3.852   2.855
18535WAT      O57706   2.351   3.656   2.490
18535WAT     H157707   2.362   3.746   2.521
18535WAT     H257708   2.260   3.651   2.461
18536WAT      O57709   3.316   3.568   2.637
18536WAT     H157710   3.399   3.519   2.641
18536WAT     H257711   3.320   3.627   2.712
18537WAT      O57712   2.116   3.848   3.015
18537WAT     H157713   2.184   3.874   3.076
18537WAT     H257714   2.085   3.764   3.048
18538WAT      O57715   2.535   3.953   2.923
18538WAT     H157716   2.586   4.002   2.987
18538WAT     H257717   2.589   3.875   2.906
18539WAT      O57718   3.745   3.770   3.294
18539WAT     H157719   3.675   3.808   3.242
18539WAT     H257720   3.772   3.839   3.354
18540WAT      O57721   2.364   3.417   3.350
18540WAT     H157722   2.364   3.468   3.269
18540WAT     H257723   2.281   3.369   3.348
18541WAT      O57724   3.002   4.428   2.500
18541WAT     H157725   2.941   4.474   2.443
18541WAT     H257726   3.054   4.497   2.541
18542WAT      O57727   2.489   4.380   3.168
18542WAT     H157728   2.455   4.443   3.232
18542WAT     H257729   2.506   4.433   3.090
18543WAT      O57730   3.340   3.762   2.914
18543WAT     H157731   3.270   3.791   2.972
18543WAT     H257732   3.376   3.843   2.878
18544WAT      O57733   2.332   3.588   3.151
18544WAT     H157734   2.366   3.672   3.121
18544WAT     H257735   2.238   3.602   3.162
18545WAT      O57736   2.410   4.577   3.349
18545WAT     H157737   2.472   4.645   3.321
18545WAT     H257738   2.324   4.618   3.340
18546WAT      O57739   1.939   4.496   2.237
18546WAT     H157740   1.902   4.545   2.164
18546WAT     H257741   1.965   4.564   2.300
18547WAT      O57742   3.502   4.724   3.141
18547WAT     H157743   3.433   4.791   3.140
18547WAT     H257744   3.556   4.743   3.064
18548WAT      O57745   3.647   3.706   2.953
18548WAT     H157746   3.552   3.710   2.967
18548WAT     H257747   3.679   3.788   2.992
18549WAT      O57748   2.700   3.336   2.783
18549WAT     H157749   2.731   3.281   2.711
18549WAT     H257750   2.607   3.350   2.765
18550WAT      O57751   3.255   4.908   3.012
18550WAT     H157752   3.257   4.868   2.925
18550WAT     H257753   3.200   4.986   3.002
18551WAT      O57754   3.385   4.580   2.521
18551WAT     H157755   3.374   4.486   2.534
18551WAT     H257756   3.384   4.616   2.610
18552WAT      O57757   3.195   4.398   3.145
18552WAT     H157758   3.237   4.377   3.061
18552WAT     H257759   3.268   4.424   3.202
18553WAT      O57760   2.939   4.143   2.457
18553WAT     H157761   2.846   4.136   2.480
18553WAT     H257762   2.954   4.237   2.445
18554WAT      O57763   2.938   3.770   2.156
18554WAT     H157764   2.844   3.786   2.165
18554WAT     H257765   2.970   3.842   2.102
18555WAT      O57766   3.590   4.238   3.154
18555WAT     H157767   3.507   4.245   3.107
18555WAT     H257768   3.649   4.297   3.107
18556WAT      O57769   3.342   4.299   2.507
18556WAT     H157770   3.280   4.265   2.442
18556WAT     H257771   3.340   4.235   2.578
18557WAT      O57772   3.286   3.917   3.249
18557WAT     H157773   3.245   4.000   3.274
18557WAT     H257774   3.213   3.858   3.229
18558WAT      O57775   2.500   4.196   2.735
18558WAT     H157776   2.459   4.124   2.685
18558WAT     H257777   2.508   4.161   2.824
18559WAT      O57778   2.546   4.564   2.951
18559WAT     H157779   2.517   4.504   2.883
18559WAT     H257780   2.641   4.568   2.940
18560WAT      O57781   2.371   3.873   3.113
18560WAT     H157782   2.426   3.884   3.035
18560WAT     H257783   2.422   3.910   3.184
18561WAT      O57784   3.355   4.922   3.317
18561WAT     H157785   3.308   5.002   3.298
18561WAT     H257786   3.287   4.856   3.333
18562WAT      O57787   2.456   4.538   3.616
18562WAT     H157788   2.366   4.560   3.641
18562WAT     H257789   2.458   4.550   3.521
18563WAT      O57790   3.160   4.223   2.208
18563WAT     H157791   3.204   4.139   2.193
18563WAT     H257792   3.231   4.286   2.216
18564WAT      O57793   2.338   4.225   3.474
18564WAT     H157794   2.324   4.312   3.511
18564WAT     H257795   2.250   4.191   3.459
18565WAT      O57796   2.971   4.717   2.605
18565WAT     H157797   3.015   4.791   2.563
18565WAT     H257798   2.964   4.741   2.697
18566WAT      O57799   3.518   3.348   2.039
18566WAT     H157800   3.486   3.358   2.129
18566WAT     H257801   3.594   3.406   2.034
18567WAT      O57802   2.170   4.085   2.485
18567WAT     H157803   2.158   4.158   2.424
18567WAT     H257804   2.139   4.008   2.437
18568WAT      O57805   3.713   4.898   3.824
18568WAT     H157806   3.761   4.946   3.892
18568WAT     H257807   3.775   4.891   3.752
18569WAT      O57808   1.933   4.402   3.066
18569WAT     H157809   1.941   4.416   2.971
18569WAT     H257810   1.995   4.331   3.085
18570WAT      O57811   2.058   4.572   2.707
18570WAT     H157812   2.017   4.586   2.621
18570WAT     H257813   2.147   4.544   2.686
18571WAT      O57814   3.654   4.617   3.540
18571WAT     H157815   3.666   4.593   3.449
18571WAT     H257816   3.658   4.534   3.588
18572WAT      O57817   3.040   4.987   3.397
18572WAT     H157818   3.091   4.978   3.478
18572WAT     H257819   2.955   5.022   3.427
18573WAT      O57820   3.237   5.016   2.340
18573WAT     H157821   3.221   4.987   2.430
18573WAT     H257822   3.221   4.938   2.287
18574WAT      O57823   2.485   4.994   2.518
18574WAT     H157824   2.468   4.902   2.497
18574WAT     H257825   2.400   5.029   2.542
18575WAT      O57826   3.208   4.767   2.196
18575WAT     H157827   3.138   4.766   2.130
18575WAT     H257828   3.282   4.724   2.153
18576WAT      O57829   3.164   4.929   2.604
18576WAT     H157830   3.210   4.851   2.635
18576WAT     H257831   3.198   5.000   2.658
18577WAT      O57832   3.639   3.822   3.637
18577WAT     H157833   3.577   3.873   3.584
18577WAT     H257834   3.607   3.732   3.631
18578WAT      O57835   1.939   4.506   3.320
18578WAT     H157836   1.955   4.459   3.238
18578WAT     H257837   1.986   4.456   3.386
18579WAT      O57838   2.416   3.419   2.823
18579WAT     H157839   2.372   3.497   2.790
18579WAT     H257840   2.472   3.452   2.894
18580WAT      O57841   2.845   3.706   3.383
18580WAT     H157842   2.799   3.727   3.465
18580WAT     H257843   2.805   3.625   3.353
18581WAT      O57844   3.345   3.828   3.496
18581WAT     H157845   3.260   3.798   3.529
18581WAT     H257846   3.329   3.853   3.405
18582WAT      O57847   3.054   3.978   3.706
18582WAT     H157848   3.087   3.895   3.672
18582WAT     H257849   3.133   4.030   3.721
18583WAT      O57850   2.728   3.381   2.311
18583WAT     H157851   2.665   3.381   2.384
18583WAT     H257852   2.719   3.295   2.272
18584WAT      O57853   2.620   3.474   3.009
18584WAT     H157854   2.650   3.564   3.001
18584WAT     H257855   2.675   3.425   2.948
18585WAT      O57856   2.395   3.932   2.596
18585WAT     H157857   2.373   3.910   2.686
18585WAT     H257858   2.317   3.975   2.561
18586WAT      O57859   3.118   3.932   2.456
18586WAT     H157860   3.058   4.005   2.437
18586WAT     H257861   3.173   3.926   2.378
18587WAT      O57862   2.639   4.022   3.663
18587WAT     H157863   2.630   3.928   3.648
18587WAT     H257864   2.724   4.044   3.623
18588WAT      O57865   2.979   3.796   2.659
18588WAT     H157866   3.018   3.828   2.578
18588WAT     H257867   3.015   3.708   2.670
18589WAT      O57868   2.152   3.663   3.478
18589WAT     H157869   2.113   3.747   3.499
18589WAT     H257870   2.084   3.599   3.497
18590WAT      O57871   2.810   3.671   3.785
18590WAT     H157872   2.741   3.652   3.848
18590WAT     H257873   2.884   3.699   3.838
18591WAT      O57874   1.883   3.455   2.881
18591WAT     H157875   1.854   3.512   2.952
18591WAT     H257876   1.957   3.407   2.917
18592WAT      O57877   1.901   3.849   2.002
18592WAT     H157878   1.893   3.943   2.016
18592WAT     H257879   1.866   3.835   1.914
18593WAT      O57880   3.038   4.055   3.068
18593WAT     H157881   2.964   4.106   3.103
18593WAT     H257882   2.998   3.973   3.038
18594WAT      O57883   2.681   3.723   2.909
18594WAT     H157884   2.682   3.678   2.824
18594WAT     H257885   2.771   3.755   2.920
18595WAT      O57886   2.266   3.711   2.805
18595WAT     H157887   2.232   3.759   2.881
18595WAT     H257888   2.190   3.665   2.769
18596WAT      O57889   2.688   3.823   2.208
18596WAT     H157890   2.700   3.819   2.303
18596WAT     H257891   2.649   3.909   2.192
18597WAT      O57892   3.084   3.600   3.010
18597WAT     H157893   3.086   3.645   3.094
18597WAT     H257894   3.059   3.510   3.031
18598WAT      O57895   2.589   4.054   2.148
18598WAT     H157896   2.532   4.009   2.085
18598WAT     H257897   2.660   4.090   2.094
18599WAT      O57898   3.427   3.342   3.593
18599WAT     H157899   3.459   3.269   3.646
18599WAT     H257900   3.430   3.310   3.503
18600WAT      O57901   2.096   4.444   3.535
18600WAT     H157902   2.058   4.380   3.595
18600WAT     H257903   2.128   4.514   3.592
18601WAT      O57904   2.711   4.129   3.084
18601WAT     H157905   2.748   4.081   3.158
18601WAT     H257906   2.692   4.216   3.118
18602WAT      O57907   1.998   3.603   2.697
18602WAT     H157908   1.969   3.567   2.780
18602WAT     H257909   1.992   3.530   2.635
18603WAT      O57910   2.490   4.033   3.315
18603WAT     H157911   2.460   4.121   3.338
18603WAT     H257912   2.586   4.039   3.319
18604WAT      O57913   2.343   4.453   2.375
18604WAT     H157914   2.266   4.399   2.359
18604WAT     H257915   2.416   4.401   2.341
18605WAT      O57916   3.419   4.353   2.954
18605WAT     H157917   3.491   4.402   2.915
18605WAT     H257918   3.399   4.285   2.890
18606WAT      O57919   2.965   3.492   2.369
18606WAT     H157920   2.884   3.442   2.361
18606WAT     H257921   2.946   3.576   2.327
18607WAT      O57922   2.957   4.360   3.543
18607WAT     H157923   2.951   4.268   3.518
18607WAT     H257924   2.894   4.370   3.614
18608WAT      O57925   3.237   3.930   2.198
18608WAT     H157926   3.325   3.961   2.181
18608WAT     H257927   3.234   3.842   2.159
18609WAT      O57928   2.348   4.420   2.739
18609WAT     H157929   2.399   4.340   2.733
18609WAT     H257930   2.302   4.414   2.823
18610WAT      O57931   2.836   4.547   2.266
18610WAT     H157932   2.870   4.621   2.217
18610WAT     H257933   2.753   4.578   2.302
18611WAT      O57934   2.096   4.117   3.430
18611WAT     H157935   2.060   4.183   3.489
18611WAT     H257936   2.067   4.034   3.467
18612WAT      O57937   2.416   4.163   3.719
18612WAT     H157938   2.386   4.177   3.629
18612WAT     H257939   2.493   4.107   3.709
18613WAT      O57940   2.950   4.642   3.518
18613WAT     H157941   2.952   4.549   3.496
18613WAT     H257942   2.880   4.651   3.582
18614WAT      O57943   3.464   4.061   2.145
18614WAT     H157944   3.455   4.104   2.060
18614WAT     H257945   3.536   4.107   2.188
18615WAT      O57946   3.572   4.306   3.453
18615WAT     H157947   3.499   4.366   3.433
18615WAT     H257948   3.624   4.306   3.373
18616WAT      O57949   3.567   4.746   2.418
18616WAT     H157950   3.502   4.681   2.445
18616WAT     H257951   3.528   4.787   2.340
18617WAT      O57952   3.125   4.479   2.803
18617WAT     H157953   3.160   4.419   2.737
18617WAT     H257954   3.036   4.446   2.820
18618WAT      O57955   2.733   4.555   2.543
18618WAT     H157956   2.802   4.610   2.581
18618WAT     H257957   2.655   4.609   2.547
18619WAT      O57958   1.947   4.117   2.092
18619WAT     H157959   2.034   4.145   2.121
18619WAT     H257960   1.898   4.198   2.081
18620WAT      O57961   2.663   4.255   2.505
18620WAT     H157962   2.709   4.336   2.527
18620WAT     H257963   2.628   4.224   2.588
18621WAT      O57964   2.894   4.806   3.227
18621WAT     H157965   2.958   4.827   3.295
18621WAT     H257966   2.930   4.730   3.182
18622WAT      O57967   2.254   3.290   2.552
18622WAT     H157968   2.241   3.289   2.647
18622WAT     H257969   2.171   3.324   2.517
18623WAT      O57970   3.021   4.607   3.099
18623WAT     H157971   3.085   4.537   3.111
18623WAT     H257972   3.074   4.685   3.081
18624WAT      O57973   3.406   4.635   2.072
18624WAT     H157974   3.383   4.564   2.131
18624WAT     H257975   3.367   4.610   1.988
18625WAT      O57976   3.198   4.687   3.420
18625WAT     H157977   3.232   4.745   3.487
18625WAT     H257978   3.106   4.674   3.443
18626WAT      O57979   1.984   5.038   2.149
18626WAT     H157980   2.020   5.098   2.084
18626WAT     H257981   1.970   5.092   2.226
18627WAT      O57982   1.954   3.466   3.498
18627WAT     H157983   1.882   3.486   3.558
18627WAT     H257984   1.995   3.388   3.535
18628WAT      O57985   3.364   4.427   2.238
18628WAT     H157986   3.335   4.473   2.317
18628WAT     H257987   3.443   4.381   2.265
18629WAT      O57988   1.982   4.864   3.597
18629WAT     H157989   1.993   4.770   3.582
18629WAT     H257990   1.917   4.891   3.532
18630WAT      O57991   2.781   4.692   3.736
18630WAT     H157992   2.749   4.620   3.791
18630WAT     H257993   2.714   4.759   3.744
18631WAT      O57994   2.586   4.776   2.231
18631WAT     H157995   2.585   4.849   2.169
18631WAT     H257996   2.493   4.752   2.240
18632WAT      O57997   2.146   4.298   2.305
18632WAT     H157998   2.085   4.372   2.306
18632WAT     H257999   2.193   4.307   2.223
18633WAT      O58000   3.103   3.715   3.273
18633WAT     H158001   3.140   3.633   3.306
18633WAT     H258002   3.017   3.721   3.314
18634WAT      O58003   3.440   3.610   2.354
18634WAT     H158004   3.377   3.621   2.282
18634WAT     H258005   3.390   3.632   2.433
18635WAT      O58006   2.884   4.782   2.097
18635WAT     H158007   2.894   4.762   2.004
18635WAT     H258008   2.794   4.757   2.118
18636WAT      O58009   2.636   3.838   2.495
18636WAT     H158010   2.566   3.885   2.539
18636WAT     H258011   2.665   3.773   2.559
18637WAT      O58012   2.799   3.980   3.295
18637WAT     H158013   2.849   4.028   3.362
18637WAT     H258014   2.813   3.888   3.316
18638WAT      O58015   3.040   3.511   2.639
18638WAT     H158016   3.027   3.513   2.544
18638WAT     H258017   3.134   3.516   2.651
18639WAT      O58018   2.748   5.034   2.567
18639WAT     H158019   2.774   5.031   2.474
18639WAT     H258020   2.653   5.022   2.566
18640WAT      O58021   2.457   3.669   2.233
18640WAT     H158022   2.542   3.713   2.226
18640WAT     H258023   2.420   3.700   2.316
18641WAT      O58024   3.520   3.602   3.380
18641WAT     H158025   3.469   3.676   3.413
18641WAT     H258026   3.601   3.641   3.348
18642WAT      O58027   3.349   4.126   2.724
18642WAT     H158028   3.255   4.128   2.742
18642WAT     H258029   3.380   4.048   2.769
18643WAT      O58030   2.347   4.294   2.080
18643WAT     H158031   2.423   4.283   2.136
18643WAT     H258032   2.354   4.225   2.015
18644WAT      O58033   2.216   4.038   2.149
18644WAT     H158034   2.224   3.943   2.160
18644WAT     H258035   2.305   4.071   2.159
18645WAT      O58036   3.549   4.843   2.892
18645WAT     H158037   3.562   4.926   2.939
18645WAT     H258038   3.636   4.822   2.857
18646WAT      O58039   2.296   5.053   2.859
18646WAT     H158040   2.370   4.998   2.886
18646WAT     H258041   2.335   5.139   2.845
18647WAT      O58042   1.985   4.659   2.446
18647WAT     H158043   1.892   4.684   2.445
18647WAT     H258044   2.031   4.742   2.434
18648WAT      O58045   2.197   4.971   3.778
18648WAT     H158046   2.277   5.003   3.819
18648WAT     H258047   2.145   4.935   3.850
18649WAT      O58048   2.607   4.970   2.041
18649WAT     H158049   2.687   4.999   1.996
18649WAT     H258050   2.555   4.927   1.973
18650WAT      O58051   3.080   4.582   3.772
18650WAT     H158052   3.020   4.584   3.698
18650WAT     H258053   3.050   4.509   3.826
18651WAT      O58054   3.223   4.955   3.634
18651WAT     H158055   3.319   4.946   3.629
18651WAT     H258056   3.209   5.021   3.701
18652WAT      O58057   3.513   4.893   2.183
18652WAT     H158058   3.484   4.851   2.102
18652WAT     H258059   3.493   4.986   2.171
18653WAT      O58060   1.969   4.220   3.672
18653WAT     H158061   2.019   4.162   3.729
18653WAT     H258062   1.895   4.248   3.726
18654WAT      O58063   2.659   4.492   2.028
18654WAT     H158064   2.649   4.431   2.100
18654WAT     H258065   2.642   4.440   1.949
18655WAT      O58066   2.674   4.361   3.625
18655WAT     H158067   2.598   4.417   3.617
18655WAT     H258068   2.692   4.331   3.536
18656WAT      O58069   2.983   4.398   2.088
18656WAT     H158070   2.928   4.443   2.152
18656WAT     H258071   3.045   4.348   2.140
18657WAT      O58072   3.388   4.534   3.681
18657WAT     H158073   3.463   4.567   3.631
18657WAT     H258074   3.312   4.551   3.626
18658WAT      O58075   2.172   4.034   3.762
18658WAT     H158076   2.176   4.004   3.852
18658WAT     H258077   2.257   4.074   3.746
18659WAT      O58078   2.550   4.294   2.278
18659WAT     H158079   2.592   4.278   2.362
18659WAT     H258080   2.562   4.213   2.228
18660WAT      O58081   2.366   3.892   3.558
18660WAT     H158082   2.313   3.843   3.496
18660WAT     H258083   2.433   3.935   3.505
18661WAT      O58084   2.801   4.196   2.002
18661WAT     H158085   2.853   4.125   1.966
18661WAT     H258086   2.866   4.260   2.032
18662WAT      O58087   3.256   4.339   3.535
18662WAT     H158088   3.297   4.354   3.620
18662WAT     H258089   3.162   4.351   3.551
18663WAT      O58090   3.303   4.073   3.735
18663WAT     H158091   3.361   3.997   3.726
18663WAT     H258092   3.321   4.126   3.657
18664WAT      O58093   2.415   3.589   3.566
18664WAT     H158094   2.405   3.527   3.494
18664WAT     H258095   2.357   3.661   3.544
18665WAT      O58096   2.691   3.444   3.270
18665WAT     H158097   2.647   3.447   3.185
18665WAT     H258098   2.628   3.405   3.329
18666WAT      O58099   2.732   4.334   3.332
18666WAT     H158100   2.774   4.418   3.314
18666WAT     H258101   2.640   4.348   3.309
18667WAT      O58102   2.966   4.107   3.470
18667WAT     H158103   2.978   4.048   3.544
18667WAT     H258104   3.052   4.111   3.428
18668WAT      O58105   3.200   4.163   3.328
18668WAT     H158106   3.147   4.215   3.267
18668WAT     H258107   3.234   4.226   3.391
18669WAT      O58108   2.439   3.901   1.972
18669WAT     H158109   2.419   3.815   2.008
18669WAT     H258110   2.422   3.893   1.878
18670WAT      O58111   2.642   3.761   3.596
18670WAT     H158112   2.701   3.731   3.665
18670WAT     H258113   2.561   3.714   3.611
18671WAT      O58114   3.124   3.723   3.619
18671WAT     H158115   3.055   3.657   3.613
18671WAT     H258116   3.196   3.678   3.664
18672WAT      O58117   3.187   3.383   2.225
18672WAT     H158118   3.215   3.298   2.261
18672WAT     H258119   3.110   3.406   2.276
18673WAT      O58120   2.319   3.611   1.971
18673WAT     H158121   2.349   3.612   1.880
18673WAT     H258122   2.393   3.576   2.021
18674WAT      O58123   2.641   3.506   2.070
18674WAT     H158124   2.606   3.438   2.012
18674WAT     H258125   2.661   3.460   2.151
18675WAT      O58126   2.858   5.005   2.231
18675WAT     H158127   2.947   5.038   2.234
18675WAT     H258128   2.861   4.932   2.169
18676WAT      O58129   2.222   4.542   2.054
18676WAT     H158130   2.265   4.596   2.120
18676WAT     H258131   2.270   4.459   2.055
18677WAT      O58132   1.943   4.821   2.799
18677WAT     H158133   1.976   4.734   2.776
18677WAT     H258134   1.986   4.841   2.883
18678WAT      O58135   2.403   4.654   2.565
18678WAT     H158136   2.373   4.642   2.656
18678WAT     H258137   2.392   4.568   2.525
18679WAT      O58138   1.992   4.907   3.073
18679WAT     H158139   1.948   4.925   3.157
18679WAT     H258140   2.049   4.983   3.059
18680WAT      O58141   3.556   4.858   3.502
18680WAT     H158142   3.496   4.864   3.428
18680WAT     H258143   3.568   4.764   3.515
18681WAT      O58144   3.680   4.632   2.036
18681WAT     H158145   3.596   4.639   2.083
18681WAT     H258146   3.697   4.721   2.005
18682WAT      O58147   3.625   4.306   2.286
18682WAT     H158148   3.701   4.363   2.297
18682WAT     H258149   3.627   4.250   2.363
18683WAT      O58150   1.975   4.159   2.709
18683WAT     H158151   1.910   4.132   2.645
18683WAT     H258152   2.059   4.148   2.664
18684WAT      O58153   3.726   4.392   2.771
18684WAT     H158154   3.763   4.313   2.730
18684WAT     H258155   3.790   4.461   2.753
18685WAT      O58156   3.424   4.530   3.312
18685WAT     H158157   3.343   4.573   3.338
18685WAT     H258158   3.465   4.591   3.251
18686WAT      O58159   3.630   4.336   2.002
18686WAT     H158160   3.658   4.426   1.989
18686WAT     H258161   3.611   4.329   2.095
18687WAT      O58162   3.270   3.638   2.131
18687WAT     H158163   3.312   3.619   2.047
18687WAT     H258164   3.239   3.553   2.162
18688WAT      O58165   3.620   4.129   2.501
18688WAT     H158166   3.582   4.053   2.458
18688WAT     H258167   3.547   4.168   2.550
18689WAT      O58168   2.079   4.197   3.163
18689WAT     H158169   2.116   4.188   3.251
18689WAT     H258170   2.022   4.121   3.153
18690WAT      O58171   3.559   4.044   3.465
18690WAT     H158172   3.536   4.021   3.374
18690WAT     H258173   3.585   4.136   3.460
18691WAT      O58174   2.034   3.888   3.554
18691WAT     H158175   1.945   3.885   3.588
18691WAT     H258176   2.088   3.908   3.630
18692WAT      O58177   3.403   3.567   3.742
18692WAT     H158178   3.491   3.567   3.781
18692WAT     H258179   3.404   3.493   3.681
18693WAT      O58180   1.897   3.880   2.303
18693WAT     H158181   1.806   3.906   2.286
18693WAT     H258182   1.945   3.907   2.225
18694WAT      O58183   3.547   3.952   2.831
18694WAT     H158184   3.600   3.903   2.768
18694WAT     H258185   3.606   3.965   2.906
18695WAT      O58186   3.565   3.960   3.183
18695WAT     H158187   3.470   3.957   3.195
18695WAT     H258188   3.583   4.051   3.160
18696WAT      O58189   2.151   3.785   2.094
18696WAT     H158190   2.222   3.743   2.046
18696WAT     H258191   2.079   3.792   2.031
18697WAT      O58192   2.116   3.391   1.998
18697WAT     H158193   2.188   3.445   2.030
18697WAT     H258194   2.143   3.363   1.911
18698WAT      O58195   3.496   3.878   2.425
18698WAT     H158196   3.546   3.854   2.504
18698WAT     H258197   3.477   3.794   2.383
18699WAT      O58198   2.084   3.316   2.989
18699WAT     H158199   2.149   3.261   2.945
18699WAT     H258200   2.126   3.341   3.071
18700WAT      O58201   3.639   3.741   2.678
18700WAT     H158202   3.628   3.726   2.772
18700WAT     H258203   3.715   3.688   2.654
18701WAT      O58204   3.474   3.335   3.324
18701WAT     H158205   3.538   3.397   3.361
18701WAT     H258206   3.489   3.339   3.230
18702WAT      O58207   3.728   3.524   2.003
18702WAT     H158208   3.821   3.511   1.982
18702WAT     H258209   3.726   3.532   2.098
18703WAT      O58210   3.736   3.601   2.265
18703WAT     H158211   3.656   3.595   2.318
18703WAT     H258212   3.756   3.695   2.264
18704WAT      O58213   3.430   5.005   2.665
18704WAT     H158214   3.489   4.973   2.597
18704WAT     H258215   3.456   4.958   2.744
18705WAT      O58216   2.060   3.331   3.263
18705WAT     H158217   2.025   3.377   3.339
18705WAT     H258218   2.027   3.242   3.271
18706WAT      O58219   2.220   4.649   3.679
18706WAT     H158220   2.216   4.611   3.768
18706WAT     H258221   2.234   4.742   3.693
18707WAT      O58222   2.590   4.804   3.240
18707WAT     H158223   2.566   4.831   3.151
18707WAT     H258224   2.685   4.821   3.245
18708WAT      O58225   2.811   3.450   3.615
18708WAT     H158226   2.805   3.510   3.690
18708WAT     H258227   2.905   3.440   3.601
18709WAT      O58228   3.075   3.416   3.579
18709WAT     H158229   3.136   3.448   3.513
18709WAT     H258230   3.129   3.368   3.641
18710WAT      O58231   3.717   5.006   3.320
18710WAT     H158232   3.667   5.046   3.248
18710WAT     H258233   3.656   4.944   3.359
18711WAT      O58234   2.127   3.284   3.590
18711WAT     H158235   2.182   3.266   3.514
18711WAT     H258236   2.134   3.205   3.644
18712WAT      O58237   2.204   4.943   3.391
18712WAT     H158238   2.145   4.930   3.465
18712WAT     H258239   2.204   4.860   3.345
18713WAT      O58240   3.149   3.272   3.212
18713WAT     H158241   3.061   3.306   3.191
18713WAT     H258242   3.138   3.225   3.294
18714WAT      O58243   3.240   3.493   3.350
18714WAT     H158244   3.207   3.412   3.312
18714WAT     H258245   3.334   3.489   3.338
18715WAT      O58246   3.485   5.070   3.047
18715WAT     H158247   3.439   5.145   3.010
18715WAT     H258248   3.422   4.998   3.042
18716WAT      O58249   2.167   4.680   3.286
18716WAT     H158250   2.095   4.618   3.280
18716WAT     H258251   2.174   4.719   3.199
18717WAT      O58252   2.528   4.901   2.965
18717WAT     H158253   2.580   4.840   2.912
18717WAT     H258254   2.593   4.951   3.014
18718WAT      O58255   2.802   4.990   3.048
18718WAT     H158256   2.831   4.965   2.960
18718WAT     H258257   2.853   4.935   3.107
18719WAT      O58258   2.924   3.364   3.106
18719WAT     H158259   2.845   3.412   3.134
18719WAT     H258260   2.894   3.274   3.095
18720WAT      O58261   3.379   3.434   2.910
18720WAT     H158262   3.423   3.429   2.825
18720WAT     H258263   3.352   3.526   2.917
18721WAT      O58264   3.565   3.398   2.711
18721WAT     H158265   3.559   3.303   2.697
18721WAT     H258266   3.643   3.408   2.766
18722WAT      O58267   1.996   5.011   2.607
18722WAT     H158268   1.979   4.948   2.677
18722WAT     H258269   1.909   5.032   2.572
18723WAT      O58270   2.058   3.395   2.358
18723WAT     H158271   2.134   3.406   2.300
18723WAT     H258272   2.012   3.478   2.353
18724WAT      O58273   2.712   3.606   2.657
18724WAT     H158274   2.631   3.569   2.623
18724WAT     H258275   2.763   3.530   2.687
18725WAT      O58276   3.162   3.272   2.781
18725WAT     H158277   3.223   3.330   2.828
18725WAT     H258278   3.088   3.329   2.758
18726WAT      O58279   3.477   3.313   2.308
18726WAT     H158280   3.496   3.403   2.335
18726WAT     H258281   3.398   3.290   2.357
18727WAT      O58282   2.156   4.881   2.352
18727WAT     H158283   2.104   4.919   2.282
18727WAT     H258284   2.149   4.943   2.424
18728WAT      O58285   2.295   3.447   2.212
18728WAT     H158286   2.348   3.369   2.199
18728WAT     H258287   2.359   3.515   2.235
18729WAT      O58288   2.515   3.421   2.517
18729WAT     H158289   2.452   3.351   2.534
18729WAT     H258290   2.461   3.497   2.496
18730WAT      O58291   3.632   5.037   2.484
18730WAT     H158292   3.650   4.968   2.420
18730WAT     H258293   3.562   5.089   2.445
18731WAT      O58294   2.527   3.349   3.761
18731WAT     H158295   2.499   3.399   3.684
18731WAT     H258296   2.565   3.269   3.724
18732WAT      O58297   2.416   5.076   2.239
18732WAT     H158298   2.489   5.047   2.185
18732WAT     H258299   2.442   5.052   2.328
18733WAT      O58300   2.332   4.687   2.240
18733WAT     H158301   2.270   4.734   2.295
18733WAT     H258302   2.344   4.603   2.283
18734WAT      O58303   3.187   3.290   3.819
18734WAT     H158304   3.176   3.322   3.908
18734WAT     H258305   3.269   3.331   3.789
18735WAT      O58306   3.465   5.005   3.767
18735WAT     H158307   3.545   4.956   3.746
18735WAT     H258308   3.495   5.073   3.827
18736WAT      O58309   3.078   4.092   0.855
18736WAT     H158310   3.070   4.001   0.828
18736WAT     H258311   3.037   4.142   0.784
18737WAT      O58312   2.891   4.270   1.043
18737WAT     H158313   2.814   4.222   1.072
18737WAT     H258314   2.956   4.202   1.026
18738WAT      O58315   2.293   4.301   1.131
18738WAT     H158316   2.210   4.276   1.171
18738WAT     H258317   2.354   4.308   1.204
18739WAT      O58318   3.293   4.711   0.921
18739WAT     H158319   3.247   4.634   0.954
18739WAT     H258320   3.374   4.713   0.972
18740WAT      O58321   2.291   4.705   1.150
18740WAT     H158322   2.321   4.616   1.132
18740WAT     H258323   2.365   4.760   1.128
18741WAT      O58324   2.134   3.797   0.509
18741WAT     H158325   2.045   3.832   0.499
18741WAT     H258326   2.162   3.777   0.420
18742WAT      O58327   1.930   4.057   1.098
18742WAT     H158328   1.987   3.981   1.098
18742WAT     H258329   1.930   4.087   1.007
18743WAT      O58330   2.916   4.939   0.883
18743WAT     H158331   2.854   4.985   0.826
18743WAT     H258332   3.001   4.955   0.843
18744WAT      O58333   2.835   4.538   1.044
18744WAT     H158334   2.828   4.444   1.028
18744WAT     H258335   2.911   4.547   1.101
18745WAT      O58336   2.054   3.598   1.276
18745WAT     H158337   2.036   3.508   1.304
18745WAT     H258338   2.014   3.653   1.344
18746WAT      O58339   2.938   3.818   1.066
18746WAT     H158340   2.976   3.731   1.055
18746WAT     H258341   2.928   3.852   0.977
18747WAT      O58342   2.351   3.656   0.613
18747WAT     H158343   2.362   3.746   0.643
18747WAT     H258344   2.260   3.651   0.584
18748WAT      O58345   3.316   3.568   0.760
18748WAT     H158346   3.399   3.519   0.764
18748WAT     H258347   3.320   3.627   0.835
18749WAT      O58348   2.116   3.848   1.137
18749WAT     H158349   2.184   3.874   1.199
18749WAT     H258350   2.085   3.764   1.170
18750WAT      O58351   2.535   3.953   1.046
18750WAT     H158352   2.586   4.002   1.110
18750WAT     H258353   2.589   3.875   1.028
18751WAT      O58354   3.745   3.770   1.416
18751WAT     H158355   3.675   3.808   1.364
18751WAT     H258356   3.772   3.839   1.476
18752WAT      O58357   2.364   3.417   1.472
18752WAT     H158358   2.364   3.468   1.392
18752WAT     H258359   2.281   3.369   1.470
18753WAT      O58360   3.002   4.428   0.622
18753WAT     H158361   2.941   4.474   0.566
18753WAT     H258362   3.054   4.497   0.664
18754WAT      O58363   2.489   4.380   1.290
18754WAT     H158364   2.455   4.443   1.354
18754WAT     H258365   2.506   4.433   1.212
18755WAT      O58366   3.340   3.762   1.037
18755WAT     H158367   3.270   3.791   1.095
18755WAT     H258368   3.376   3.843   1.001
18756WAT      O58369   2.332   3.588   1.273
18756WAT     H158370   2.366   3.672   1.244
18756WAT     H258371   2.238   3.602   1.285
18757WAT      O58372   2.410   4.577   1.472
18757WAT     H158373   2.472   4.645   1.444
18757WAT     H258374   2.324   4.618   1.463
18758WAT      O58375   1.939   4.496   0.360
18758WAT     H158376   1.902   4.545   0.287
18758WAT     H258377   1.965   4.564   0.423
18759WAT      O58378   3.502   4.724   1.263
18759WAT     H158379   3.433   4.791   1.262
18759WAT     H258380   3.556   4.743   1.187
18760WAT      O58381   3.647   3.706   1.076
18760WAT     H158382   3.552   3.710   1.089
18760WAT     H258383   3.679   3.788   1.115
18761WAT      O58384   2.700   3.336   0.906
18761WAT     H158385   2.731   3.281   0.834
18761WAT     H258386   2.607   3.350   0.887
18762WAT      O58387   3.255   4.908   1.135
18762WAT     H158388   3.257   4.868   1.048
18762WAT     H258389   3.200   4.986   1.124
18763WAT      O58390   3.385   4.580   0.644
18763WAT     H158391   3.374   4.486   0.656
18763WAT     H258392   3.384   4.616   0.732
18764WAT      O58393   3.195   4.398   1.267
18764WAT     H158394   3.237   4.377   1.184
18764WAT     H258395   3.268   4.424   1.325
18765WAT      O58396   2.939   4.143   0.579
18765WAT     H158397   2.846   4.136   0.602
18765WAT     H258398   2.954   4.237   0.568
18766WAT      O58399   2.938   3.770   0.279
18766WAT     H158400   2.844   3.786   0.287
18766WAT     H258401   2.970   3.842   0.224
18767WAT      O58402   3.590   4.238   1.277
18767WAT     H158403   3.507   4.245   1.229
18767WAT     H258404   3.649   4.297   1.230
18768WAT      O58405   3.342   4.299   0.630
18768WAT     H158406   3.280   4.265   0.565
18768WAT     H258407   3.340   4.235   0.700
18769WAT      O58408   3.286   3.917   1.371
18769WAT     H158409   3.245   4.000   1.397
18769WAT     H258410   3.213   3.858   1.352
18770WAT      O58411   2.500   4.196   0.857
18770WAT     H158412   2.459   4.124   0.808
18770WAT     H258413   2.508   4.161   0.946
18771WAT      O58414   2.546   4.564   1.074
18771WAT     H158415   2.517   4.504   1.006
18771WAT     H258416   2.641   4.568   1.063
18772WAT      O58417   2.371   3.873   1.235
18772WAT     H158418   2.426   3.884   1.158
18772WAT     H258419   2.422   3.910   1.307
18773WAT      O58420   3.355   4.922   1.440
18773WAT     H158421   3.308   5.002   1.421
18773WAT     H258422   3.287   4.856   1.455
18774WAT      O58423   2.456   4.538   1.739
18774WAT     H158424   2.366   4.560   1.764
18774WAT     H258425   2.458   4.550   1.644
18775WAT      O58426   3.160   4.223   0.330
18775WAT     H158427   3.204   4.139   0.316
18775WAT     H258428   3.231   4.286   0.339
18776WAT      O58429   2.338   4.225   1.596
18776WAT     H158430   2.324   4.312   1.633
18776WAT     H258431   2.250   4.191   1.582
18777WAT      O58432   2.971   4.717   0.727
18777WAT     H158433   3.015   4.791   0.686
18777WAT     H258434   2.964   4.741   0.819
18778WAT      O58435   2.518   4.819   1.817
18778WAT     H158436   2.515   4.860   1.731
18778WAT     H258437   2.502   4.727   1.801
18779WAT      O58438   2.170   4.085   0.607
18779WAT     H158439   2.158   4.158   0.546
18779WAT     H258440   2.139   4.008   0.560
18780WAT      O58441   3.713   4.898   1.947
18780WAT     H158442   3.761   4.946   2.015
18780WAT     H258443   3.775   4.891   1.874
18781WAT      O58444   1.933   4.402   1.188
18781WAT     H158445   1.941   4.416   1.094
18781WAT     H258446   1.995   4.331   1.207
18782WAT      O58447   2.058   4.572   0.829
18782WAT     H158448   2.017   4.586   0.744
18782WAT     H258449   2.147   4.544   0.809
18783WAT      O58450   3.654   4.617   1.663
18783WAT     H158451   3.666   4.593   1.571
18783WAT     H258452   3.658   4.534   1.710
18784WAT      O58453   3.040   4.987   1.520
18784WAT     H158454   3.091   4.978   1.600
18784WAT     H258455   2.955   5.022   1.549
18785WAT      O58456   3.237   5.016   0.463
18785WAT     H158457   3.221   4.987   0.553
18785WAT     H258458   3.221   4.938   0.409
18786WAT      O58459   2.485   4.994   0.640
18786WAT     H158460   2.468   4.902   0.619
18786WAT     H258461   2.400   5.029   0.664
18787WAT      O58462   3.208   4.767   0.319
18787WAT     H158463   3.138   4.766   0.253
18787WAT     H258464   3.282   4.724   0.276
18788WAT      O58465   3.164   4.929   0.726
18788WAT     H158466   3.210   4.851   0.758
18788WAT     H258467   3.198   5.000   0.781
18789WAT      O58468   3.639   3.822   1.759
18789WAT     H158469   3.577   3.873   1.707
18789WAT     H258470   3.607   3.732   1.754
18790WAT      O58471   1.939   4.506   1.442
18790WAT     H158472   1.955   4.459   1.360
18790WAT     H258473   1.986   4.456   1.509
18791WAT      O58474   2.416   3.419   0.946
18791WAT     H158475   2.372   3.497   0.913
18791WAT     H258476   2.472   3.452   1.016
18792WAT      O58477   2.845   3.706   1.506
18792WAT     H158478   2.799   3.727   1.587
18792WAT     H258479   2.805   3.625   1.476
18793WAT      O58480   3.345   3.828   1.619
18793WAT     H158481   3.260   3.798   1.651
18793WAT     H258482   3.329   3.853   1.528
18794WAT      O58483   3.054   3.978   1.829
18794WAT     H158484   3.087   3.895   1.795
18794WAT     H258485   3.133   4.030   1.844
18795WAT      O58486   2.728   3.381   0.434
18795WAT     H158487   2.665   3.381   0.506
18795WAT     H258488   2.719   3.295   0.394
18796WAT      O58489   2.620   3.474   1.132
18796WAT     H158490   2.650   3.564   1.124
18796WAT     H258491   2.675   3.425   1.070
18797WAT      O58492   2.395   3.932   0.719
18797WAT     H158493   2.373   3.910   0.809
18797WAT     H258494   2.317   3.975   0.684
18798WAT      O58495   3.118   3.932   0.578
18798WAT     H158496   3.058   4.005   0.560
18798WAT     H258497   3.173   3.926   0.500
18799WAT      O58498   2.639   4.022   1.785
18799WAT     H158499   2.630   3.928   1.770
18799WAT     H258500   2.724   4.044   1.746
18800WAT      O58501   2.979   3.796   0.781
18800WAT     H158502   3.018   3.828   0.700
18800WAT     H258503   3.015   3.708   0.793
18801WAT      O58504   2.152   3.663   1.600
18801WAT     H158505   2.113   3.747   1.621
18801WAT     H258506   2.084   3.599   1.620
18802WAT      O58507   2.810   3.671   1.907
18802WAT     H158508   2.741   3.652   1.971
18802WAT     H258509   2.884   3.699   1.961
18803WAT      O58510   1.883   3.455   1.004
18803WAT     H158511   1.854   3.512   1.075
18803WAT     H258512   1.957   3.407   1.040
18804WAT      O58513   3.038   4.055   1.191
18804WAT     H158514   2.964   4.106   1.226
18804WAT     H258515   2.998   3.973   1.161
18805WAT      O58516   2.681   3.723   1.031
18805WAT     H158517   2.682   3.678   0.947
18805WAT     H258518   2.771   3.755   1.042
18806WAT      O58519   2.266   3.711   0.927
18806WAT     H158520   2.232   3.759   1.003
18806WAT     H258521   2.190   3.665   0.891
18807WAT      O58522   2.688   3.823   0.331
18807WAT     H158523   2.700   3.819   0.425
18807WAT     H258524   2.649   3.909   0.315
18808WAT      O58525   3.084   3.600   1.132
18808WAT     H158526   3.086   3.645   1.217
18808WAT     H258527   3.059   3.510   1.154
18809WAT      O58528   2.589   4.054   0.270
18809WAT     H158529   2.532   4.009   0.208
18809WAT     H258530   2.660   4.090   0.217
18810WAT      O58531   3.427   3.342   1.716
18810WAT     H158532   3.459   3.269   1.769
18810WAT     H258533   3.430   3.310   1.626
18811WAT      O58534   2.096   4.444   1.658
18811WAT     H158535   2.058   4.380   1.718
18811WAT     H258536   2.128   4.514   1.715
18812WAT      O58537   2.711   4.129   1.206
18812WAT     H158538   2.748   4.081   1.281
18812WAT     H258539   2.692   4.216   1.240
18813WAT      O58540   1.998   3.603   0.819
18813WAT     H158541   1.969   3.567   0.903
18813WAT     H258542   1.992   3.530   0.758
18814WAT      O58543   2.490   4.033   1.438
18814WAT     H158544   2.460   4.121   1.460
18814WAT     H258545   2.586   4.039   1.442
18815WAT      O58546   2.343   4.453   0.498
18815WAT     H158547   2.266   4.399   0.482
18815WAT     H258548   2.416   4.401   0.464
18816WAT      O58549   3.419   4.353   1.077
18816WAT     H158550   3.491   4.402   1.038
18816WAT     H258551   3.399   4.285   1.012
18817WAT      O58552   2.965   3.492   0.491
18817WAT     H158553   2.884   3.442   0.484
18817WAT     H258554   2.946   3.576   0.450
18818WAT      O58555   2.957   4.360   1.666
18818WAT     H158556   2.951   4.268   1.640
18818WAT     H258557   2.894   4.370   1.737
18819WAT      O58558   3.237   3.930   0.321
18819WAT     H158559   3.325   3.961   0.303
18819WAT     H258560   3.234   3.842   0.282
18820WAT      O58561   2.348   4.420   0.861
18820WAT     H158562   2.399   4.340   0.856
18820WAT     H258563   2.302   4.414   0.946
18821WAT      O58564   2.836   4.547   0.389
18821WAT     H158565   2.870   4.621   0.339
18821WAT     H258566   2.753   4.578   0.425
18822WAT      O58567   2.096   4.117   1.553
18822WAT     H158568   2.060   4.183   1.611
18822WAT     H258569   2.067   4.034   1.590
18823WAT      O58570   2.416   4.163   1.841
18823WAT     H158571   2.386   4.177   1.751
18823WAT     H258572   2.493   4.107   1.832
18824WAT      O58573   2.950   4.642   1.641
18824WAT     H158574   2.952   4.549   1.619
18824WAT     H258575   2.880   4.651   1.705
18825WAT      O58576   3.464   4.061   0.268
18825WAT     H158577   3.455   4.104   0.183
18825WAT     H258578   3.536   4.107   0.311
18826WAT      O58579   3.572   4.306   1.575
18826WAT     H158580   3.499   4.366   1.556
18826WAT     H258581   3.624   4.306   1.495
18827WAT      O58582   3.567   4.746   0.540
18827WAT     H158583   3.502   4.681   0.568
18827WAT     H258584   3.528   4.787   0.463
18828WAT      O58585   3.125   4.479   0.925
18828WAT     H158586   3.160   4.419   0.859
18828WAT     H258587   3.036   4.446   0.942
18829WAT      O58588   2.733   4.555   0.666
18829WAT     H158589   2.802   4.610   0.704
18829WAT     H258590   2.655   4.609   0.669
18830WAT      O58591   1.947   4.117   0.215
18830WAT     H158592   2.034   4.145   0.243
18830WAT     H258593   1.898   4.198   0.204
18831WAT      O58594   2.663   4.255   0.627
18831WAT     H158595   2.709   4.336   0.650
18831WAT     H258596   2.628   4.224   0.710
18832WAT      O58597   2.894   4.806   1.350
18832WAT     H158598   2.958   4.827   1.418
18832WAT     H258599   2.930   4.730   1.305
18833WAT      O58600   2.254   3.290   0.674
18833WAT     H158601   2.241   3.289   0.769
18833WAT     H258602   2.171   3.324   0.639
18834WAT      O58603   3.021   4.607   1.222
18834WAT     H158604   3.085   4.537   1.233
18834WAT     H258605   3.074   4.685   1.204
18835WAT      O58606   3.198   4.687   1.542
18835WAT     H158607   3.232   4.745   1.610
18835WAT     H258608   3.106   4.674   1.565
18836WAT      O58609   1.984   5.038   0.272
18836WAT     H158610   2.020   5.098   0.206
18836WAT     H258611   1.970   5.092   0.349
18837WAT      O58612   1.954   3.466   1.620
18837WAT     H158613   1.882   3.486   1.681
18837WAT     H258614   1.995   3.388   1.658
18838WAT      O58615   3.364   4.427   0.360
18838WAT     H158616   3.335   4.473   0.439
18838WAT     H258617   3.443   4.381   0.387
18839WAT      O58618   1.982   4.864   1.719
18839WAT     H158619   1.993   4.770   1.705
18839WAT     H258620   1.917   4.891   1.654
18840WAT      O58621   2.781   4.692   1.859
18840WAT     H158622   2.749   4.620   1.914
18840WAT     H258623   2.714   4.759   1.866
18841WAT      O58624   2.586   4.776   0.353
18841WAT     H158625   2.585   4.849   0.292
18841WAT     H258626   2.493   4.752   0.363
18842WAT      O58627   2.146   4.298   0.428
18842WAT     H158628   2.085   4.372   0.429
18842WAT     H258629   2.193   4.307   0.345
18843WAT      O58630   3.103   3.715   1.395
18843WAT     H158631   3.140   3.633   1.428
18843WAT     H258632   3.017   3.721   1.437
18844WAT      O58633   3.440   3.610   0.476
18844WAT     H158634   3.377   3.621   0.405
18844WAT     H258635   3.390   3.632   0.555
18845WAT      O58636   2.636   3.838   0.618
18845WAT     H158637   2.566   3.885   0.662
18845WAT     H258638   2.665   3.773   0.681
18846WAT      O58639   2.799   3.980   1.418
18846WAT     H158640   2.849   4.028   1.484
18846WAT     H258641   2.813   3.888   1.439
18847WAT      O58642   3.040   3.511   0.762
18847WAT     H158643   3.027   3.513   0.667
18847WAT     H258644   3.134   3.516   0.774
18848WAT      O58645   2.748   5.034   0.689
18848WAT     H158646   2.774   5.031   0.597
18848WAT     H258647   2.653   5.022   0.688
18849WAT      O58648   2.457   3.669   0.355
18849WAT     H158649   2.542   3.713   0.349
18849WAT     H258650   2.420   3.700   0.438
18850WAT      O58651   3.520   3.602   1.502
18850WAT     H158652   3.469   3.676   1.536
18850WAT     H258653   3.601   3.641   1.470
18851WAT      O58654   3.349   4.126   0.847
18851WAT     H158655   3.255   4.128   0.864
18851WAT     H258656   3.380   4.048   0.891
18852WAT      O58657   2.216   4.038   0.271
18852WAT     H158658   2.224   3.943   0.282
18852WAT     H258659   2.305   4.071   0.282
18853WAT      O58660   3.549   4.843   1.014
18853WAT     H158661   3.562   4.926   1.061
18853WAT     H258662   3.636   4.822   0.979
18854WAT      O58663   2.296   5.053   0.981
18854WAT     H158664   2.370   4.998   1.009
18854WAT     H258665   2.335   5.139   0.967
18855WAT      O58666   1.985   4.659   0.569
18855WAT     H158667   1.892   4.684   0.568
18855WAT     H258668   2.031   4.742   0.557
18856WAT      O58669   2.197   4.971   1.900
18856WAT     H158670   2.277   5.003   1.942
18856WAT     H258671   2.145   4.935   1.972
18857WAT      O58672   3.080   4.582   1.895
18857WAT     H158673   3.020   4.584   1.821
18857WAT     H258674   3.050   4.509   1.949
18858WAT      O58675   3.223   4.955   1.756
18858WAT     H158676   3.319   4.946   1.751
18858WAT     H258677   3.209   5.021   1.823
18859WAT      O58678   3.513   4.893   0.306
18859WAT     H158679   3.484   4.851   0.225
18859WAT     H258680   3.493   4.986   0.294
18860WAT      O58681   1.969   4.220   1.795
18860WAT     H158682   2.019   4.162   1.852
18860WAT     H258683   1.895   4.248   1.848
18861WAT      O58684   2.674   4.361   1.748
18861WAT     H158685   2.598   4.417   1.740
18861WAT     H258686   2.692   4.331   1.659
18862WAT      O58687   2.983   4.398   0.211
18862WAT     H158688   2.928   4.443   0.275
18862WAT     H258689   3.045   4.348   0.263
18863WAT      O58690   3.388   4.534   1.804
18863WAT     H158691   3.463   4.567   1.753
18863WAT     H258692   3.312   4.551   1.748
18864WAT      O58693   2.172   4.034   1.884
18864WAT     H158694   2.176   4.004   1.975
18864WAT     H258695   2.257   4.074   1.868
18865WAT      O58696   2.550   4.294   0.400
18865WAT     H158697   2.592   4.278   0.484
18865WAT     H258698   2.562   4.213   0.351
18866WAT      O58699   2.366   3.892   1.681
18866WAT     H158700   2.313   3.843   1.618
18866WAT     H258701   2.433   3.935   1.627
18867WAT      O58702   3.256   4.339   1.657
18867WAT     H158703   3.297   4.354   1.742
18867WAT     H258704   3.162   4.351   1.674
18868WAT      O58705   3.303   4.073   1.858
18868WAT     H158706   3.361   3.997   1.849
18868WAT     H258707   3.321   4.126   1.780
18869WAT      O58708   2.415   3.589   1.689
18869WAT     H158709   2.405   3.527   1.616
18869WAT     H258710   2.357   3.661   1.666
18870WAT      O58711   2.691   3.444   1.392
18870WAT     H158712   2.647   3.447   1.308
18870WAT     H258713   2.628   3.405   1.452
18871WAT      O58714   2.732   4.334   1.454
18871WAT     H158715   2.774   4.418   1.437
18871WAT     H258716   2.640   4.348   1.431
18872WAT      O58717   2.966   4.107   1.593
18872WAT     H158718   2.978   4.048   1.667
18872WAT     H258719   3.052   4.111   1.551
18873WAT      O58720   3.200   4.163   1.450
18873WAT     H158721   3.147   4.215   1.390
18873WAT     H258722   3.234   4.226   1.513
18874WAT      O58723   2.517   4.965   1.566
18874WAT     H158724   2.463   5.037   1.534
18874WAT     H258725   2.542   4.917   1.487
18875WAT      O58726   2.642   3.761   1.718
18875WAT     H158727   2.701   3.731   1.787
18875WAT     H258728   2.561   3.714   1.734
18876WAT      O58729   3.124   3.723   1.742
18876WAT     H158730   3.055   3.657   1.735
18876WAT     H258731   3.196   3.678   1.786
18877WAT      O58732   3.187   3.383   0.348
18877WAT     H158733   3.215   3.298   0.383
18877WAT     H258734   3.110   3.406   0.399
18878WAT      O58735   2.803   5.088   1.592
18878WAT     H158736   2.795   5.178   1.622
18878WAT     H258737   2.713   5.056   1.589
18879WAT      O58738   2.858   5.005   0.354
18879WAT     H158739   2.947   5.038   0.356
18879WAT     H258740   2.861   4.932   0.291
18880WAT      O58741   2.222   4.542   0.177
18880WAT     H158742   2.265   4.596   0.242
18880WAT     H258743   2.270   4.459   0.178
18881WAT      O58744   1.943   4.821   0.922
18881WAT     H158745   1.976   4.734   0.899
18881WAT     H258746   1.986   4.841   1.005
18882WAT      O58747   2.403   4.654   0.688
18882WAT     H158748   2.373   4.642   0.778
18882WAT     H258749   2.392   4.568   0.647
18883WAT      O58750   1.992   4.907   1.196
18883WAT     H158751   1.948   4.925   1.279
18883WAT     H258752   2.049   4.983   1.182
18884WAT      O58753   3.556   4.858   1.625
18884WAT     H158754   3.496   4.864   1.550
18884WAT     H258755   3.568   4.764   1.638
18885WAT      O58756   3.625   4.306   0.409
18885WAT     H158757   3.701   4.363   0.419
18885WAT     H258758   3.627   4.250   0.486
18886WAT      O58759   1.975   4.159   0.832
18886WAT     H158760   1.910   4.132   0.767
18886WAT     H258761   2.059   4.148   0.787
18887WAT      O58762   3.726   4.392   0.893
18887WAT     H158763   3.763   4.313   0.852
18887WAT     H258764   3.790   4.461   0.875
18888WAT      O58765   3.424   4.530   1.434
18888WAT     H158766   3.343   4.573   1.461
18888WAT     H258767   3.465   4.591   1.373
18889WAT      O58768   3.270   3.638   0.254
18889WAT     H158769   3.312   3.619   0.170
18889WAT     H258770   3.239   3.553   0.285
18890WAT      O58771   3.620   4.129   0.624
18890WAT     H158772   3.582   4.053   0.580
18890WAT     H258773   3.547   4.168   0.672
18891WAT      O58774   2.079   4.197   1.286
18891WAT     H158775   2.116   4.188   1.374
18891WAT     H258776   2.022   4.121   1.276
18892WAT      O58777   3.559   4.044   1.587
18892WAT     H158778   3.536   4.021   1.497
18892WAT     H258779   3.585   4.136   1.583
18893WAT      O58780   2.034   3.888   1.676
18893WAT     H158781   1.945   3.885   1.710
18893WAT     H258782   2.088   3.908   1.753
18894WAT      O58783   3.403   3.567   1.865
18894WAT     H158784   3.491   3.567   1.903
18894WAT     H258785   3.404   3.493   1.804
18895WAT      O58786   1.897   3.880   0.426
18895WAT     H158787   1.806   3.906   0.409
18895WAT     H258788   1.945   3.907   0.348
18896WAT      O58789   3.547   3.952   0.954
18896WAT     H158790   3.600   3.903   0.891
18896WAT     H258791   3.606   3.965   1.028
18897WAT      O58792   3.565   3.960   1.306
18897WAT     H158793   3.470   3.957   1.317
18897WAT     H258794   3.583   4.051   1.282
18898WAT      O58795   3.496   3.878   0.548
18898WAT     H158796   3.546   3.854   0.626
18898WAT     H258797   3.477   3.794   0.506
18899WAT      O58798   2.084   3.316   1.111
18899WAT     H158799   2.149   3.261   1.067
18899WAT     H258800   2.126   3.341   1.193
18900WAT      O58801   3.639   3.741   0.801
18900WAT     H158802   3.628   3.726   0.895
18900WAT     H258803   3.715   3.688   0.777
18901WAT      O58804   3.474   3.335   1.447
18901WAT     H158805   3.538   3.397   1.483
18901WAT     H258806   3.489   3.339   1.352
18902WAT      O58807   3.736   3.601   0.388
18902WAT     H158808   3.656   3.595   0.441
18902WAT     H258809   3.756   3.695   0.387
18903WAT      O58810   3.430   5.005   0.787
18903WAT     H158811   3.489   4.973   0.719
18903WAT     H258812   3.456   4.958   0.866
18904WAT      O58813   2.060   3.331   1.385
18904WAT     H158814   2.025   3.377   1.462
18904WAT     H258815   2.027   3.242   1.394
18905WAT      O58816   2.220   4.649   1.802
18905WAT     H158817   2.216   4.611   1.890
18905WAT     H258818   2.234   4.742   1.816
18906WAT      O58819   2.590   4.804   1.362
18906WAT     H158820   2.566   4.831   1.273
18906WAT     H258821   2.685   4.821   1.368
18907WAT      O58822   2.811   3.450   1.738
18907WAT     H158823   2.805   3.510   1.813
18907WAT     H258824   2.905   3.440   1.723
18908WAT      O58825   3.075   3.416   1.702
18908WAT     H158826   3.136   3.448   1.635
18908WAT     H258827   3.129   3.368   1.764
18909WAT      O58828   3.717   5.006   1.442
18909WAT     H158829   3.667   5.046   1.370
18909WAT     H258830   3.656   4.944   1.482
18910WAT      O58831   2.127   3.284   1.713
18910WAT     H158832   2.182   3.266   1.637
18910WAT     H258833   2.134   3.205   1.767
18911WAT      O58834   2.204   4.943   1.514
18911WAT     H158835   2.145   4.930   1.588
18911WAT     H258836   2.204   4.860   1.467
18912WAT      O58837   3.149   3.272   1.334
18912WAT     H158838   3.061   3.306   1.314
18912WAT     H258839   3.138   3.225   1.417
18913WAT      O58840   3.240   3.493   1.473
18913WAT     H158841   3.207   3.412   1.435
18913WAT     H258842   3.334   3.489   1.460
18914WAT      O58843   3.485   5.070   1.170
18914WAT     H158844   3.439   5.145   1.133
18914WAT     H258845   3.422   4.998   1.164
18915WAT      O58846   2.167   4.680   1.409
18915WAT     H158847   2.095   4.618   1.402
18915WAT     H258848   2.174   4.719   1.322
18916WAT      O58849   2.528   4.901   1.088
18916WAT     H158850   2.580   4.840   1.035
18916WAT     H258851   2.593   4.951   1.137
18917WAT      O58852   2.802   4.990   1.170
18917WAT     H158853   2.831   4.965   1.083
18917WAT     H258854   2.853   4.935   1.229
18918WAT      O58855   2.924   3.364   1.228
18918WAT     H158856   2.845   3.412   1.256
18918WAT     H258857   2.894   3.274   1.217
18919WAT      O58858   3.379   3.434   1.033
18919WAT     H158859   3.423   3.429   0.948
18919WAT     H258860   3.352   3.526   1.040
18920WAT      O58861   3.565   3.398   0.834
18920WAT     H158862   3.559   3.303   0.819
18920WAT     H258863   3.643   3.408   0.888
18921WAT      O58864   1.996   5.011   0.730
18921WAT     H158865   1.979   4.948   0.800
18921WAT     H258866   1.909   5.032   0.695
18922WAT      O58867   2.058   3.395   0.480
18922WAT     H158868   2.134   3.406   0.423
18922WAT     H258869   2.012   3.478   0.476
18923WAT      O58870   2.712   3.606   0.779
18923WAT     H158871   2.631   3.569   0.745
18923WAT     H258872   2.763   3.530   0.810
18924WAT      O58873   3.162   3.272   0.903
18924WAT     H158874   3.223   3.330   0.951
18924WAT     H258875   3.088   3.329   0.881
18925WAT      O58876   3.477   3.313   0.431
18925WAT     H158877   3.496   3.403   0.457
18925WAT     H258878   3.398   3.290   0.480
18926WAT      O58879   2.156   4.881   0.474
18926WAT     H158880   2.104   4.919   0.404
18926WAT     H258881   2.149   4.943   0.547
18927WAT      O58882   2.295   3.447   0.334
18927WAT     H158883   2.348   3.369   0.321
18927WAT     H258884   2.359   3.515   0.358
18928WAT      O58885   2.515   3.421   0.640
18928WAT     H158886   2.452   3.351   0.656
18928WAT     H258887   2.461   3.497   0.618
18929WAT      O58888   2.809   5.082   1.907
18929WAT     H158889   2.901   5.059   1.911
18929WAT     H258890   2.807   5.165   1.859
18930WAT      O58891   3.632   5.037   0.607
18930WAT     H158892   3.650   4.968   0.542
18930WAT     H258893   3.562   5.089   0.567
18931WAT      O58894   2.527   3.349   1.883
18931WAT     H158895   2.499   3.399   1.807
18931WAT     H258896   2.565   3.269   1.847
18932WAT      O58897   2.416   5.076   0.362
18932WAT     H158898   2.489   5.047   0.307
18932WAT     H258899   2.442   5.052   0.451
18933WAT      O58900   2.332   4.687   0.362
18933WAT     H158901   2.270   4.734   0.417
18933WAT     H258902   2.344   4.603   0.406
18934WAT      O58903   3.187   3.290   1.941
18934WAT     H158904   3.176   3.322   2.031
18934WAT     H258905   3.269   3.331   1.911
18935WAT      O58906   3.465   5.005   1.889
18935WAT     H158907   3.545   4.956   1.869
18935WAT     H258908   3.495   5.073   1.950
18936WAT      O58909   3.078   2.215   6.487
18936WAT     H158910   3.070   2.123   6.460
18936WAT     H258911   3.037   2.265   6.417
18937WAT      O58912   2.891   2.393   6.675
18937WAT     H158913   2.814   2.345   6.704
18937WAT     H258914   2.956   2.325   6.658
18938WAT      O58915   2.293   2.424   6.763
18938WAT     H158916   2.210   2.398   6.803
18938WAT     H258917   2.354   2.431   6.837
18939WAT      O58918   3.293   2.833   6.553
18939WAT     H158919   3.247   2.756   6.586
18939WAT     H258920   3.374   2.836   6.604
18940WAT      O58921   2.291   2.827   6.783
18940WAT     H158922   2.321   2.738   6.765
18940WAT     H258923   2.365   2.883   6.760
18941WAT      O58924   2.134   1.920   6.141
18941WAT     H158925   2.045   1.954   6.131
18941WAT     H258926   2.162   1.900   6.052
18942WAT      O58927   1.930   2.180   6.730
18942WAT     H158928   1.987   2.103   6.730
18942WAT     H258929   1.930   2.210   6.639
18943WAT      O58930   2.916   3.062   6.515
18943WAT     H158931   2.854   3.107   6.458
18943WAT     H258932   3.001   3.077   6.475
18944WAT      O58933   2.835   2.660   6.676
18944WAT     H158934   2.828   2.566   6.660
18944WAT     H258935   2.911   2.669   6.733
18945WAT      O58936   2.054   1.721   6.909
18945WAT     H158937   2.036   1.631   6.937
18945WAT     H258938   2.014   1.776   6.976
18946WAT      O58939   2.938   1.941   6.699
18946WAT     H158940   2.976   1.854   6.687
18946WAT     H258941   2.928   1.975   6.610
18947WAT      O58942   2.351   1.778   6.245
18947WAT     H158943   2.362   1.868   6.276
18947WAT     H258944   2.260   1.773   6.216
18948WAT      O58945   3.316   1.690   6.392
18948WAT     H158946   3.399   1.641   6.396
18948WAT     H258947   3.320   1.749   6.467
18949WAT      O58948   2.116   1.970   6.769
18949WAT     H158949   2.184   1.997   6.831
18949WAT     H258950   2.085   1.886   6.803
18950WAT      O58951   2.535   2.075   6.678
18950WAT     H158952   2.586   2.125   6.742
18950WAT     H258953   2.589   1.997   6.661
18951WAT      O58954   3.745   1.892   7.048
18951WAT     H158955   3.675   1.931   6.997
18951WAT     H258956   3.772   1.962   7.109
18952WAT      O58957   2.364   1.539   7.105
18952WAT     H158958   2.364   1.591   7.024
18952WAT     H258959   2.281   1.491   7.102
18953WAT      O58960   3.002   2.550   6.255
18953WAT     H158961   2.941   2.597   6.198
18953WAT     H258962   3.054   2.620   6.296
18954WAT      O58963   2.489   2.503   6.922
18954WAT     H158964   2.455   2.566   6.987
18954WAT     H258965   2.506   2.556   6.845
18955WAT      O58966   3.340   1.884   6.669
18955WAT     H158967   3.270   1.913   6.727
18955WAT     H258968   3.376   1.965   6.633
18956WAT      O58969   2.332   1.710   6.905
18956WAT     H158970   2.366   1.795   6.876
18956WAT     H258971   2.238   1.725   6.917
18957WAT      O58972   2.410   2.700   7.104
18957WAT     H158973   2.472   2.767   7.076
18957WAT     H258974   2.324   2.741   7.095
18958WAT      O58975   1.939   2.619   5.992
18958WAT     H158976   1.902   2.668   5.919
18958WAT     H258977   1.965   2.686   6.055
18959WAT      O58978   3.502   2.846   6.896
18959WAT     H158979   3.433   2.913   6.895
18959WAT     H258980   3.556   2.866   6.819
18960WAT      O58981   3.647   1.829   6.708
18960WAT     H158982   3.552   1.832   6.721
18960WAT     H258983   3.679   1.910   6.747
18961WAT      O58984   2.700   1.459   6.538
18961WAT     H158985   2.731   1.403   6.466
18961WAT     H258986   2.607   1.472   6.520
18962WAT      O58987   3.255   3.031   6.767
18962WAT     H158988   3.257   2.990   6.680
18962WAT     H258989   3.200   3.108   6.757
18963WAT      O58990   3.385   2.703   6.276
18963WAT     H158991   3.374   2.609   6.288
18963WAT     H258992   3.384   2.739   6.365
18964WAT      O58993   3.195   2.521   6.900
18964WAT     H158994   3.237   2.500   6.816
18964WAT     H258995   3.268   2.547   6.957
18965WAT      O58996   2.939   2.265   6.212
18965WAT     H158997   2.846   2.259   6.234
18965WAT     H258998   2.954   2.359   6.200
18966WAT      O58999   2.938   1.893   5.911
18966WAT     H159000   2.844   1.909   5.920
18966WAT     H259001   2.970   1.965   5.857
18967WAT      O59002   3.590   2.361   6.909
18967WAT     H159003   3.507   2.368   6.861
18967WAT     H259004   3.649   2.419   6.862
18968WAT      O59005   3.342   2.422   6.262
18968WAT     H159006   3.280   2.388   6.197
18968WAT     H259007   3.340   2.357   6.333
18969WAT      O59008   3.286   2.040   7.004
18969WAT     H159009   3.245   2.122   7.029
18969WAT     H259010   3.213   1.981   6.984
18970WAT      O59011   2.500   2.318   6.490
18970WAT     H159012   2.459   2.247   6.440
18970WAT     H259013   2.508   2.284   6.579
18971WAT      O59014   2.546   2.687   6.706
18971WAT     H159015   2.517   2.626   6.638
18971WAT     H259016   2.641   2.691   6.695
18972WAT      O59017   2.371   1.996   6.868
18972WAT     H159018   2.426   2.007   6.790
18972WAT     H259019   2.422   2.033   6.939
18973WAT      O59020   3.355   3.044   7.072
18973WAT     H159021   3.308   3.125   7.053
18973WAT     H259022   3.287   2.979   7.088
18974WAT      O59023   2.456   2.661   7.371
18974WAT     H159024   2.366   2.683   7.396
18974WAT     H259025   2.458   2.673   7.276
18975WAT      O59026   3.160   2.346   5.963
18975WAT     H159027   3.204   2.262   5.948
18975WAT     H259028   3.231   2.409   5.971
18976WAT      O59029   2.338   2.348   7.229
18976WAT     H159030   2.324   2.435   7.266
18976WAT     H259031   2.250   2.313   7.214
18977WAT      O59032   2.971   2.840   6.359
18977WAT     H159033   3.015   2.914   6.318
18977WAT     H259034   2.964   2.864   6.452
18978WAT      O59035   2.518   2.942   7.450
18978WAT     H159036   2.515   2.982   7.363
18978WAT     H259037   2.502   2.849   7.433
18979WAT      O59038   3.518   1.471   5.794
18979WAT     H159039   3.486   1.480   5.884
18979WAT     H259040   3.594   1.529   5.789
18980WAT      O59041   2.170   2.208   6.240
18980WAT     H159042   2.158   2.280   6.179
18980WAT     H259043   2.139   2.131   6.192
18981WAT      O59044   1.933   2.525   6.820
18981WAT     H159045   1.941   2.538   6.726
18981WAT     H259046   1.995   2.454   6.840
18982WAT      O59047   2.058   2.695   6.462
18982WAT     H159048   2.017   2.709   6.376
18982WAT     H259049   2.147   2.666   6.441
18983WAT      O59050   3.654   2.739   7.295
18983WAT     H159051   3.666   2.715   7.203
18983WAT     H259052   3.658   2.656   7.342
18984WAT      O59053   3.040   3.110   7.152
18984WAT     H159054   3.091   3.101   7.232
18984WAT     H259055   2.955   3.144   7.181
18985WAT      O59056   3.237   3.138   6.095
18985WAT     H159057   3.221   3.109   6.185
18985WAT     H259058   3.221   3.061   6.041
18986WAT      O59059   2.485   3.116   6.273
18986WAT     H159060   2.468   3.025   6.251
18986WAT     H259061   2.400   3.152   6.297
18987WAT      O59062   3.208   2.889   5.951
18987WAT     H159063   3.138   2.889   5.885
18987WAT     H259064   3.282   2.847   5.908
18988WAT      O59065   3.164   3.052   6.358
18988WAT     H159066   3.210   2.974   6.390
18988WAT     H259067   3.198   3.123   6.413
18989WAT      O59068   3.639   1.945   7.392
18989WAT     H159069   3.577   1.995   7.339
18989WAT     H259070   3.607   1.855   7.386
18990WAT      O59071   1.939   2.629   7.074
18990WAT     H159072   1.955   2.582   6.993
18990WAT     H259073   1.986   2.578   7.141
18991WAT      O59074   2.416   1.542   6.578
18991WAT     H159075   2.372   1.620   6.545
18991WAT     H259076   2.472   1.574   6.649
18992WAT      O59077   2.845   1.829   7.138
18992WAT     H159078   2.799   1.849   7.220
18992WAT     H259079   2.805   1.747   7.108
18993WAT      O59080   3.345   1.951   7.251
18993WAT     H159081   3.260   1.921   7.283
18993WAT     H259082   3.329   1.975   7.160
18994WAT      O59083   3.054   2.101   7.461
18994WAT     H159084   3.087   2.017   7.427
18994WAT     H259085   3.133   2.153   7.476
18995WAT      O59086   2.728   1.504   6.066
18995WAT     H159087   2.665   1.504   6.139
18995WAT     H259088   2.719   1.417   6.026
18996WAT      O59089   2.620   1.596   6.764
18996WAT     H159090   2.650   1.687   6.756
18996WAT     H259091   2.675   1.548   6.702
18997WAT      O59092   2.395   2.054   6.351
18997WAT     H159093   2.373   2.033   6.441
18997WAT     H259094   2.317   2.098   6.316
18998WAT      O59095   3.118   2.055   6.211
18998WAT     H159096   3.058   2.127   6.192
18998WAT     H259097   3.173   2.049   6.132
18999WAT      O59098   2.639   2.144   7.417
18999WAT     H159099   2.630   2.050   7.402
18999WAT     H259100   2.724   2.166   7.378
19000WAT      O59101   2.979   1.919   6.414
19000WAT     H159102   3.018   1.950   6.332
19000WAT     H259103   3.015   1.831   6.425
19001WAT      O59104   2.152   1.785   7.233
19001WAT     H159105   2.113   1.870   7.253
19001WAT     H259106   2.084   1.722   7.252
19002WAT      O59107   1.883   1.578   6.636
19002WAT     H159108   1.854   1.635   6.707
19002WAT     H259109   1.957   1.530   6.672
19003WAT      O59110   1.901   1.972   5.757
19003WAT     H159111   1.893   2.066   5.771
19003WAT     H259112   1.866   1.957   5.669
19004WAT      O59113   3.038   2.178   6.823
19004WAT     H159114   2.964   2.228   6.858
19004WAT     H259115   2.998   2.096   6.793
19005WAT      O59116   2.681   1.845   6.664
19005WAT     H159117   2.682   1.801   6.579
19005WAT     H259118   2.771   1.877   6.675
19006WAT      O59119   2.266   1.833   6.560
19006WAT     H159120   2.232   1.881   6.635
19006WAT     H259121   2.190   1.788   6.524
19007WAT      O59122   2.688   1.945   5.963
19007WAT     H159123   2.700   1.941   6.058
19007WAT     H259124   2.649   2.031   5.947
19008WAT      O59125   3.084   1.723   6.764
19008WAT     H159126   3.086   1.768   6.849
19008WAT     H259127   3.059   1.633   6.786
19009WAT      O59128   2.589   2.176   5.903
19009WAT     H159129   2.532   2.131   5.840
19009WAT     H259130   2.660   2.212   5.849
19010WAT      O59131   3.427   1.464   7.348
19010WAT     H159132   3.459   1.391   7.401
19010WAT     H259133   3.430   1.432   7.258
19011WAT      O59134   2.096   2.566   7.290
19011WAT     H159135   2.058   2.502   7.350
19011WAT     H259136   2.128   2.637   7.347
19012WAT      O59137   2.711   2.251   6.838
19012WAT     H159138   2.748   2.204   6.913
19012WAT     H259139   2.692   2.339   6.873
19013WAT      O59140   1.998   1.726   6.451
19013WAT     H159141   1.969   1.689   6.535
19013WAT     H259142   1.992   1.652   6.390
19014WAT      O59143   2.490   2.155   7.070
19014WAT     H159144   2.460   2.243   7.093
19014WAT     H259145   2.586   2.161   7.074
19015WAT      O59146   2.343   2.576   6.130
19015WAT     H159147   2.266   2.522   6.114
19015WAT     H259148   2.416   2.524   6.096
19016WAT      O59149   3.419   2.476   6.709
19016WAT     H159150   3.491   2.525   6.670
19016WAT     H259151   3.399   2.408   6.645
19017WAT      O59152   2.965   1.615   6.124
19017WAT     H159153   2.884   1.565   6.116
19017WAT     H259154   2.946   1.699   6.082
19018WAT      O59155   2.957   2.483   7.298
19018WAT     H159156   2.951   2.391   7.272
19018WAT     H259157   2.894   2.492   7.369
19019WAT      O59158   3.237   2.052   5.953
19019WAT     H159159   3.325   2.083   5.936
19019WAT     H259160   3.234   1.965   5.914
19020WAT      O59161   2.348   2.543   6.494
19020WAT     H159162   2.399   2.462   6.488
19020WAT     H259163   2.302   2.536   6.578
19021WAT      O59164   2.836   2.669   6.021
19021WAT     H159165   2.870   2.744   5.971
19021WAT     H259166   2.753   2.701   6.057
19022WAT      O59167   2.096   2.239   7.185
19022WAT     H159168   2.060   2.306   7.244
19022WAT     H259169   2.067   2.156   7.222
19023WAT      O59170   2.416   2.285   7.473
19023WAT     H159171   2.386   2.300   7.384
19023WAT     H259172   2.493   2.229   7.464
19024WAT      O59173   2.950   2.765   7.273
19024WAT     H159174   2.952   2.672   7.251
19024WAT     H259175   2.880   2.773   7.337
19025WAT      O59176   3.464   2.183   5.900
19025WAT     H159177   3.455   2.226   5.815
19025WAT     H259178   3.536   2.229   5.943
19026WAT      O59179   3.572   2.429   7.208
19026WAT     H159180   3.499   2.488   7.188
19026WAT     H259181   3.624   2.428   7.128
19027WAT      O59182   3.567   2.869   6.173
19027WAT     H159183   3.502   2.803   6.200
19027WAT     H259184   3.528   2.909   6.095
19028WAT      O59185   3.125   2.601   6.557
19028WAT     H159186   3.160   2.542   6.491
19028WAT     H259187   3.036   2.569   6.575
19029WAT      O59188   2.733   2.677   6.298
19029WAT     H159189   2.802   2.732   6.336
19029WAT     H259190   2.655   2.732   6.302
19030WAT      O59191   1.947   2.239   5.847
19030WAT     H159192   2.034   2.267   5.876
19030WAT     H259193   1.898   2.321   5.836
19031WAT      O59194   2.663   2.378   6.259
19031WAT     H159195   2.709   2.459   6.282
19031WAT     H259196   2.628   2.346   6.343
19032WAT      O59197   2.894   2.929   6.982
19032WAT     H159198   2.958   2.950   7.050
19032WAT     H259199   2.930   2.853   6.937
19033WAT      O59200   2.254   1.412   6.307
19033WAT     H159201   2.241   1.411   6.402
19033WAT     H259202   2.171   1.446   6.272
19034WAT      O59203   3.021   2.729   6.854
19034WAT     H159204   3.085   2.659   6.865
19034WAT     H259205   3.074   2.807   6.836
19035WAT      O59206   3.406   2.758   5.827
19035WAT     H159207   3.383   2.686   5.886
19035WAT     H259208   3.367   2.733   5.743
19036WAT      O59209   3.198   2.809   7.174
19036WAT     H159210   3.232   2.868   7.242
19036WAT     H259211   3.106   2.796   7.197
19037WAT      O59212   1.984   3.160   5.904
19037WAT     H159213   2.020   3.220   5.839
19037WAT     H259214   1.970   3.215   5.981
19038WAT      O59215   1.954   1.588   7.253
19038WAT     H159216   1.882   1.608   7.313
19038WAT     H259217   1.995   1.511   7.290
19039WAT      O59218   3.364   2.550   5.993
19039WAT     H159219   3.335   2.596   6.071
19039WAT     H259220   3.443   2.503   6.019
19040WAT      O59221   1.982   2.987   7.351
19040WAT     H159222   1.993   2.893   7.337
19040WAT     H259223   1.917   3.014   7.287
19041WAT      O59224   2.586   2.899   5.986
19041WAT     H159225   2.585   2.972   5.924
19041WAT     H259226   2.493   2.874   5.995
19042WAT      O59227   2.146   2.421   6.060
19042WAT     H159228   2.085   2.495   6.061
19042WAT     H259229   2.193   2.430   5.978
19043WAT      O59230   3.103   1.837   7.028
19043WAT     H159231   3.140   1.755   7.061
19043WAT     H259232   3.017   1.843   7.069
19044WAT      O59233   3.440   1.733   6.109
19044WAT     H159234   3.377   1.743   6.037
19044WAT     H259235   3.390   1.755   6.188
19045WAT      O59236   2.884   2.905   5.852
19045WAT     H159237   2.894   2.885   5.759
19045WAT     H259238   2.794   2.880   5.872
19046WAT      O59239   2.636   1.961   6.250
19046WAT     H159240   2.566   2.008   6.294
19046WAT     H259241   2.665   1.895   6.314
19047WAT      O59242   2.799   2.103   7.050
19047WAT     H159243   2.849   2.150   7.117
19047WAT     H259244   2.813   2.010   7.071
19048WAT      O59245   3.040   1.633   6.394
19048WAT     H159246   3.027   1.635   6.299
19048WAT     H259247   3.134   1.638   6.406
19049WAT      O59248   2.748   3.157   6.321
19049WAT     H159249   2.774   3.153   6.229
19049WAT     H259250   2.653   3.144   6.321
19050WAT      O59251   2.457   1.792   5.988
19050WAT     H159252   2.542   1.835   5.981
19050WAT     H259253   2.420   1.823   6.070
19051WAT      O59254   3.520   1.724   7.134
19051WAT     H159255   3.469   1.799   7.168
19051WAT     H259256   3.601   1.763   7.103
19052WAT      O59257   3.349   2.249   6.479
19052WAT     H159258   3.255   2.250   6.496
19052WAT     H259259   3.380   2.170   6.524
19053WAT      O59260   2.347   2.417   5.835
19053WAT     H159261   2.423   2.406   5.891
19053WAT     H259262   2.354   2.347   5.770
19054WAT      O59263   2.216   2.160   5.903
19054WAT     H159264   2.224   2.066   5.915
19054WAT     H259265   2.305   2.193   5.914
19055WAT      O59266   3.549   2.966   6.647
19055WAT     H159267   3.562   3.048   6.694
19055WAT     H259268   3.636   2.945   6.612
19056WAT      O59269   2.296   3.175   6.614
19056WAT     H159270   2.370   3.120   6.641
19056WAT     H259271   2.335   3.262   6.600
19057WAT      O59272   1.985   2.782   6.201
19057WAT     H159273   1.892   2.806   6.200
19057WAT     H259274   2.031   2.865   6.189
19058WAT      O59275   2.607   3.093   5.796
19058WAT     H159276   2.687   3.121   5.751
19058WAT     H259277   2.555   3.049   5.728
19059WAT      O59278   3.223   3.077   7.388
19059WAT     H159279   3.319   3.069   7.383
19059WAT     H259280   3.209   3.144   7.456
19060WAT      O59281   3.513   3.015   5.938
19060WAT     H159282   3.484   2.974   5.857
19060WAT     H259283   3.493   3.108   5.926
19061WAT      O59284   1.969   2.342   7.427
19061WAT     H159285   2.019   2.284   7.484
19061WAT     H259286   1.895   2.371   7.481
19062WAT      O59287   2.659   2.615   5.782
19062WAT     H159288   2.649   2.553   5.855
19062WAT     H259289   2.642   2.562   5.704
19063WAT      O59290   2.674   2.483   7.380
19063WAT     H159291   2.598   2.540   7.372
19063WAT     H259292   2.692   2.454   7.291
19064WAT      O59293   2.983   2.521   5.843
19064WAT     H159294   2.928   2.565   5.907
19064WAT     H259295   3.045   2.470   5.895
19065WAT      O59296   3.388   2.656   7.436
19065WAT     H159297   3.463   2.690   7.386
19065WAT     H259298   3.312   2.673   7.381
19066WAT      O59299   2.550   2.417   6.032
19066WAT     H159300   2.592   2.400   6.117
19066WAT     H259301   2.562   2.336   5.983
19067WAT      O59302   2.366   2.015   7.313
19067WAT     H159303   2.313   1.966   7.250
19067WAT     H259304   2.433   2.057   7.260
19068WAT      O59305   2.801   2.319   5.757
19068WAT     H159306   2.853   2.248   5.721
19068WAT     H259307   2.866   2.383   5.787
19069WAT      O59308   3.256   2.461   7.290
19069WAT     H159309   3.297   2.477   7.375
19069WAT     H259310   3.162   2.474   7.306
19070WAT      O59311   3.303   2.195   7.490
19070WAT     H159312   3.361   2.120   7.481
19070WAT     H259313   3.321   2.248   7.412
19071WAT      O59314   2.415   1.711   7.321
19071WAT     H159315   2.405   1.649   7.249
19071WAT     H259316   2.357   1.784   7.298
19072WAT      O59317   2.691   1.567   7.024
19072WAT     H159318   2.647   1.569   6.940
19072WAT     H259319   2.628   1.527   7.084
19073WAT      O59320   2.732   2.457   7.087
19073WAT     H159321   2.774   2.541   7.069
19073WAT     H259322   2.640   2.470   7.064
19074WAT      O59323   2.966   2.230   7.225
19074WAT     H159324   2.978   2.170   7.299
19074WAT     H259325   3.052   2.233   7.183
19075WAT      O59326   3.200   2.285   7.083
19075WAT     H159327   3.147   2.337   7.022
19075WAT     H259328   3.234   2.348   7.146
19076WAT      O59329   2.439   2.024   5.727
19076WAT     H159330   2.419   1.938   5.763
19076WAT     H259331   2.422   2.015   5.633
19077WAT      O59332   2.517   3.087   7.198
19077WAT     H159333   2.463   3.160   7.166
19077WAT     H259334   2.542   3.039   7.119
19078WAT      O59335   2.642   1.884   7.351
19078WAT     H159336   2.701   1.853   7.419
19078WAT     H259337   2.561   1.837   7.366
19079WAT      O59338   3.124   1.846   7.374
19079WAT     H159339   3.055   1.779   7.368
19079WAT     H259340   3.196   1.801   7.419
19080WAT      O59341   3.187   1.505   5.980
19080WAT     H159342   3.215   1.421   6.016
19080WAT     H259343   3.110   1.528   6.031
19081WAT      O59344   2.319   1.734   5.726
19081WAT     H159345   2.349   1.735   5.635
19081WAT     H259346   2.393   1.699   5.776
19082WAT      O59347   2.803   3.211   7.224
19082WAT     H159348   2.795   3.301   7.255
19082WAT     H259349   2.713   3.179   7.221
19083WAT      O59350   2.641   1.628   5.824
19083WAT     H159351   2.606   1.561   5.766
19083WAT     H259352   2.661   1.582   5.906
19084WAT      O59353   2.858   3.127   5.986
19084WAT     H159354   2.947   3.161   5.988
19084WAT     H259355   2.861   3.055   5.924
19085WAT      O59356   2.222   2.664   5.809
19085WAT     H159357   2.265   2.719   5.875
19085WAT     H259358   2.270   2.582   5.810
19086WAT      O59359   1.943   2.943   6.554
19086WAT     H159360   1.976   2.857   6.531
19086WAT     H259361   1.986   2.964   6.637
19087WAT      O59362   2.403   2.776   6.320
19087WAT     H159363   2.373   2.764   6.410
19087WAT     H259364   2.392   2.691   6.280
19088WAT      O59365   1.992   3.030   6.828
19088WAT     H159366   1.948   3.048   6.911
19088WAT     H259367   2.049   3.106   6.814
19089WAT      O59368   3.556   2.980   7.257
19089WAT     H159369   3.496   2.986   7.183
19089WAT     H259370   3.568   2.886   7.270
19090WAT      O59371   3.680   2.754   5.791
19090WAT     H159372   3.596   2.761   5.838
19090WAT     H259373   3.697   2.843   5.760
19091WAT      O59374   3.625   2.429   6.041
19091WAT     H159375   3.701   2.486   6.052
19091WAT     H259376   3.627   2.372   6.118
19092WAT      O59377   1.975   2.281   6.464
19092WAT     H159378   1.910   2.254   6.400
19092WAT     H259379   2.059   2.270   6.419
19093WAT      O59380   3.726   2.514   6.525
19093WAT     H159381   3.763   2.436   6.485
19093WAT     H259382   3.790   2.583   6.508
19094WAT      O59383   3.424   2.653   7.067
19094WAT     H159384   3.343   2.696   7.093
19094WAT     H259385   3.465   2.714   7.005
19095WAT      O59386   3.630   2.458   5.757
19095WAT     H159387   3.658   2.549   5.744
19095WAT     H259388   3.611   2.452   5.850
19096WAT      O59389   3.270   1.761   5.886
19096WAT     H159390   3.312   1.742   5.802
19096WAT     H259391   3.239   1.675   5.917
19097WAT      O59392   3.620   2.252   6.256
19097WAT     H159393   3.582   2.175   6.213
19097WAT     H259394   3.547   2.290   6.305
19098WAT      O59395   2.079   2.320   6.918
19098WAT     H159396   2.116   2.311   7.006
19098WAT     H259397   2.022   2.243   6.908
19099WAT      O59398   3.559   2.167   7.219
19099WAT     H159399   3.536   2.144   7.129
19099WAT     H259400   3.585   2.259   7.215
19100WAT      O59401   2.034   2.011   7.309
19100WAT     H159402   1.945   2.008   7.343
19100WAT     H259403   2.088   2.031   7.385
19101WAT      O59404   1.897   2.002   6.058
19101WAT     H159405   1.806   2.029   6.041
19101WAT     H259406   1.945   2.029   5.980
19102WAT      O59407   3.547   2.074   6.586
19102WAT     H159408   3.600   2.025   6.523
19102WAT     H259409   3.606   2.088   6.661
19103WAT      O59410   3.565   2.083   6.938
19103WAT     H159411   3.470   2.079   6.950
19103WAT     H259412   3.583   2.174   6.915
19104WAT      O59413   2.151   1.908   5.849
19104WAT     H159414   2.222   1.866   5.801
19104WAT     H259415   2.079   1.915   5.786
19105WAT      O59416   2.116   1.513   5.753
19105WAT     H159417   2.188   1.567   5.785
19105WAT     H259418   2.143   1.486   5.666
19106WAT      O59419   3.496   2.000   6.180
19106WAT     H159420   3.546   1.977   6.258
19106WAT     H259421   3.477   1.916   6.138
19107WAT      O59422   2.084   1.438   6.743
19107WAT     H159423   2.149   1.383   6.699
19107WAT     H259424   2.126   1.464   6.826
19108WAT      O59425   3.639   1.864   6.433
19108WAT     H159426   3.628   1.848   6.527
19108WAT     H259427   3.715   1.811   6.409
19109WAT      O59428   3.474   1.458   7.079
19109WAT     H159429   3.538   1.519   7.116
19109WAT     H259430   3.489   1.461   6.985
19110WAT      O59431   3.728   1.647   5.757
19110WAT     H159432   3.821   1.634   5.737
19110WAT     H259433   3.726   1.655   5.853
19111WAT      O59434   3.736   1.724   6.020
19111WAT     H159435   3.656   1.717   6.073
19111WAT     H259436   3.756   1.818   6.019
19112WAT      O59437   3.430   3.128   6.419
19112WAT     H159438   3.489   3.096   6.352
19112WAT     H259439   3.456   3.081   6.499
19113WAT      O59440   2.060   1.454   7.018
19113WAT     H159441   2.025   1.500   7.094
19113WAT     H259442   2.027   1.364   7.026
19114WAT      O59443   2.590   2.927   6.994
19114WAT     H159444   2.566   2.953   6.906
19114WAT     H259445   2.685   2.944   7.000
19115WAT      O59446   2.811   1.573   7.370
19115WAT     H159447   2.805   1.632   7.445
19115WAT     H259448   2.905   1.562   7.355
19116WAT      O59449   3.075   1.539   7.334
19116WAT     H159450   3.136   1.571   7.268
19116WAT     H259451   3.129   1.490   7.396
19117WAT      O59452   3.717   3.129   7.074
19117WAT     H159453   3.667   3.168   7.003
19117WAT     H259454   3.656   3.066   7.114
19118WAT      O59455   2.127   1.407   7.345
19118WAT     H159456   2.182   1.389   7.269
19118WAT     H259457   2.134   1.328   7.399
19119WAT      O59458   2.204   3.066   7.146
19119WAT     H159459   2.145   3.053   7.220
19119WAT     H259460   2.204   2.982   7.100
19120WAT      O59461   3.149   1.395   6.967
19120WAT     H159462   3.061   1.428   6.946
19120WAT     H259463   3.138   1.348   7.049
19121WAT      O59464   3.240   1.616   7.105
19121WAT     H159465   3.207   1.534   7.067
19121WAT     H259466   3.334   1.611   7.093
19122WAT      O59467   3.485   3.193   6.802
19122WAT     H159468   3.439   3.268   6.765
19122WAT     H259469   3.422   3.121   6.796
19123WAT      O59470   2.167   2.802   7.041
19123WAT     H159471   2.095   2.740   7.035
19123WAT     H259472   2.174   2.842   6.954
19124WAT      O59473   2.528   3.024   6.720
19124WAT     H159474   2.580   2.963   6.667
19124WAT     H259475   2.593   3.074   6.769
19125WAT      O59476   2.802   3.113   6.803
19125WAT     H159477   2.831   3.087   6.715
19125WAT     H259478   2.853   3.058   6.862
19126WAT      O59479   2.924   1.487   6.860
19126WAT     H159480   2.845   1.534   6.888
19126WAT     H259481   2.894   1.396   6.850
19127WAT      O59482   3.379   1.557   6.665
19127WAT     H159483   3.423   1.551   6.580
19127WAT     H259484   3.352   1.649   6.672
19128WAT      O59485   3.565   1.520   6.466
19128WAT     H159486   3.559   1.426   6.451
19128WAT     H259487   3.643   1.531   6.521
19129WAT      O59488   1.996   3.134   6.362
19129WAT     H159489   1.979   3.071   6.432
19129WAT     H259490   1.909   3.155   6.327
19130WAT      O59491   2.058   1.517   6.113
19130WAT     H159492   2.134   1.528   6.055
19130WAT     H259493   2.012   1.601   6.108
19131WAT      O59494   2.712   1.729   6.412
19131WAT     H159495   2.631   1.691   6.378
19131WAT     H259496   2.763   1.653   6.442
19132WAT      O59497   3.162   1.395   6.535
19132WAT     H159498   3.223   1.452   6.583
19132WAT     H259499   3.088   1.451   6.513
19133WAT      O59500   3.477   1.435   6.063
19133WAT     H159501   3.496   1.525   6.090
19133WAT     H259502   3.398   1.412   6.112
19134WAT      O59503   2.156   3.003   6.107
19134WAT     H159504   2.104   3.041   6.036
19134WAT     H259505   2.149   3.066   6.179
19135WAT      O59506   2.295   1.570   5.967
19135WAT     H159507   2.348   1.491   5.954
19135WAT     H259508   2.359   1.638   5.990
19136WAT      O59509   2.515   1.544   6.272
19136WAT     H159510   2.452   1.473   6.289
19136WAT     H259511   2.461   1.620   6.250
19137WAT      O59512   3.632   3.159   6.239
19137WAT     H159513   3.650   3.091   6.175
19137WAT     H259514   3.562   3.212   6.200
19138WAT      O59515   2.416   3.198   5.994
19138WAT     H159516   2.489   3.170   5.940
19138WAT     H259517   2.442   3.174   6.083
19139WAT      O59518   2.332   2.810   5.995
19139WAT     H159519   2.270   2.857   6.050
19139WAT     H259520   2.344   2.725   6.038
19140WAT      O59521   3.078   2.215   4.610
19140WAT     H159522   3.070   2.123   4.583
19140WAT     H259523   3.037   2.265   4.539
19141WAT      O59524   2.891   2.393   4.798
19141WAT     H159525   2.814   2.345   4.827
19141WAT     H259526   2.956   2.325   4.780
19142WAT      O59527   2.293   2.424   4.886
19142WAT     H159528   2.210   2.398   4.926
19142WAT     H259529   2.354   2.431   4.959
19143WAT      O59530   3.293   2.833   4.676
19143WAT     H159531   3.247   2.756   4.709
19143WAT     H259532   3.374   2.836   4.726
19144WAT      O59533   2.291   2.827   4.905
19144WAT     H159534   2.321   2.738   4.887
19144WAT     H259535   2.365   2.883   4.882
19145WAT      O59536   2.134   1.920   4.264
19145WAT     H159537   2.045   1.954   4.254
19145WAT     H259538   2.162   1.900   4.175
19146WAT      O59539   1.930   2.180   4.852
19146WAT     H159540   1.987   2.103   4.852
19146WAT     H259541   1.930   2.210   4.762
19147WAT      O59542   2.916   3.062   4.638
19147WAT     H159543   2.854   3.107   4.581
19147WAT     H259544   3.001   3.077   4.598
19148WAT      O59545   2.835   2.660   4.799
19148WAT     H159546   2.828   2.566   4.782
19148WAT     H259547   2.911   2.669   4.856
19149WAT      O59548   2.054   1.721   5.031
19149WAT     H159549   2.036   1.631   5.059
19149WAT     H259550   2.014   1.776   5.099
19150WAT      O59551   2.938   1.941   4.821
19150WAT     H159552   2.976   1.854   4.810
19150WAT     H259553   2.928   1.975   4.732
19151WAT      O59554   2.351   1.778   4.367
19151WAT     H159555   2.362   1.868   4.398
19151WAT     H259556   2.260   1.773   4.338
19152WAT      O59557   3.316   1.690   4.515
19152WAT     H159558   3.399   1.641   4.519
19152WAT     H259559   3.320   1.749   4.590
19153WAT      O59560   2.116   1.970   4.892
19153WAT     H159561   2.184   1.997   4.954
19153WAT     H259562   2.085   1.886   4.925
19154WAT      O59563   2.535   2.075   4.801
19154WAT     H159564   2.586   2.125   4.865
19154WAT     H259565   2.589   1.997   4.783
19155WAT      O59566   3.745   1.892   5.171
19155WAT     H159567   3.675   1.931   5.119
19155WAT     H259568   3.772   1.962   5.231
19156WAT      O59569   2.364   1.539   5.227
19156WAT     H159570   2.364   1.591   5.147
19156WAT     H259571   2.281   1.491   5.225
19157WAT      O59572   3.002   2.550   4.377
19157WAT     H159573   2.941   2.597   4.321
19157WAT     H259574   3.054   2.620   4.419
19158WAT      O59575   2.489   2.503   5.045
19158WAT     H159576   2.455   2.566   5.109
19158WAT     H259577   2.506   2.556   4.967
19159WAT      O59578   3.340   1.884   4.792
19159WAT     H159579   3.270   1.913   4.850
19159WAT     H259580   3.376   1.965   4.756
19160WAT      O59581   2.332   1.710   5.028
19160WAT     H159582   2.366   1.795   4.999
19160WAT     H259583   2.238   1.725   5.040
19161WAT      O59584   2.410   2.700   5.227
19161WAT     H159585   2.472   2.767   5.198
19161WAT     H259586   2.324   2.741   5.217
19162WAT      O59587   1.939   2.619   4.115
19162WAT     H159588   1.902   2.668   4.041
19162WAT     H259589   1.965   2.686   4.178
19163WAT      O59590   3.502   2.846   5.018
19163WAT     H159591   3.433   2.913   5.017
19163WAT     H259592   3.556   2.866   4.942
19164WAT      O59593   3.647   1.829   4.831
19164WAT     H159594   3.552   1.832   4.844
19164WAT     H259595   3.679   1.910   4.869
19165WAT      O59596   2.700   1.459   4.660
19165WAT     H159597   2.731   1.403   4.589
19165WAT     H259598   2.607   1.472   4.642
19166WAT      O59599   3.255   3.031   4.890
19166WAT     H159600   3.257   2.990   4.803
19166WAT     H259601   3.200   3.108   4.879
19167WAT      O59602   3.385   2.703   4.398
19167WAT     H159603   3.374   2.609   4.411
19167WAT     H259604   3.384   2.739   4.487
19168WAT      O59605   3.195   2.521   5.022
19168WAT     H159606   3.237   2.500   4.939
19168WAT     H259607   3.268   2.547   5.079
19169WAT      O59608   2.939   2.265   4.334
19169WAT     H159609   2.846   2.259   4.357
19169WAT     H259610   2.954   2.359   4.323
19170WAT      O59611   2.938   1.893   4.034
19170WAT     H159612   2.844   1.909   4.042
19170WAT     H259613   2.970   1.965   3.979
19171WAT      O59614   3.590   2.361   5.032
19171WAT     H159615   3.507   2.368   4.984
19171WAT     H259616   3.649   2.419   4.985
19172WAT      O59617   3.342   2.422   4.384
19172WAT     H159618   3.280   2.388   4.320
19172WAT     H259619   3.340   2.357   4.455
19173WAT      O59620   3.286   2.040   5.126
19173WAT     H159621   3.245   2.122   5.151
19173WAT     H259622   3.213   1.981   5.107
19174WAT      O59623   2.500   2.318   4.612
19174WAT     H159624   2.459   2.247   4.563
19174WAT     H259625   2.508   2.284   4.701
19175WAT      O59626   2.546   2.687   4.829
19175WAT     H159627   2.517   2.626   4.761
19175WAT     H259628   2.641   2.691   4.818
19176WAT      O59629   2.371   1.996   4.990
19176WAT     H159630   2.426   2.007   4.913
19176WAT     H259631   2.422   2.033   5.062
19177WAT      O59632   3.355   3.044   5.195
19177WAT     H159633   3.308   3.125   5.176
19177WAT     H259634   3.287   2.979   5.210
19178WAT      O59635   2.456   2.661   5.494
19178WAT     H159636   2.366   2.683   5.518
19178WAT     H259637   2.458   2.673   5.399
19179WAT      O59638   3.160   2.346   4.085
19179WAT     H159639   3.204   2.262   4.071
19179WAT     H259640   3.231   2.409   4.094
19180WAT      O59641   2.338   2.348   5.351
19180WAT     H159642   2.324   2.435   5.388
19180WAT     H259643   2.250   2.313   5.337
19181WAT      O59644   2.971   2.840   4.482
19181WAT     H159645   3.015   2.914   4.441
19181WAT     H259646   2.964   2.864   4.574
19182WAT      O59647   2.518   2.942   5.572
19182WAT     H159648   2.515   2.982   5.485
19182WAT     H259649   2.502   2.849   5.556
19183WAT      O59650   3.518   1.471   3.917
19183WAT     H159651   3.486   1.480   4.007
19183WAT     H259652   3.594   1.529   3.912
19184WAT      O59653   2.170   2.208   4.362
19184WAT     H159654   2.158   2.280   4.301
19184WAT     H259655   2.139   2.131   4.315
19185WAT      O59656   3.713   3.020   5.702
19185WAT     H159657   3.761   3.068   5.770
19185WAT     H259658   3.775   3.013   5.629
19186WAT      O59659   1.933   2.525   4.943
19186WAT     H159660   1.941   2.538   4.849
19186WAT     H259661   1.995   2.454   4.962
19187WAT      O59662   2.058   2.695   4.584
19187WAT     H159663   2.017   2.709   4.499
19187WAT     H259664   2.147   2.666   4.564
19188WAT      O59665   3.654   2.739   5.418
19188WAT     H159666   3.666   2.715   5.326
19188WAT     H259667   3.658   2.656   5.465
19189WAT      O59668   3.040   3.110   5.275
19189WAT     H159669   3.091   3.101   5.355
19189WAT     H259670   2.955   3.144   5.304
19190WAT      O59671   3.237   3.138   4.218
19190WAT     H159672   3.221   3.109   4.307
19190WAT     H259673   3.221   3.061   4.164
19191WAT      O59674   2.485   3.116   4.395
19191WAT     H159675   2.468   3.025   4.374
19191WAT     H259676   2.400   3.152   4.419
19192WAT      O59677   3.208   2.889   4.074
19192WAT     H159678   3.138   2.889   4.008
19192WAT     H259679   3.282   2.847   4.031
19193WAT      O59680   3.164   3.052   4.481
19193WAT     H159681   3.210   2.974   4.512
19193WAT     H259682   3.198   3.123   4.535
19194WAT      O59683   3.639   1.945   5.514
19194WAT     H159684   3.577   1.995   5.461
19194WAT     H259685   3.607   1.855   5.509
19195WAT      O59686   1.939   2.629   5.197
19195WAT     H159687   1.955   2.582   5.115
19195WAT     H259688   1.986   2.578   5.263
19196WAT      O59689   2.416   1.542   4.701
19196WAT     H159690   2.372   1.620   4.667
19196WAT     H259691   2.472   1.574   4.771
19197WAT      O59692   2.845   1.829   5.261
19197WAT     H159693   2.799   1.849   5.342
19197WAT     H259694   2.805   1.747   5.231
19198WAT      O59695   3.345   1.951   5.374
19198WAT     H159696   3.260   1.921   5.406
19198WAT     H259697   3.329   1.975   5.283
19199WAT      O59698   3.054   2.101   5.584
19199WAT     H159699   3.087   2.017   5.550
19199WAT     H259700   3.133   2.153   5.599
19200WAT      O59701   2.728   1.504   4.189
19200WAT     H159702   2.665   1.504   4.261
19200WAT     H259703   2.719   1.417   4.149
19201WAT      O59704   2.620   1.596   4.886
19201WAT     H159705   2.650   1.687   4.878
19201WAT     H259706   2.675   1.548   4.825
19202WAT      O59707   2.395   2.054   4.473
19202WAT     H159708   2.373   2.033   4.564
19202WAT     H259709   2.317   2.098   4.439
19203WAT      O59710   3.118   2.055   4.333
19203WAT     H159711   3.058   2.127   4.315
19203WAT     H259712   3.173   2.049   4.255
19204WAT      O59713   2.639   2.144   5.540
19204WAT     H159714   2.630   2.050   5.525
19204WAT     H259715   2.724   2.166   5.500
19205WAT      O59716   2.979   1.919   4.536
19205WAT     H159717   3.018   1.950   4.455
19205WAT     H259718   3.015   1.831   4.548
19206WAT      O59719   2.152   1.785   5.355
19206WAT     H159720   2.113   1.870   5.376
19206WAT     H259721   2.084   1.722   5.374
19207WAT      O59722   2.810   1.794   5.662
19207WAT     H159723   2.741   1.774   5.726
19207WAT     H259724   2.884   1.822   5.716
19208WAT      O59725   1.883   1.578   4.759
19208WAT     H159726   1.854   1.635   4.830
19208WAT     H259727   1.957   1.530   4.795
19209WAT      O59728   1.901   1.972   3.880
19209WAT     H159729   1.893   2.066   3.894
19209WAT     H259730   1.866   1.957   3.792
19210WAT      O59731   3.038   2.178   4.946
19210WAT     H159732   2.964   2.228   4.981
19210WAT     H259733   2.998   2.096   4.916
19211WAT      O59734   2.681   1.845   4.786
19211WAT     H159735   2.682   1.801   4.701
19211WAT     H259736   2.771   1.877   4.797
19212WAT      O59737   2.266   1.833   4.682
19212WAT     H159738   2.232   1.881   4.758
19212WAT     H259739   2.190   1.788   4.646
19213WAT      O59740   2.688   1.945   4.085
19213WAT     H159741   2.700   1.941   4.180
19213WAT     H259742   2.649   2.031   4.070
19214WAT      O59743   3.084   1.723   4.887
19214WAT     H159744   3.086   1.768   4.971
19214WAT     H259745   3.059   1.633   4.908
19215WAT      O59746   2.589   2.176   4.025
19215WAT     H159747   2.532   2.131   3.963
19215WAT     H259748   2.660   2.212   3.972
19216WAT      O59749   3.427   1.464   5.471
19216WAT     H159750   3.459   1.391   5.524
19216WAT     H259751   3.430   1.432   5.381
19217WAT      O59752   2.096   2.566   5.413
19217WAT     H159753   2.058   2.502   5.473
19217WAT     H259754   2.128   2.637   5.470
19218WAT      O59755   2.711   2.251   4.961
19218WAT     H159756   2.748   2.204   5.036
19218WAT     H259757   2.692   2.339   4.995
19219WAT      O59758   1.998   1.726   4.574
19219WAT     H159759   1.969   1.689   4.658
19219WAT     H259760   1.992   1.652   4.513
19220WAT      O59761   2.490   2.155   5.193
19220WAT     H159762   2.460   2.243   5.215
19220WAT     H259763   2.586   2.161   5.196
19221WAT      O59764   2.343   2.576   4.253
19221WAT     H159765   2.266   2.522   4.237
19221WAT     H259766   2.416   2.524   4.219
19222WAT      O59767   3.419   2.476   4.832
19222WAT     H159768   3.491   2.525   4.793
19222WAT     H259769   3.399   2.408   4.767
19223WAT      O59770   2.965   1.615   4.246
19223WAT     H159771   2.884   1.565   4.239
19223WAT     H259772   2.946   1.699   4.204
19224WAT      O59773   2.957   2.483   5.420
19224WAT     H159774   2.951   2.391   5.395
19224WAT     H259775   2.894   2.492   5.492
19225WAT      O59776   3.237   2.052   4.076
19225WAT     H159777   3.325   2.083   4.058
19225WAT     H259778   3.234   1.965   4.037
19226WAT      O59779   2.348   2.543   4.616
19226WAT     H159780   2.399   2.462   4.611
19226WAT     H259781   2.302   2.536   4.700
19227WAT      O59782   2.836   2.669   4.144
19227WAT     H159783   2.870   2.744   4.094
19227WAT     H259784   2.753   2.701   4.180
19228WAT      O59785   2.096   2.239   5.308
19228WAT     H159786   2.060   2.306   5.366
19228WAT     H259787   2.067   2.156   5.345
19229WAT      O59788   2.416   2.285   5.596
19229WAT     H159789   2.386   2.300   5.506
19229WAT     H259790   2.493   2.229   5.587
19230WAT      O59791   2.950   2.765   5.396
19230WAT     H159792   2.952   2.672   5.374
19230WAT     H259793   2.880   2.773   5.459
19231WAT      O59794   3.464   2.183   4.022
19231WAT     H159795   3.455   2.226   3.937
19231WAT     H259796   3.536   2.229   4.066
19232WAT      O59797   3.572   2.429   5.330
19232WAT     H159798   3.499   2.488   5.310
19232WAT     H259799   3.624   2.428   5.250
19233WAT      O59800   3.567   2.869   4.295
19233WAT     H159801   3.502   2.803   4.323
19233WAT     H259802   3.528   2.909   4.218
19234WAT      O59803   3.125   2.601   4.680
19234WAT     H159804   3.160   2.542   4.614
19234WAT     H259805   3.036   2.569   4.697
19235WAT      O59806   2.733   2.677   4.421
19235WAT     H159807   2.802   2.732   4.459
19235WAT     H259808   2.655   2.732   4.424
19236WAT      O59809   1.947   2.239   3.970
19236WAT     H159810   2.034   2.267   3.998
19236WAT     H259811   1.898   2.321   3.958
19237WAT      O59812   2.663   2.378   4.382
19237WAT     H159813   2.709   2.459   4.405
19237WAT     H259814   2.628   2.346   4.465
19238WAT      O59815   2.894   2.929   5.105
19238WAT     H159816   2.958   2.950   5.173
19238WAT     H259817   2.930   2.853   5.060
19239WAT      O59818   2.254   1.412   4.429
19239WAT     H159819   2.241   1.411   4.524
19239WAT     H259820   2.171   1.446   4.394
19240WAT      O59821   3.021   2.729   4.977
19240WAT     H159822   3.085   2.659   4.988
19240WAT     H259823   3.074   2.807   4.959
19241WAT      O59824   3.406   2.758   3.949
19241WAT     H159825   3.383   2.686   4.008
19241WAT     H259826   3.367   2.733   3.865
19242WAT      O59827   3.198   2.809   5.297
19242WAT     H159828   3.232   2.868   5.365
19242WAT     H259829   3.106   2.796   5.320
19243WAT      O59830   1.984   3.160   4.027
19243WAT     H159831   2.020   3.220   3.961
19243WAT     H259832   1.970   3.215   4.104
19244WAT      O59833   1.954   1.588   5.375
19244WAT     H159834   1.882   1.608   5.436
19244WAT     H259835   1.995   1.511   5.412
19245WAT      O59836   3.364   2.550   4.115
19245WAT     H159837   3.335   2.596   4.194
19245WAT     H259838   3.443   2.503   4.142
19246WAT      O59839   1.982   2.987   5.474
19246WAT     H159840   1.993   2.893   5.460
19246WAT     H259841   1.917   3.014   5.409
19247WAT      O59842   2.781   2.814   5.614
19247WAT     H159843   2.749   2.742   5.668
19247WAT     H259844   2.714   2.882   5.621
19248WAT      O59845   2.586   2.899   4.108
19248WAT     H159846   2.585   2.972   4.047
19248WAT     H259847   2.493   2.874   4.118
19249WAT      O59848   2.146   2.421   4.183
19249WAT     H159849   2.085   2.495   4.184
19249WAT     H259850   2.193   2.430   4.100
19250WAT      O59851   3.103   1.837   5.150
19250WAT     H159852   3.140   1.755   5.183
19250WAT     H259853   3.017   1.843   5.192
19251WAT      O59854   3.440   1.733   4.231
19251WAT     H159855   3.377   1.743   4.160
19251WAT     H259856   3.390   1.755   4.310
19252WAT      O59857   2.884   2.905   3.975
19252WAT     H159858   2.894   2.885   3.882
19252WAT     H259859   2.794   2.880   3.995
19253WAT      O59860   2.636   1.961   4.373
19253WAT     H159861   2.566   2.008   4.417
19253WAT     H259862   2.665   1.895   4.436
19254WAT      O59863   2.799   2.103   5.173
19254WAT     H159864   2.849   2.150   5.239
19254WAT     H259865   2.813   2.010   5.193
19255WAT      O59866   3.040   1.633   4.517
19255WAT     H159867   3.027   1.635   4.422
19255WAT     H259868   3.134   1.638   4.529
19256WAT      O59869   2.748   3.157   4.444
19256WAT     H159870   2.774   3.153   4.352
19256WAT     H259871   2.653   3.144   4.443
19257WAT      O59872   2.457   1.792   4.110
19257WAT     H159873   2.542   1.835   4.104
19257WAT     H259874   2.420   1.823   4.193
19258WAT      O59875   3.520   1.724   5.257
19258WAT     H159876   3.469   1.799   5.291
19258WAT     H259877   3.601   1.763   5.225
19259WAT      O59878   3.349   2.249   4.602
19259WAT     H159879   3.255   2.250   4.619
19259WAT     H259880   3.380   2.170   4.646
19260WAT      O59881   2.347   2.417   3.958
19260WAT     H159882   2.423   2.406   4.014
19260WAT     H259883   2.354   2.347   3.892
19261WAT      O59884   2.216   2.160   4.026
19261WAT     H159885   2.224   2.066   4.037
19261WAT     H259886   2.305   2.193   4.037
19262WAT      O59887   3.549   2.966   4.769
19262WAT     H159888   3.562   3.048   4.816
19262WAT     H259889   3.636   2.945   4.734
19263WAT      O59890   2.296   3.175   4.736
19263WAT     H159891   2.370   3.120   4.763
19263WAT     H259892   2.335   3.262   4.722
19264WAT      O59893   1.985   2.782   4.324
19264WAT     H159894   1.892   2.806   4.323
19264WAT     H259895   2.031   2.865   4.312
19265WAT      O59896   2.197   3.094   5.655
19265WAT     H159897   2.277   3.126   5.696
19265WAT     H259898   2.145   3.058   5.727
19266WAT      O59899   2.607   3.093   3.919
19266WAT     H159900   2.687   3.121   3.873
19266WAT     H259901   2.555   3.049   3.851
19267WAT      O59902   3.080   2.704   5.650
19267WAT     H159903   3.020   2.707   5.576
19267WAT     H259904   3.050   2.631   5.704
19268WAT      O59905   3.223   3.077   5.511
19268WAT     H159906   3.319   3.069   5.506
19268WAT     H259907   3.209   3.144   5.578
19269WAT      O59908   3.513   3.015   4.061
19269WAT     H159909   3.484   2.974   3.979
19269WAT     H259910   3.493   3.108   4.049
19270WAT      O59911   1.969   2.342   5.550
19270WAT     H159912   2.019   2.284   5.607
19270WAT     H259913   1.895   2.371   5.603
19271WAT      O59914   2.659   2.615   3.905
19271WAT     H159915   2.649   2.553   3.978
19271WAT     H259916   2.642   2.562   3.827
19272WAT      O59917   2.674   2.483   5.503
19272WAT     H159918   2.598   2.540   5.494
19272WAT     H259919   2.692   2.454   5.414
19273WAT      O59920   2.983   2.521   3.965
19273WAT     H159921   2.928   2.565   4.030
19273WAT     H259922   3.045   2.470   4.018
19274WAT      O59923   3.388   2.656   5.559
19274WAT     H159924   3.463   2.690   5.508
19274WAT     H259925   3.312   2.673   5.503
19275WAT      O59926   2.172   2.157   5.639
19275WAT     H159927   2.176   2.127   5.730
19275WAT     H259928   2.257   2.197   5.623
19276WAT      O59929   2.550   2.417   4.155
19276WAT     H159930   2.592   2.400   4.239
19276WAT     H259931   2.562   2.336   4.106
19277WAT      O59932   2.366   2.015   5.436
19277WAT     H159933   2.313   1.966   5.373
19277WAT     H259934   2.433   2.057   5.382
19278WAT      O59935   2.801   2.319   3.880
19278WAT     H159936   2.853   2.248   3.843
19278WAT     H259937   2.866   2.383   3.910
19279WAT      O59938   3.256   2.461   5.412
19279WAT     H159939   3.297   2.477   5.497
19279WAT     H259940   3.162   2.474   5.428
19280WAT      O59941   3.303   2.195   5.613
19280WAT     H159942   3.361   2.120   5.604
19280WAT     H259943   3.321   2.248   5.535
19281WAT      O59944   2.415   1.711   5.444
19281WAT     H159945   2.405   1.649   5.371
19281WAT     H259946   2.357   1.784   5.421
19282WAT      O59947   2.691   1.567   5.147
19282WAT     H159948   2.647   1.569   5.062
19282WAT     H259949   2.628   1.527   5.207
19283WAT      O59950   2.732   2.457   5.209
19283WAT     H159951   2.774   2.541   5.192
19283WAT     H259952   2.640   2.470   5.186
19284WAT      O59953   2.966   2.230   5.348
19284WAT     H159954   2.978   2.170   5.421
19284WAT     H259955   3.052   2.233   5.306
19285WAT      O59956   3.200   2.285   5.205
19285WAT     H159957   3.147   2.337   5.145
19285WAT     H259958   3.234   2.348   5.268
19286WAT      O59959   2.439   2.024   3.850
19286WAT     H159960   2.419   1.938   3.886
19286WAT     H259961   2.422   2.015   3.756
19287WAT      O59962   2.517   3.087   5.321
19287WAT     H159963   2.463   3.160   5.289
19287WAT     H259964   2.542   3.039   5.242
19288WAT      O59965   2.642   1.884   5.473
19288WAT     H159966   2.701   1.853   5.542
19288WAT     H259967   2.561   1.837   5.489
19289WAT      O59968   3.124   1.846   5.497
19289WAT     H159969   3.055   1.779   5.490
19289WAT     H259970   3.196   1.801   5.541
19290WAT      O59971   3.187   1.505   4.102
19290WAT     H159972   3.215   1.421   4.138
19290WAT     H259973   3.110   1.528   4.154
19291WAT      O59974   2.319   1.734   3.848
19291WAT     H159975   2.349   1.735   3.758
19291WAT     H259976   2.393   1.699   3.898
19292WAT      O59977   2.803   3.211   5.347
19292WAT     H159978   2.795   3.301   5.377
19292WAT     H259979   2.713   3.179   5.344
19293WAT      O59980   2.641   1.628   3.947
19293WAT     H159981   2.606   1.561   3.889
19293WAT     H259982   2.661   1.582   4.028
19294WAT      O59983   2.858   3.127   4.109
19294WAT     H159984   2.947   3.161   4.111
19294WAT     H259985   2.861   3.055   4.046
19295WAT      O59986   2.222   2.664   3.932
19295WAT     H159987   2.265   2.719   3.997
19295WAT     H259988   2.270   2.582   3.933
19296WAT      O59989   1.943   2.943   4.677
19296WAT     H159990   1.976   2.857   4.654
19296WAT     H259991   1.986   2.964   4.760
19297WAT      O59992   2.403   2.776   4.443
19297WAT     H159993   2.373   2.764   4.533
19297WAT     H259994   2.392   2.691   4.402
19298WAT      O59995   1.992   3.030   4.951
19298WAT     H159996   1.948   3.048   5.034
19298WAT     H259997   2.049   3.106   4.937
19299WAT      O59998   3.556   2.980   5.379
19299WAT     H159999   3.496   2.986   5.305
19299WAT     H260000   3.568   2.886   5.392
19300WAT      O60001   3.680   2.754   3.913
19300WAT     H160002   3.596   2.761   3.960
19300WAT     H260003   3.697   2.843   3.883
19301WAT      O60004   3.625   2.429   4.164
19301WAT     H160005   3.701   2.486   4.174
19301WAT     H260006   3.627   2.372   4.241
19302WAT      O60007   1.975   2.281   4.587
19302WAT     H160008   1.910   2.254   4.522
19302WAT     H260009   2.059   2.270   4.542
19303WAT      O60010   3.726   2.514   4.648
19303WAT     H160011   3.763   2.436   4.607
19303WAT     H260012   3.790   2.583   4.630
19304WAT      O60013   3.424   2.653   5.189
19304WAT     H160014   3.343   2.696   5.216
19304WAT     H260015   3.465   2.714   5.128
19305WAT      O60016   3.630   2.458   3.879
19305WAT     H160017   3.658   2.549   3.866
19305WAT     H260018   3.611   2.452   3.973
19306WAT      O60019   3.270   1.761   4.009
19306WAT     H160020   3.312   1.742   3.925
19306WAT     H260021   3.239   1.675   4.040
19307WAT      O60022   3.620   2.252   4.379
19307WAT     H160023   3.582   2.175   4.335
19307WAT     H260024   3.547   2.290   4.427
19308WAT      O60025   2.079   2.320   5.041
19308WAT     H160026   2.116   2.311   5.129
19308WAT     H260027   2.022   2.243   5.031
19309WAT      O60028   3.559   2.167   5.342
19309WAT     H160029   3.536   2.144   5.252
19309WAT     H260030   3.585   2.259   5.337
19310WAT      O60031   2.034   2.011   5.431
19310WAT     H160032   1.945   2.008   5.465
19310WAT     H260033   2.088   2.031   5.508
19311WAT      O60034   3.403   1.689   5.620
19311WAT     H160035   3.491   1.690   5.658
19311WAT     H260036   3.404   1.615   5.559
19312WAT      O60037   1.897   2.002   4.181
19312WAT     H160038   1.806   2.029   4.163
19312WAT     H260039   1.945   2.029   4.103
19313WAT      O60040   3.547   2.074   4.709
19313WAT     H160041   3.600   2.025   4.646
19313WAT     H260042   3.606   2.088   4.783
19314WAT      O60043   3.565   2.083   5.061
19314WAT     H160044   3.470   2.079   5.072
19314WAT     H260045   3.583   2.174   5.037
19315WAT      O60046   2.151   1.908   3.972
19315WAT     H160047   2.222   1.866   3.923
19315WAT     H260048   2.079   1.915   3.909
19316WAT      O60049   2.116   1.513   3.876
19316WAT     H160050   2.188   1.567   3.908
19316WAT     H260051   2.143   1.486   3.788
19317WAT      O60052   3.496   2.000   4.303
19317WAT     H160053   3.546   1.977   4.381
19317WAT     H260054   3.477   1.916   4.261
19318WAT      O60055   2.084   1.438   4.866
19318WAT     H160056   2.149   1.383   4.822
19318WAT     H260057   2.126   1.464   4.948
19319WAT      O60058   3.639   1.864   4.556
19319WAT     H160059   3.628   1.848   4.650
19319WAT     H260060   3.715   1.811   4.532
19320WAT      O60061   3.474   1.458   5.202
19320WAT     H160062   3.538   1.519   5.238
19320WAT     H260063   3.489   1.461   5.107
19321WAT      O60064   3.728   1.647   3.880
19321WAT     H160065   3.821   1.634   3.859
19321WAT     H260066   3.726   1.655   3.975
19322WAT      O60067   3.736   1.724   4.143
19322WAT     H160068   3.656   1.717   4.195
19322WAT     H260069   3.756   1.818   4.141
19323WAT      O60070   3.430   3.128   4.542
19323WAT     H160071   3.489   3.096   4.474
19323WAT     H260072   3.456   3.081   4.621
19324WAT      O60073   2.060   1.454   5.140
19324WAT     H160074   2.025   1.500   5.217
19324WAT     H260075   2.027   1.364   5.149
19325WAT      O60076   2.220   2.771   5.557
19325WAT     H160077   2.216   2.734   5.645
19325WAT     H260078   2.234   2.865   5.571
19326WAT      O60079   2.590   2.927   5.117
19326WAT     H160080   2.566   2.953   5.028
19326WAT     H260081   2.685   2.944   5.122
19327WAT      O60082   2.811   1.573   5.493
19327WAT     H160083   2.805   1.632   5.567
19327WAT     H260084   2.905   1.562   5.478
19328WAT      O60085   3.075   1.539   5.456
19328WAT     H160086   3.136   1.571   5.390
19328WAT     H260087   3.129   1.490   5.518
19329WAT      O60088   3.717   3.129   5.197
19329WAT     H160089   3.667   3.168   5.125
19329WAT     H260090   3.656   3.066   5.236
19330WAT      O60091   2.127   1.407   5.468
19330WAT     H160092   2.182   1.389   5.391
19330WAT     H260093   2.134   1.328   5.521
19331WAT      O60094   2.204   3.066   5.269
19331WAT     H160095   2.145   3.053   5.343
19331WAT     H260096   2.204   2.982   5.222
19332WAT      O60097   3.149   1.395   5.089
19332WAT     H160098   3.061   1.428   5.069
19332WAT     H260099   3.138   1.348   5.172
19333WAT      O60100   3.240   1.616   5.228
19333WAT     H160101   3.207   1.534   5.190
19333WAT     H260102   3.334   1.611   5.215
19334WAT      O60103   3.485   3.193   4.925
19334WAT     H160104   3.439   3.268   4.887
19334WAT     H260105   3.422   3.121   4.919
19335WAT      O60106   2.167   2.802   5.164
19335WAT     H160107   2.095   2.740   5.157
19335WAT     H260108   2.174   2.842   5.077
19336WAT      O60109   2.528   3.024   4.842
19336WAT     H160110   2.580   2.963   4.790
19336WAT     H260111   2.593   3.074   4.892
19337WAT      O60112   2.802   3.113   4.925
19337WAT     H160113   2.831   3.087   4.837
19337WAT     H260114   2.853   3.058   4.984
19338WAT      O60115   2.924   1.487   4.983
19338WAT     H160116   2.845   1.534   5.011
19338WAT     H260117   2.894   1.396   4.972
19339WAT      O60118   3.379   1.557   4.788
19339WAT     H160119   3.423   1.551   4.703
19339WAT     H260120   3.352   1.649   4.795
19340WAT      O60121   3.565   1.520   4.589
19340WAT     H160122   3.559   1.426   4.574
19340WAT     H260123   3.643   1.531   4.643
19341WAT      O60124   1.996   3.134   4.485
19341WAT     H160125   1.979   3.071   4.555
19341WAT     H260126   1.909   3.155   4.450
19342WAT      O60127   2.058   1.517   4.235
19342WAT     H160128   2.134   1.528   4.178
19342WAT     H260129   2.012   1.601   4.231
19343WAT      O60130   2.712   1.729   4.534
19343WAT     H160131   2.631   1.691   4.500
19343WAT     H260132   2.763   1.653   4.564
19344WAT      O60133   3.162   1.395   4.658
19344WAT     H160134   3.223   1.452   4.706
19344WAT     H260135   3.088   1.451   4.636
19345WAT      O60136   3.477   1.435   4.185
19345WAT     H160137   3.496   1.525   4.212
19345WAT     H260138   3.398   1.412   4.235
19346WAT      O60139   2.156   3.003   4.229
19346WAT     H160140   2.104   3.041   4.159
19346WAT     H260141   2.149   3.066   4.301
19347WAT      O60142   2.295   1.570   4.089
19347WAT     H160143   2.348   1.491   4.076
19347WAT     H260144   2.359   1.638   4.113
19348WAT      O60145   2.515   1.544   4.395
19348WAT     H160146   2.452   1.473   4.411
19348WAT     H260147   2.461   1.620   4.373
19349WAT      O60148   2.809   3.205   5.662
19349WAT     H160149   2.901   3.181   5.666
19349WAT     H260150   2.807   3.288   5.614
19350WAT      O60151   3.632   3.159   4.362
19350WAT     H160152   3.650   3.091   4.297
19350WAT     H260153   3.562   3.212   4.322
19351WAT      O60154   2.527   1.471   5.638
19351WAT     H160155   2.499   1.522   5.562
19351WAT     H260156   2.565   1.392   5.602
19352WAT      O60157   2.416   3.198   4.117
19352WAT     H160158   2.489   3.170   4.062
19352WAT     H260159   2.442   3.174   4.206
19353WAT      O60160   2.332   2.810   4.117
19353WAT     H160161   2.270   2.857   4.172
19353WAT     H260162   2.344   2.725   4.161
19354WAT      O60163   3.187   1.413   5.696
19354WAT     H160164   3.176   1.445   5.786
19354WAT     H260165   3.269   1.453   5.666
19355WAT      O60166   3.465   3.128   5.644
19355WAT     H160167   3.545   3.078   5.623
19355WAT     H260168   3.495   3.196   5.705
19356WAT      O60169   3.078   2.215   2.732
19356WAT     H160170   3.070   2.123   2.705
19356WAT     H260171   3.037   2.265   2.662
19357WAT      O60172   2.891   2.393   2.920
19357WAT     H160173   2.814   2.345   2.949
19357WAT     H260174   2.956   2.325   2.903
19358WAT      O60175   2.293   2.424   3.008
19358WAT     H160176   2.210   2.398   3.048
19358WAT     H260177   2.354   2.431   3.082
19359WAT      O60178   3.293   2.833   2.798
19359WAT     H160179   3.247   2.756   2.831
19359WAT     H260180   3.374   2.836   2.849
19360WAT      O60181   2.291   2.827   3.028
19360WAT     H160182   2.321   2.738   3.010
19360WAT     H260183   2.365   2.883   3.005
19361WAT      O60184   2.134   1.920   2.387
19361WAT     H160185   2.045   1.954   2.376
19361WAT     H260186   2.162   1.900   2.297
19362WAT      O60187   1.930   2.180   2.975
19362WAT     H160188   1.987   2.103   2.975
19362WAT     H260189   1.930   2.210   2.884
19363WAT      O60190   2.916   3.062   2.760
19363WAT     H160191   2.854   3.107   2.703
19363WAT     H260192   3.001   3.077   2.720
19364WAT      O60193   2.835   2.660   2.921
19364WAT     H160194   2.828   2.566   2.905
19364WAT     H260195   2.911   2.669   2.978
19365WAT      O60196   2.054   1.721   3.154
19365WAT     H160197   2.036   1.631   3.182
19365WAT     H260198   2.014   1.776   3.221
19366WAT      O60199   2.938   1.941   2.944
19366WAT     H160200   2.976   1.854   2.933
19366WAT     H260201   2.928   1.975   2.855
19367WAT      O60202   2.351   1.778   2.490
19367WAT     H160203   2.362   1.868   2.521
19367WAT     H260204   2.260   1.773   2.461
19368WAT      O60205   3.316   1.690   2.637
19368WAT     H160206   3.399   1.641   2.641
19368WAT     H260207   3.320   1.749   2.712
19369WAT      O60208   2.116   1.970   3.015
19369WAT     H160209   2.184   1.997   3.076
19369WAT     H260210   2.085   1.886   3.048
19370WAT      O60211   2.535   2.075   2.923
19370WAT     H160212   2.586   2.125   2.987
19370WAT     H260213   2.589   1.997   2.906
19371WAT      O60214   3.745   1.892   3.294
19371WAT     H160215   3.675   1.931   3.242
19371WAT     H260216   3.772   1.962   3.354
19372WAT      O60217   2.364   1.539   3.350
19372WAT     H160218   2.364   1.591   3.269
19372WAT     H260219   2.281   1.491   3.348
19373WAT      O60220   3.002   2.550   2.500
19373WAT     H160221   2.941   2.597   2.443
19373WAT     H260222   3.054   2.620   2.541
19374WAT      O60223   2.489   2.503   3.168
19374WAT     H160224   2.455   2.566   3.232
19374WAT     H260225   2.506   2.556   3.090
19375WAT      O60226   3.340   1.884   2.914
19375WAT     H160227   3.270   1.913   2.972
19375WAT     H260228   3.376   1.965   2.878
19376WAT      O60229   2.332   1.710   3.151
19376WAT     H160230   2.366   1.795   3.121
19376WAT     H260231   2.238   1.725   3.162
19377WAT      O60232   2.410   2.700   3.349
19377WAT     H160233   2.472   2.767   3.321
19377WAT     H260234   2.324   2.741   3.340
19378WAT      O60235   1.939   2.619   2.237
19378WAT     H160236   1.902   2.668   2.164
19378WAT     H260237   1.965   2.686   2.300
19379WAT      O60238   3.502   2.846   3.141
19379WAT     H160239   3.433   2.913   3.140
19379WAT     H260240   3.556   2.866   3.064
19380WAT      O60241   3.647   1.829   2.953
19380WAT     H160242   3.552   1.832   2.967
19380WAT     H260243   3.679   1.910   2.992
19381WAT      O60244   2.700   1.459   2.783
19381WAT     H160245   2.731   1.403   2.711
19381WAT     H260246   2.607   1.472   2.765
19382WAT      O60247   3.255   3.031   3.012
19382WAT     H160248   3.257   2.990   2.925
19382WAT     H260249   3.200   3.108   3.002
19383WAT      O60250   3.385   2.703   2.521
19383WAT     H160251   3.374   2.609   2.534
19383WAT     H260252   3.384   2.739   2.610
19384WAT      O60253   3.195   2.521   3.145
19384WAT     H160254   3.237   2.500   3.061
19384WAT     H260255   3.268   2.547   3.202
19385WAT      O60256   2.939   2.265   2.457
19385WAT     H160257   2.846   2.259   2.480
19385WAT     H260258   2.954   2.359   2.445
19386WAT      O60259   2.938   1.893   2.156
19386WAT     H160260   2.844   1.909   2.165
19386WAT     H260261   2.970   1.965   2.102
19387WAT      O60262   3.590   2.361   3.154
19387WAT     H160263   3.507   2.368   3.107
19387WAT     H260264   3.649   2.419   3.107
19388WAT      O60265   3.342   2.422   2.507
19388WAT     H160266   3.280   2.388   2.442
19388WAT     H260267   3.340   2.357   2.578
19389WAT      O60268   3.286   2.040   3.249
19389WAT     H160269   3.245   2.122   3.274
19389WAT     H260270   3.213   1.981   3.229
19390WAT      O60271   2.500   2.318   2.735
19390WAT     H160272   2.459   2.247   2.685
19390WAT     H260273   2.508   2.284   2.824
19391WAT      O60274   2.546   2.687   2.951
19391WAT     H160275   2.517   2.626   2.883
19391WAT     H260276   2.641   2.691   2.940
19392WAT      O60277   2.371   1.996   3.113
19392WAT     H160278   2.426   2.007   3.035
19392WAT     H260279   2.422   2.033   3.184
19393WAT      O60280   3.355   3.044   3.317
19393WAT     H160281   3.308   3.125   3.298
19393WAT     H260282   3.287   2.979   3.333
19394WAT      O60283   2.456   2.661   3.616
19394WAT     H160284   2.366   2.683   3.641
19394WAT     H260285   2.458   2.673   3.521
19395WAT      O60286   3.160   2.346   2.208
19395WAT     H160287   3.204   2.262   2.193
19395WAT     H260288   3.231   2.409   2.216
19396WAT      O60289   2.338   2.348   3.474
19396WAT     H160290   2.324   2.435   3.511
19396WAT     H260291   2.250   2.313   3.459
19397WAT      O60292   2.971   2.840   2.605
19397WAT     H160293   3.015   2.914   2.563
19397WAT     H260294   2.964   2.864   2.697
19398WAT      O60295   2.518   2.942   3.695
19398WAT     H160296   2.515   2.982   3.608
19398WAT     H260297   2.502   2.849   3.678
19399WAT      O60298   3.518   1.471   2.039
19399WAT     H160299   3.486   1.480   2.129
19399WAT     H260300   3.594   1.529   2.034
19400WAT      O60301   2.170   2.208   2.485
19400WAT     H160302   2.158   2.280   2.424
19400WAT     H260303   2.139   2.131   2.437
19401WAT      O60304   3.713   3.020   3.824
19401WAT     H160305   3.761   3.068   3.892
19401WAT     H260306   3.775   3.013   3.752
19402WAT      O60307   1.933   2.525   3.066
19402WAT     H160308   1.941   2.538   2.971
19402WAT     H260309   1.995   2.454   3.085
19403WAT      O60310   2.058   2.695   2.707
19403WAT     H160311   2.017   2.709   2.621
19403WAT     H260312   2.147   2.666   2.686
19404WAT      O60313   3.654   2.739   3.540
19404WAT     H160314   3.666   2.715   3.449
19404WAT     H260315   3.658   2.656   3.588
19405WAT      O60316   3.040   3.110   3.397
19405WAT     H160317   3.091   3.101   3.478
19405WAT     H260318   2.955   3.144   3.427
19406WAT      O60319   3.237   3.138   2.340
19406WAT     H160320   3.221   3.109   2.430
19406WAT     H260321   3.221   3.061   2.287
19407WAT      O60322   2.485   3.116   2.518
19407WAT     H160323   2.468   3.025   2.497
19407WAT     H260324   2.400   3.152   2.542
19408WAT      O60325   3.208   2.889   2.196
19408WAT     H160326   3.138   2.889   2.130
19408WAT     H260327   3.282   2.847   2.153
19409WAT      O60328   3.164   3.052   2.604
19409WAT     H160329   3.210   2.974   2.635
19409WAT     H260330   3.198   3.123   2.658
19410WAT      O60331   3.639   1.945   3.637
19410WAT     H160332   3.577   1.995   3.584
19410WAT     H260333   3.607   1.855   3.631
19411WAT      O60334   1.939   2.629   3.320
19411WAT     H160335   1.955   2.582   3.238
19411WAT     H260336   1.986   2.578   3.386
19412WAT      O60337   2.416   1.542   2.823
19412WAT     H160338   2.372   1.620   2.790
19412WAT     H260339   2.472   1.574   2.894
19413WAT      O60340   2.845   1.829   3.383
19413WAT     H160341   2.799   1.849   3.465
19413WAT     H260342   2.805   1.747   3.353
19414WAT      O60343   3.345   1.951   3.496
19414WAT     H160344   3.260   1.921   3.529
19414WAT     H260345   3.329   1.975   3.405
19415WAT      O60346   3.054   2.101   3.706
19415WAT     H160347   3.087   2.017   3.672
19415WAT     H260348   3.133   2.153   3.721
19416WAT      O60349   2.728   1.504   2.311
19416WAT     H160350   2.665   1.504   2.384
19416WAT     H260351   2.719   1.417   2.272
19417WAT      O60352   2.620   1.596   3.009
19417WAT     H160353   2.650   1.687   3.001
19417WAT     H260354   2.675   1.548   2.948
19418WAT      O60355   2.395   2.054   2.596
19418WAT     H160356   2.373   2.033   2.686
19418WAT     H260357   2.317   2.098   2.561
19419WAT      O60358   3.118   2.055   2.456
19419WAT     H160359   3.058   2.127   2.437
19419WAT     H260360   3.173   2.049   2.378
19420WAT      O60361   2.639   2.144   3.663
19420WAT     H160362   2.630   2.050   3.648
19420WAT     H260363   2.724   2.166   3.623
19421WAT      O60364   2.979   1.919   2.659
19421WAT     H160365   3.018   1.950   2.578
19421WAT     H260366   3.015   1.831   2.670
19422WAT      O60367   2.152   1.785   3.478
19422WAT     H160368   2.113   1.870   3.499
19422WAT     H260369   2.084   1.722   3.497
19423WAT      O60370   2.810   1.794   3.785
19423WAT     H160371   2.741   1.774   3.848
19423WAT     H260372   2.884   1.822   3.838
19424WAT      O60373   1.883   1.578   2.881
19424WAT     H160374   1.854   1.635   2.952
19424WAT     H260375   1.957   1.530   2.917
19425WAT      O60376   1.901   1.972   2.002
19425WAT     H160377   1.893   2.066   2.016
19425WAT     H260378   1.866   1.957   1.914
19426WAT      O60379   3.038   2.178   3.068
19426WAT     H160380   2.964   2.228   3.103
19426WAT     H260381   2.998   2.096   3.038
19427WAT      O60382   2.681   1.845   2.909
19427WAT     H160383   2.682   1.801   2.824
19427WAT     H260384   2.771   1.877   2.920
19428WAT      O60385   2.266   1.833   2.805
19428WAT     H160386   2.232   1.881   2.881
19428WAT     H260387   2.190   1.788   2.769
19429WAT      O60388   2.688   1.945   2.208
19429WAT     H160389   2.700   1.941   2.303
19429WAT     H260390   2.649   2.031   2.192
19430WAT      O60391   3.084   1.723   3.010
19430WAT     H160392   3.086   1.768   3.094
19430WAT     H260393   3.059   1.633   3.031
19431WAT      O60394   2.589   2.176   2.148
19431WAT     H160395   2.532   2.131   2.085
19431WAT     H260396   2.660   2.212   2.094
19432WAT      O60397   3.427   1.464   3.593
19432WAT     H160398   3.459   1.391   3.646
19432WAT     H260399   3.430   1.432   3.503
19433WAT      O60400   2.096   2.566   3.535
19433WAT     H160401   2.058   2.502   3.595
19433WAT     H260402   2.128   2.637   3.592
19434WAT      O60403   2.711   2.251   3.084
19434WAT     H160404   2.748   2.204   3.158
19434WAT     H260405   2.692   2.339   3.118
19435WAT      O60406   1.998   1.726   2.697
19435WAT     H160407   1.969   1.689   2.780
19435WAT     H260408   1.992   1.652   2.635
19436WAT      O60409   2.490   2.155   3.315
19436WAT     H160410   2.460   2.243   3.338
19436WAT     H260411   2.586   2.161   3.319
19437WAT      O60412   2.343   2.576   2.375
19437WAT     H160413   2.266   2.522   2.359
19437WAT     H260414   2.416   2.524   2.341
19438WAT      O60415   3.419   2.476   2.954
19438WAT     H160416   3.491   2.525   2.915
19438WAT     H260417   3.399   2.408   2.890
19439WAT      O60418   2.965   1.615   2.369
19439WAT     H160419   2.884   1.565   2.361
19439WAT     H260420   2.946   1.699   2.327
19440WAT      O60421   2.957   2.483   3.543
19440WAT     H160422   2.951   2.391   3.518
19440WAT     H260423   2.894   2.492   3.614
19441WAT      O60424   3.237   2.052   2.198
19441WAT     H160425   3.325   2.083   2.181
19441WAT     H260426   3.234   1.965   2.159
19442WAT      O60427   2.348   2.543   2.739
19442WAT     H160428   2.399   2.462   2.733
19442WAT     H260429   2.302   2.536   2.823
19443WAT      O60430   2.836   2.669   2.266
19443WAT     H160431   2.870   2.744   2.217
19443WAT     H260432   2.753   2.701   2.302
19444WAT      O60433   2.096   2.239   3.430
19444WAT     H160434   2.060   2.306   3.489
19444WAT     H260435   2.067   2.156   3.467
19445WAT      O60436   2.416   2.285   3.719
19445WAT     H160437   2.386   2.300   3.629
19445WAT     H260438   2.493   2.229   3.709
19446WAT      O60439   2.950   2.765   3.518
19446WAT     H160440   2.952   2.672   3.496
19446WAT     H260441   2.880   2.773   3.582
19447WAT      O60442   3.464   2.183   2.145
19447WAT     H160443   3.455   2.226   2.060
19447WAT     H260444   3.536   2.229   2.188
19448WAT      O60445   3.572   2.429   3.453
19448WAT     H160446   3.499   2.488   3.433
19448WAT     H260447   3.624   2.428   3.373
19449WAT      O60448   3.567   2.869   2.418
19449WAT     H160449   3.502   2.803   2.445
19449WAT     H260450   3.528   2.909   2.340
19450WAT      O60451   3.125   2.601   2.803
19450WAT     H160452   3.160   2.542   2.737
19450WAT     H260453   3.036   2.569   2.820
19451WAT      O60454   2.733   2.677   2.543
19451WAT     H160455   2.802   2.732   2.581
19451WAT     H260456   2.655   2.732   2.547
19452WAT      O60457   1.947   2.239   2.092
19452WAT     H160458   2.034   2.267   2.121
19452WAT     H260459   1.898   2.321   2.081
19453WAT      O60460   2.663   2.378   2.505
19453WAT     H160461   2.709   2.459   2.527
19453WAT     H260462   2.628   2.346   2.588
19454WAT      O60463   2.894   2.929   3.227
19454WAT     H160464   2.958   2.950   3.295
19454WAT     H260465   2.930   2.853   3.182
19455WAT      O60466   2.254   1.412   2.552
19455WAT     H160467   2.241   1.411   2.647
19455WAT     H260468   2.171   1.446   2.517
19456WAT      O60469   3.021   2.729   3.099
19456WAT     H160470   3.085   2.659   3.111
19456WAT     H260471   3.074   2.807   3.081
19457WAT      O60472   3.406   2.758   2.072
19457WAT     H160473   3.383   2.686   2.131
19457WAT     H260474   3.367   2.733   1.988
19458WAT      O60475   3.198   2.809   3.420
19458WAT     H160476   3.232   2.868   3.487
19458WAT     H260477   3.106   2.796   3.443
19459WAT      O60478   1.984   3.160   2.149
19459WAT     H160479   2.020   3.220   2.084
19459WAT     H260480   1.970   3.215   2.226
19460WAT      O60481   1.954   1.588   3.498
19460WAT     H160482   1.882   1.608   3.558
19460WAT     H260483   1.995   1.511   3.535
19461WAT      O60484   3.364   2.550   2.238
19461WAT     H160485   3.335   2.596   2.317
19461WAT     H260486   3.443   2.503   2.265
19462WAT      O60487   1.982   2.987   3.597
19462WAT     H160488   1.993   2.893   3.582
19462WAT     H260489   1.917   3.014   3.532
19463WAT      O60490   2.781   2.814   3.736
19463WAT     H160491   2.749   2.742   3.791
19463WAT     H260492   2.714   2.882   3.744
19464WAT      O60493   2.586   2.899   2.231
19464WAT     H160494   2.585   2.972   2.169
19464WAT     H260495   2.493   2.874   2.240
19465WAT      O60496   2.146   2.421   2.305
19465WAT     H160497   2.085   2.495   2.306
19465WAT     H260498   2.193   2.430   2.223
19466WAT      O60499   3.103   1.837   3.273
19466WAT     H160500   3.140   1.755   3.306
19466WAT     H260501   3.017   1.843   3.314
19467WAT      O60502   3.440   1.733   2.354
19467WAT     H160503   3.377   1.743   2.282
19467WAT     H260504   3.390   1.755   2.433
19468WAT      O60505   2.884   2.905   2.097
19468WAT     H160506   2.894   2.885   2.004
19468WAT     H260507   2.794   2.880   2.118
19469WAT      O60508   2.636   1.961   2.495
19469WAT     H160509   2.566   2.008   2.539
19469WAT     H260510   2.665   1.895   2.559
19470WAT      O60511   2.799   2.103   3.295
19470WAT     H160512   2.849   2.150   3.362
19470WAT     H260513   2.813   2.010   3.316
19471WAT      O60514   3.040   1.633   2.639
19471WAT     H160515   3.027   1.635   2.544
19471WAT     H260516   3.134   1.638   2.651
19472WAT      O60517   2.748   3.157   2.567
19472WAT     H160518   2.774   3.153   2.474
19472WAT     H260519   2.653   3.144   2.566
19473WAT      O60520   2.457   1.792   2.233
19473WAT     H160521   2.542   1.835   2.226
19473WAT     H260522   2.420   1.823   2.316
19474WAT      O60523   3.520   1.724   3.380
19474WAT     H160524   3.469   1.799   3.413
19474WAT     H260525   3.601   1.763   3.348
19475WAT      O60526   3.349   2.249   2.724
19475WAT     H160527   3.255   2.250   2.742
19475WAT     H260528   3.380   2.170   2.769
19476WAT      O60529   2.347   2.417   2.080
19476WAT     H160530   2.423   2.406   2.136
19476WAT     H260531   2.354   2.347   2.015
19477WAT      O60532   2.216   2.160   2.149
19477WAT     H160533   2.224   2.066   2.160
19477WAT     H260534   2.305   2.193   2.159
19478WAT      O60535   3.549   2.966   2.892
19478WAT     H160536   3.562   3.048   2.939
19478WAT     H260537   3.636   2.945   2.857
19479WAT      O60538   2.296   3.175   2.859
19479WAT     H160539   2.370   3.120   2.886
19479WAT     H260540   2.335   3.262   2.845
19480WAT      O60541   1.985   2.782   2.446
19480WAT     H160542   1.892   2.806   2.445
19480WAT     H260543   2.031   2.865   2.434
19481WAT      O60544   2.197   3.094   3.778
19481WAT     H160545   2.277   3.126   3.819
19481WAT     H260546   2.145   3.058   3.850
19482WAT      O60547   2.607   3.093   2.041
19482WAT     H160548   2.687   3.121   1.996
19482WAT     H260549   2.555   3.049   1.973
19483WAT      O60550   3.080   2.704   3.772
19483WAT     H160551   3.020   2.707   3.698
19483WAT     H260552   3.050   2.631   3.826
19484WAT      O60553   3.223   3.077   3.634
19484WAT     H160554   3.319   3.069   3.629
19484WAT     H260555   3.209   3.144   3.701
19485WAT      O60556   3.513   3.015   2.183
19485WAT     H160557   3.484   2.974   2.102
19485WAT     H260558   3.493   3.108   2.171
19486WAT      O60559   1.969   2.342   3.672
19486WAT     H160560   2.019   2.284   3.729
19486WAT     H260561   1.895   2.371   3.726
19487WAT      O60562   2.659   2.615   2.028
19487WAT     H160563   2.649   2.553   2.100
19487WAT     H260564   2.642   2.562   1.949
19488WAT      O60565   2.674   2.483   3.625
19488WAT     H160566   2.598   2.540   3.617
19488WAT     H260567   2.692   2.454   3.536
19489WAT      O60568   2.983   2.521   2.088
19489WAT     H160569   2.928   2.565   2.152
19489WAT     H260570   3.045   2.470   2.140
19490WAT      O60571   3.388   2.656   3.681
19490WAT     H160572   3.463   2.690   3.631
19490WAT     H260573   3.312   2.673   3.626
19491WAT      O60574   2.172   2.157   3.762
19491WAT     H160575   2.176   2.127   3.852
19491WAT     H260576   2.257   2.197   3.746
19492WAT      O60577   2.550   2.417   2.278
19492WAT     H160578   2.592   2.400   2.362
19492WAT     H260579   2.562   2.336   2.228
19493WAT      O60580   2.366   2.015   3.558
19493WAT     H160581   2.313   1.966   3.496
19493WAT     H260582   2.433   2.057   3.505
19494WAT      O60583   2.801   2.319   2.002
19494WAT     H160584   2.853   2.248   1.966
19494WAT     H260585   2.866   2.383   2.032
19495WAT      O60586   3.256   2.461   3.535
19495WAT     H160587   3.297   2.477   3.620
19495WAT     H260588   3.162   2.474   3.551
19496WAT      O60589   3.303   2.195   3.735
19496WAT     H160590   3.361   2.120   3.726
19496WAT     H260591   3.321   2.248   3.657
19497WAT      O60592   2.415   1.711   3.566
19497WAT     H160593   2.405   1.649   3.494
19497WAT     H260594   2.357   1.784   3.544
19498WAT      O60595   2.691   1.567   3.270
19498WAT     H160596   2.647   1.569   3.185
19498WAT     H260597   2.628   1.527   3.329
19499WAT      O60598   2.732   2.457   3.332
19499WAT     H160599   2.774   2.541   3.314
19499WAT     H260600   2.640   2.470   3.309
19500WAT      O60601   2.966   2.230   3.470
19500WAT     H160602   2.978   2.170   3.544
19500WAT     H260603   3.052   2.233   3.428
19501WAT      O60604   3.200   2.285   3.328
19501WAT     H160605   3.147   2.337   3.267
19501WAT     H260606   3.234   2.348   3.391
19502WAT      O60607   2.439   2.024   1.972
19502WAT     H160608   2.419   1.938   2.008
19502WAT     H260609   2.422   2.015   1.878
19503WAT      O60610   2.517   3.087   3.443
19503WAT     H160611   2.463   3.160   3.411
19503WAT     H260612   2.542   3.039   3.364
19504WAT      O60613   2.642   1.884   3.596
19504WAT     H160614   2.701   1.853   3.665
19504WAT     H260615   2.561   1.837   3.611
19505WAT      O60616   3.124   1.846   3.619
19505WAT     H160617   3.055   1.779   3.613
19505WAT     H260618   3.196   1.801   3.664
19506WAT      O60619   3.187   1.505   2.225
19506WAT     H160620   3.215   1.421   2.261
19506WAT     H260621   3.110   1.528   2.276
19507WAT      O60622   2.319   1.734   1.971
19507WAT     H160623   2.349   1.735   1.880
19507WAT     H260624   2.393   1.699   2.021
19508WAT      O60625   2.803   3.211   3.469
19508WAT     H160626   2.795   3.301   3.500
19508WAT     H260627   2.713   3.179   3.466
19509WAT      O60628   2.641   1.628   2.070
19509WAT     H160629   2.606   1.561   2.012
19509WAT     H260630   2.661   1.582   2.151
19510WAT      O60631   2.858   3.127   2.231
19510WAT     H160632   2.947   3.161   2.234
19510WAT     H260633   2.861   3.055   2.169
19511WAT      O60634   2.222   2.664   2.054
19511WAT     H160635   2.265   2.719   2.120
19511WAT     H260636   2.270   2.582   2.055
19512WAT      O60637   1.943   2.943   2.799
19512WAT     H160638   1.976   2.857   2.776
19512WAT     H260639   1.986   2.964   2.883
19513WAT      O60640   2.403   2.776   2.565
19513WAT     H160641   2.373   2.764   2.656
19513WAT     H260642   2.392   2.691   2.525
19514WAT      O60643   1.992   3.030   3.073
19514WAT     H160644   1.948   3.048   3.157
19514WAT     H260645   2.049   3.106   3.059
19515WAT      O60646   3.556   2.980   3.502
19515WAT     H160647   3.496   2.986   3.428
19515WAT     H260648   3.568   2.886   3.515
19516WAT      O60649   3.680   2.754   2.036
19516WAT     H160650   3.596   2.761   2.083
19516WAT     H260651   3.697   2.843   2.005
19517WAT      O60652   3.625   2.429   2.286
19517WAT     H160653   3.701   2.486   2.297
19517WAT     H260654   3.627   2.372   2.363
19518WAT      O60655   1.975   2.281   2.709
19518WAT     H160656   1.910   2.254   2.645
19518WAT     H260657   2.059   2.270   2.664
19519WAT      O60658   3.726   2.514   2.771
19519WAT     H160659   3.763   2.436   2.730
19519WAT     H260660   3.790   2.583   2.753
19520WAT      O60661   3.424   2.653   3.312
19520WAT     H160662   3.343   2.696   3.338
19520WAT     H260663   3.465   2.714   3.251
19521WAT      O60664   3.630   2.458   2.002
19521WAT     H160665   3.658   2.549   1.989
19521WAT     H260666   3.611   2.452   2.095
19522WAT      O60667   3.270   1.761   2.131
19522WAT     H160668   3.312   1.742   2.047
19522WAT     H260669   3.239   1.675   2.162
19523WAT      O60670   3.620   2.252   2.501
19523WAT     H160671   3.582   2.175   2.458
19523WAT     H260672   3.547   2.290   2.550
19524WAT      O60673   2.079   2.320   3.163
19524WAT     H160674   2.116   2.311   3.251
19524WAT     H260675   2.022   2.243   3.153
19525WAT      O60676   3.559   2.167   3.465
19525WAT     H160677   3.536   2.144   3.374
19525WAT     H260678   3.585   2.259   3.460
19526WAT      O60679   2.034   2.011   3.554
19526WAT     H160680   1.945   2.008   3.588
19526WAT     H260681   2.088   2.031   3.630
19527WAT      O60682   3.403   1.689   3.742
19527WAT     H160683   3.491   1.690   3.781
19527WAT     H260684   3.404   1.615   3.681
19528WAT      O60685   1.897   2.002   2.303
19528WAT     H160686   1.806   2.029   2.286
19528WAT     H260687   1.945   2.029   2.225
19529WAT      O60688   3.547   2.074   2.831
19529WAT     H160689   3.600   2.025   2.768
19529WAT     H260690   3.606   2.088   2.906
19530WAT      O60691   3.565   2.083   3.183
19530WAT     H160692   3.470   2.079   3.195
19530WAT     H260693   3.583   2.174   3.160
19531WAT      O60694   2.151   1.908   2.094
19531WAT     H160695   2.222   1.866   2.046
19531WAT     H260696   2.079   1.915   2.031
19532WAT      O60697   2.116   1.513   1.998
19532WAT     H160698   2.188   1.567   2.030
19532WAT     H260699   2.143   1.486   1.911
19533WAT      O60700   3.496   2.000   2.425
19533WAT     H160701   3.546   1.977   2.504
19533WAT     H260702   3.477   1.916   2.383
19534WAT      O60703   2.084   1.438   2.989
19534WAT     H160704   2.149   1.383   2.945
19534WAT     H260705   2.126   1.464   3.071
19535WAT      O60706   3.639   1.864   2.678
19535WAT     H160707   3.628   1.848   2.772
19535WAT     H260708   3.715   1.811   2.654
19536WAT      O60709   3.474   1.458   3.324
19536WAT     H160710   3.538   1.519   3.361
19536WAT     H260711   3.489   1.461   3.230
19537WAT      O60712   3.728   1.647   2.003
19537WAT     H160713   3.821   1.634   1.982
19537WAT     H260714   3.726   1.655   2.098
19538WAT      O60715   3.736   1.724   2.265
19538WAT     H160716   3.656   1.717   2.318
19538WAT     H260717   3.756   1.818   2.264
19539WAT      O60718   3.430   3.128   2.665
19539WAT     H160719   3.489   3.096   2.597
19539WAT     H260720   3.456   3.081   2.744
19540WAT      O60721   2.060   1.454   3.263
19540WAT     H160722   2.025   1.500   3.339
19540WAT     H260723   2.027   1.364   3.271
19541WAT      O60724   2.220   2.771   3.679
19541WAT     H160725   2.216   2.734   3.768
19541WAT     H260726   2.234   2.865   3.693
19542WAT      O60727   2.590   2.927   3.240
19542WAT     H160728   2.566   2.953   3.151
19542WAT     H260729   2.685   2.944   3.245
19543WAT      O60730   2.811   1.573   3.615
19543WAT     H160731   2.805   1.632   3.690
19543WAT     H260732   2.905   1.562   3.601
19544WAT      O60733   3.075   1.539   3.579
19544WAT     H160734   3.136   1.571   3.513
19544WAT     H260735   3.129   1.490   3.641
19545WAT      O60736   3.717   3.129   3.320
19545WAT     H160737   3.667   3.168   3.248
19545WAT     H260738   3.656   3.066   3.359
19546WAT      O60739   2.127   1.407   3.590
19546WAT     H160740   2.182   1.389   3.514
19546WAT     H260741   2.134   1.328   3.644
19547WAT      O60742   2.204   3.066   3.391
19547WAT     H160743   2.145   3.053   3.465
19547WAT     H260744   2.204   2.982   3.345
19548WAT      O60745   3.149   1.395   3.212
19548WAT     H160746   3.061   1.428   3.191
19548WAT     H260747   3.138   1.348   3.294
19549WAT      O60748   3.240   1.616   3.350
19549WAT     H160749   3.207   1.534   3.312
19549WAT     H260750   3.334   1.611   3.338
19550WAT      O60751   3.485   3.193   3.047
19550WAT     H160752   3.439   3.268   3.010
19550WAT     H260753   3.422   3.121   3.042
19551WAT      O60754   2.167   2.802   3.286
19551WAT     H160755   2.095   2.740   3.280
19551WAT     H260756   2.174   2.842   3.199
19552WAT      O60757   2.528   3.024   2.965
19552WAT     H160758   2.580   2.963   2.912
19552WAT     H260759   2.593   3.074   3.014
19553WAT      O60760   2.802   3.113   3.048
19553WAT     H160761   2.831   3.087   2.960
19553WAT     H260762   2.853   3.058   3.107
19554WAT      O60763   2.924   1.487   3.106
19554WAT     H160764   2.845   1.534   3.134
19554WAT     H260765   2.894   1.396   3.095
19555WAT      O60766   3.379   1.557   2.910
19555WAT     H160767   3.423   1.551   2.825
19555WAT     H260768   3.352   1.649   2.917
19556WAT      O60769   3.565   1.520   2.711
19556WAT     H160770   3.559   1.426   2.697
19556WAT     H260771   3.643   1.531   2.766
19557WAT      O60772   1.996   3.134   2.607
19557WAT     H160773   1.979   3.071   2.677
19557WAT     H260774   1.909   3.155   2.572
19558WAT      O60775   2.058   1.517   2.358
19558WAT     H160776   2.134   1.528   2.300
19558WAT     H260777   2.012   1.601   2.353
19559WAT      O60778   2.712   1.729   2.657
19559WAT     H160779   2.631   1.691   2.623
19559WAT     H260780   2.763   1.653   2.687
19560WAT      O60781   3.162   1.395   2.781
19560WAT     H160782   3.223   1.452   2.828
19560WAT     H260783   3.088   1.451   2.758
19561WAT      O60784   3.477   1.435   2.308
19561WAT     H160785   3.496   1.525   2.335
19561WAT     H260786   3.398   1.412   2.357
19562WAT      O60787   2.156   3.003   2.352
19562WAT     H160788   2.104   3.041   2.282
19562WAT     H260789   2.149   3.066   2.424
19563WAT      O60790   2.295   1.570   2.212
19563WAT     H160791   2.348   1.491   2.199
19563WAT     H260792   2.359   1.638   2.235
19564WAT      O60793   2.515   1.544   2.517
19564WAT     H160794   2.452   1.473   2.534
19564WAT     H260795   2.461   1.620   2.496
19565WAT      O60796   2.809   3.205   3.784
19565WAT     H160797   2.901   3.181   3.789
19565WAT     H260798   2.807   3.288   3.736
19566WAT      O60799   3.632   3.159   2.484
19566WAT     H160800   3.650   3.091   2.420
19566WAT     H260801   3.562   3.212   2.445
19567WAT      O60802   2.527   1.471   3.761
19567WAT     H160803   2.499   1.522   3.684
19567WAT     H260804   2.565   1.392   3.724
19568WAT      O60805   2.416   3.198   2.239
19568WAT     H160806   2.489   3.170   2.185
19568WAT     H260807   2.442   3.174   2.328
19569WAT      O60808   2.332   2.810   2.240
19569WAT     H160809   2.270   2.857   2.295
19569WAT     H260810   2.344   2.725   2.283
19570WAT      O60811   3.187   1.413   3.819
19570WAT     H160812   3.176   1.445   3.908
19570WAT     H260813   3.269   1.453   3.789
19571WAT      O60814   3.465   3.128   3.767
19571WAT     H160815   3.545   3.078   3.746
19571WAT     H260816   3.495   3.196   3.827
19572WAT      O60817   3.078   2.215   0.855
19572WAT     H160818   3.070   2.123   0.828
19572WAT     H260819   3.037   2.265   0.784
19573WAT      O60820   2.891   2.393   1.043
19573WAT     H160821   2.814   2.345   1.072
19573WAT     H260822   2.956   2.325   1.026
19574WAT      O60823   2.293   2.424   1.131
19574WAT     H160824   2.210   2.398   1.171
19574WAT     H260825   2.354   2.431   1.204
19575WAT      O60826   3.293   2.833   0.921
19575WAT     H160827   3.247   2.756   0.954
19575WAT     H260828   3.374   2.836   0.972
19576WAT      O60829   2.291   2.827   1.150
19576WAT     H160830   2.321   2.738   1.132
19576WAT     H260831   2.365   2.883   1.128
19577WAT      O60832   2.134   1.920   0.509
19577WAT     H160833   2.045   1.954   0.499
19577WAT     H260834   2.162   1.900   0.420
19578WAT      O60835   1.930   2.180   1.098
19578WAT     H160836   1.987   2.103   1.098
19578WAT     H260837   1.930   2.210   1.007
19579WAT      O60838   2.916   3.062   0.883
19579WAT     H160839   2.854   3.107   0.826
19579WAT     H260840   3.001   3.077   0.843
19580WAT      O60841   2.835   2.660   1.044
19580WAT     H160842   2.828   2.566   1.028
19580WAT     H260843   2.911   2.669   1.101
19581WAT      O60844   2.054   1.721   1.276
19581WAT     H160845   2.036   1.631   1.304
19581WAT     H260846   2.014   1.776   1.344
19582WAT      O60847   2.938   1.941   1.066
19582WAT     H160848   2.976   1.854   1.055
19582WAT     H260849   2.928   1.975   0.977
19583WAT      O60850   2.351   1.778   0.613
19583WAT     H160851   2.362   1.868   0.643
19583WAT     H260852   2.260   1.773   0.584
19584WAT      O60853   3.316   1.690   0.760
19584WAT     H160854   3.399   1.641   0.764
19584WAT     H260855   3.320   1.749   0.835
19585WAT      O60856   2.116   1.970   1.137
19585WAT     H160857   2.184   1.997   1.199
19585WAT     H260858   2.085   1.886   1.170
19586WAT      O60859   2.535   2.075   1.046
19586WAT     H160860   2.586   2.125   1.110
19586WAT     H260861   2.589   1.997   1.028
19587WAT      O60862   3.745   1.892   1.416
19587WAT     H160863   3.675   1.931   1.364
19587WAT     H260864   3.772   1.962   1.476
19588WAT      O60865   2.364   1.539   1.472
19588WAT     H160866   2.364   1.591   1.392
19588WAT     H260867   2.281   1.491   1.470
19589WAT      O60868   3.002   2.550   0.622
19589WAT     H160869   2.941   2.597   0.566
19589WAT     H260870   3.054   2.620   0.664
19590WAT      O60871   2.489   2.503   1.290
19590WAT     H160872   2.455   2.566   1.354
19590WAT     H260873   2.506   2.556   1.212
19591WAT      O60874   3.340   1.884   1.037
19591WAT     H160875   3.270   1.913   1.095
19591WAT     H260876   3.376   1.965   1.001
19592WAT      O60877   2.332   1.710   1.273
19592WAT     H160878   2.366   1.795   1.244
19592WAT     H260879   2.238   1.725   1.285
19593WAT      O60880   2.410   2.700   1.472
19593WAT     H160881   2.472   2.767   1.444
19593WAT     H260882   2.324   2.741   1.463
19594WAT      O60883   1.939   2.619   0.360
19594WAT     H160884   1.902   2.668   0.287
19594WAT     H260885   1.965   2.686   0.423
19595WAT      O60886   3.502   2.846   1.263
19595WAT     H160887   3.433   2.913   1.262
19595WAT     H260888   3.556   2.866   1.187
19596WAT      O60889   3.647   1.829   1.076
19596WAT     H160890   3.552   1.832   1.089
19596WAT     H260891   3.679   1.910   1.115
19597WAT      O60892   2.700   1.459   0.906
19597WAT     H160893   2.731   1.403   0.834
19597WAT     H260894   2.607   1.472   0.887
19598WAT      O60895   3.255   3.031   1.135
19598WAT     H160896   3.257   2.990   1.048
19598WAT     H260897   3.200   3.108   1.124
19599WAT      O60898   3.385   2.703   0.644
19599WAT     H160899   3.374   2.609   0.656
19599WAT     H260900   3.384   2.739   0.732
19600WAT      O60901   3.195   2.521   1.267
19600WAT     H160902   3.237   2.500   1.184
19600WAT     H260903   3.268   2.547   1.325
19601WAT      O60904   2.939   2.265   0.579
19601WAT     H160905   2.846   2.259   0.602
19601WAT     H260906   2.954   2.359   0.568
19602WAT      O60907   2.938   1.893   0.279
19602WAT     H160908   2.844   1.909   0.287
19602WAT     H260909   2.970   1.965   0.224
19603WAT      O60910   3.590   2.361   1.277
19603WAT     H160911   3.507   2.368   1.229
19603WAT     H260912   3.649   2.419   1.230
19604WAT      O60913   3.342   2.422   0.630
19604WAT     H160914   3.280   2.388   0.565
19604WAT     H260915   3.340   2.357   0.700
19605WAT      O60916   3.286   2.040   1.371
19605WAT     H160917   3.245   2.122   1.397
19605WAT     H260918   3.213   1.981   1.352
19606WAT      O60919   2.500   2.318   0.857
19606WAT     H160920   2.459   2.247   0.808
19606WAT     H260921   2.508   2.284   0.946
19607WAT      O60922   2.546   2.687   1.074
19607WAT     H160923   2.517   2.626   1.006
19607WAT     H260924   2.641   2.691   1.063
19608WAT      O60925   2.371   1.996   1.235
19608WAT     H160926   2.426   2.007   1.158
19608WAT     H260927   2.422   2.033   1.307
19609WAT      O60928   3.355   3.044   1.440
19609WAT     H160929   3.308   3.125   1.421
19609WAT     H260930   3.287   2.979   1.455
19610WAT      O60931   2.456   2.661   1.739
19610WAT     H160932   2.366   2.683   1.764
19610WAT     H260933   2.458   2.673   1.644
19611WAT      O60934   3.160   2.346   0.330
19611WAT     H160935   3.204   2.262   0.316
19611WAT     H260936   3.231   2.409   0.339
19612WAT      O60937   2.338   2.348   1.596
19612WAT     H160938   2.324   2.435   1.633
19612WAT     H260939   2.250   2.313   1.582
19613WAT      O60940   2.971   2.840   0.727
19613WAT     H160941   3.015   2.914   0.686
19613WAT     H260942   2.964   2.864   0.819
19614WAT      O60943   2.518   2.942   1.817
19614WAT     H160944   2.515   2.982   1.731
19614WAT     H260945   2.502   2.849   1.801
19615WAT      O60946   2.170   2.208   0.607
19615WAT     H160947   2.158   2.280   0.546
19615WAT     H260948   2.139   2.131   0.560
19616WAT      O60949   3.713   3.020   1.947
19616WAT     H160950   3.761   3.068   2.015
19616WAT     H260951   3.775   3.013   1.874
19617WAT      O60952   1.933   2.525   1.188
19617WAT     H160953   1.941   2.538   1.094
19617WAT     H260954   1.995   2.454   1.207
19618WAT      O60955   2.058   2.695   0.829
19618WAT     H160956   2.017   2.709   0.744
19618WAT     H260957   2.147   2.666   0.809
19619WAT      O60958   3.654   2.739   1.663
19619WAT     H160959   3.666   2.715   1.571
19619WAT     H260960   3.658   2.656   1.710
19620WAT      O60961   3.040   3.110   1.520
19620WAT     H160962   3.091   3.101   1.600
19620WAT     H260963   2.955   3.144   1.549
19621WAT      O60964   3.237   3.138   0.463
19621WAT     H160965   3.221   3.109   0.553
19621WAT     H260966   3.221   3.061   0.409
19622WAT      O60967   2.485   3.116   0.640
19622WAT     H160968   2.468   3.025   0.619
19622WAT     H260969   2.400   3.152   0.664
19623WAT      O60970   3.208   2.889   0.319
19623WAT     H160971   3.138   2.889   0.253
19623WAT     H260972   3.282   2.847   0.276
19624WAT      O60973   3.164   3.052   0.726
19624WAT     H160974   3.210   2.974   0.758
19624WAT     H260975   3.198   3.123   0.781
19625WAT      O60976   3.639   1.945   1.759
19625WAT     H160977   3.577   1.995   1.707
19625WAT     H260978   3.607   1.855   1.754
19626WAT      O60979   1.939   2.629   1.442
19626WAT     H160980   1.955   2.582   1.360
19626WAT     H260981   1.986   2.578   1.509
19627WAT      O60982   2.416   1.542   0.946
19627WAT     H160983   2.372   1.620   0.913
19627WAT     H260984   2.472   1.574   1.016
19628WAT      O60985   2.845   1.829   1.506
19628WAT     H160986   2.799   1.849   1.587
19628WAT     H260987   2.805   1.747   1.476
19629WAT      O60988   3.345   1.951   1.619
19629WAT     H160989   3.260   1.921   1.651
19629WAT     H260990   3.329   1.975   1.528
19630WAT      O60991   3.054   2.101   1.829
19630WAT     H160992   3.087   2.017   1.795
19630WAT     H260993   3.133   2.153   1.844
19631WAT      O60994   2.728   1.504   0.434
19631WAT     H160995   2.665   1.504   0.506
19631WAT     H260996   2.719   1.417   0.394
19632WAT      O60997   2.620   1.596   1.132
19632WAT     H160998   2.650   1.687   1.124
19632WAT     H260999   2.675   1.548   1.070
19633WAT      O61000   2.395   2.054   0.719
19633WAT     H161001   2.373   2.033   0.809
19633WAT     H261002   2.317   2.098   0.684
19634WAT      O61003   3.118   2.055   0.578
19634WAT     H161004   3.058   2.127   0.560
19634WAT     H261005   3.173   2.049   0.500
19635WAT      O61006   2.639   2.144   1.785
19635WAT     H161007   2.630   2.050   1.770
19635WAT     H261008   2.724   2.166   1.746
19636WAT      O61009   2.979   1.919   0.781
19636WAT     H161010   3.018   1.950   0.700
19636WAT     H261011   3.015   1.831   0.793
19637WAT      O61012   2.152   1.785   1.600
19637WAT     H161013   2.113   1.870   1.621
19637WAT     H261014   2.084   1.722   1.620
19638WAT      O61015   2.810   1.794   1.907
19638WAT     H161016   2.741   1.774   1.971
19638WAT     H261017   2.884   1.822   1.961
19639WAT      O61018   1.883   1.578   1.004
19639WAT     H161019   1.854   1.635   1.075
19639WAT     H261020   1.957   1.530   1.040
19640WAT      O61021   3.038   2.178   1.191
19640WAT     H161022   2.964   2.228   1.226
19640WAT     H261023   2.998   2.096   1.161
19641WAT      O61024   2.681   1.845   1.031
19641WAT     H161025   2.682   1.801   0.947
19641WAT     H261026   2.771   1.877   1.042
19642WAT      O61027   2.266   1.833   0.927
19642WAT     H161028   2.232   1.881   1.003
19642WAT     H261029   2.190   1.788   0.891
19643WAT      O61030   2.688   1.945   0.331
19643WAT     H161031   2.700   1.941   0.425
19643WAT     H261032   2.649   2.031   0.315
19644WAT      O61033   3.084   1.723   1.132
19644WAT     H161034   3.086   1.768   1.217
19644WAT     H261035   3.059   1.633   1.154
19645WAT      O61036   2.589   2.176   0.270
19645WAT     H161037   2.532   2.131   0.208
19645WAT     H261038   2.660   2.212   0.217
19646WAT      O61039   3.427   1.464   1.716
19646WAT     H161040   3.459   1.391   1.769
19646WAT     H261041   3.430   1.432   1.626
19647WAT      O61042   2.096   2.566   1.658
19647WAT     H161043   2.058   2.502   1.718
19647WAT     H261044   2.128   2.637   1.715
19648WAT      O61045   2.711   2.251   1.206
19648WAT     H161046   2.748   2.204   1.281
19648WAT     H261047   2.692   2.339   1.240
19649WAT      O61048   1.998   1.726   0.819
19649WAT     H161049   1.969   1.689   0.903
19649WAT     H261050   1.992   1.652   0.758
19650WAT      O61051   2.490   2.155   1.438
19650WAT     H161052   2.460   2.243   1.460
19650WAT     H261053   2.586   2.161   1.442
19651WAT      O61054   2.343   2.576   0.498
19651WAT     H161055   2.266   2.522   0.482
19651WAT     H261056   2.416   2.524   0.464
19652WAT      O61057   3.419   2.476   1.077
19652WAT     H161058   3.491   2.525   1.038
19652WAT     H261059   3.399   2.408   1.012
19653WAT      O61060   2.965   1.615   0.491
19653WAT     H161061   2.884   1.565   0.484
19653WAT     H261062   2.946   1.699   0.450
19654WAT      O61063   2.957   2.483   1.666
19654WAT     H161064   2.951   2.391   1.640
19654WAT     H261065   2.894   2.492   1.737
19655WAT      O61066   3.237   2.052   0.321
19655WAT     H161067   3.325   2.083   0.303
19655WAT     H261068   3.234   1.965   0.282
19656WAT      O61069   2.348   2.543   0.861
19656WAT     H161070   2.399   2.462   0.856
19656WAT     H261071   2.302   2.536   0.946
19657WAT      O61072   2.836   2.669   0.389
19657WAT     H161073   2.870   2.744   0.339
19657WAT     H261074   2.753   2.701   0.425
19658WAT      O61075   2.096   2.239   1.553
19658WAT     H161076   2.060   2.306   1.611
19658WAT     H261077   2.067   2.156   1.590
19659WAT      O61078   2.416   2.285   1.841
19659WAT     H161079   2.386   2.300   1.751
19659WAT     H261080   2.493   2.229   1.832
19660WAT      O61081   2.950   2.765   1.641
19660WAT     H161082   2.952   2.672   1.619
19660WAT     H261083   2.880   2.773   1.705
19661WAT      O61084   3.464   2.183   0.268
19661WAT     H161085   3.455   2.226   0.183
19661WAT     H261086   3.536   2.229   0.311
19662WAT      O61087   3.572   2.429   1.575
19662WAT     H161088   3.499   2.488   1.556
19662WAT     H261089   3.624   2.428   1.495
19663WAT      O61090   3.567   2.869   0.540
19663WAT     H161091   3.502   2.803   0.568
19663WAT     H261092   3.528   2.909   0.463
19664WAT      O61093   3.125   2.601   0.925
19664WAT     H161094   3.160   2.542   0.859
19664WAT     H261095   3.036   2.569   0.942
19665WAT      O61096   2.733   2.677   0.666
19665WAT     H161097   2.802   2.732   0.704
19665WAT     H261098   2.655   2.732   0.669
19666WAT      O61099   1.947   2.239   0.215
19666WAT     H161100   2.034   2.267   0.243
19666WAT     H261101   1.898   2.321   0.204
19667WAT      O61102   2.663   2.378   0.627
19667WAT     H161103   2.709   2.459   0.650
19667WAT     H261104   2.628   2.346   0.710
19668WAT      O61105   2.894   2.929   1.350
19668WAT     H161106   2.958   2.950   1.418
19668WAT     H261107   2.930   2.853   1.305
19669WAT      O61108   2.254   1.412   0.674
19669WAT     H161109   2.241   1.411   0.769
19669WAT     H261110   2.171   1.446   0.639
19670WAT      O61111   3.021   2.729   1.222
19670WAT     H161112   3.085   2.659   1.233
19670WAT     H261113   3.074   2.807   1.204
19671WAT      O61114   3.198   2.809   1.542
19671WAT     H161115   3.232   2.868   1.610
19671WAT     H261116   3.106   2.796   1.565
19672WAT      O61117   1.984   3.160   0.272
19672WAT     H161118   2.020   3.220   0.206
19672WAT     H261119   1.970   3.215   0.349
19673WAT      O61120   1.954   1.588   1.620
19673WAT     H161121   1.882   1.608   1.681
19673WAT     H261122   1.995   1.511   1.658
19674WAT      O61123   3.364   2.550   0.360
19674WAT     H161124   3.335   2.596   0.439
19674WAT     H261125   3.443   2.503   0.387
19675WAT      O61126   1.982   2.987   1.719
19675WAT     H161127   1.993   2.893   1.705
19675WAT     H261128   1.917   3.014   1.654
19676WAT      O61129   2.781   2.814   1.859
19676WAT     H161130   2.749   2.742   1.914
19676WAT     H261131   2.714   2.882   1.866
19677WAT      O61132   2.586   2.899   0.353
19677WAT     H161133   2.585   2.972   0.292
19677WAT     H261134   2.493   2.874   0.363
19678WAT      O61135   2.146   2.421   0.428
19678WAT     H161136   2.085   2.495   0.429
19678WAT     H261137   2.193   2.430   0.345
19679WAT      O61138   3.103   1.837   1.395
19679WAT     H161139   3.140   1.755   1.428
19679WAT     H261140   3.017   1.843   1.437
19680WAT      O61141   3.440   1.733   0.476
19680WAT     H161142   3.377   1.743   0.405
19680WAT     H261143   3.390   1.755   0.555
19681WAT      O61144   2.636   1.961   0.618
19681WAT     H161145   2.566   2.008   0.662
19681WAT     H261146   2.665   1.895   0.681
19682WAT      O61147   2.799   2.103   1.418
19682WAT     H161148   2.849   2.150   1.484
19682WAT     H261149   2.813   2.010   1.439
19683WAT      O61150   3.040   1.633   0.762
19683WAT     H161151   3.027   1.635   0.667
19683WAT     H261152   3.134   1.638   0.774
19684WAT      O61153   2.748   3.157   0.689
19684WAT     H161154   2.774   3.153   0.597
19684WAT     H261155   2.653   3.144   0.688
19685WAT      O61156   2.457   1.792   0.355
19685WAT     H161157   2.542   1.835   0.349
19685WAT     H261158   2.420   1.823   0.438
19686WAT      O61159   3.520   1.724   1.502
19686WAT     H161160   3.469   1.799   1.536
19686WAT     H261161   3.601   1.763   1.470
19687WAT      O61162   3.349   2.249   0.847
19687WAT     H161163   3.255   2.250   0.864
19687WAT     H261164   3.380   2.170   0.891
19688WAT      O61165   2.216   2.160   0.271
19688WAT     H161166   2.224   2.066   0.282
19688WAT     H261167   2.305   2.193   0.282
19689WAT      O61168   3.549   2.966   1.014
19689WAT     H161169   3.562   3.048   1.061
19689WAT     H261170   3.636   2.945   0.979
19690WAT      O61171   2.296   3.175   0.981
19690WAT     H161172   2.370   3.120   1.009
19690WAT     H261173   2.335   3.262   0.967
19691WAT      O61174   1.985   2.782   0.569
19691WAT     H161175   1.892   2.806   0.568
19691WAT     H261176   2.031   2.865   0.557
19692WAT      O61177   2.197   3.094   1.900
19692WAT     H161178   2.277   3.126   1.942
19692WAT     H261179   2.145   3.058   1.972
19693WAT      O61180   3.080   2.704   1.895
19693WAT     H161181   3.020   2.707   1.821
19693WAT     H261182   3.050   2.631   1.949
19694WAT      O61183   3.223   3.077   1.756
19694WAT     H161184   3.319   3.069   1.751
19694WAT     H261185   3.209   3.144   1.823
19695WAT      O61186   3.513   3.015   0.306
19695WAT     H161187   3.484   2.974   0.225
19695WAT     H261188   3.493   3.108   0.294
19696WAT      O61189   1.969   2.342   1.795
19696WAT     H161190   2.019   2.284   1.852
19696WAT     H261191   1.895   2.371   1.848
19697WAT      O61192   2.674   2.483   1.748
19697WAT     H161193   2.598   2.540   1.740
19697WAT     H261194   2.692   2.454   1.659
19698WAT      O61195   2.983   2.521   0.211
19698WAT     H161196   2.928   2.565   0.275
19698WAT     H261197   3.045   2.470   0.263
19699WAT      O61198   3.388   2.656   1.804
19699WAT     H161199   3.463   2.690   1.753
19699WAT     H261200   3.312   2.673   1.748
19700WAT      O61201   2.172   2.157   1.884
19700WAT     H161202   2.176   2.127   1.975
19700WAT     H261203   2.257   2.197   1.868
19701WAT      O61204   2.550   2.417   0.400
19701WAT     H161205   2.592   2.400   0.484
19701WAT     H261206   2.562   2.336   0.351
19702WAT      O61207   2.366   2.015   1.681
19702WAT     H161208   2.313   1.966   1.618
19702WAT     H261209   2.433   2.057   1.627
19703WAT      O61210   3.256   2.461   1.657
19703WAT     H161211   3.297   2.477   1.742
19703WAT     H261212   3.162   2.474   1.674
19704WAT      O61213   3.303   2.195   1.858
19704WAT     H161214   3.361   2.120   1.849
19704WAT     H261215   3.321   2.248   1.780
19705WAT      O61216   2.415   1.711   1.689
19705WAT     H161217   2.405   1.649   1.616
19705WAT     H261218   2.357   1.784   1.666
19706WAT      O61219   2.691   1.567   1.392
19706WAT     H161220   2.647   1.569   1.308
19706WAT     H261221   2.628   1.527   1.452
19707WAT      O61222   2.732   2.457   1.454
19707WAT     H161223   2.774   2.541   1.437
19707WAT     H261224   2.640   2.470   1.431
19708WAT      O61225   2.966   2.230   1.593
19708WAT     H161226   2.978   2.170   1.667
19708WAT     H261227   3.052   2.233   1.551
19709WAT      O61228   3.200   2.285   1.450
19709WAT     H161229   3.147   2.337   1.390
19709WAT     H261230   3.234   2.348   1.513
19710WAT      O61231   2.517   3.087   1.566
19710WAT     H161232   2.463   3.160   1.534
19710WAT     H261233   2.542   3.039   1.487
19711WAT      O61234   2.642   1.884   1.718
19711WAT     H161235   2.701   1.853   1.787
19711WAT     H261236   2.561   1.837   1.734
19712WAT      O61237   3.124   1.846   1.742
19712WAT     H161238   3.055   1.779   1.735
19712WAT     H261239   3.196   1.801   1.786
19713WAT      O61240   3.187   1.505   0.348
19713WAT     H161241   3.215   1.421   0.383
19713WAT     H261242   3.110   1.528   0.399
19714WAT      O61243   2.803   3.211   1.592
19714WAT     H161244   2.795   3.301   1.622
19714WAT     H261245   2.713   3.179   1.589
19715WAT      O61246   2.858   3.127   0.354
19715WAT     H161247   2.947   3.161   0.356
19715WAT     H261248   2.861   3.055   0.291
19716WAT      O61249   2.222   2.664   0.177
19716WAT     H161250   2.265   2.719   0.242
19716WAT     H261251   2.270   2.582   0.178
19717WAT      O61252   1.943   2.943   0.922
19717WAT     H161253   1.976   2.857   0.899
19717WAT     H261254   1.986   2.964   1.005
19718WAT      O61255   2.403   2.776   0.688
19718WAT     H161256   2.373   2.764   0.778
19718WAT     H261257   2.392   2.691   0.647
19719WAT      O61258   1.992   3.030   1.196
19719WAT     H161259   1.948   3.048   1.279
19719WAT     H261260   2.049   3.106   1.182
19720WAT      O61261   3.556   2.980   1.625
19720WAT     H161262   3.496   2.986   1.550
19720WAT     H261263   3.568   2.886   1.638
19721WAT      O61264   3.625   2.429   0.409
19721WAT     H161265   3.701   2.486   0.419
19721WAT     H261266   3.627   2.372   0.486
19722WAT      O61267   1.975   2.281   0.832
19722WAT     H161268   1.910   2.254   0.767
19722WAT     H261269   2.059   2.270   0.787
19723WAT      O61270   3.726   2.514   0.893
19723WAT     H161271   3.763   2.436   0.852
19723WAT     H261272   3.790   2.583   0.875
19724WAT      O61273   3.424   2.653   1.434
19724WAT     H161274   3.343   2.696   1.461
19724WAT     H261275   3.465   2.714   1.373
19725WAT      O61276   3.270   1.761   0.254
19725WAT     H161277   3.312   1.742   0.170
19725WAT     H261278   3.239   1.675   0.285
19726WAT      O61279   3.620   2.252   0.624
19726WAT     H161280   3.582   2.175   0.580
19726WAT     H261281   3.547   2.290   0.672
19727WAT      O61282   2.079   2.320   1.286
19727WAT     H161283   2.116   2.311   1.374
19727WAT     H261284   2.022   2.243   1.276
19728WAT      O61285   3.559   2.167   1.587
19728WAT     H161286   3.536   2.144   1.497
19728WAT     H261287   3.585   2.259   1.583
19729WAT      O61288   2.034   2.011   1.676
19729WAT     H161289   1.945   2.008   1.710
19729WAT     H261290   2.088   2.031   1.753
19730WAT      O61291   3.403   1.689   1.865
19730WAT     H161292   3.491   1.690   1.903
19730WAT     H261293   3.404   1.615   1.804
19731WAT      O61294   1.897   2.002   0.426
19731WAT     H161295   1.806   2.029   0.409
19731WAT     H261296   1.945   2.029   0.348
19732WAT      O61297   3.547   2.074   0.954
19732WAT     H161298   3.600   2.025   0.891
19732WAT     H261299   3.606   2.088   1.028
19733WAT      O61300   3.565   2.083   1.306
19733WAT     H161301   3.470   2.079   1.317
19733WAT     H261302   3.583   2.174   1.282
19734WAT      O61303   3.496   2.000   0.548
19734WAT     H161304   3.546   1.977   0.626
19734WAT     H261305   3.477   1.916   0.506
19735WAT      O61306   2.084   1.438   1.111
19735WAT     H161307   2.149   1.383   1.067
19735WAT     H261308   2.126   1.464   1.193
19736WAT      O61309   3.639   1.864   0.801
19736WAT     H161310   3.628   1.848   0.895
19736WAT     H261311   3.715   1.811   0.777
19737WAT      O61312   3.474   1.458   1.447
19737WAT     H161313   3.538   1.519   1.483
19737WAT     H261314   3.489   1.461   1.352
19738WAT      O61315   3.736   1.724   0.388
19738WAT     H161316   3.656   1.717   0.441
19738WAT     H261317   3.756   1.818   0.387
19739WAT      O61318   3.430   3.128   0.787
19739WAT     H161319   3.489   3.096   0.719
19739WAT     H261320   3.456   3.081   0.866
19740WAT      O61321   2.060   1.454   1.385
19740WAT     H161322   2.025   1.500   1.462
19740WAT     H261323   2.027   1.364   1.394
19741WAT      O61324   2.220   2.771   1.802
19741WAT     H161325   2.216   2.734   1.890
19741WAT     H261326   2.234   2.865   1.816
19742WAT      O61327   2.590   2.927   1.362
19742WAT     H161328   2.566   2.953   1.273
19742WAT     H261329   2.685   2.944   1.368
19743WAT      O61330   2.811   1.573   1.738
19743WAT     H161331   2.805   1.632   1.813
19743WAT     H261332   2.905   1.562   1.723
19744WAT      O61333   3.075   1.539   1.702
19744WAT     H161334   3.136   1.571   1.635
19744WAT     H261335   3.129   1.490   1.764
19745WAT      O61336   3.717   3.129   1.442
19745WAT     H161337   3.667   3.168   1.370
19745WAT     H261338   3.656   3.066   1.482
19746WAT      O61339   2.127   1.407   1.713
19746WAT     H161340   2.182   1.389   1.637
19746WAT     H261341   2.134   1.328   1.767
19747WAT      O61342   2.204   3.066   1.514
19747WAT     H161343   2.145   3.053   1.588
19747WAT     H261344   2.204   2.982   1.467
19748WAT      O61345   3.149   1.395   1.334
19748WAT     H161346   3.061   1.428   1.314
19748WAT     H261347   3.138   1.348   1.417
19749WAT      O61348   3.240   1.616   1.473
19749WAT     H161349   3.207   1.534   1.435
19749WAT     H261350   3.334   1.611   1.460
19750WAT      O61351   3.485   3.193   1.170
19750WAT     H161352   3.439   3.268   1.133
19750WAT     H261353   3.422   3.121   1.164
19751WAT      O61354   2.167   2.802   1.409
19751WAT     H161355   2.095   2.740   1.402
19751WAT     H261356   2.174   2.842   1.322
19752WAT      O61357   2.528   3.024   1.088
19752WAT     H161358   2.580   2.963   1.035
19752WAT     H261359   2.593   3.074   1.137
19753WAT      O61360   2.802   3.113   1.170
19753WAT     H161361   2.831   3.087   1.083
19753WAT     H261362   2.853   3.058   1.229
19754WAT      O61363   2.924   1.487   1.228
19754WAT     H161364   2.845   1.534   1.256
19754WAT     H261365   2.894   1.396   1.217
19755WAT      O61366   3.379   1.557   1.033
19755WAT     H161367   3.423   1.551   0.948
19755WAT     H261368   3.352   1.649   1.040
19756WAT      O61369   3.565   1.520   0.834
19756WAT     H161370   3.559   1.426   0.819
19756WAT     H261371   3.643   1.531   0.888
19757WAT      O61372   1.996   3.134   0.730
19757WAT     H161373   1.979   3.071   0.800
19757WAT     H261374   1.909   3.155   0.695
19758WAT      O61375   2.058   1.517   0.480
19758WAT     H161376   2.134   1.528   0.423
19758WAT     H261377   2.012   1.601   0.476
19759WAT      O61378   2.712   1.729   0.779
19759WAT     H161379   2.631   1.691   0.745
19759WAT     H261380   2.763   1.653   0.810
19760WAT      O61381   3.162   1.395   0.903
19760WAT     H161382   3.223   1.452   0.951
19760WAT     H261383   3.088   1.451   0.881
19761WAT      O61384   3.477   1.435   0.431
19761WAT     H161385   3.496   1.525   0.457
19761WAT     H261386   3.398   1.412   0.480
19762WAT      O61387   2.156   3.003   0.474
19762WAT     H161388   2.104   3.041   0.404
19762WAT     H261389   2.149   3.066   0.547
19763WAT      O61390   2.295   1.570   0.334
19763WAT     H161391   2.348   1.491   0.321
19763WAT     H261392   2.359   1.638   0.358
19764WAT      O61393   2.515   1.544   0.640
19764WAT     H161394   2.452   1.473   0.656
19764WAT     H261395   2.461   1.620   0.618
19765WAT      O61396   2.809   3.205   1.907
19765WAT     H161397   2.901   3.181   1.911
19765WAT     H261398   2.807   3.288   1.859
19766WAT      O61399   3.632   3.159   0.607
19766WAT     H161400   3.650   3.091   0.542
19766WAT     H261401   3.562   3.212   0.567
19767WAT      O61402   2.527   1.471   1.883
19767WAT     H161403   2.499   1.522   1.807
19767WAT     H261404   2.565   1.392   1.847
19768WAT      O61405   2.416   3.198   0.362
19768WAT     H161406   2.489   3.170   0.307
19768WAT     H261407   2.442   3.174   0.451
19769WAT      O61408   2.332   2.810   0.362
19769WAT     H161409   2.270   2.857   0.417
19769WAT     H261410   2.344   2.725   0.406
19770WAT      O61411   3.187   1.413   1.941
19770WAT     H161412   3.176   1.445   2.031
19770WAT     H261413   3.269   1.453   1.911
19771WAT      O61414   3.465   3.128   1.889
19771WAT     H161415   3.545   3.078   1.869
19771WAT     H261416   3.495   3.196   1.950
19772WAT      O61417   3.078   0.337   6.487
19772WAT     H161418   3.070   0.246   6.460
19772WAT     H261419   3.037   0.387   6.417
19773WAT      O61420   2.891   0.515   6.675
19773WAT     H161421   2.814   0.467   6.704
19773WAT     H261422   2.956   0.447   6.658
19774WAT      O61423   2.293   0.546   6.763
19774WAT     H161424   2.210   0.521   6.803
19774WAT     H261425   2.354   0.554   6.837
19775WAT      O61426   3.293   0.956   6.553
19775WAT     H161427   3.247   0.879   6.586
19775WAT     H261428   3.374   0.959   6.604
19776WAT      O61429   2.291   0.950   6.783
19776WAT     H161430   2.321   0.861   6.765
19776WAT     H261431   2.365   1.006   6.760
19777WAT      O61432   1.930   0.303   6.730
19777WAT     H161433   1.987   0.226   6.730
19777WAT     H261434   1.930   0.332   6.639
19778WAT      O61435   2.916   1.184   6.515
19778WAT     H161436   2.854   1.230   6.458
19778WAT     H261437   3.001   1.200   6.475
19779WAT      O61438   2.835   0.783   6.676
19779WAT     H161439   2.828   0.689   6.660
19779WAT     H261440   2.911   0.792   6.733
19780WAT      O61441   3.002   0.673   6.255
19780WAT     H161442   2.941   0.719   6.198
19780WAT     H261443   3.054   0.742   6.296
19781WAT      O61444   2.489   0.626   6.922
19781WAT     H161445   2.455   0.688   6.987
19781WAT     H261446   2.506   0.678   6.845
19782WAT      O61447   2.410   0.822   7.104
19782WAT     H161448   2.472   0.890   7.076
19782WAT     H261449   2.324   0.863   7.095
19783WAT      O61450   1.939   0.741   5.992
19783WAT     H161451   1.902   0.790   5.919
19783WAT     H261452   1.965   0.809   6.055
19784WAT      O61453   3.502   0.969   6.896
19784WAT     H161454   3.433   1.036   6.895
19784WAT     H261455   3.556   0.989   6.819
19785WAT      O61456   3.255   1.153   6.767
19785WAT     H161457   3.257   1.113   6.680
19785WAT     H261458   3.200   1.231   6.757
19786WAT      O61459   3.385   0.825   6.276
19786WAT     H161460   3.374   0.731   6.288
19786WAT     H261461   3.384   0.862   6.365
19787WAT      O61462   3.195   0.644   6.900
19787WAT     H161463   3.237   0.622   6.816
19787WAT     H261464   3.268   0.669   6.957
19788WAT      O61465   2.939   0.388   6.212
19788WAT     H161466   2.846   0.381   6.234
19788WAT     H261467   2.954   0.482   6.200
19789WAT      O61468   3.590   0.483   6.909
19789WAT     H161469   3.507   0.490   6.861
19789WAT     H261470   3.649   0.542   6.862
19790WAT      O61471   3.342   0.544   6.262
19790WAT     H161472   3.280   0.510   6.197
19790WAT     H261473   3.340   0.480   6.333
19791WAT      O61474   2.500   0.441   6.490
19791WAT     H161475   2.459   0.369   6.440
19791WAT     H261476   2.508   0.406   6.579
19792WAT      O61477   2.546   0.809   6.706
19792WAT     H161478   2.517   0.749   6.638
19792WAT     H261479   2.641   0.813   6.695
19793WAT      O61480   3.355   1.167   7.072
19793WAT     H161481   3.308   1.247   7.053
19793WAT     H261482   3.287   1.101   7.088
19794WAT      O61483   2.456   0.783   7.371
19794WAT     H161484   2.366   0.806   7.396
19794WAT     H261485   2.458   0.796   7.276
19795WAT      O61486   3.160   0.468   5.963
19795WAT     H161487   3.204   0.384   5.948
19795WAT     H261488   3.231   0.531   5.971
19796WAT      O61489   2.338   0.470   7.229
19796WAT     H161490   2.324   0.558   7.266
19796WAT     H261491   2.250   0.436   7.214
19797WAT      O61492   2.971   0.962   6.359
19797WAT     H161493   3.015   1.036   6.318
19797WAT     H261494   2.964   0.986   6.452
19798WAT      O61495   2.518   1.065   7.450
19798WAT     H161496   2.515   1.105   7.363
19798WAT     H261497   2.502   0.972   7.433
19799WAT      O61498   2.170   0.330   6.240
19799WAT     H161499   2.158   0.403   6.179
19799WAT     H261500   2.139   0.253   6.192
19800WAT      O61501   1.933   0.647   6.820
19800WAT     H161502   1.941   0.661   6.726
19800WAT     H261503   1.995   0.576   6.840
19801WAT      O61504   2.058   0.817   6.462
19801WAT     H161505   2.017   0.831   6.376
19801WAT     H261506   2.147   0.789   6.441
19802WAT      O61507   3.654   0.862   7.295
19802WAT     H161508   3.666   0.838   7.203
19802WAT     H261509   3.658   0.779   7.342
19803WAT      O61510   3.040   1.232   7.152
19803WAT     H161511   3.091   1.223   7.232
19803WAT     H261512   2.955   1.267   7.181
19804WAT      O61513   3.237   1.261   6.095
19804WAT     H161514   3.221   1.232   6.185
19804WAT     H261515   3.221   1.183   6.041
19805WAT      O61516   2.485   1.239   6.273
19805WAT     H161517   2.468   1.147   6.251
19805WAT     H261518   2.400   1.275   6.297
19806WAT      O61519   3.208   1.012   5.951
19806WAT     H161520   3.138   1.011   5.885
19806WAT     H261521   3.282   0.969   5.908
19807WAT      O61522   3.164   1.174   6.358
19807WAT     H161523   3.210   1.096   6.390
19807WAT     H261524   3.198   1.245   6.413
19808WAT      O61525   1.939   0.751   7.074
19808WAT     H161526   1.955   0.704   6.993
19808WAT     H261527   1.986   0.701   7.141
19809WAT      O61528   3.054   0.223   7.461
19809WAT     H161529   3.087   0.140   7.427
19809WAT     H261530   3.133   0.276   7.476
19810WAT      O61531   2.395   0.177   6.351
19810WAT     H161532   2.373   0.155   6.441
19810WAT     H261533   2.317   0.220   6.316
19811WAT      O61534   3.118   0.177   6.211
19811WAT     H161535   3.058   0.250   6.192
19811WAT     H261536   3.173   0.171   6.132
19812WAT      O61537   2.639   0.267   7.417
19812WAT     H161538   2.630   0.173   7.402
19812WAT     H261539   2.724   0.289   7.378
19813WAT      O61540   3.038   0.300   6.823
19813WAT     H161541   2.964   0.351   6.858
19813WAT     H261542   2.998   0.218   6.793
19814WAT      O61543   2.589   0.299   5.903
19814WAT     H161544   2.532   0.254   5.840
19814WAT     H261545   2.660   0.335   5.849
19815WAT      O61546   2.096   0.689   7.290
19815WAT     H161547   2.058   0.625   7.350
19815WAT     H261548   2.128   0.759   7.347
19816WAT      O61549   2.711   0.374   6.838
19816WAT     H161550   2.748   0.326   6.913
19816WAT     H261551   2.692   0.461   6.873
19817WAT      O61552   2.490   0.278   7.070
19817WAT     H161553   2.460   0.366   7.093
19817WAT     H261554   2.586   0.284   7.074
19818WAT      O61555   2.343   0.698   6.130
19818WAT     H161556   2.266   0.644   6.114
19818WAT     H261557   2.416   0.646   6.096
19819WAT      O61558   3.419   0.598   6.709
19819WAT     H161559   3.491   0.648   6.670
19819WAT     H261560   3.399   0.530   6.645
19820WAT      O61561   2.957   0.605   7.298
19820WAT     H161562   2.951   0.513   7.272
19820WAT     H261563   2.894   0.615   7.369
19821WAT      O61564   2.348   0.665   6.494
19821WAT     H161565   2.399   0.585   6.488
19821WAT     H261566   2.302   0.659   6.578
19822WAT      O61567   2.836   0.792   6.021
19822WAT     H161568   2.870   0.866   5.971
19822WAT     H261569   2.753   0.823   6.057
19823WAT      O61570   2.096   0.362   7.185
19823WAT     H161571   2.060   0.428   7.244
19823WAT     H261572   2.067   0.279   7.222
19824WAT      O61573   2.416   0.408   7.473
19824WAT     H161574   2.386   0.422   7.384
19824WAT     H261575   2.493   0.352   7.464
19825WAT      O61576   2.950   0.887   7.273
19825WAT     H161577   2.952   0.794   7.251
19825WAT     H261578   2.880   0.896   7.337
19826WAT      O61579   3.464   0.306   5.900
19826WAT     H161580   3.455   0.349   5.815
19826WAT     H261581   3.536   0.352   5.943
19827WAT      O61582   3.572   0.551   7.208
19827WAT     H161583   3.499   0.611   7.188
19827WAT     H261584   3.624   0.551   7.128
19828WAT      O61585   3.567   0.991   6.173
19828WAT     H161586   3.502   0.926   6.200
19828WAT     H261587   3.528   1.032   6.095
19829WAT      O61588   3.125   0.724   6.557
19829WAT     H161589   3.160   0.664   6.491
19829WAT     H261590   3.036   0.691   6.575
19830WAT      O61591   2.733   0.800   6.298
19830WAT     H161592   2.802   0.855   6.336
19830WAT     H261593   2.655   0.854   6.302
19831WAT      O61594   1.947   0.362   5.847
19831WAT     H161595   2.034   0.390   5.876
19831WAT     H261596   1.898   0.443   5.836
19832WAT      O61597   2.663   0.500   6.259
19832WAT     H161598   2.709   0.582   6.282
19832WAT     H261599   2.628   0.469   6.343
19833WAT      O61600   2.894   1.052   6.982
19833WAT     H161601   2.958   1.072   7.050
19833WAT     H261602   2.930   0.975   6.937
19834WAT      O61603   3.021   0.852   6.854
19834WAT     H161604   3.085   0.782   6.865
19834WAT     H261605   3.074   0.930   6.836
19835WAT      O61606   3.406   0.880   5.827
19835WAT     H161607   3.383   0.809   5.886
19835WAT     H261608   3.367   0.855   5.743
19836WAT      O61609   3.198   0.932   7.174
19836WAT     H161610   3.232   0.990   7.242
19836WAT     H261611   3.106   0.919   7.197
19837WAT      O61612   1.984   1.283   5.904
19837WAT     H161613   2.020   1.343   5.839
19837WAT     H261614   1.970   1.338   5.981
19838WAT      O61615   3.364   0.672   5.993
19838WAT     H161616   3.335   0.718   6.071
19838WAT     H261617   3.443   0.626   6.019
19839WAT      O61618   1.982   1.110   7.351
19839WAT     H161619   1.993   1.016   7.337
19839WAT     H261620   1.917   1.136   7.287
19840WAT      O61621   2.586   1.021   5.986
19840WAT     H161622   2.585   1.095   5.924
19840WAT     H261623   2.493   0.997   5.995
19841WAT      O61624   2.146   0.543   6.060
19841WAT     H161625   2.085   0.617   6.061
19841WAT     H261626   2.193   0.552   5.978
19842WAT      O61627   2.884   1.028   5.852
19842WAT     H161628   2.894   1.007   5.759
19842WAT     H261629   2.794   1.002   5.872
19843WAT      O61630   2.799   0.225   7.050
19843WAT     H161631   2.849   0.273   7.117
19843WAT     H261632   2.813   0.133   7.071
19844WAT      O61633   2.748   1.279   6.321
19844WAT     H161634   2.774   1.276   6.229
19844WAT     H261635   2.653   1.267   6.321
19845WAT      O61636   3.349   0.371   6.479
19845WAT     H161637   3.255   0.373   6.496
19845WAT     H261638   3.380   0.293   6.524
19846WAT      O61639   2.347   0.540   5.835
19846WAT     H161640   2.423   0.528   5.891
19846WAT     H261641   2.354   0.470   5.770
19847WAT      O61642   2.216   0.283   5.903
19847WAT     H161643   2.224   0.188   5.915
19847WAT     H261644   2.305   0.316   5.914
19848WAT      O61645   3.549   1.088   6.647
19848WAT     H161646   3.562   1.171   6.694
19848WAT     H261647   3.636   1.067   6.612
19849WAT      O61648   2.296   1.298   6.614
19849WAT     H161649   2.370   1.243   6.641
19849WAT     H261650   2.335   1.384   6.600
19850WAT      O61651   1.985   0.905   6.201
19850WAT     H161652   1.892   0.929   6.200
19850WAT     H261653   2.031   0.987   6.189
19851WAT      O61654   2.607   1.215   5.796
19851WAT     H161655   2.687   1.244   5.751
19851WAT     H261656   2.555   1.172   5.728
19852WAT      O61657   3.223   1.200   7.388
19852WAT     H161658   3.319   1.191   7.383
19852WAT     H261659   3.209   1.266   7.456
19853WAT      O61660   3.513   1.138   5.938
19853WAT     H161661   3.484   1.096   5.857
19853WAT     H261662   3.493   1.231   5.926
19854WAT      O61663   1.969   0.465   7.427
19854WAT     H161664   2.019   0.407   7.484
19854WAT     H261665   1.895   0.493   7.481
19855WAT      O61666   2.659   0.737   5.782
19855WAT     H161667   2.649   0.676   5.855
19855WAT     H261668   2.642   0.685   5.704
19856WAT      O61669   2.674   0.606   7.380
19856WAT     H161670   2.598   0.663   7.372
19856WAT     H261671   2.692   0.576   7.291
19857WAT      O61672   2.983   0.643   5.843
19857WAT     H161673   2.928   0.688   5.907
19857WAT     H261674   3.045   0.593   5.895
19858WAT      O61675   3.388   0.779   7.436
19858WAT     H161676   3.463   0.813   7.386
19858WAT     H261677   3.312   0.796   7.381
19859WAT      O61678   2.550   0.539   6.032
19859WAT     H161679   2.592   0.523   6.117
19859WAT     H261680   2.562   0.458   5.983
19860WAT      O61681   2.801   0.442   5.757
19860WAT     H161682   2.853   0.370   5.721
19860WAT     H261683   2.866   0.505   5.787
19861WAT      O61684   3.256   0.584   7.290
19861WAT     H161685   3.297   0.599   7.375
19861WAT     H261686   3.162   0.596   7.306
19862WAT      O61687   3.303   0.318   7.490
19862WAT     H161688   3.361   0.242   7.481
19862WAT     H261689   3.321   0.371   7.412
19863WAT      O61690   2.732   0.579   7.087
19863WAT     H161691   2.774   0.663   7.069
19863WAT     H261692   2.640   0.593   7.064
19864WAT      O61693   2.966   0.352   7.225
19864WAT     H161694   2.978   0.293   7.299
19864WAT     H261695   3.052   0.356   7.183
19865WAT      O61696   3.200   0.408   7.083
19865WAT     H161697   3.147   0.460   7.022
19865WAT     H261698   3.234   0.471   7.146
19866WAT      O61699   2.517   1.210   7.198
19866WAT     H161700   2.463   1.282   7.166
19866WAT     H261701   2.542   1.162   7.119
19867WAT      O61702   2.803   1.333   7.224
19867WAT     H161703   2.795   1.423   7.255
19867WAT     H261704   2.713   1.301   7.221
19868WAT      O61705   2.858   1.250   5.986
19868WAT     H161706   2.947   1.284   5.988
19868WAT     H261707   2.861   1.178   5.924
19869WAT      O61708   2.222   0.787   5.809
19869WAT     H161709   2.265   0.841   5.875
19869WAT     H261710   2.270   0.704   5.810
19870WAT      O61711   1.943   1.066   6.554
19870WAT     H161712   1.976   0.979   6.531
19870WAT     H261713   1.986   1.086   6.637
19871WAT      O61714   2.403   0.899   6.320
19871WAT     H161715   2.373   0.887   6.410
19871WAT     H261716   2.392   0.813   6.280
19872WAT      O61717   1.992   1.153   6.828
19872WAT     H161718   1.948   1.171   6.911
19872WAT     H261719   2.049   1.228   6.814
19873WAT      O61720   3.556   1.103   7.257
19873WAT     H161721   3.496   1.109   7.183
19873WAT     H261722   3.568   1.009   7.270
19874WAT      O61723   3.680   0.877   5.791
19874WAT     H161724   3.596   0.884   5.838
19874WAT     H261725   3.697   0.966   5.760
19875WAT      O61726   3.625   0.551   6.041
19875WAT     H161727   3.701   0.608   6.052
19875WAT     H261728   3.627   0.495   6.118
19876WAT      O61729   1.975   0.404   6.464
19876WAT     H161730   1.910   0.377   6.400
19876WAT     H261731   2.059   0.393   6.419
19877WAT      O61732   3.726   0.637   6.525
19877WAT     H161733   3.763   0.559   6.485
19877WAT     H261734   3.790   0.706   6.508
19878WAT      O61735   3.424   0.775   7.067
19878WAT     H161736   3.343   0.818   7.093
19878WAT     H261737   3.465   0.836   7.005
19879WAT      O61738   3.630   0.581   5.757
19879WAT     H161739   3.658   0.672   5.744
19879WAT     H261740   3.611   0.574   5.850
19880WAT      O61741   3.620   0.374   6.256
19880WAT     H161742   3.582   0.298   6.213
19880WAT     H261743   3.547   0.413   6.305
19881WAT      O61744   2.079   0.442   6.918
19881WAT     H161745   2.116   0.434   7.006
19881WAT     H261746   2.022   0.366   6.908
19882WAT      O61747   3.559   0.289   7.219
19882WAT     H161748   3.536   0.266   7.129
19882WAT     H261749   3.585   0.381   7.215
19883WAT      O61750   3.547   0.197   6.586
19883WAT     H161751   3.600   0.148   6.523
19883WAT     H261752   3.606   0.211   6.661
19884WAT      O61753   3.565   0.205   6.938
19884WAT     H161754   3.470   0.202   6.950
19884WAT     H261755   3.583   0.296   6.915
19885WAT      O61756   3.430   1.250   6.419
19885WAT     H161757   3.489   1.218   6.352
19885WAT     H261758   3.456   1.203   6.499
19886WAT      O61759   2.590   1.049   6.994
19886WAT     H161760   2.566   1.076   6.906
19886WAT     H261761   2.685   1.066   7.000
19887WAT      O61762   3.717   1.251   7.074
19887WAT     H161763   3.667   1.291   7.003
19887WAT     H261764   3.656   1.189   7.114
19888WAT      O61765   2.204   1.188   7.146
19888WAT     H161766   2.145   1.175   7.220
19888WAT     H261767   2.204   1.105   7.100
19889WAT      O61768   3.485   1.315   6.802
19889WAT     H161769   3.439   1.391   6.765
19889WAT     H261770   3.422   1.243   6.796
19890WAT      O61771   2.167   0.925   7.041
19890WAT     H161772   2.095   0.863   7.035
19890WAT     H261773   2.174   0.964   6.954
19891WAT      O61774   2.528   1.146   6.720
19891WAT     H161775   2.580   1.085   6.667
19891WAT     H261776   2.593   1.197   6.769
19892WAT      O61777   2.802   1.235   6.803
19892WAT     H161778   2.831   1.210   6.715
19892WAT     H261779   2.853   1.180   6.862
19893WAT      O61780   1.996   1.257   6.362
19893WAT     H161781   1.979   1.193   6.432
19893WAT     H261782   1.909   1.277   6.327
19894WAT      O61783   2.156   1.126   6.107
19894WAT     H161784   2.104   1.164   6.036
19894WAT     H261785   2.149   1.188   6.179
19895WAT      O61786   3.632   1.282   6.239
19895WAT     H161787   3.650   1.213   6.175
19895WAT     H261788   3.562   1.334   6.200
19896WAT      O61789   2.416   1.321   5.994
19896WAT     H161790   2.489   1.292   5.940
19896WAT     H261791   2.442   1.297   6.083
19897WAT      O61792   2.332   0.932   5.995
19897WAT     H161793   2.270   0.979   6.050
19897WAT     H261794   2.344   0.848   6.038
19898WAT      O61795   3.078   0.337   4.610
19898WAT     H161796   3.070   0.246   4.583
19898WAT     H261797   3.037   0.387   4.539
19899WAT      O61798   2.891   0.515   4.798
19899WAT     H161799   2.814   0.467   4.827
19899WAT     H261800   2.956   0.447   4.780
19900WAT      O61801   2.293   0.546   4.886
19900WAT     H161802   2.210   0.521   4.926
19900WAT     H261803   2.354   0.554   4.959
19901WAT      O61804   3.293   0.956   4.676
19901WAT     H161805   3.247   0.879   4.709
19901WAT     H261806   3.374   0.959   4.726
19902WAT      O61807   2.291   0.950   4.905
19902WAT     H161808   2.321   0.861   4.887
19902WAT     H261809   2.365   1.006   4.882
19903WAT      O61810   1.930   0.303   4.852
19903WAT     H161811   1.987   0.226   4.852
19903WAT     H261812   1.930   0.332   4.762
19904WAT      O61813   2.916   1.184   4.638
19904WAT     H161814   2.854   1.230   4.581
19904WAT     H261815   3.001   1.200   4.598
19905WAT      O61816   2.835   0.783   4.799
19905WAT     H161817   2.828   0.689   4.782
19905WAT     H261818   2.911   0.792   4.856
19906WAT      O61819   3.002   0.673   4.377
19906WAT     H161820   2.941   0.719   4.321
19906WAT     H261821   3.054   0.742   4.419
19907WAT      O61822   2.489   0.626   5.045
19907WAT     H161823   2.455   0.688   5.109
19907WAT     H261824   2.506   0.678   4.967
19908WAT      O61825   2.410   0.822   5.227
19908WAT     H161826   2.472   0.890   5.198
19908WAT     H261827   2.324   0.863   5.217
19909WAT      O61828   1.939   0.741   4.115
19909WAT     H161829   1.902   0.790   4.041
19909WAT     H261830   1.965   0.809   4.178
19910WAT      O61831   3.502   0.969   5.018
19910WAT     H161832   3.433   1.036   5.017
19910WAT     H261833   3.556   0.989   4.942
19911WAT      O61834   3.255   1.153   4.890
19911WAT     H161835   3.257   1.113   4.803
19911WAT     H261836   3.200   1.231   4.879
19912WAT      O61837   3.385   0.825   4.398
19912WAT     H161838   3.374   0.731   4.411
19912WAT     H261839   3.384   0.862   4.487
19913WAT      O61840   3.195   0.644   5.022
19913WAT     H161841   3.237   0.622   4.939
19913WAT     H261842   3.268   0.669   5.079
19914WAT      O61843   2.939   0.388   4.334
19914WAT     H161844   2.846   0.381   4.357
19914WAT     H261845   2.954   0.482   4.323
19915WAT      O61846   3.590   0.483   5.032
19915WAT     H161847   3.507   0.490   4.984
19915WAT     H261848   3.649   0.542   4.985
19916WAT      O61849   3.342   0.544   4.384
19916WAT     H161850   3.280   0.510   4.320
19916WAT     H261851   3.340   0.480   4.455
19917WAT      O61852   2.500   0.441   4.612
19917WAT     H161853   2.459   0.369   4.563
19917WAT     H261854   2.508   0.406   4.701
19918WAT      O61855   2.546   0.809   4.829
19918WAT     H161856   2.517   0.749   4.761
19918WAT     H261857   2.641   0.813   4.818
19919WAT      O61858   3.355   1.167   5.195
19919WAT     H161859   3.308   1.247   5.176
19919WAT     H261860   3.287   1.101   5.210
19920WAT      O61861   2.456   0.783   5.494
19920WAT     H161862   2.366   0.806   5.518
19920WAT     H261863   2.458   0.796   5.399
19921WAT      O61864   3.160   0.468   4.085
19921WAT     H161865   3.204   0.384   4.071
19921WAT     H261866   3.231   0.531   4.094
19922WAT      O61867   2.338   0.470   5.351
19922WAT     H161868   2.324   0.558   5.388
19922WAT     H261869   2.250   0.436   5.337
19923WAT      O61870   2.971   0.962   4.482
19923WAT     H161871   3.015   1.036   4.441
19923WAT     H261872   2.964   0.986   4.574
19924WAT      O61873   2.518   1.065   5.572
19924WAT     H161874   2.515   1.105   5.485
19924WAT     H261875   2.502   0.972   5.556
19925WAT      O61876   2.170   0.330   4.362
19925WAT     H161877   2.158   0.403   4.301
19925WAT     H261878   2.139   0.253   4.315
19926WAT      O61879   3.713   1.143   5.702
19926WAT     H161880   3.761   1.191   5.770
19926WAT     H261881   3.775   1.136   5.629
19927WAT      O61882   1.933   0.647   4.943
19927WAT     H161883   1.941   0.661   4.849
19927WAT     H261884   1.995   0.576   4.962
19928WAT      O61885   2.058   0.817   4.584
19928WAT     H161886   2.017   0.831   4.499
19928WAT     H261887   2.147   0.789   4.564
19929WAT      O61888   3.654   0.862   5.418
19929WAT     H161889   3.666   0.838   5.326
19929WAT     H261890   3.658   0.779   5.465
19930WAT      O61891   3.040   1.232   5.275
19930WAT     H161892   3.091   1.223   5.355
19930WAT     H261893   2.955   1.267   5.304
19931WAT      O61894   3.237   1.261   4.218
19931WAT     H161895   3.221   1.232   4.307
19931WAT     H261896   3.221   1.183   4.164
19932WAT      O61897   2.485   1.239   4.395
19932WAT     H161898   2.468   1.147   4.374
19932WAT     H261899   2.400   1.275   4.419
19933WAT      O61900   3.208   1.012   4.074
19933WAT     H161901   3.138   1.011   4.008
19933WAT     H261902   3.282   0.969   4.031
19934WAT      O61903   3.164   1.174   4.481
19934WAT     H161904   3.210   1.096   4.512
19934WAT     H261905   3.198   1.245   4.535
19935WAT      O61906   1.939   0.751   5.197
19935WAT     H161907   1.955   0.704   5.115
19935WAT     H261908   1.986   0.701   5.263
19936WAT      O61909   3.054   0.223   5.584
19936WAT     H161910   3.087   0.140   5.550
19936WAT     H261911   3.133   0.276   5.599
19937WAT      O61912   2.395   0.177   4.473
19937WAT     H161913   2.373   0.155   4.564
19937WAT     H261914   2.317   0.220   4.439
19938WAT      O61915   3.118   0.177   4.333
19938WAT     H161916   3.058   0.250   4.315
19938WAT     H261917   3.173   0.171   4.255
19939WAT      O61918   2.639   0.267   5.540
19939WAT     H161919   2.630   0.173   5.525
19939WAT     H261920   2.724   0.289   5.500
19940WAT      O61921   3.038   0.300   4.946
19940WAT     H161922   2.964   0.351   4.981
19940WAT     H261923   2.998   0.218   4.916
19941WAT      O61924   2.589   0.299   4.025
19941WAT     H161925   2.532   0.254   3.963
19941WAT     H261926   2.660   0.335   3.972
19942WAT      O61927   2.096   0.689   5.413
19942WAT     H161928   2.058   0.625   5.473
19942WAT     H261929   2.128   0.759   5.470
19943WAT      O61930   2.711   0.374   4.961
19943WAT     H161931   2.748   0.326   5.036
19943WAT     H261932   2.692   0.461   4.995
19944WAT      O61933   2.490   0.278   5.193
19944WAT     H161934   2.460   0.366   5.215
19944WAT     H261935   2.586   0.284   5.196
19945WAT      O61936   2.343   0.698   4.253
19945WAT     H161937   2.266   0.644   4.237
19945WAT     H261938   2.416   0.646   4.219
19946WAT      O61939   3.419   0.598   4.832
19946WAT     H161940   3.491   0.648   4.793
19946WAT     H261941   3.399   0.530   4.767
19947WAT      O61942   2.957   0.605   5.420
19947WAT     H161943   2.951   0.513   5.395
19947WAT     H261944   2.894   0.615   5.492
19948WAT      O61945   2.348   0.665   4.616
19948WAT     H161946   2.399   0.585   4.611
19948WAT     H261947   2.302   0.659   4.700
19949WAT      O61948   2.836   0.792   4.144
19949WAT     H161949   2.870   0.866   4.094
19949WAT     H261950   2.753   0.823   4.180
19950WAT      O61951   2.096   0.362   5.308
19950WAT     H161952   2.060   0.428   5.366
19950WAT     H261953   2.067   0.279   5.345
19951WAT      O61954   2.416   0.408   5.596
19951WAT     H161955   2.386   0.422   5.506
19951WAT     H261956   2.493   0.352   5.587
19952WAT      O61957   2.950   0.887   5.396
19952WAT     H161958   2.952   0.794   5.374
19952WAT     H261959   2.880   0.896   5.459
19953WAT      O61960   3.464   0.306   4.022
19953WAT     H161961   3.455   0.349   3.937
19953WAT     H261962   3.536   0.352   4.066
19954WAT      O61963   3.572   0.551   5.330
19954WAT     H161964   3.499   0.611   5.310
19954WAT     H261965   3.624   0.551   5.250
19955WAT      O61966   3.567   0.991   4.295
19955WAT     H161967   3.502   0.926   4.323
19955WAT     H261968   3.528   1.032   4.218
19956WAT      O61969   3.125   0.724   4.680
19956WAT     H161970   3.160   0.664   4.614
19956WAT     H261971   3.036   0.691   4.697
19957WAT      O61972   2.733   0.800   4.421
19957WAT     H161973   2.802   0.855   4.459
19957WAT     H261974   2.655   0.854   4.424
19958WAT      O61975   1.947   0.362   3.970
19958WAT     H161976   2.034   0.390   3.998
19958WAT     H261977   1.898   0.443   3.958
19959WAT      O61978   2.663   0.500   4.382
19959WAT     H161979   2.709   0.582   4.405
19959WAT     H261980   2.628   0.469   4.465
19960WAT      O61981   2.894   1.052   5.105
19960WAT     H161982   2.958   1.072   5.173
19960WAT     H261983   2.930   0.975   5.060
19961WAT      O61984   3.021   0.852   4.977
19961WAT     H161985   3.085   0.782   4.988
19961WAT     H261986   3.074   0.930   4.959
19962WAT      O61987   3.406   0.880   3.949
19962WAT     H161988   3.383   0.809   4.008
19962WAT     H261989   3.367   0.855   3.865
19963WAT      O61990   3.198   0.932   5.297
19963WAT     H161991   3.232   0.990   5.365
19963WAT     H261992   3.106   0.919   5.320
19964WAT      O61993   1.984   1.283   4.027
19964WAT     H161994   2.020   1.343   3.961
19964WAT     H261995   1.970   1.338   4.104
19965WAT      O61996   3.364   0.672   4.115
19965WAT     H161997   3.335   0.718   4.194
19965WAT     H261998   3.443   0.626   4.142
19966WAT      O61999   1.982   1.110   5.474
19966WAT     H162000   1.993   1.016   5.460
19966WAT     H262001   1.917   1.136   5.409
19967WAT      O62002   2.781   0.937   5.614
19967WAT     H162003   2.749   0.865   5.668
19967WAT     H262004   2.714   1.004   5.621
19968WAT      O62005   2.586   1.021   4.108
19968WAT     H162006   2.585   1.095   4.047
19968WAT     H262007   2.493   0.997   4.118
19969WAT      O62008   2.146   0.543   4.183
19969WAT     H162009   2.085   0.617   4.184
19969WAT     H262010   2.193   0.552   4.100
19970WAT      O62011   2.884   1.028   3.975
19970WAT     H162012   2.894   1.007   3.882
19970WAT     H262013   2.794   1.002   3.995
19971WAT      O62014   2.799   0.225   5.173
19971WAT     H162015   2.849   0.273   5.239
19971WAT     H262016   2.813   0.133   5.193
19972WAT      O62017   2.748   1.279   4.444
19972WAT     H162018   2.774   1.276   4.352
19972WAT     H262019   2.653   1.267   4.443
19973WAT      O62020   3.349   0.371   4.602
19973WAT     H162021   3.255   0.373   4.619
19973WAT     H262022   3.380   0.293   4.646
19974WAT      O62023   2.347   0.540   3.958
19974WAT     H162024   2.423   0.528   4.014
19974WAT     H262025   2.354   0.470   3.892
19975WAT      O62026   2.216   0.283   4.026
19975WAT     H162027   2.224   0.188   4.037
19975WAT     H262028   2.305   0.316   4.037
19976WAT      O62029   3.549   1.088   4.769
19976WAT     H162030   3.562   1.171   4.816
19976WAT     H262031   3.636   1.067   4.734
19977WAT      O62032   2.296   1.298   4.736
19977WAT     H162033   2.370   1.243   4.763
19977WAT     H262034   2.335   1.384   4.722
19978WAT      O62035   1.985   0.905   4.324
19978WAT     H162036   1.892   0.929   4.323
19978WAT     H262037   2.031   0.987   4.312
19979WAT      O62038   2.197   1.216   5.655
19979WAT     H162039   2.277   1.248   5.696
19979WAT     H262040   2.145   1.180   5.727
19980WAT      O62041   2.607   1.215   3.919
19980WAT     H162042   2.687   1.244   3.873
19980WAT     H262043   2.555   1.172   3.851
19981WAT      O62044   3.080   0.827   5.650
19981WAT     H162045   3.020   0.829   5.576
19981WAT     H262046   3.050   0.754   5.704
19982WAT      O62047   3.223   1.200   5.511
19982WAT     H162048   3.319   1.191   5.506
19982WAT     H262049   3.209   1.266   5.578
19983WAT      O62050   3.513   1.138   4.061
19983WAT     H162051   3.484   1.096   3.979
19983WAT     H262052   3.493   1.231   4.049
19984WAT      O62053   1.969   0.465   5.550
19984WAT     H162054   2.019   0.407   5.607
19984WAT     H262055   1.895   0.493   5.603
19985WAT      O62056   2.659   0.737   3.905
19985WAT     H162057   2.649   0.676   3.978
19985WAT     H262058   2.642   0.685   3.827
19986WAT      O62059   2.674   0.606   5.503
19986WAT     H162060   2.598   0.663   5.494
19986WAT     H262061   2.692   0.576   5.414
19987WAT      O62062   2.983   0.643   3.965
19987WAT     H162063   2.928   0.688   4.030
19987WAT     H262064   3.045   0.593   4.018
19988WAT      O62065   3.388   0.779   5.559
19988WAT     H162066   3.463   0.813   5.508
19988WAT     H262067   3.312   0.796   5.503
19989WAT      O62068   2.172   0.279   5.639
19989WAT     H162069   2.176   0.249   5.730
19989WAT     H262070   2.257   0.319   5.623
19990WAT      O62071   2.550   0.539   4.155
19990WAT     H162072   2.592   0.523   4.239
19990WAT     H262073   2.562   0.458   4.106
19991WAT      O62074   2.801   0.442   3.880
19991WAT     H162075   2.853   0.370   3.843
19991WAT     H262076   2.866   0.505   3.910
19992WAT      O62077   3.256   0.584   5.412
19992WAT     H162078   3.297   0.599   5.497
19992WAT     H262079   3.162   0.596   5.428
19993WAT      O62080   3.303   0.318   5.613
19993WAT     H162081   3.361   0.242   5.604
19993WAT     H262082   3.321   0.371   5.535
19994WAT      O62083   2.732   0.579   5.209
19994WAT     H162084   2.774   0.663   5.192
19994WAT     H262085   2.640   0.593   5.186
19995WAT      O62086   2.966   0.352   5.348
19995WAT     H162087   2.978   0.293   5.421
19995WAT     H262088   3.052   0.356   5.306
19996WAT      O62089   3.200   0.408   5.205
19996WAT     H162090   3.147   0.460   5.145
19996WAT     H262091   3.234   0.471   5.268
19997WAT      O62092   2.517   1.210   5.321
19997WAT     H162093   2.463   1.282   5.289
19997WAT     H262094   2.542   1.162   5.242
19998WAT      O62095   2.803   1.333   5.347
19998WAT     H162096   2.795   1.423   5.377
19998WAT     H262097   2.713   1.301   5.344
19999WAT      O62098   2.858   1.250   4.109
19999WAT     H162099   2.947   1.284   4.111
19999WAT     H262100   2.861   1.178   4.046
20000WAT      O62101   2.222   0.787   3.932
20000WAT     H162102   2.265   0.841   3.997
20000WAT     H262103   2.270   0.704   3.933
20001WAT      O62104   1.943   1.066   4.677
20001WAT     H162105   1.976   0.979   4.654
20001WAT     H262106   1.986   1.086   4.760
20002WAT      O62107   2.403   0.899   4.443
20002WAT     H162108   2.373   0.887   4.533
20002WAT     H262109   2.392   0.813   4.402
20003WAT      O62110   1.992   1.153   4.951
20003WAT     H162111   1.948   1.171   5.034
20003WAT     H262112   2.049   1.228   4.937
20004WAT      O62113   3.556   1.103   5.379
20004WAT     H162114   3.496   1.109   5.305
20004WAT     H262115   3.568   1.009   5.392
20005WAT      O62116   3.680   0.877   3.913
20005WAT     H162117   3.596   0.884   3.960
20005WAT     H262118   3.697   0.966   3.883
20006WAT      O62119   3.625   0.551   4.164
20006WAT     H162120   3.701   0.608   4.174
20006WAT     H262121   3.627   0.495   4.241
20007WAT      O62122   1.975   0.404   4.587
20007WAT     H162123   1.910   0.377   4.522
20007WAT     H262124   2.059   0.393   4.542
20008WAT      O62125   3.726   0.637   4.648
20008WAT     H162126   3.763   0.559   4.607
20008WAT     H262127   3.790   0.706   4.630
20009WAT      O62128   3.424   0.775   5.189
20009WAT     H162129   3.343   0.818   5.216
20009WAT     H262130   3.465   0.836   5.128
20010WAT      O62131   3.630   0.581   3.879
20010WAT     H162132   3.658   0.672   3.866
20010WAT     H262133   3.611   0.574   3.973
20011WAT      O62134   3.620   0.374   4.379
20011WAT     H162135   3.582   0.298   4.335
20011WAT     H262136   3.547   0.413   4.427
20012WAT      O62137   2.079   0.442   5.041
20012WAT     H162138   2.116   0.434   5.129
20012WAT     H262139   2.022   0.366   5.031
20013WAT      O62140   3.559   0.289   5.342
20013WAT     H162141   3.536   0.266   5.252
20013WAT     H262142   3.585   0.381   5.337
20014WAT      O62143   3.547   0.197   4.709
20014WAT     H162144   3.600   0.148   4.646
20014WAT     H262145   3.606   0.211   4.783
20015WAT      O62146   3.565   0.205   5.061
20015WAT     H162147   3.470   0.202   5.072
20015WAT     H262148   3.583   0.296   5.037
20016WAT      O62149   3.430   1.250   4.542
20016WAT     H162150   3.489   1.218   4.474
20016WAT     H262151   3.456   1.203   4.621
20017WAT      O62152   2.220   0.894   5.557
20017WAT     H162153   2.216   0.857   5.645
20017WAT     H262154   2.234   0.987   5.571
20018WAT      O62155   2.590   1.049   5.117
20018WAT     H162156   2.566   1.076   5.028
20018WAT     H262157   2.685   1.066   5.122
20019WAT      O62158   3.717   1.251   5.197
20019WAT     H162159   3.667   1.291   5.125
20019WAT     H262160   3.656   1.189   5.236
20020WAT      O62161   2.204   1.188   5.269
20020WAT     H162162   2.145   1.175   5.343
20020WAT     H262163   2.204   1.105   5.222
20021WAT      O62164   3.485   1.315   4.925
20021WAT     H162165   3.439   1.391   4.887
20021WAT     H262166   3.422   1.243   4.919
20022WAT      O62167   2.167   0.925   5.164
20022WAT     H162168   2.095   0.863   5.157
20022WAT     H262169   2.174   0.964   5.077
20023WAT      O62170   2.528   1.146   4.842
20023WAT     H162171   2.580   1.085   4.790
20023WAT     H262172   2.593   1.197   4.892
20024WAT      O62173   2.802   1.235   4.925
20024WAT     H162174   2.831   1.210   4.837
20024WAT     H262175   2.853   1.180   4.984
20025WAT      O62176   1.996   1.257   4.485
20025WAT     H162177   1.979   1.193   4.555
20025WAT     H262178   1.909   1.277   4.450
20026WAT      O62179   2.156   1.126   4.229
20026WAT     H162180   2.104   1.164   4.159
20026WAT     H262181   2.149   1.188   4.301
20027WAT      O62182   2.809   1.328   5.662
20027WAT     H162183   2.901   1.304   5.666
20027WAT     H262184   2.807   1.410   5.614
20028WAT      O62185   3.632   1.282   4.362
20028WAT     H162186   3.650   1.213   4.297
20028WAT     H262187   3.562   1.334   4.322
20029WAT      O62188   2.416   1.321   4.117
20029WAT     H162189   2.489   1.292   4.062
20029WAT     H262190   2.442   1.297   4.206
20030WAT      O62191   2.332   0.932   4.117
20030WAT     H162192   2.270   0.979   4.172
20030WAT     H262193   2.344   0.848   4.161
20031WAT      O62194   3.465   1.250   5.644
20031WAT     H162195   3.545   1.201   5.623
20031WAT     H262196   3.495   1.318   5.705
20032WAT      O62197   3.078   0.337   2.732
20032WAT     H162198   3.070   0.246   2.705
20032WAT     H262199   3.037   0.387   2.662
20033WAT      O62200   2.891   0.515   2.920
20033WAT     H162201   2.814   0.467   2.949
20033WAT     H262202   2.956   0.447   2.903
20034WAT      O62203   2.293   0.546   3.008
20034WAT     H162204   2.210   0.521   3.048
20034WAT     H262205   2.354   0.554   3.082
20035WAT      O62206   3.293   0.956   2.798
20035WAT     H162207   3.247   0.879   2.831
20035WAT     H262208   3.374   0.959   2.849
20036WAT      O62209   2.291   0.950   3.028
20036WAT     H162210   2.321   0.861   3.010
20036WAT     H262211   2.365   1.006   3.005
20037WAT      O62212   1.930   0.303   2.975
20037WAT     H162213   1.987   0.226   2.975
20037WAT     H262214   1.930   0.332   2.884
20038WAT      O62215   2.916   1.184   2.760
20038WAT     H162216   2.854   1.230   2.703
20038WAT     H262217   3.001   1.200   2.720
20039WAT      O62218   2.835   0.783   2.921
20039WAT     H162219   2.828   0.689   2.905
20039WAT     H262220   2.911   0.792   2.978
20040WAT      O62221   3.002   0.673   2.500
20040WAT     H162222   2.941   0.719   2.443
20040WAT     H262223   3.054   0.742   2.541
20041WAT      O62224   2.489   0.626   3.168
20041WAT     H162225   2.455   0.688   3.232
20041WAT     H262226   2.506   0.678   3.090
20042WAT      O62227   2.410   0.822   3.349
20042WAT     H162228   2.472   0.890   3.321
20042WAT     H262229   2.324   0.863   3.340
20043WAT      O62230   1.939   0.741   2.237
20043WAT     H162231   1.902   0.790   2.164
20043WAT     H262232   1.965   0.809   2.300
20044WAT      O62233   3.502   0.969   3.141
20044WAT     H162234   3.433   1.036   3.140
20044WAT     H262235   3.556   0.989   3.064
20045WAT      O62236   3.255   1.153   3.012
20045WAT     H162237   3.257   1.113   2.925
20045WAT     H262238   3.200   1.231   3.002
20046WAT      O62239   3.385   0.825   2.521
20046WAT     H162240   3.374   0.731   2.534
20046WAT     H262241   3.384   0.862   2.610
20047WAT      O62242   3.195   0.644   3.145
20047WAT     H162243   3.237   0.622   3.061
20047WAT     H262244   3.268   0.669   3.202
20048WAT      O62245   2.939   0.388   2.457
20048WAT     H162246   2.846   0.381   2.480
20048WAT     H262247   2.954   0.482   2.445
20049WAT      O62248   3.590   0.483   3.154
20049WAT     H162249   3.507   0.490   3.107
20049WAT     H262250   3.649   0.542   3.107
20050WAT      O62251   3.342   0.544   2.507
20050WAT     H162252   3.280   0.510   2.442
20050WAT     H262253   3.340   0.480   2.578
20051WAT      O62254   2.500   0.441   2.735
20051WAT     H162255   2.459   0.369   2.685
20051WAT     H262256   2.508   0.406   2.824
20052WAT      O62257   2.546   0.809   2.951
20052WAT     H162258   2.517   0.749   2.883
20052WAT     H262259   2.641   0.813   2.940
20053WAT      O62260   3.355   1.167   3.317
20053WAT     H162261   3.308   1.247   3.298
20053WAT     H262262   3.287   1.101   3.333
20054WAT      O62263   2.456   0.783   3.616
20054WAT     H162264   2.366   0.806   3.641
20054WAT     H262265   2.458   0.796   3.521
20055WAT      O62266   3.160   0.468   2.208
20055WAT     H162267   3.204   0.384   2.193
20055WAT     H262268   3.231   0.531   2.216
20056WAT      O62269   2.338   0.470   3.474
20056WAT     H162270   2.324   0.558   3.511
20056WAT     H262271   2.250   0.436   3.459
20057WAT      O62272   2.971   0.962   2.605
20057WAT     H162273   3.015   1.036   2.563
20057WAT     H262274   2.964   0.986   2.697
20058WAT      O62275   2.518   1.065   3.695
20058WAT     H162276   2.515   1.105   3.608
20058WAT     H262277   2.502   0.972   3.678
20059WAT      O62278   2.170   0.330   2.485
20059WAT     H162279   2.158   0.403   2.424
20059WAT     H262280   2.139   0.253   2.437
20060WAT      O62281   3.713   1.143   3.824
20060WAT     H162282   3.761   1.191   3.892
20060WAT     H262283   3.775   1.136   3.752
20061WAT      O62284   1.933   0.647   3.066
20061WAT     H162285   1.941   0.661   2.971
20061WAT     H262286   1.995   0.576   3.085
20062WAT      O62287   2.058   0.817   2.707
20062WAT     H162288   2.017   0.831   2.621
20062WAT     H262289   2.147   0.789   2.686
20063WAT      O62290   3.654   0.862   3.540
20063WAT     H162291   3.666   0.838   3.449
20063WAT     H262292   3.658   0.779   3.588
20064WAT      O62293   3.040   1.232   3.397
20064WAT     H162294   3.091   1.223   3.478
20064WAT     H262295   2.955   1.267   3.427
20065WAT      O62296   3.237   1.261   2.340
20065WAT     H162297   3.221   1.232   2.430
20065WAT     H262298   3.221   1.183   2.287
20066WAT      O62299   2.485   1.239   2.518
20066WAT     H162300   2.468   1.147   2.497
20066WAT     H262301   2.400   1.275   2.542
20067WAT      O62302   3.208   1.012   2.196
20067WAT     H162303   3.138   1.011   2.130
20067WAT     H262304   3.282   0.969   2.153
20068WAT      O62305   3.164   1.174   2.604
20068WAT     H162306   3.210   1.096   2.635
20068WAT     H262307   3.198   1.245   2.658
20069WAT      O62308   1.939   0.751   3.320
20069WAT     H162309   1.955   0.704   3.238
20069WAT     H262310   1.986   0.701   3.386
20070WAT      O62311   3.054   0.223   3.706
20070WAT     H162312   3.087   0.140   3.672
20070WAT     H262313   3.133   0.276   3.721
20071WAT      O62314   2.395   0.177   2.596
20071WAT     H162315   2.373   0.155   2.686
20071WAT     H262316   2.317   0.220   2.561
20072WAT      O62317   3.118   0.177   2.456
20072WAT     H162318   3.058   0.250   2.437
20072WAT     H262319   3.173   0.171   2.378
20073WAT      O62320   2.639   0.267   3.663
20073WAT     H162321   2.630   0.173   3.648
20073WAT     H262322   2.724   0.289   3.623
20074WAT      O62323   3.038   0.300   3.068
20074WAT     H162324   2.964   0.351   3.103
20074WAT     H262325   2.998   0.218   3.038
20075WAT      O62326   2.589   0.299   2.148
20075WAT     H162327   2.532   0.254   2.085
20075WAT     H262328   2.660   0.335   2.094
20076WAT      O62329   2.096   0.689   3.535
20076WAT     H162330   2.058   0.625   3.595
20076WAT     H262331   2.128   0.759   3.592
20077WAT      O62332   2.711   0.374   3.084
20077WAT     H162333   2.748   0.326   3.158
20077WAT     H262334   2.692   0.461   3.118
20078WAT      O62335   2.490   0.278   3.315
20078WAT     H162336   2.460   0.366   3.338
20078WAT     H262337   2.586   0.284   3.319
20079WAT      O62338   2.343   0.698   2.375
20079WAT     H162339   2.266   0.644   2.359
20079WAT     H262340   2.416   0.646   2.341
20080WAT      O62341   3.419   0.598   2.954
20080WAT     H162342   3.491   0.648   2.915
20080WAT     H262343   3.399   0.530   2.890
20081WAT      O62344   2.957   0.605   3.543
20081WAT     H162345   2.951   0.513   3.518
20081WAT     H262346   2.894   0.615   3.614
20082WAT      O62347   2.348   0.665   2.739
20082WAT     H162348   2.399   0.585   2.733
20082WAT     H262349   2.302   0.659   2.823
20083WAT      O62350   2.836   0.792   2.266
20083WAT     H162351   2.870   0.866   2.217
20083WAT     H262352   2.753   0.823   2.302
20084WAT      O62353   2.096   0.362   3.430
20084WAT     H162354   2.060   0.428   3.489
20084WAT     H262355   2.067   0.279   3.467
20085WAT      O62356   2.416   0.408   3.719
20085WAT     H162357   2.386   0.422   3.629
20085WAT     H262358   2.493   0.352   3.709
20086WAT      O62359   2.950   0.887   3.518
20086WAT     H162360   2.952   0.794   3.496
20086WAT     H262361   2.880   0.896   3.582
20087WAT      O62362   3.464   0.306   2.145
20087WAT     H162363   3.455   0.349   2.060
20087WAT     H262364   3.536   0.352   2.188
20088WAT      O62365   3.572   0.551   3.453
20088WAT     H162366   3.499   0.611   3.433
20088WAT     H262367   3.624   0.551   3.373
20089WAT      O62368   3.567   0.991   2.418
20089WAT     H162369   3.502   0.926   2.445
20089WAT     H262370   3.528   1.032   2.340
20090WAT      O62371   3.125   0.724   2.803
20090WAT     H162372   3.160   0.664   2.737
20090WAT     H262373   3.036   0.691   2.820
20091WAT      O62374   2.733   0.800   2.543
20091WAT     H162375   2.802   0.855   2.581
20091WAT     H262376   2.655   0.854   2.547
20092WAT      O62377   1.947   0.362   2.092
20092WAT     H162378   2.034   0.390   2.121
20092WAT     H262379   1.898   0.443   2.081
20093WAT      O62380   2.663   0.500   2.505
20093WAT     H162381   2.709   0.582   2.527
20093WAT     H262382   2.628   0.469   2.588
20094WAT      O62383   2.894   1.052   3.227
20094WAT     H162384   2.958   1.072   3.295
20094WAT     H262385   2.930   0.975   3.182
20095WAT      O62386   3.021   0.852   3.099
20095WAT     H162387   3.085   0.782   3.111
20095WAT     H262388   3.074   0.930   3.081
20096WAT      O62389   3.406   0.880   2.072
20096WAT     H162390   3.383   0.809   2.131
20096WAT     H262391   3.367   0.855   1.988
20097WAT      O62392   3.198   0.932   3.420
20097WAT     H162393   3.232   0.990   3.487
20097WAT     H262394   3.106   0.919   3.443
20098WAT      O62395   1.984   1.283   2.149
20098WAT     H162396   2.020   1.343   2.084
20098WAT     H262397   1.970   1.338   2.226
20099WAT      O62398   3.364   0.672   2.238
20099WAT     H162399   3.335   0.718   2.317
20099WAT     H262400   3.443   0.626   2.265
20100WAT      O62401   1.982   1.110   3.597
20100WAT     H162402   1.993   1.016   3.582
20100WAT     H262403   1.917   1.136   3.532
20101WAT      O62404   2.781   0.937   3.736
20101WAT     H162405   2.749   0.865   3.791
20101WAT     H262406   2.714   1.004   3.744
20102WAT      O62407   2.586   1.021   2.231
20102WAT     H162408   2.585   1.095   2.169
20102WAT     H262409   2.493   0.997   2.240
20103WAT      O62410   2.146   0.543   2.305
20103WAT     H162411   2.085   0.617   2.306
20103WAT     H262412   2.193   0.552   2.223
20104WAT      O62413   2.884   1.028   2.097
20104WAT     H162414   2.894   1.007   2.004
20104WAT     H262415   2.794   1.002   2.118
20105WAT      O62416   2.799   0.225   3.295
20105WAT     H162417   2.849   0.273   3.362
20105WAT     H262418   2.813   0.133   3.316
20106WAT      O62419   2.748   1.279   2.567
20106WAT     H162420   2.774   1.276   2.474
20106WAT     H262421   2.653   1.267   2.566
20107WAT      O62422   3.349   0.371   2.724
20107WAT     H162423   3.255   0.373   2.742
20107WAT     H262424   3.380   0.293   2.769
20108WAT      O62425   2.347   0.540   2.080
20108WAT     H162426   2.423   0.528   2.136
20108WAT     H262427   2.354   0.470   2.015
20109WAT      O62428   2.216   0.283   2.149
20109WAT     H162429   2.224   0.188   2.160
20109WAT     H262430   2.305   0.316   2.159
20110WAT      O62431   3.549   1.088   2.892
20110WAT     H162432   3.562   1.171   2.939
20110WAT     H262433   3.636   1.067   2.857
20111WAT      O62434   2.296   1.298   2.859
20111WAT     H162435   2.370   1.243   2.886
20111WAT     H262436   2.335   1.384   2.845
20112WAT      O62437   1.985   0.905   2.446
20112WAT     H162438   1.892   0.929   2.445
20112WAT     H262439   2.031   0.987   2.434
20113WAT      O62440   2.197   1.216   3.778
20113WAT     H162441   2.277   1.248   3.819
20113WAT     H262442   2.145   1.180   3.850
20114WAT      O62443   2.607   1.215   2.041
20114WAT     H162444   2.687   1.244   1.996
20114WAT     H262445   2.555   1.172   1.973
20115WAT      O62446   3.080   0.827   3.772
20115WAT     H162447   3.020   0.829   3.698
20115WAT     H262448   3.050   0.754   3.826
20116WAT      O62449   3.223   1.200   3.634
20116WAT     H162450   3.319   1.191   3.629
20116WAT     H262451   3.209   1.266   3.701
20117WAT      O62452   3.513   1.138   2.183
20117WAT     H162453   3.484   1.096   2.102
20117WAT     H262454   3.493   1.231   2.171
20118WAT      O62455   1.969   0.465   3.672
20118WAT     H162456   2.019   0.407   3.729
20118WAT     H262457   1.895   0.493   3.726
20119WAT      O62458   2.659   0.737   2.028
20119WAT     H162459   2.649   0.676   2.100
20119WAT     H262460   2.642   0.685   1.949
20120WAT      O62461   2.674   0.606   3.625
20120WAT     H162462   2.598   0.663   3.617
20120WAT     H262463   2.692   0.576   3.536
20121WAT      O62464   2.983   0.643   2.088
20121WAT     H162465   2.928   0.688   2.152
20121WAT     H262466   3.045   0.593   2.140
20122WAT      O62467   3.388   0.779   3.681
20122WAT     H162468   3.463   0.813   3.631
20122WAT     H262469   3.312   0.796   3.626
20123WAT      O62470   2.172   0.279   3.762
20123WAT     H162471   2.176   0.249   3.852
20123WAT     H262472   2.257   0.319   3.746
20124WAT      O62473   2.550   0.539   2.278
20124WAT     H162474   2.592   0.523   2.362
20124WAT     H262475   2.562   0.458   2.228
20125WAT      O62476   2.801   0.442   2.002
20125WAT     H162477   2.853   0.370   1.966
20125WAT     H262478   2.866   0.505   2.032
20126WAT      O62479   3.256   0.584   3.535
20126WAT     H162480   3.297   0.599   3.620
20126WAT     H262481   3.162   0.596   3.551
20127WAT      O62482   3.303   0.318   3.735
20127WAT     H162483   3.361   0.242   3.726
20127WAT     H262484   3.321   0.371   3.657
20128WAT      O62485   2.732   0.579   3.332
20128WAT     H162486   2.774   0.663   3.314
20128WAT     H262487   2.640   0.593   3.309
20129WAT      O62488   2.966   0.352   3.470
20129WAT     H162489   2.978   0.293   3.544
20129WAT     H262490   3.052   0.356   3.428
20130WAT      O62491   3.200   0.408   3.328
20130WAT     H162492   3.147   0.460   3.267
20130WAT     H262493   3.234   0.471   3.391
20131WAT      O62494   2.517   1.210   3.443
20131WAT     H162495   2.463   1.282   3.411
20131WAT     H262496   2.542   1.162   3.364
20132WAT      O62497   2.803   1.333   3.469
20132WAT     H162498   2.795   1.423   3.500
20132WAT     H262499   2.713   1.301   3.466
20133WAT      O62500   2.858   1.250   2.231
20133WAT     H162501   2.947   1.284   2.234
20133WAT     H262502   2.861   1.178   2.169
20134WAT      O62503   2.222   0.787   2.054
20134WAT     H162504   2.265   0.841   2.120
20134WAT     H262505   2.270   0.704   2.055
20135WAT      O62506   1.943   1.066   2.799
20135WAT     H162507   1.976   0.979   2.776
20135WAT     H262508   1.986   1.086   2.883
20136WAT      O62509   2.403   0.899   2.565
20136WAT     H162510   2.373   0.887   2.656
20136WAT     H262511   2.392   0.813   2.525
20137WAT      O62512   1.992   1.153   3.073
20137WAT     H162513   1.948   1.171   3.157
20137WAT     H262514   2.049   1.228   3.059
20138WAT      O62515   3.556   1.103   3.502
20138WAT     H162516   3.496   1.109   3.428
20138WAT     H262517   3.568   1.009   3.515
20139WAT      O62518   3.680   0.877   2.036
20139WAT     H162519   3.596   0.884   2.083
20139WAT     H262520   3.697   0.966   2.005
20140WAT      O62521   3.625   0.551   2.286
20140WAT     H162522   3.701   0.608   2.297
20140WAT     H262523   3.627   0.495   2.363
20141WAT      O62524   1.975   0.404   2.709
20141WAT     H162525   1.910   0.377   2.645
20141WAT     H262526   2.059   0.393   2.664
20142WAT      O62527   3.726   0.637   2.771
20142WAT     H162528   3.763   0.559   2.730
20142WAT     H262529   3.790   0.706   2.753
20143WAT      O62530   3.424   0.775   3.312
20143WAT     H162531   3.343   0.818   3.338
20143WAT     H262532   3.465   0.836   3.251
20144WAT      O62533   3.630   0.581   2.002
20144WAT     H162534   3.658   0.672   1.989
20144WAT     H262535   3.611   0.574   2.095
20145WAT      O62536   3.620   0.374   2.501
20145WAT     H162537   3.582   0.298   2.458
20145WAT     H262538   3.547   0.413   2.550
20146WAT      O62539   2.079   0.442   3.163
20146WAT     H162540   2.116   0.434   3.251
20146WAT     H262541   2.022   0.366   3.153
20147WAT      O62542   3.559   0.289   3.465
20147WAT     H162543   3.536   0.266   3.374
20147WAT     H262544   3.585   0.381   3.460
20148WAT      O62545   3.547   0.197   2.831
20148WAT     H162546   3.600   0.148   2.768
20148WAT     H262547   3.606   0.211   2.906
20149WAT      O62548   3.565   0.205   3.183
20149WAT     H162549   3.470   0.202   3.195
20149WAT     H262550   3.583   0.296   3.160
20150WAT      O62551   3.430   1.250   2.665
20150WAT     H162552   3.489   1.218   2.597
20150WAT     H262553   3.456   1.203   2.744
20151WAT      O62554   2.220   0.894   3.679
20151WAT     H162555   2.216   0.857   3.768
20151WAT     H262556   2.234   0.987   3.693
20152WAT      O62557   2.590   1.049   3.240
20152WAT     H162558   2.566   1.076   3.151
20152WAT     H262559   2.685   1.066   3.245
20153WAT      O62560   3.717   1.251   3.320
20153WAT     H162561   3.667   1.291   3.248
20153WAT     H262562   3.656   1.189   3.359
20154WAT      O62563   2.204   1.188   3.391
20154WAT     H162564   2.145   1.175   3.465
20154WAT     H262565   2.204   1.105   3.345
20155WAT      O62566   3.485   1.315   3.047
20155WAT     H162567   3.439   1.391   3.010
20155WAT     H262568   3.422   1.243   3.042
20156WAT      O62569   2.167   0.925   3.286
20156WAT     H162570   2.095   0.863   3.280
20156WAT     H262571   2.174   0.964   3.199
20157WAT      O62572   2.528   1.146   2.965
20157WAT     H162573   2.580   1.085   2.912
20157WAT     H262574   2.593   1.197   3.014
20158WAT      O62575   2.802   1.235   3.048
20158WAT     H162576   2.831   1.210   2.960
20158WAT     H262577   2.853   1.180   3.107
20159WAT      O62578   1.996   1.257   2.607
20159WAT     H162579   1.979   1.193   2.677
20159WAT     H262580   1.909   1.277   2.572
20160WAT      O62581   2.156   1.126   2.352
20160WAT     H162582   2.104   1.164   2.282
20160WAT     H262583   2.149   1.188   2.424
20161WAT      O62584   2.809   1.328   3.784
20161WAT     H162585   2.901   1.304   3.789
20161WAT     H262586   2.807   1.410   3.736
20162WAT      O62587   3.632   1.282   2.484
20162WAT     H162588   3.650   1.213   2.420
20162WAT     H262589   3.562   1.334   2.445
20163WAT      O62590   2.416   1.321   2.239
20163WAT     H162591   2.489   1.292   2.185
20163WAT     H262592   2.442   1.297   2.328
20164WAT      O62593   2.332   0.932   2.240
20164WAT     H162594   2.270   0.979   2.295
20164WAT     H262595   2.344   0.848   2.283
20165WAT      O62596   3.465   1.250   3.767
20165WAT     H162597   3.545   1.201   3.746
20165WAT     H262598   3.495   1.318   3.827
20166WAT      O62599   3.078   0.337   0.855
20166WAT     H162600   3.070   0.246   0.828
20166WAT     H262601   3.037   0.387   0.784
20167WAT      O62602   2.891   0.515   1.043
20167WAT     H162603   2.814   0.467   1.072
20167WAT     H262604   2.956   0.447   1.026
20168WAT      O62605   2.293   0.546   1.131
20168WAT     H162606   2.210   0.521   1.171
20168WAT     H262607   2.354   0.554   1.204
20169WAT      O62608   3.293   0.956   0.921
20169WAT     H162609   3.247   0.879   0.954
20169WAT     H262610   3.374   0.959   0.972
20170WAT      O62611   2.291   0.950   1.150
20170WAT     H162612   2.321   0.861   1.132
20170WAT     H262613   2.365   1.006   1.128
20171WAT      O62614   1.930   0.303   1.098
20171WAT     H162615   1.987   0.226   1.098
20171WAT     H262616   1.930   0.332   1.007
20172WAT      O62617   2.916   1.184   0.883
20172WAT     H162618   2.854   1.230   0.826
20172WAT     H262619   3.001   1.200   0.843
20173WAT      O62620   2.835   0.783   1.044
20173WAT     H162621   2.828   0.689   1.028
20173WAT     H262622   2.911   0.792   1.101
20174WAT      O62623   3.002   0.673   0.622
20174WAT     H162624   2.941   0.719   0.566
20174WAT     H262625   3.054   0.742   0.664
20175WAT      O62626   2.489   0.626   1.290
20175WAT     H162627   2.455   0.688   1.354
20175WAT     H262628   2.506   0.678   1.212
20176WAT      O62629   2.410   0.822   1.472
20176WAT     H162630   2.472   0.890   1.444
20176WAT     H262631   2.324   0.863   1.463
20177WAT      O62632   1.939   0.741   0.360
20177WAT     H162633   1.902   0.790   0.287
20177WAT     H262634   1.965   0.809   0.423
20178WAT      O62635   3.502   0.969   1.263
20178WAT     H162636   3.433   1.036   1.262
20178WAT     H262637   3.556   0.989   1.187
20179WAT      O62638   3.255   1.153   1.135
20179WAT     H162639   3.257   1.113   1.048
20179WAT     H262640   3.200   1.231   1.124
20180WAT      O62641   3.385   0.825   0.644
20180WAT     H162642   3.374   0.731   0.656
20180WAT     H262643   3.384   0.862   0.732
20181WAT      O62644   3.195   0.644   1.267
20181WAT     H162645   3.237   0.622   1.184
20181WAT     H262646   3.268   0.669   1.325
20182WAT      O62647   2.939   0.388   0.579
20182WAT     H162648   2.846   0.381   0.602
20182WAT     H262649   2.954   0.482   0.568
20183WAT      O62650   3.590   0.483   1.277
20183WAT     H162651   3.507   0.490   1.229
20183WAT     H262652   3.649   0.542   1.230
20184WAT      O62653   3.342   0.544   0.630
20184WAT     H162654   3.280   0.510   0.565
20184WAT     H262655   3.340   0.480   0.700
20185WAT      O62656   2.500   0.441   0.857
20185WAT     H162657   2.459   0.369   0.808
20185WAT     H262658   2.508   0.406   0.946
20186WAT      O62659   2.546   0.809   1.074
20186WAT     H162660   2.517   0.749   1.006
20186WAT     H262661   2.641   0.813   1.063
20187WAT      O62662   3.355   1.167   1.440
20187WAT     H162663   3.308   1.247   1.421
20187WAT     H262664   3.287   1.101   1.455
20188WAT      O62665   2.456   0.783   1.739
20188WAT     H162666   2.366   0.806   1.764
20188WAT     H262667   2.458   0.796   1.644
20189WAT      O62668   3.160   0.468   0.330
20189WAT     H162669   3.204   0.384   0.316
20189WAT     H262670   3.231   0.531   0.339
20190WAT      O62671   2.338   0.470   1.596
20190WAT     H162672   2.324   0.558   1.633
20190WAT     H262673   2.250   0.436   1.582
20191WAT      O62674   2.971   0.962   0.727
20191WAT     H162675   3.015   1.036   0.686
20191WAT     H262676   2.964   0.986   0.819
20192WAT      O62677   2.518   1.065   1.817
20192WAT     H162678   2.515   1.105   1.731
20192WAT     H262679   2.502   0.972   1.801
20193WAT      O62680   2.170   0.330   0.607
20193WAT     H162681   2.158   0.403   0.546
20193WAT     H262682   2.139   0.253   0.560
20194WAT      O62683   3.713   1.143   1.947
20194WAT     H162684   3.761   1.191   2.015
20194WAT     H262685   3.775   1.136   1.874
20195WAT      O62686   1.933   0.647   1.188
20195WAT     H162687   1.941   0.661   1.094
20195WAT     H262688   1.995   0.576   1.207
20196WAT      O62689   2.058   0.817   0.829
20196WAT     H162690   2.017   0.831   0.744
20196WAT     H262691   2.147   0.789   0.809
20197WAT      O62692   3.654   0.862   1.663
20197WAT     H162693   3.666   0.838   1.571
20197WAT     H262694   3.658   0.779   1.710
20198WAT      O62695   3.040   1.232   1.520
20198WAT     H162696   3.091   1.223   1.600
20198WAT     H262697   2.955   1.267   1.549
20199WAT      O62698   3.237   1.261   0.463
20199WAT     H162699   3.221   1.232   0.553
20199WAT     H262700   3.221   1.183   0.409
20200WAT      O62701   2.485   1.239   0.640
20200WAT     H162702   2.468   1.147   0.619
20200WAT     H262703   2.400   1.275   0.664
20201WAT      O62704   3.208   1.012   0.319
20201WAT     H162705   3.138   1.011   0.253
20201WAT     H262706   3.282   0.969   0.276
20202WAT      O62707   3.164   1.174   0.726
20202WAT     H162708   3.210   1.096   0.758
20202WAT     H262709   3.198   1.245   0.781
20203WAT      O62710   1.939   0.751   1.442
20203WAT     H162711   1.955   0.704   1.360
20203WAT     H262712   1.986   0.701   1.509
20204WAT      O62713   3.054   0.223   1.829
20204WAT     H162714   3.087   0.140   1.795
20204WAT     H262715   3.133   0.276   1.844
20205WAT      O62716   2.395   0.177   0.719
20205WAT     H162717   2.373   0.155   0.809
20205WAT     H262718   2.317   0.220   0.684
20206WAT      O62719   3.118   0.177   0.578
20206WAT     H162720   3.058   0.250   0.560
20206WAT     H262721   3.173   0.171   0.500
20207WAT      O62722   2.639   0.267   1.785
20207WAT     H162723   2.630   0.173   1.770
20207WAT     H262724   2.724   0.289   1.746
20208WAT      O62725   3.038   0.300   1.191
20208WAT     H162726   2.964   0.351   1.226
20208WAT     H262727   2.998   0.218   1.161
20209WAT      O62728   2.589   0.299   0.270
20209WAT     H162729   2.532   0.254   0.208
20209WAT     H262730   2.660   0.335   0.217
20210WAT      O62731   2.096   0.689   1.658
20210WAT     H162732   2.058   0.625   1.718
20210WAT     H262733   2.128   0.759   1.715
20211WAT      O62734   2.711   0.374   1.206
20211WAT     H162735   2.748   0.326   1.281
20211WAT     H262736   2.692   0.461   1.240
20212WAT      O62737   2.490   0.278   1.438
20212WAT     H162738   2.460   0.366   1.460
20212WAT     H262739   2.586   0.284   1.442
20213WAT      O62740   2.343   0.698   0.498
20213WAT     H162741   2.266   0.644   0.482
20213WAT     H262742   2.416   0.646   0.464
20214WAT      O62743   3.419   0.598   1.077
20214WAT     H162744   3.491   0.648   1.038
20214WAT     H262745   3.399   0.530   1.012
20215WAT      O62746   2.957   0.605   1.666
20215WAT     H162747   2.951   0.513   1.640
20215WAT     H262748   2.894   0.615   1.737
20216WAT      O62749   2.348   0.665   0.861
20216WAT     H162750   2.399   0.585   0.856
20216WAT     H262751   2.302   0.659   0.946
20217WAT      O62752   2.836   0.792   0.389
20217WAT     H162753   2.870   0.866   0.339
20217WAT     H262754   2.753   0.823   0.425
20218WAT      O62755   2.096   0.362   1.553
20218WAT     H162756   2.060   0.428   1.611
20218WAT     H262757   2.067   0.279   1.590
20219WAT      O62758   2.416   0.408   1.841
20219WAT     H162759   2.386   0.422   1.751
20219WAT     H262760   2.493   0.352   1.832
20220WAT      O62761   2.950   0.887   1.641
20220WAT     H162762   2.952   0.794   1.619
20220WAT     H262763   2.880   0.896   1.705
20221WAT      O62764   3.464   0.306   0.268
20221WAT     H162765   3.455   0.349   0.183
20221WAT     H262766   3.536   0.352   0.311
20222WAT      O62767   3.572   0.551   1.575
20222WAT     H162768   3.499   0.611   1.556
20222WAT     H262769   3.624   0.551   1.495
20223WAT      O62770   3.567   0.991   0.540
20223WAT     H162771   3.502   0.926   0.568
20223WAT     H262772   3.528   1.032   0.463
20224WAT      O62773   3.125   0.724   0.925
20224WAT     H162774   3.160   0.664   0.859
20224WAT     H262775   3.036   0.691   0.942
20225WAT      O62776   2.733   0.800   0.666
20225WAT     H162777   2.802   0.855   0.704
20225WAT     H262778   2.655   0.854   0.669
20226WAT      O62779   1.947   0.362   0.215
20226WAT     H162780   2.034   0.390   0.243
20226WAT     H262781   1.898   0.443   0.204
20227WAT      O62782   2.663   0.500   0.627
20227WAT     H162783   2.709   0.582   0.650
20227WAT     H262784   2.628   0.469   0.710
20228WAT      O62785   2.894   1.052   1.350
20228WAT     H162786   2.958   1.072   1.418
20228WAT     H262787   2.930   0.975   1.305
20229WAT      O62788   3.021   0.852   1.222
20229WAT     H162789   3.085   0.782   1.233
20229WAT     H262790   3.074   0.930   1.204
20230WAT      O62791   3.198   0.932   1.542
20230WAT     H162792   3.232   0.990   1.610
20230WAT     H262793   3.106   0.919   1.565
20231WAT      O62794   1.984   1.283   0.272
20231WAT     H162795   2.020   1.343   0.206
20231WAT     H262796   1.970   1.338   0.349
20232WAT      O62797   3.364   0.672   0.360
20232WAT     H162798   3.335   0.718   0.439
20232WAT     H262799   3.443   0.626   0.387
20233WAT      O62800   1.982   1.110   1.719
20233WAT     H162801   1.993   1.016   1.705
20233WAT     H262802   1.917   1.136   1.654
20234WAT      O62803   2.781   0.937   1.859
20234WAT     H162804   2.749   0.865   1.914
20234WAT     H262805   2.714   1.004   1.866
20235WAT      O62806   2.586   1.021   0.353
20235WAT     H162807   2.585   1.095   0.292
20235WAT     H262808   2.493   0.997   0.363
20236WAT      O62809   2.146   0.543   0.428
20236WAT     H162810   2.085   0.617   0.429
20236WAT     H262811   2.193   0.552   0.345
20237WAT      O62812   2.799   0.225   1.418
20237WAT     H162813   2.849   0.273   1.484
20237WAT     H262814   2.813   0.133   1.439
20238WAT      O62815   2.748   1.279   0.689
20238WAT     H162816   2.774   1.276   0.597
20238WAT     H262817   2.653   1.267   0.688
20239WAT      O62818   3.349   0.371   0.847
20239WAT     H162819   3.255   0.373   0.864
20239WAT     H262820   3.380   0.293   0.891
20240WAT      O62821   2.216   0.283   0.271
20240WAT     H162822   2.224   0.188   0.282
20240WAT     H262823   2.305   0.316   0.282
20241WAT      O62824   3.549   1.088   1.014
20241WAT     H162825   3.562   1.171   1.061
20241WAT     H262826   3.636   1.067   0.979
20242WAT      O62827   2.296   1.298   0.981
20242WAT     H162828   2.370   1.243   1.009
20242WAT     H262829   2.335   1.384   0.967
20243WAT      O62830   1.985   0.905   0.569
20243WAT     H162831   1.892   0.929   0.568
20243WAT     H262832   2.031   0.987   0.557
20244WAT      O62833   2.197   1.216   1.900
20244WAT     H162834   2.277   1.248   1.942
20244WAT     H262835   2.145   1.180   1.972
20245WAT      O62836   3.080   0.827   1.895
20245WAT     H162837   3.020   0.829   1.821
20245WAT     H262838   3.050   0.754   1.949
20246WAT      O62839   3.223   1.200   1.756
20246WAT     H162840   3.319   1.191   1.751
20246WAT     H262841   3.209   1.266   1.823
20247WAT      O62842   3.513   1.138   0.306
20247WAT     H162843   3.484   1.096   0.225
20247WAT     H262844   3.493   1.231   0.294
20248WAT      O62845   1.969   0.465   1.795
20248WAT     H162846   2.019   0.407   1.852
20248WAT     H262847   1.895   0.493   1.848
20249WAT      O62848   2.674   0.606   1.748
20249WAT     H162849   2.598   0.663   1.740
20249WAT     H262850   2.692   0.576   1.659
20250WAT      O62851   2.983   0.643   0.211
20250WAT     H162852   2.928   0.688   0.275
20250WAT     H262853   3.045   0.593   0.263
20251WAT      O62854   3.388   0.779   1.804
20251WAT     H162855   3.463   0.813   1.753
20251WAT     H262856   3.312   0.796   1.748
20252WAT      O62857   2.172   0.279   1.884
20252WAT     H162858   2.176   0.249   1.975
20252WAT     H262859   2.257   0.319   1.868
20253WAT      O62860   2.550   0.539   0.400
20253WAT     H162861   2.592   0.523   0.484
20253WAT     H262862   2.562   0.458   0.351
20254WAT      O62863   3.256   0.584   1.657
20254WAT     H162864   3.297   0.599   1.742
20254WAT     H262865   3.162   0.596   1.674
20255WAT      O62866   3.303   0.318   1.858
20255WAT     H162867   3.361   0.242   1.849
20255WAT     H262868   3.321   0.371   1.780
20256WAT      O62869   2.732   0.579   1.454
20256WAT     H162870   2.774   0.663   1.437
20256WAT     H262871   2.640   0.593   1.431
20257WAT      O62872   2.966   0.352   1.593
20257WAT     H162873   2.978   0.293   1.667
20257WAT     H262874   3.052   0.356   1.551
20258WAT      O62875   3.200   0.408   1.450
20258WAT     H162876   3.147   0.460   1.390
20258WAT     H262877   3.234   0.471   1.513
20259WAT      O62878   2.517   1.210   1.566
20259WAT     H162879   2.463   1.282   1.534
20259WAT     H262880   2.542   1.162   1.487
20260WAT      O62881   2.803   1.333   1.592
20260WAT     H162882   2.795   1.423   1.622
20260WAT     H262883   2.713   1.301   1.589
20261WAT      O62884   2.858   1.250   0.354
20261WAT     H162885   2.947   1.284   0.356
20261WAT     H262886   2.861   1.178   0.291
20262WAT      O62887   2.222   0.787   0.177
20262WAT     H162888   2.265   0.841   0.242
20262WAT     H262889   2.270   0.704   0.178
20263WAT      O62890   1.943   1.066   0.922
20263WAT     H162891   1.976   0.979   0.899
20263WAT     H262892   1.986   1.086   1.005
20264WAT      O62893   2.403   0.899   0.688
20264WAT     H162894   2.373   0.887   0.778
20264WAT     H262895   2.392   0.813   0.647
20265WAT      O62896   1.992   1.153   1.196
20265WAT     H162897   1.948   1.171   1.279
20265WAT     H262898   2.049   1.228   1.182
20266WAT      O62899   3.556   1.103   1.625
20266WAT     H162900   3.496   1.109   1.550
20266WAT     H262901   3.568   1.009   1.638
20267WAT      O62902   3.625   0.551   0.409
20267WAT     H162903   3.701   0.608   0.419
20267WAT     H262904   3.627   0.495   0.486
20268WAT      O62905   1.975   0.404   0.832
20268WAT     H162906   1.910   0.377   0.767
20268WAT     H262907   2.059   0.393   0.787
20269WAT      O62908   3.726   0.637   0.893
20269WAT     H162909   3.763   0.559   0.852
20269WAT     H262910   3.790   0.706   0.875
20270WAT      O62911   3.424   0.775   1.434
20270WAT     H162912   3.343   0.818   1.461
20270WAT     H262913   3.465   0.836   1.373
20271WAT      O62914   3.620   0.374   0.624
20271WAT     H162915   3.582   0.298   0.580
20271WAT     H262916   3.547   0.413   0.672
20272WAT      O62917   2.079   0.442   1.286
20272WAT     H162918   2.116   0.434   1.374
20272WAT     H262919   2.022   0.366   1.276
20273WAT      O62920   3.559   0.289   1.587
20273WAT     H162921   3.536   0.266   1.497
20273WAT     H262922   3.585   0.381   1.583
20274WAT      O62923   3.547   0.197   0.954
20274WAT     H162924   3.600   0.148   0.891
20274WAT     H262925   3.606   0.211   1.028
20275WAT      O62926   3.565   0.205   1.306
20275WAT     H162927   3.470   0.202   1.317
20275WAT     H262928   3.583   0.296   1.282
20276WAT      O62929   3.430   1.250   0.787
20276WAT     H162930   3.489   1.218   0.719
20276WAT     H262931   3.456   1.203   0.866
20277WAT      O62932   2.220   0.894   1.802
20277WAT     H162933   2.216   0.857   1.890
20277WAT     H262934   2.234   0.987   1.816
20278WAT      O62935   2.590   1.049   1.362
20278WAT     H162936   2.566   1.076   1.273
20278WAT     H262937   2.685   1.066   1.368
20279WAT      O62938   3.717   1.251   1.442
20279WAT     H162939   3.667   1.291   1.370
20279WAT     H262940   3.656   1.189   1.482
20280WAT      O62941   2.204   1.188   1.514
20280WAT     H162942   2.145   1.175   1.588
20280WAT     H262943   2.204   1.105   1.467
20281WAT      O62944   3.485   1.315   1.170
20281WAT     H162945   3.439   1.391   1.133
20281WAT     H262946   3.422   1.243   1.164
20282WAT      O62947   2.167   0.925   1.409
20282WAT     H162948   2.095   0.863   1.402
20282WAT     H262949   2.174   0.964   1.322
20283WAT      O62950   2.528   1.146   1.088
20283WAT     H162951   2.580   1.085   1.035
20283WAT     H262952   2.593   1.197   1.137
20284WAT      O62953   2.802   1.235   1.170
20284WAT     H162954   2.831   1.210   1.083
20284WAT     H262955   2.853   1.180   1.229
20285WAT      O62956   1.996   1.257   0.730
20285WAT     H162957   1.979   1.193   0.800
20285WAT     H262958   1.909   1.277   0.695
20286WAT      O62959   2.156   1.126   0.474
20286WAT     H162960   2.104   1.164   0.404
20286WAT     H262961   2.149   1.188   0.547
20287WAT      O62962   2.809   1.328   1.907
20287WAT     H162963   2.901   1.304   1.911
20287WAT     H262964   2.807   1.410   1.859
20288WAT      O62965   3.632   1.282   0.607
20288WAT     H162966   3.650   1.213   0.542
20288WAT     H262967   3.562   1.334   0.567
20289WAT      O62968   2.416   1.321   0.362
20289WAT     H162969   2.489   1.292   0.307
20289WAT     H262970   2.442   1.297   0.451
20290WAT      O62971   2.332   0.932   0.362
20290WAT     H162972   2.270   0.979   0.417
20290WAT     H262973   2.344   0.848   0.406
20291WAT      O62974   3.465   1.250   1.889
20291WAT     H162975   3.545   1.201   1.869
20291WAT     H262976   3.495   1.318   1.950
20292WAT      O62977   1.200   9.725   6.487
20292WAT     H162978   1.192   9.633   6.460
20292WAT     H262979   1.159   9.774   6.417
20293WAT      O62980   1.014   9.902   6.675
20293WAT     H162981   0.936   9.854   6.704
20293WAT     H262982   1.079   9.834   6.658
20294WAT      O62983   0.415   9.934   6.763
20294WAT     H162984   0.332   9.908   6.803
20294WAT     H262985   0.476   9.941   6.837
20295WAT      O62986   0.256   9.430   6.141
20295WAT     H162987   0.167   9.464   6.131
20295WAT     H262988   0.285   9.410   6.052
20296WAT      O62989   0.177   9.231   6.909
20296WAT     H162990   0.159   9.141   6.937
20296WAT     H262991   0.137   9.285   6.976
20297WAT      O62992   1.061   9.451   6.699
20297WAT     H162993   1.098   9.363   6.687
20297WAT     H262994   1.051   9.484   6.610
20298WAT      O62995   0.474   9.288   6.245
20298WAT     H162996   0.485   9.378   6.276
20298WAT     H262997   0.383   9.283   6.216
20299WAT      O62998   1.439   9.200   6.392
20299WAT     H162999   1.521   9.151   6.396
20299WAT     H263000   1.442   9.259   6.467
20300WAT      O63001   0.239   9.480   6.769
20300WAT     H163002   0.307   9.507   6.831
20300WAT     H263003   0.207   9.396   6.803
20301WAT      O63004   0.658   9.585   6.678
20301WAT     H163005   0.709   9.635   6.742
20301WAT     H263006   0.711   9.507   6.661
20302WAT      O63007   1.868   9.402   7.048
20302WAT     H163008   1.798   9.441   6.997
20302WAT     H263009   1.895   9.471   7.109
20303WAT      O63010   0.486   9.049   7.105
20303WAT     H163011   0.486   9.101   7.024
20303WAT     H263012   0.403   9.001   7.102
20304WAT      O63013   0.611  10.013   6.922
20304WAT     H163014   0.578  10.075   6.987
20304WAT     H263015   0.629  10.065   6.845
20305WAT      O63016   1.463   9.394   6.669
20305WAT     H163017   1.392   9.423   6.727
20305WAT     H263018   1.499   9.475   6.633
20306WAT      O63019   0.454   9.220   6.905
20306WAT     H163020   0.489   9.304   6.876
20306WAT     H263021   0.361   9.235   6.917
20307WAT      O63022   1.770   9.339   6.708
20307WAT     H163023   1.675   9.342   6.721
20307WAT     H263024   1.802   9.420   6.747
20308WAT      O63025   0.823   8.969   6.538
20308WAT     H163026   0.853   8.913   6.466
20308WAT     H263027   0.730   8.982   6.520
20309WAT      O63028   1.318  10.031   6.900
20309WAT     H163029   1.359  10.009   6.816
20309WAT     H263030   1.390  10.056   6.957
20310WAT      O63031   1.062   9.775   6.212
20310WAT     H163032   0.969   9.769   6.234
20310WAT     H263033   1.077   9.869   6.200
20311WAT      O63034   1.060   9.402   5.911
20311WAT     H163035   0.966   9.419   5.920
20311WAT     H263036   1.092   9.474   5.857
20312WAT      O63037   1.712   9.871   6.909
20312WAT     H163038   1.630   9.878   6.861
20312WAT     H263039   1.772   9.929   6.862
20313WAT      O63040   1.465   9.931   6.262
20313WAT     H163041   1.403   9.898   6.197
20313WAT     H263042   1.463   9.867   6.333
20314WAT      O63043   1.409   9.549   7.004
20314WAT     H163044   1.367   9.632   7.029
20314WAT     H263045   1.336   9.491   6.984
20315WAT      O63046   0.622   9.828   6.490
20315WAT     H163047   0.582   9.757   6.440
20315WAT     H263048   0.631   9.793   6.579
20316WAT      O63049   0.493   9.505   6.868
20316WAT     H163050   0.549   9.516   6.790
20316WAT     H263051   0.545   9.543   6.939
20317WAT      O63052   1.282   9.855   5.963
20317WAT     H163053   1.326   9.772   5.948
20317WAT     H263054   1.353   9.919   5.971
20318WAT      O63055   0.461   9.857   7.229
20318WAT     H163056   0.447   9.945   7.266
20318WAT     H263057   0.373   9.823   7.214
20319WAT      O63058   1.640   8.981   5.794
20319WAT     H163059   1.609   8.990   5.884
20319WAT     H263060   1.716   9.039   5.789
20320WAT      O63061   0.292   9.717   6.240
20320WAT     H163062   0.280   9.790   6.179
20320WAT     H263063   0.261   9.640   6.192
20321WAT      O63064   1.761   9.454   7.392
20321WAT     H163065   1.700   9.505   7.339
20321WAT     H263066   1.729   9.364   7.386
20322WAT      O63067   0.539   9.052   6.578
20322WAT     H163068   0.494   9.130   6.545
20322WAT     H263069   0.595   9.084   6.649
20323WAT      O63070   0.967   9.338   7.138
20323WAT     H163071   0.921   9.359   7.220
20323WAT     H263072   0.927   9.257   7.108
20324WAT      O63073   1.468   9.460   7.251
20324WAT     H163074   1.382   9.431   7.283
20324WAT     H263075   1.452   9.485   7.160
20325WAT      O63076   1.177   9.610   7.461
20325WAT     H163077   1.210   9.527   7.427
20325WAT     H263078   1.256   9.663   7.476
20326WAT      O63079   0.850   9.014   6.066
20326WAT     H163080   0.788   9.013   6.139
20326WAT     H263081   0.842   8.927   6.026
20327WAT      O63082   0.743   9.106   6.764
20327WAT     H163083   0.772   9.197   6.756
20327WAT     H263084   0.797   9.057   6.702
20328WAT      O63085   0.518   9.564   6.351
20328WAT     H163086   0.495   9.542   6.441
20328WAT     H263087   0.440   9.607   6.316
20329WAT      O63088   1.241   9.565   6.211
20329WAT     H163089   1.181   9.637   6.192
20329WAT     H263090   1.296   9.558   6.132
20330WAT      O63091   0.762   9.654   7.417
20330WAT     H163092   0.752   9.560   7.402
20330WAT     H263093   0.846   9.676   7.378
20331WAT      O63094   1.102   9.428   6.414
20331WAT     H163095   1.141   9.460   6.332
20331WAT     H263096   1.138   9.340   6.425
20332WAT      O63097   0.275   9.295   7.233
20332WAT     H163098   0.236   9.380   7.253
20332WAT     H263099   0.206   9.231   7.252
20333WAT      O63100   1.160   9.687   6.823
20333WAT     H163101   1.087   9.738   6.858
20333WAT     H263102   1.120   9.606   6.793
20334WAT      O63103   0.804   9.355   6.664
20334WAT     H163104   0.804   9.311   6.579
20334WAT     H263105   0.893   9.387   6.675
20335WAT      O63106   0.389   9.343   6.560
20335WAT     H163107   0.355   9.391   6.635
20335WAT     H263108   0.313   9.298   6.524
20336WAT      O63109   0.810   9.455   5.963
20336WAT     H163110   0.822   9.451   6.058
20336WAT     H263111   0.772   9.541   5.947
20337WAT      O63112   1.206   9.233   6.764
20337WAT     H163113   1.208   9.278   6.849
20337WAT     H263114   1.182   9.143   6.786
20338WAT      O63115   0.711   9.686   5.903
20338WAT     H163116   0.654   9.641   5.840
20338WAT     H263117   0.782   9.722   5.849
20339WAT      O63118   1.549   8.974   7.348
20339WAT     H163119   1.582   8.901   7.401
20339WAT     H263120   1.553   8.942   7.258
20340WAT      O63121   0.834   9.761   6.838
20340WAT     H163122   0.871   9.713   6.913
20340WAT     H263123   0.815   9.848   6.873
20341WAT      O63124   0.613   9.665   7.070
20341WAT     H163125   0.583   9.753   7.093
20341WAT     H263126   0.708   9.671   7.074
20342WAT      O63127   0.466  10.086   6.130
20342WAT     H163128   0.388  10.032   6.114
20342WAT     H263129   0.539  10.034   6.096
20343WAT      O63130   1.542   9.985   6.709
20343WAT     H163131   1.614  10.035   6.670
20343WAT     H263132   1.521   9.917   6.645
20344WAT      O63133   1.088   9.125   6.124
20344WAT     H163134   1.006   9.075   6.116
20344WAT     H263135   1.068   9.209   6.082
20345WAT      O63136   1.080   9.992   7.298
20345WAT     H163137   1.073   9.900   7.272
20345WAT     H263138   1.017  10.002   7.369
20346WAT      O63139   1.359   9.562   5.953
20346WAT     H163140   1.448   9.593   5.936
20346WAT     H263141   1.356   9.475   5.914
20347WAT      O63142   0.470  10.052   6.494
20347WAT     H163143   0.522   9.972   6.488
20347WAT     H263144   0.425  10.046   6.578
20348WAT      O63145   0.219   9.749   7.185
20348WAT     H163146   0.183   9.816   7.244
20348WAT     H263147   0.189   9.666   7.222
20349WAT      O63148   0.539   9.795   7.473
20349WAT     H163149   0.509   9.809   7.384
20349WAT     H263150   0.616   9.739   7.464
20350WAT      O63151   1.586   9.693   5.900
20350WAT     H163152   1.578   9.736   5.815
20350WAT     H263153   1.658   9.739   5.943
20351WAT      O63154   1.694   9.939   7.208
20351WAT     H163155   1.622   9.998   7.188
20351WAT     H263156   1.747   9.938   7.128
20352WAT      O63157   0.786   9.888   6.259
20352WAT     H163158   0.832   9.969   6.282
20352WAT     H263159   0.751   9.856   6.343
20353WAT      O63160   0.376   8.922   6.307
20353WAT     H163161   0.363   8.921   6.402
20353WAT     H263162   0.294   8.956   6.272
20354WAT      O63163   0.268   9.931   6.060
20354WAT     H163164   0.207  10.005   6.061
20354WAT     H263165   0.316   9.940   5.978
20355WAT      O63166   1.225   9.347   7.028
20355WAT     H163167   1.262   9.265   7.061
20355WAT     H263168   1.139   9.353   7.069
20356WAT      O63169   1.562   9.243   6.109
20356WAT     H163170   1.499   9.253   6.037
20356WAT     H263171   1.513   9.265   6.188
20357WAT      O63172   0.759   9.471   6.250
20357WAT     H163173   0.688   9.517   6.294
20357WAT     H263174   0.787   9.405   6.314
20358WAT      O63175   0.921   9.613   7.050
20358WAT     H163176   0.971   9.660   7.117
20358WAT     H263177   0.936   9.520   7.071
20359WAT      O63178   1.162   9.143   6.394
20359WAT     H163179   1.150   9.145   6.299
20359WAT     H263180   1.257   9.148   6.406
20360WAT      O63181   0.579   9.301   5.988
20360WAT     H163182   0.664   9.345   5.981
20360WAT     H263183   0.543   9.333   6.070
20361WAT      O63184   1.642   9.234   7.134
20361WAT     H163185   1.592   9.308   7.168
20361WAT     H263186   1.724   9.273   7.103
20362WAT      O63187   1.471   9.759   6.479
20362WAT     H163188   1.377   9.760   6.496
20362WAT     H263189   1.503   9.680   6.524
20363WAT      O63190   0.469   9.927   5.835
20363WAT     H163191   0.546   9.916   5.891
20363WAT     H263192   0.477   9.857   5.770
20364WAT      O63193   0.339   9.670   5.903
20364WAT     H163194   0.347   9.575   5.915
20364WAT     H263195   0.428   9.703   5.914
20365WAT      O63196   0.797   9.993   7.380
20365WAT     H163197   0.720  10.050   7.372
20365WAT     H263198   0.815   9.964   7.291
20366WAT      O63199   1.106  10.031   5.843
20366WAT     H163200   1.051  10.075   5.907
20366WAT     H263201   1.168   9.980   5.895
20367WAT      O63202   0.672   9.926   6.032
20367WAT     H163203   0.715   9.910   6.117
20367WAT     H263204   0.685   9.845   5.983
20368WAT      O63205   0.489   9.524   7.313
20368WAT     H163206   0.436   9.475   7.250
20368WAT     H263207   0.556   9.567   7.260
20369WAT      O63208   0.924   9.829   5.757
20369WAT     H163209   0.976   9.757   5.721
20369WAT     H263210   0.988   9.893   5.787
20370WAT      O63211   1.378   9.971   7.290
20370WAT     H163212   1.420   9.987   7.375
20370WAT     H263213   1.285   9.984   7.306
20371WAT      O63214   1.426   9.705   7.490
20371WAT     H163215   1.484   9.630   7.481
20371WAT     H263216   1.443   9.758   7.412
20372WAT      O63217   0.537   9.221   7.321
20372WAT     H163218   0.528   9.159   7.249
20372WAT     H263219   0.479   9.294   7.298
20373WAT      O63220   0.814   9.077   7.024
20373WAT     H163221   0.769   9.079   6.940
20373WAT     H263222   0.751   9.037   7.084
20374WAT      O63223   0.855   9.966   7.087
20374WAT     H163224   0.896  10.051   7.069
20374WAT     H263225   0.763   9.980   7.064
20375WAT      O63226   1.088   9.739   7.225
20375WAT     H163227   1.100   9.680   7.299
20375WAT     H263228   1.174   9.743   7.183
20376WAT      O63229   1.322   9.795   7.083
20376WAT     H163230   1.269   9.847   7.022
20376WAT     H263231   1.356   9.858   7.146
20377WAT      O63232   0.562   9.534   5.727
20377WAT     H163233   0.542   9.447   5.763
20377WAT     H263234   0.545   9.525   5.633
20378WAT      O63235   0.765   9.394   7.351
20378WAT     H163236   0.824   9.363   7.419
20378WAT     H263237   0.683   9.346   7.366
20379WAT      O63238   1.247   9.355   7.374
20379WAT     H163239   1.178   9.289   7.368
20379WAT     H263240   1.319   9.311   7.419
20380WAT      O63241   1.310   9.015   5.980
20380WAT     H163242   1.338   8.931   6.016
20380WAT     H263243   1.233   9.038   6.031
20381WAT      O63244   0.442   9.244   5.726
20381WAT     H163245   0.472   9.244   5.635
20381WAT     H263246   0.516   9.209   5.776
20382WAT      O63247   0.764   9.138   5.824
20382WAT     H163248   0.729   9.070   5.766
20382WAT     H263249   0.784   9.092   5.906
20383WAT      O63250   1.748   9.939   6.041
20383WAT     H163251   1.824   9.996   6.052
20383WAT     H263252   1.749   9.882   6.118
20384WAT      O63253   1.753   9.968   5.757
20384WAT     H163254   1.780  10.059   5.744
20384WAT     H263255   1.734   9.962   5.850
20385WAT      O63256   1.393   9.270   5.886
20385WAT     H163257   1.434   9.252   5.802
20385WAT     H263258   1.362   9.185   5.917
20386WAT      O63259   1.743   9.762   6.256
20386WAT     H163260   1.705   9.685   6.213
20386WAT     H263261   1.670   9.800   6.305
20387WAT      O63262   0.201   9.830   6.918
20387WAT     H163263   0.238   9.821   7.006
20387WAT     H263264   0.145   9.753   6.908
20388WAT      O63265   1.682   9.676   7.219
20388WAT     H163266   1.658   9.653   7.129
20388WAT     H263267   1.708   9.768   7.215
20389WAT      O63268   1.670   9.584   6.586
20389WAT     H163269   1.722   9.535   6.523
20389WAT     H263270   1.729   9.598   6.661
20390WAT      O63271   1.688   9.593   6.938
20390WAT     H163272   1.593   9.589   6.950
20390WAT     H263273   1.706   9.684   6.915
20391WAT      O63274   0.273   9.418   5.849
20391WAT     H163275   0.344   9.375   5.801
20391WAT     H263276   0.202   9.424   5.786
20392WAT      O63277   0.238   9.023   5.753
20392WAT     H163278   0.310   9.077   5.785
20392WAT     H263279   0.265   8.996   5.666
20393WAT      O63280   1.619   9.510   6.180
20393WAT     H163281   1.669   9.487   6.258
20393WAT     H263282   1.599   9.426   6.138
20394WAT      O63283   0.207   8.948   6.743
20394WAT     H163284   0.272   8.893   6.699
20394WAT     H263285   0.249   8.974   6.826
20395WAT      O63286   1.762   9.374   6.433
20395WAT     H163287   1.751   9.358   6.527
20395WAT     H263288   1.838   9.321   6.409
20396WAT      O63289   1.597   8.967   7.079
20396WAT     H163290   1.660   9.029   7.116
20396WAT     H263291   1.611   8.971   6.985
20397WAT      O63292   1.851   9.157   5.757
20397WAT     H163293   1.943   9.143   5.737
20397WAT     H263294   1.849   9.165   5.853
20398WAT      O63295   1.858   9.234   6.020
20398WAT     H163296   1.779   9.227   6.073
20398WAT     H263297   1.879   9.327   6.019
20399WAT      O63298   0.182   8.964   7.018
20399WAT     H163299   0.147   9.009   7.094
20399WAT     H263300   0.149   8.874   7.026
20400WAT      O63301   0.934   9.083   7.370
20400WAT     H163302   0.927   9.142   7.445
20400WAT     H263303   1.028   9.072   7.355
20401WAT      O63304   1.197   9.048   7.334
20401WAT     H163305   1.259   9.080   7.268
20401WAT     H263306   1.252   9.000   7.396
20402WAT      O63307   0.250   8.916   7.345
20402WAT     H163308   0.304   8.898   7.269
20402WAT     H263309   0.256   8.837   7.399
20403WAT      O63310   1.271   8.905   6.967
20403WAT     H163311   1.184   8.938   6.946
20403WAT     H263312   1.261   8.858   7.049
20404WAT      O63313   1.362   9.125   7.105
20404WAT     H163314   1.329   9.044   7.067
20404WAT     H263315   1.457   9.121   7.093
20405WAT      O63316   1.046   8.996   6.860
20405WAT     H163317   0.968   9.044   6.888
20405WAT     H263318   1.017   8.906   6.850
20406WAT      O63319   1.501   9.067   6.665
20406WAT     H163320   1.545   9.061   6.580
20406WAT     H263321   1.474   9.158   6.672
20407WAT      O63322   1.688   9.030   6.466
20407WAT     H163323   1.682   8.935   6.451
20407WAT     H263324   1.766   9.041   6.521
20408WAT      O63325   0.181   9.027   6.113
20408WAT     H163326   0.256   9.038   6.055
20408WAT     H263327   0.134   9.111   6.108
20409WAT      O63328   0.835   9.238   6.412
20409WAT     H163329   0.753   9.201   6.378
20409WAT     H263330   0.885   9.163   6.442
20410WAT      O63331   1.285   8.905   6.535
20410WAT     H163332   1.345   8.962   6.583
20410WAT     H263333   1.211   8.961   6.513
20411WAT      O63334   1.599   8.945   6.063
20411WAT     H163335   1.619   9.035   6.090
20411WAT     H263336   1.521   8.922   6.112
20412WAT      O63337   0.418   9.080   5.967
20412WAT     H163338   0.471   9.001   5.954
20412WAT     H263339   0.481   9.147   5.990
20413WAT      O63340   0.637   9.053   6.272
20413WAT     H163341   0.574   8.983   6.289
20413WAT     H263342   0.583   9.129   6.250
20414WAT      O63343   1.200   9.725   4.610
20414WAT     H163344   1.192   9.633   4.583
20414WAT     H263345   1.159   9.774   4.539
20415WAT      O63346   1.014   9.902   4.798
20415WAT     H163347   0.936   9.854   4.827
20415WAT     H263348   1.079   9.834   4.780
20416WAT      O63349   0.415   9.934   4.886
20416WAT     H163350   0.332   9.908   4.926
20416WAT     H263351   0.476   9.941   4.959
20417WAT      O63352   0.256   9.430   4.264
20417WAT     H163353   0.167   9.464   4.254
20417WAT     H263354   0.285   9.410   4.175
20418WAT      O63355   0.177   9.231   5.031
20418WAT     H163356   0.159   9.141   5.059
20418WAT     H263357   0.137   9.285   5.099
20419WAT      O63358   1.061   9.451   4.821
20419WAT     H163359   1.098   9.363   4.810
20419WAT     H263360   1.051   9.484   4.732
20420WAT      O63361   0.474   9.288   4.367
20420WAT     H163362   0.485   9.378   4.398
20420WAT     H263363   0.383   9.283   4.338
20421WAT      O63364   1.439   9.200   4.515
20421WAT     H163365   1.521   9.151   4.519
20421WAT     H263366   1.442   9.259   4.590
20422WAT      O63367   0.239   9.480   4.892
20422WAT     H163368   0.307   9.507   4.954
20422WAT     H263369   0.207   9.396   4.925
20423WAT      O63370   0.658   9.585   4.801
20423WAT     H163371   0.709   9.635   4.865
20423WAT     H263372   0.711   9.507   4.783
20424WAT      O63373   1.868   9.402   5.171
20424WAT     H163374   1.798   9.441   5.119
20424WAT     H263375   1.895   9.471   5.231
20425WAT      O63376   0.486   9.049   5.227
20425WAT     H163377   0.486   9.101   5.147
20425WAT     H263378   0.403   9.001   5.225
20426WAT      O63379   0.611  10.013   5.045
20426WAT     H163380   0.578  10.075   5.109
20426WAT     H263381   0.629  10.065   4.967
20427WAT      O63382   1.463   9.394   4.792
20427WAT     H163383   1.392   9.423   4.850
20427WAT     H263384   1.499   9.475   4.756
20428WAT      O63385   0.454   9.220   5.028
20428WAT     H163386   0.489   9.304   4.999
20428WAT     H263387   0.361   9.235   5.040
20429WAT      O63388   1.770   9.339   4.831
20429WAT     H163389   1.675   9.342   4.844
20429WAT     H263390   1.802   9.420   4.869
20430WAT      O63391   0.823   8.969   4.660
20430WAT     H163392   0.853   8.913   4.589
20430WAT     H263393   0.730   8.982   4.642
20431WAT      O63394   1.318  10.031   5.022
20431WAT     H163395   1.359  10.009   4.939
20431WAT     H263396   1.390  10.056   5.079
20432WAT      O63397   1.062   9.775   4.334
20432WAT     H163398   0.969   9.769   4.357
20432WAT     H263399   1.077   9.869   4.323
20433WAT      O63400   1.060   9.402   4.034
20433WAT     H163401   0.966   9.419   4.042
20433WAT     H263402   1.092   9.474   3.979
20434WAT      O63403   1.712   9.871   5.032
20434WAT     H163404   1.630   9.878   4.984
20434WAT     H263405   1.772   9.929   4.985
20435WAT      O63406   1.465   9.931   4.384
20435WAT     H163407   1.403   9.898   4.320
20435WAT     H263408   1.463   9.867   4.455
20436WAT      O63409   1.409   9.549   5.126
20436WAT     H163410   1.367   9.632   5.151
20436WAT     H263411   1.336   9.491   5.107
20437WAT      O63412   0.622   9.828   4.612
20437WAT     H163413   0.582   9.757   4.563
20437WAT     H263414   0.631   9.793   4.701
20438WAT      O63415   0.493   9.505   4.990
20438WAT     H163416   0.549   9.516   4.913
20438WAT     H263417   0.545   9.543   5.062
20439WAT      O63418   1.282   9.855   4.085
20439WAT     H163419   1.326   9.772   4.071
20439WAT     H263420   1.353   9.919   4.094
20440WAT      O63421   0.461   9.857   5.351
20440WAT     H163422   0.447   9.945   5.388
20440WAT     H263423   0.373   9.823   5.337
20441WAT      O63424   1.640   8.981   3.917
20441WAT     H163425   1.609   8.990   4.007
20441WAT     H263426   1.716   9.039   3.912
20442WAT      O63427   0.292   9.717   4.362
20442WAT     H163428   0.280   9.790   4.301
20442WAT     H263429   0.261   9.640   4.315
20443WAT      O63430   1.761   9.454   5.514
20443WAT     H163431   1.700   9.505   5.461
20443WAT     H263432   1.729   9.364   5.509
20444WAT      O63433   0.539   9.052   4.701
20444WAT     H163434   0.494   9.130   4.667
20444WAT     H263435   0.595   9.084   4.771
20445WAT      O63436   0.967   9.338   5.261
20445WAT     H163437   0.921   9.359   5.342
20445WAT     H263438   0.927   9.257   5.231
20446WAT      O63439   1.468   9.460   5.374
20446WAT     H163440   1.382   9.431   5.406
20446WAT     H263441   1.452   9.485   5.283
20447WAT      O63442   1.177   9.610   5.584
20447WAT     H163443   1.210   9.527   5.550
20447WAT     H263444   1.256   9.663   5.599
20448WAT      O63445   0.850   9.014   4.189
20448WAT     H163446   0.788   9.013   4.261
20448WAT     H263447   0.842   8.927   4.149
20449WAT      O63448   0.743   9.106   4.886
20449WAT     H163449   0.772   9.197   4.878
20449WAT     H263450   0.797   9.057   4.825
20450WAT      O63451   0.518   9.564   4.473
20450WAT     H163452   0.495   9.542   4.564
20450WAT     H263453   0.440   9.607   4.439
20451WAT      O63454   1.241   9.565   4.333
20451WAT     H163455   1.181   9.637   4.315
20451WAT     H263456   1.296   9.558   4.255
20452WAT      O63457   0.762   9.654   5.540
20452WAT     H163458   0.752   9.560   5.525
20452WAT     H263459   0.846   9.676   5.500
20453WAT      O63460   1.102   9.428   4.536
20453WAT     H163461   1.141   9.460   4.455
20453WAT     H263462   1.138   9.340   4.548
20454WAT      O63463   0.275   9.295   5.355
20454WAT     H163464   0.236   9.380   5.376
20454WAT     H263465   0.206   9.231   5.374
20455WAT      O63466   0.932   9.303   5.662
20455WAT     H163467   0.863   9.284   5.726
20455WAT     H263468   1.007   9.332   5.716
20456WAT      O63469   1.160   9.687   4.946
20456WAT     H163470   1.087   9.738   4.981
20456WAT     H263471   1.120   9.606   4.916
20457WAT      O63472   0.804   9.355   4.786
20457WAT     H163473   0.804   9.311   4.701
20457WAT     H263474   0.893   9.387   4.797
20458WAT      O63475   0.389   9.343   4.682
20458WAT     H163476   0.355   9.391   4.758
20458WAT     H263477   0.313   9.298   4.646
20459WAT      O63478   0.810   9.455   4.085
20459WAT     H163479   0.822   9.451   4.180
20459WAT     H263480   0.772   9.541   4.070
20460WAT      O63481   1.206   9.233   4.887
20460WAT     H163482   1.208   9.278   4.971
20460WAT     H263483   1.182   9.143   4.908
20461WAT      O63484   0.711   9.686   4.025
20461WAT     H163485   0.654   9.641   3.963
20461WAT     H263486   0.782   9.722   3.972
20462WAT      O63487   1.549   8.974   5.471
20462WAT     H163488   1.582   8.901   5.524
20462WAT     H263489   1.553   8.942   5.381
20463WAT      O63490   0.834   9.761   4.961
20463WAT     H163491   0.871   9.713   5.036
20463WAT     H263492   0.815   9.848   4.995
20464WAT      O63493   0.613   9.665   5.193
20464WAT     H163494   0.583   9.753   5.215
20464WAT     H263495   0.708   9.671   5.196
20465WAT      O63496   0.466  10.086   4.253
20465WAT     H163497   0.388  10.032   4.237
20465WAT     H263498   0.539  10.034   4.219
20466WAT      O63499   1.542   9.985   4.832
20466WAT     H163500   1.614  10.035   4.793
20466WAT     H263501   1.521   9.917   4.767
20467WAT      O63502   1.088   9.125   4.246
20467WAT     H163503   1.006   9.075   4.239
20467WAT     H263504   1.068   9.209   4.204
20468WAT      O63505   1.080   9.992   5.420
20468WAT     H163506   1.073   9.900   5.395
20468WAT     H263507   1.017  10.002   5.492
20469WAT      O63508   1.359   9.562   4.076
20469WAT     H163509   1.448   9.593   4.058
20469WAT     H263510   1.356   9.475   4.037
20470WAT      O63511   0.470  10.052   4.616
20470WAT     H163512   0.522   9.972   4.611
20470WAT     H263513   0.425  10.046   4.700
20471WAT      O63514   0.219   9.749   5.308
20471WAT     H163515   0.183   9.816   5.366
20471WAT     H263516   0.189   9.666   5.345
20472WAT      O63517   0.539   9.795   5.596
20472WAT     H163518   0.509   9.809   5.506
20472WAT     H263519   0.616   9.739   5.587
20473WAT      O63520   1.586   9.693   4.022
20473WAT     H163521   1.578   9.736   3.937
20473WAT     H263522   1.658   9.739   4.066
20474WAT      O63523   1.694   9.939   5.330
20474WAT     H163524   1.622   9.998   5.310
20474WAT     H263525   1.747   9.938   5.250
20475WAT      O63526   0.786   9.888   4.382
20475WAT     H163527   0.832   9.969   4.405
20475WAT     H263528   0.751   9.856   4.465
20476WAT      O63529   0.376   8.922   4.429
20476WAT     H163530   0.363   8.921   4.524
20476WAT     H263531   0.294   8.956   4.394
20477WAT      O63532   0.268   9.931   4.183
20477WAT     H163533   0.207  10.005   4.184
20477WAT     H263534   0.316   9.940   4.100
20478WAT      O63535   1.225   9.347   5.150
20478WAT     H163536   1.262   9.265   5.183
20478WAT     H263537   1.139   9.353   5.192
20479WAT      O63538   1.562   9.243   4.231
20479WAT     H163539   1.499   9.253   4.160
20479WAT     H263540   1.513   9.265   4.310
20480WAT      O63541   0.759   9.471   4.373
20480WAT     H163542   0.688   9.517   4.417
20480WAT     H263543   0.787   9.405   4.436
20481WAT      O63544   0.921   9.613   5.173
20481WAT     H163545   0.971   9.660   5.239
20481WAT     H263546   0.936   9.520   5.193
20482WAT      O63547   1.162   9.143   4.517
20482WAT     H163548   1.150   9.145   4.422
20482WAT     H263549   1.257   9.148   4.529
20483WAT      O63550   0.579   9.301   4.110
20483WAT     H163551   0.664   9.345   4.104
20483WAT     H263552   0.543   9.333   4.193
20484WAT      O63553   1.642   9.234   5.257
20484WAT     H163554   1.592   9.308   5.291
20484WAT     H263555   1.724   9.273   5.225
20485WAT      O63556   1.471   9.759   4.602
20485WAT     H163557   1.377   9.760   4.619
20485WAT     H263558   1.503   9.680   4.646
20486WAT      O63559   0.469   9.927   3.958
20486WAT     H163560   0.546   9.916   4.014
20486WAT     H263561   0.477   9.857   3.892
20487WAT      O63562   0.339   9.670   4.026
20487WAT     H163563   0.347   9.575   4.037
20487WAT     H263564   0.428   9.703   4.037
20488WAT      O63565   0.797   9.993   5.503
20488WAT     H163566   0.720  10.050   5.494
20488WAT     H263567   0.815   9.964   5.414
20489WAT      O63568   1.106  10.031   3.965
20489WAT     H163569   1.051  10.075   4.030
20489WAT     H263570   1.168   9.980   4.018
20490WAT      O63571   0.295   9.666   5.639
20490WAT     H163572   0.299   9.637   5.730
20490WAT     H263573   0.380   9.707   5.623
20491WAT      O63574   0.672   9.926   4.155
20491WAT     H163575   0.715   9.910   4.239
20491WAT     H263576   0.685   9.845   4.106
20492WAT      O63577   0.489   9.524   5.436
20492WAT     H163578   0.436   9.475   5.373
20492WAT     H263579   0.556   9.567   5.382
20493WAT      O63580   0.924   9.829   3.880
20493WAT     H163581   0.976   9.757   3.843
20493WAT     H263582   0.988   9.893   3.910
20494WAT      O63583   1.378   9.971   5.412
20494WAT     H163584   1.420   9.987   5.497
20494WAT     H263585   1.285   9.984   5.428
20495WAT      O63586   1.426   9.705   5.613
20495WAT     H163587   1.484   9.630   5.604
20495WAT     H263588   1.443   9.758   5.535
20496WAT      O63589   0.537   9.221   5.444
20496WAT     H163590   0.528   9.159   5.371
20496WAT     H263591   0.479   9.294   5.421
20497WAT      O63592   0.814   9.077   5.147
20497WAT     H163593   0.769   9.079   5.062
20497WAT     H263594   0.751   9.037   5.207
20498WAT      O63595   0.855   9.966   5.209
20498WAT     H163596   0.896  10.051   5.192
20498WAT     H263597   0.763   9.980   5.186
20499WAT      O63598   1.088   9.739   5.348
20499WAT     H163599   1.100   9.680   5.421
20499WAT     H263600   1.174   9.743   5.306
20500WAT      O63601   1.322   9.795   5.205
20500WAT     H163602   1.269   9.847   5.145
20500WAT     H263603   1.356   9.858   5.268
20501WAT      O63604   0.562   9.534   3.850
20501WAT     H163605   0.542   9.447   3.886
20501WAT     H263606   0.545   9.525   3.756
20502WAT      O63607   0.765   9.394   5.473
20502WAT     H163608   0.824   9.363   5.542
20502WAT     H263609   0.683   9.346   5.489
20503WAT      O63610   1.247   9.355   5.497
20503WAT     H163611   1.178   9.289   5.490
20503WAT     H263612   1.319   9.311   5.541
20504WAT      O63613   1.310   9.015   4.102
20504WAT     H163614   1.338   8.931   4.138
20504WAT     H263615   1.233   9.038   4.154
20505WAT      O63616   0.442   9.244   3.848
20505WAT     H163617   0.472   9.244   3.758
20505WAT     H263618   0.516   9.209   3.898
20506WAT      O63619   0.764   9.138   3.947
20506WAT     H163620   0.729   9.070   3.889
20506WAT     H263621   0.784   9.092   4.028
20507WAT      O63622   1.748   9.939   4.164
20507WAT     H163623   1.824   9.996   4.174
20507WAT     H263624   1.749   9.882   4.241
20508WAT      O63625   1.753   9.968   3.879
20508WAT     H163626   1.780  10.059   3.866
20508WAT     H263627   1.734   9.962   3.973
20509WAT      O63628   1.393   9.270   4.009
20509WAT     H163629   1.434   9.252   3.925
20509WAT     H263630   1.362   9.185   4.040
20510WAT      O63631   1.743   9.762   4.379
20510WAT     H163632   1.705   9.685   4.335
20510WAT     H263633   1.670   9.800   4.427
20511WAT      O63634   0.201   9.830   5.041
20511WAT     H163635   0.238   9.821   5.129
20511WAT     H263636   0.145   9.753   5.031
20512WAT      O63637   1.682   9.676   5.342
20512WAT     H163638   1.658   9.653   5.252
20512WAT     H263639   1.708   9.768   5.337
20513WAT      O63640   1.525   9.199   5.620
20513WAT     H163641   1.613   9.200   5.658
20513WAT     H263642   1.527   9.125   5.559
20514WAT      O63643   1.670   9.584   4.709
20514WAT     H163644   1.722   9.535   4.646
20514WAT     H263645   1.729   9.598   4.783
20515WAT      O63646   1.688   9.593   5.061
20515WAT     H163647   1.593   9.589   5.072
20515WAT     H263648   1.706   9.684   5.037
20516WAT      O63649   0.273   9.418   3.972
20516WAT     H163650   0.344   9.375   3.923
20516WAT     H263651   0.202   9.424   3.909
20517WAT      O63652   0.238   9.023   3.876
20517WAT     H163653   0.310   9.077   3.908
20517WAT     H263654   0.265   8.996   3.788
20518WAT      O63655   1.619   9.510   4.303
20518WAT     H163656   1.669   9.487   4.381
20518WAT     H263657   1.599   9.426   4.261
20519WAT      O63658   0.207   8.948   4.866
20519WAT     H163659   0.272   8.893   4.822
20519WAT     H263660   0.249   8.974   4.948
20520WAT      O63661   1.762   9.374   4.556
20520WAT     H163662   1.751   9.358   4.650
20520WAT     H263663   1.838   9.321   4.532
20521WAT      O63664   1.597   8.967   5.202
20521WAT     H163665   1.660   9.029   5.238
20521WAT     H263666   1.611   8.971   5.107
20522WAT      O63667   1.851   9.157   3.880
20522WAT     H163668   1.943   9.143   3.859
20522WAT     H263669   1.849   9.165   3.975
20523WAT      O63670   1.858   9.234   4.143
20523WAT     H163671   1.779   9.227   4.195
20523WAT     H263672   1.879   9.327   4.141
20524WAT      O63673   0.182   8.964   5.140
20524WAT     H163674   0.147   9.009   5.217
20524WAT     H263675   0.149   8.874   5.149
20525WAT      O63676   0.934   9.083   5.493
20525WAT     H163677   0.927   9.142   5.567
20525WAT     H263678   1.028   9.072   5.478
20526WAT      O63679   1.197   9.048   5.456
20526WAT     H163680   1.259   9.080   5.390
20526WAT     H263681   1.252   9.000   5.518
20527WAT      O63682   0.250   8.916   5.468
20527WAT     H163683   0.304   8.898   5.391
20527WAT     H263684   0.256   8.837   5.521
20528WAT      O63685   1.271   8.905   5.089
20528WAT     H163686   1.184   8.938   5.069
20528WAT     H263687   1.261   8.858   5.172
20529WAT      O63688   1.362   9.125   5.228
20529WAT     H163689   1.329   9.044   5.190
20529WAT     H263690   1.457   9.121   5.215
20530WAT      O63691   1.046   8.996   4.983
20530WAT     H163692   0.968   9.044   5.011
20530WAT     H263693   1.017   8.906   4.972
20531WAT      O63694   1.501   9.067   4.788
20531WAT     H163695   1.545   9.061   4.703
20531WAT     H263696   1.474   9.158   4.795
20532WAT      O63697   1.688   9.030   4.589
20532WAT     H163698   1.682   8.935   4.574
20532WAT     H263699   1.766   9.041   4.643
20533WAT      O63700   0.181   9.027   4.235
20533WAT     H163701   0.256   9.038   4.178
20533WAT     H263702   0.134   9.111   4.231
20534WAT      O63703   0.835   9.238   4.534
20534WAT     H163704   0.753   9.201   4.500
20534WAT     H263705   0.885   9.163   4.564
20535WAT      O63706   1.285   8.905   4.658
20535WAT     H163707   1.345   8.962   4.706
20535WAT     H263708   1.211   8.961   4.636
20536WAT      O63709   1.599   8.945   4.185
20536WAT     H163710   1.619   9.035   4.212
20536WAT     H263711   1.521   8.922   4.235
20537WAT      O63712   0.418   9.080   4.089
20537WAT     H163713   0.471   9.001   4.076
20537WAT     H263714   0.481   9.147   4.113
20538WAT      O63715   0.637   9.053   4.395
20538WAT     H163716   0.574   8.983   4.411
20538WAT     H263717   0.583   9.129   4.373
20539WAT      O63718   0.650   8.981   5.638
20539WAT     H163719   0.622   9.032   5.562
20539WAT     H263720   0.688   8.901   5.602
20540WAT      O63721   1.310   8.923   5.696
20540WAT     H163722   1.299   8.955   5.786
20540WAT     H263723   1.392   8.963   5.666
20541WAT      O63724   1.200   9.725   2.732
20541WAT     H163725   1.192   9.633   2.705
20541WAT     H263726   1.159   9.774   2.662
20542WAT      O63727   1.014   9.902   2.920
20542WAT     H163728   0.936   9.854   2.949
20542WAT     H263729   1.079   9.834   2.903
20543WAT      O63730   0.415   9.934   3.008
20543WAT     H163731   0.332   9.908   3.048
20543WAT     H263732   0.476   9.941   3.082
20544WAT      O63733   0.256   9.430   2.387
20544WAT     H163734   0.167   9.464   2.376
20544WAT     H263735   0.285   9.410   2.297
20545WAT      O63736   0.177   9.231   3.154
20545WAT     H163737   0.159   9.141   3.182
20545WAT     H263738   0.137   9.285   3.221
20546WAT      O63739   1.061   9.451   2.944
20546WAT     H163740   1.098   9.363   2.933
20546WAT     H263741   1.051   9.484   2.855
20547WAT      O63742   0.474   9.288   2.490
20547WAT     H163743   0.485   9.378   2.521
20547WAT     H263744   0.383   9.283   2.461
20548WAT      O63745   1.439   9.200   2.637
20548WAT     H163746   1.521   9.151   2.641
20548WAT     H263747   1.442   9.259   2.712
20549WAT      O63748   0.239   9.480   3.015
20549WAT     H163749   0.307   9.507   3.076
20549WAT     H263750   0.207   9.396   3.048
20550WAT      O63751   0.658   9.585   2.923
20550WAT     H163752   0.709   9.635   2.987
20550WAT     H263753   0.711   9.507   2.906
20551WAT      O63754   1.868   9.402   3.294
20551WAT     H163755   1.798   9.441   3.242
20551WAT     H263756   1.895   9.471   3.354
20552WAT      O63757   0.486   9.049   3.350
20552WAT     H163758   0.486   9.101   3.269
20552WAT     H263759   0.403   9.001   3.348
20553WAT      O63760   0.611  10.013   3.168
20553WAT     H163761   0.578  10.075   3.232
20553WAT     H263762   0.629  10.065   3.090
20554WAT      O63763   1.463   9.394   2.914
20554WAT     H163764   1.392   9.423   2.972
20554WAT     H263765   1.499   9.475   2.878
20555WAT      O63766   0.454   9.220   3.151
20555WAT     H163767   0.489   9.304   3.121
20555WAT     H263768   0.361   9.235   3.162
20556WAT      O63769   1.770   9.339   2.953
20556WAT     H163770   1.675   9.342   2.967
20556WAT     H263771   1.802   9.420   2.992
20557WAT      O63772   0.823   8.969   2.783
20557WAT     H163773   0.853   8.913   2.711
20557WAT     H263774   0.730   8.982   2.765
20558WAT      O63775   1.318  10.031   3.145
20558WAT     H163776   1.359  10.009   3.061
20558WAT     H263777   1.390  10.056   3.202
20559WAT      O63778   1.062   9.775   2.457
20559WAT     H163779   0.969   9.769   2.480
20559WAT     H263780   1.077   9.869   2.445
20560WAT      O63781   1.060   9.402   2.156
20560WAT     H163782   0.966   9.419   2.165
20560WAT     H263783   1.092   9.474   2.102
20561WAT      O63784   1.712   9.871   3.154
20561WAT     H163785   1.630   9.878   3.107
20561WAT     H263786   1.772   9.929   3.107
20562WAT      O63787   1.465   9.931   2.507
20562WAT     H163788   1.403   9.898   2.442
20562WAT     H263789   1.463   9.867   2.578
20563WAT      O63790   1.409   9.549   3.249
20563WAT     H163791   1.367   9.632   3.274
20563WAT     H263792   1.336   9.491   3.229
20564WAT      O63793   0.622   9.828   2.735
20564WAT     H163794   0.582   9.757   2.685
20564WAT     H263795   0.631   9.793   2.824
20565WAT      O63796   0.493   9.505   3.113
20565WAT     H163797   0.549   9.516   3.035
20565WAT     H263798   0.545   9.543   3.184
20566WAT      O63799   1.282   9.855   2.208
20566WAT     H163800   1.326   9.772   2.193
20566WAT     H263801   1.353   9.919   2.216
20567WAT      O63802   0.461   9.857   3.474
20567WAT     H163803   0.447   9.945   3.511
20567WAT     H263804   0.373   9.823   3.459
20568WAT      O63805   1.640   8.981   2.039
20568WAT     H163806   1.609   8.990   2.129
20568WAT     H263807   1.716   9.039   2.034
20569WAT      O63808   0.292   9.717   2.485
20569WAT     H163809   0.280   9.790   2.424
20569WAT     H263810   0.261   9.640   2.437
20570WAT      O63811   1.761   9.454   3.637
20570WAT     H163812   1.700   9.505   3.584
20570WAT     H263813   1.729   9.364   3.631
20571WAT      O63814   0.539   9.052   2.823
20571WAT     H163815   0.494   9.130   2.790
20571WAT     H263816   0.595   9.084   2.894
20572WAT      O63817   0.967   9.338   3.383
20572WAT     H163818   0.921   9.359   3.465
20572WAT     H263819   0.927   9.257   3.353
20573WAT      O63820   1.468   9.460   3.496
20573WAT     H163821   1.382   9.431   3.529
20573WAT     H263822   1.452   9.485   3.405
20574WAT      O63823   1.177   9.610   3.706
20574WAT     H163824   1.210   9.527   3.672
20574WAT     H263825   1.256   9.663   3.721
20575WAT      O63826   0.850   9.014   2.311
20575WAT     H163827   0.788   9.013   2.384
20575WAT     H263828   0.842   8.927   2.272
20576WAT      O63829   0.743   9.106   3.009
20576WAT     H163830   0.772   9.197   3.001
20576WAT     H263831   0.797   9.057   2.948
20577WAT      O63832   0.518   9.564   2.596
20577WAT     H163833   0.495   9.542   2.686
20577WAT     H263834   0.440   9.607   2.561
20578WAT      O63835   1.241   9.565   2.456
20578WAT     H163836   1.181   9.637   2.437
20578WAT     H263837   1.296   9.558   2.378
20579WAT      O63838   0.762   9.654   3.663
20579WAT     H163839   0.752   9.560   3.648
20579WAT     H263840   0.846   9.676   3.623
20580WAT      O63841   1.102   9.428   2.659
20580WAT     H163842   1.141   9.460   2.578
20580WAT     H263843   1.138   9.340   2.670
20581WAT      O63844   0.275   9.295   3.478
20581WAT     H163845   0.236   9.380   3.499
20581WAT     H263846   0.206   9.231   3.497
20582WAT      O63847   0.932   9.303   3.785
20582WAT     H163848   0.863   9.284   3.848
20582WAT     H263849   1.007   9.332   3.838
20583WAT      O63850   1.160   9.687   3.068
20583WAT     H163851   1.087   9.738   3.103
20583WAT     H263852   1.120   9.606   3.038
20584WAT      O63853   0.804   9.355   2.909
20584WAT     H163854   0.804   9.311   2.824
20584WAT     H263855   0.893   9.387   2.920
20585WAT      O63856   0.389   9.343   2.805
20585WAT     H163857   0.355   9.391   2.881
20585WAT     H263858   0.313   9.298   2.769
20586WAT      O63859   0.810   9.455   2.208
20586WAT     H163860   0.822   9.451   2.303
20586WAT     H263861   0.772   9.541   2.192
20587WAT      O63862   1.206   9.233   3.010
20587WAT     H163863   1.208   9.278   3.094
20587WAT     H263864   1.182   9.143   3.031
20588WAT      O63865   0.711   9.686   2.148
20588WAT     H163866   0.654   9.641   2.085
20588WAT     H263867   0.782   9.722   2.094
20589WAT      O63868   1.549   8.974   3.593
20589WAT     H163869   1.582   8.901   3.646
20589WAT     H263870   1.553   8.942   3.503
20590WAT      O63871   0.834   9.761   3.084
20590WAT     H163872   0.871   9.713   3.158
20590WAT     H263873   0.815   9.848   3.118
20591WAT      O63874   0.613   9.665   3.315
20591WAT     H163875   0.583   9.753   3.338
20591WAT     H263876   0.708   9.671   3.319
20592WAT      O63877   0.466  10.086   2.375
20592WAT     H163878   0.388  10.032   2.359
20592WAT     H263879   0.539  10.034   2.341
20593WAT      O63880   1.542   9.985   2.954
20593WAT     H163881   1.614  10.035   2.915
20593WAT     H263882   1.521   9.917   2.890
20594WAT      O63883   1.088   9.125   2.369
20594WAT     H163884   1.006   9.075   2.361
20594WAT     H263885   1.068   9.209   2.327
20595WAT      O63886   1.080   9.992   3.543
20595WAT     H163887   1.073   9.900   3.518
20595WAT     H263888   1.017  10.002   3.614
20596WAT      O63889   1.359   9.562   2.198
20596WAT     H163890   1.448   9.593   2.181
20596WAT     H263891   1.356   9.475   2.159
20597WAT      O63892   0.470  10.052   2.739
20597WAT     H163893   0.522   9.972   2.733
20597WAT     H263894   0.425  10.046   2.823
20598WAT      O63895   0.219   9.749   3.430
20598WAT     H163896   0.183   9.816   3.489
20598WAT     H263897   0.189   9.666   3.467
20599WAT      O63898   0.539   9.795   3.719
20599WAT     H163899   0.509   9.809   3.629
20599WAT     H263900   0.616   9.739   3.709
20600WAT      O63901   1.586   9.693   2.145
20600WAT     H163902   1.578   9.736   2.060
20600WAT     H263903   1.658   9.739   2.188
20601WAT      O63904   1.694   9.939   3.453
20601WAT     H163905   1.622   9.998   3.433
20601WAT     H263906   1.747   9.938   3.373
20602WAT      O63907   0.786   9.888   2.505
20602WAT     H163908   0.832   9.969   2.527
20602WAT     H263909   0.751   9.856   2.588
20603WAT      O63910   0.376   8.922   2.552
20603WAT     H163911   0.363   8.921   2.647
20603WAT     H263912   0.294   8.956   2.517
20604WAT      O63913   0.268   9.931   2.305
20604WAT     H163914   0.207  10.005   2.306
20604WAT     H263915   0.316   9.940   2.223
20605WAT      O63916   1.225   9.347   3.273
20605WAT     H163917   1.262   9.265   3.306
20605WAT     H263918   1.139   9.353   3.314
20606WAT      O63919   1.562   9.243   2.354
20606WAT     H163920   1.499   9.253   2.282
20606WAT     H263921   1.513   9.265   2.433
20607WAT      O63922   0.759   9.471   2.495
20607WAT     H163923   0.688   9.517   2.539
20607WAT     H263924   0.787   9.405   2.559
20608WAT      O63925   0.921   9.613   3.295
20608WAT     H163926   0.971   9.660   3.362
20608WAT     H263927   0.936   9.520   3.316
20609WAT      O63928   1.162   9.143   2.639
20609WAT     H163929   1.150   9.145   2.544
20609WAT     H263930   1.257   9.148   2.651
20610WAT      O63931   0.579   9.301   2.233
20610WAT     H163932   0.664   9.345   2.226
20610WAT     H263933   0.543   9.333   2.316
20611WAT      O63934   1.642   9.234   3.380
20611WAT     H163935   1.592   9.308   3.413
20611WAT     H263936   1.724   9.273   3.348
20612WAT      O63937   1.471   9.759   2.724
20612WAT     H163938   1.377   9.760   2.742
20612WAT     H263939   1.503   9.680   2.769
20613WAT      O63940   0.469   9.927   2.080
20613WAT     H163941   0.546   9.916   2.136
20613WAT     H263942   0.477   9.857   2.015
20614WAT      O63943   0.339   9.670   2.149
20614WAT     H163944   0.347   9.575   2.160
20614WAT     H263945   0.428   9.703   2.159
20615WAT      O63946   0.797   9.993   3.625
20615WAT     H163947   0.720  10.050   3.617
20615WAT     H263948   0.815   9.964   3.536
20616WAT      O63949   1.106  10.031   2.088
20616WAT     H163950   1.051  10.075   2.152
20616WAT     H263951   1.168   9.980   2.140
20617WAT      O63952   0.295   9.666   3.762
20617WAT     H163953   0.299   9.637   3.852
20617WAT     H263954   0.380   9.707   3.746
20618WAT      O63955   0.672   9.926   2.278
20618WAT     H163956   0.715   9.910   2.362
20618WAT     H263957   0.685   9.845   2.228
20619WAT      O63958   0.489   9.524   3.558
20619WAT     H163959   0.436   9.475   3.496
20619WAT     H263960   0.556   9.567   3.505
20620WAT      O63961   0.924   9.829   2.002
20620WAT     H163962   0.976   9.757   1.966
20620WAT     H263963   0.988   9.893   2.032
20621WAT      O63964   1.378   9.971   3.535
20621WAT     H163965   1.420   9.987   3.620
20621WAT     H263966   1.285   9.984   3.551
20622WAT      O63967   1.426   9.705   3.735
20622WAT     H163968   1.484   9.630   3.726
20622WAT     H263969   1.443   9.758   3.657
20623WAT      O63970   0.537   9.221   3.566
20623WAT     H163971   0.528   9.159   3.494
20623WAT     H263972   0.479   9.294   3.544
20624WAT      O63973   0.814   9.077   3.270
20624WAT     H163974   0.769   9.079   3.185
20624WAT     H263975   0.751   9.037   3.329
20625WAT      O63976   0.855   9.966   3.332
20625WAT     H163977   0.896  10.051   3.314
20625WAT     H263978   0.763   9.980   3.309
20626WAT      O63979   1.088   9.739   3.470
20626WAT     H163980   1.100   9.680   3.544
20626WAT     H263981   1.174   9.743   3.428
20627WAT      O63982   1.322   9.795   3.328
20627WAT     H163983   1.269   9.847   3.267
20627WAT     H263984   1.356   9.858   3.391
20628WAT      O63985   0.562   9.534   1.972
20628WAT     H163986   0.542   9.447   2.008
20628WAT     H263987   0.545   9.525   1.878
20629WAT      O63988   0.765   9.394   3.596
20629WAT     H163989   0.824   9.363   3.665
20629WAT     H263990   0.683   9.346   3.611
20630WAT      O63991   1.247   9.355   3.619
20630WAT     H163992   1.178   9.289   3.613
20630WAT     H263993   1.319   9.311   3.664
20631WAT      O63994   1.310   9.015   2.225
20631WAT     H163995   1.338   8.931   2.261
20631WAT     H263996   1.233   9.038   2.276
20632WAT      O63997   0.442   9.244   1.971
20632WAT     H163998   0.472   9.244   1.880
20632WAT     H263999   0.516   9.209   2.021
20633WAT      O64000   0.764   9.138   2.070
20633WAT     H164001   0.729   9.070   2.012
20633WAT     H264002   0.784   9.092   2.151
20634WAT      O64003   1.748   9.939   2.286
20634WAT     H164004   1.824   9.996   2.297
20634WAT     H264005   1.749   9.882   2.363
20635WAT      O64006   1.753   9.968   2.002
20635WAT     H164007   1.780  10.059   1.989
20635WAT     H264008   1.734   9.962   2.095
20636WAT      O64009   1.393   9.270   2.131
20636WAT     H164010   1.434   9.252   2.047
20636WAT     H264011   1.362   9.185   2.162
20637WAT      O64012   1.743   9.762   2.501
20637WAT     H164013   1.705   9.685   2.458
20637WAT     H264014   1.670   9.800   2.550
20638WAT      O64015   0.201   9.830   3.163
20638WAT     H164016   0.238   9.821   3.251
20638WAT     H264017   0.145   9.753   3.153
20639WAT      O64018   1.682   9.676   3.465
20639WAT     H164019   1.658   9.653   3.374
20639WAT     H264020   1.708   9.768   3.460
20640WAT      O64021   1.525   9.199   3.742
20640WAT     H164022   1.613   9.200   3.781
20640WAT     H264023   1.527   9.125   3.681
20641WAT      O64024   1.670   9.584   2.831
20641WAT     H164025   1.722   9.535   2.768
20641WAT     H264026   1.729   9.598   2.906
20642WAT      O64027   1.688   9.593   3.183
20642WAT     H164028   1.593   9.589   3.195
20642WAT     H264029   1.706   9.684   3.160
20643WAT      O64030   0.273   9.418   2.094
20643WAT     H164031   0.344   9.375   2.046
20643WAT     H264032   0.202   9.424   2.031
20644WAT      O64033   0.238   9.023   1.998
20644WAT     H164034   0.310   9.077   2.030
20644WAT     H264035   0.265   8.996   1.911
20645WAT      O64036   1.619   9.510   2.425
20645WAT     H164037   1.669   9.487   2.504
20645WAT     H264038   1.599   9.426   2.383
20646WAT      O64039   0.207   8.948   2.989
20646WAT     H164040   0.272   8.893   2.945
20646WAT     H264041   0.249   8.974   3.071
20647WAT      O64042   1.762   9.374   2.678
20647WAT     H164043   1.751   9.358   2.772
20647WAT     H264044   1.838   9.321   2.654
20648WAT      O64045   1.597   8.967   3.324
20648WAT     H164046   1.660   9.029   3.361
20648WAT     H264047   1.611   8.971   3.230
20649WAT      O64048   1.851   9.157   2.003
20649WAT     H164049   1.943   9.143   1.982
20649WAT     H264050   1.849   9.165   2.098
20650WAT      O64051   1.858   9.234   2.265
20650WAT     H164052   1.779   9.227   2.318
20650WAT     H264053   1.879   9.327   2.264
20651WAT      O64054   0.182   8.964   3.263
20651WAT     H164055   0.147   9.009   3.339
20651WAT     H264056   0.149   8.874   3.271
20652WAT      O64057   0.934   9.083   3.615
20652WAT     H164058   0.927   9.142   3.690
20652WAT     H264059   1.028   9.072   3.601
20653WAT      O64060   1.197   9.048   3.579
20653WAT     H164061   1.259   9.080   3.513
20653WAT     H264062   1.252   9.000   3.641
20654WAT      O64063   0.250   8.916   3.590
20654WAT     H164064   0.304   8.898   3.514
20654WAT     H264065   0.256   8.837   3.644
20655WAT      O64066   1.271   8.905   3.212
20655WAT     H164067   1.184   8.938   3.191
20655WAT     H264068   1.261   8.858   3.294
20656WAT      O64069   1.362   9.125   3.350
20656WAT     H164070   1.329   9.044   3.312
20656WAT     H264071   1.457   9.121   3.338
20657WAT      O64072   1.046   8.996   3.106
20657WAT     H164073   0.968   9.044   3.134
20657WAT     H264074   1.017   8.906   3.095
20658WAT      O64075   1.501   9.067   2.910
20658WAT     H164076   1.545   9.061   2.825
20658WAT     H264077   1.474   9.158   2.917
20659WAT      O64078   0.181   9.027   2.358
20659WAT     H164079   0.256   9.038   2.300
20659WAT     H264080   0.134   9.111   2.353
20660WAT      O64081   0.835   9.238   2.657
20660WAT     H164082   0.753   9.201   2.623
20660WAT     H264083   0.885   9.163   2.687
20661WAT      O64084   1.285   8.905   2.781
20661WAT     H164085   1.345   8.962   2.828
20661WAT     H264086   1.211   8.961   2.758
20662WAT      O64087   1.599   8.945   2.308
20662WAT     H164088   1.619   9.035   2.335
20662WAT     H264089   1.521   8.922   2.357
20663WAT      O64090   0.418   9.080   2.212
20663WAT     H164091   0.471   9.001   2.199
20663WAT     H264092   0.481   9.147   2.235
20664WAT      O64093   0.637   9.053   2.517
20664WAT     H164094   0.574   8.983   2.534
20664WAT     H264095   0.583   9.129   2.496
20665WAT      O64096   0.650   8.981   3.761
20665WAT     H164097   0.622   9.032   3.684
20665WAT     H264098   0.688   8.901   3.724
20666WAT      O64099   1.310   8.923   3.819
20666WAT     H164100   1.299   8.955   3.908
20666WAT     H264101   1.392   8.963   3.789
20667WAT      O64102   1.200   9.725   0.855
20667WAT     H164103   1.192   9.633   0.828
20667WAT     H264104   1.159   9.774   0.784
20668WAT      O64105   1.014   9.902   1.043
20668WAT     H164106   0.936   9.854   1.072
20668WAT     H264107   1.079   9.834   1.026
20669WAT      O64108   0.415   9.934   1.131
20669WAT     H164109   0.332   9.908   1.171
20669WAT     H264110   0.476   9.941   1.204
20670WAT      O64111   0.256   9.430   0.509
20670WAT     H164112   0.167   9.464   0.499
20670WAT     H264113   0.285   9.410   0.420
20671WAT      O64114   0.177   9.231   1.276
20671WAT     H164115   0.159   9.141   1.304
20671WAT     H264116   0.137   9.285   1.344
20672WAT      O64117   1.061   9.451   1.066
20672WAT     H164118   1.098   9.363   1.055
20672WAT     H264119   1.051   9.484   0.977
20673WAT      O64120   0.474   9.288   0.613
20673WAT     H164121   0.485   9.378   0.643
20673WAT     H264122   0.383   9.283   0.584
20674WAT      O64123   1.439   9.200   0.760
20674WAT     H164124   1.521   9.151   0.764
20674WAT     H264125   1.442   9.259   0.835
20675WAT      O64126   0.239   9.480   1.137
20675WAT     H164127   0.307   9.507   1.199
20675WAT     H264128   0.207   9.396   1.170
20676WAT      O64129   0.658   9.585   1.046
20676WAT     H164130   0.709   9.635   1.110
20676WAT     H264131   0.711   9.507   1.028
20677WAT      O64132   1.868   9.402   1.416
20677WAT     H164133   1.798   9.441   1.364
20677WAT     H264134   1.895   9.471   1.476
20678WAT      O64135   0.486   9.049   1.472
20678WAT     H164136   0.486   9.101   1.392
20678WAT     H264137   0.403   9.001   1.470
20679WAT      O64138   0.611  10.013   1.290
20679WAT     H164139   0.578  10.075   1.354
20679WAT     H264140   0.629  10.065   1.212
20680WAT      O64141   1.463   9.394   1.037
20680WAT     H164142   1.392   9.423   1.095
20680WAT     H264143   1.499   9.475   1.001
20681WAT      O64144   0.454   9.220   1.273
20681WAT     H164145   0.489   9.304   1.244
20681WAT     H264146   0.361   9.235   1.285
20682WAT      O64147   1.770   9.339   1.076
20682WAT     H164148   1.675   9.342   1.089
20682WAT     H264149   1.802   9.420   1.115
20683WAT      O64150   0.823   8.969   0.906
20683WAT     H164151   0.853   8.913   0.834
20683WAT     H264152   0.730   8.982   0.887
20684WAT      O64153   1.318  10.031   1.267
20684WAT     H164154   1.359  10.009   1.184
20684WAT     H264155   1.390  10.056   1.325
20685WAT      O64156   1.062   9.775   0.579
20685WAT     H164157   0.969   9.769   0.602
20685WAT     H264158   1.077   9.869   0.568
20686WAT      O64159   1.060   9.402   0.279
20686WAT     H164160   0.966   9.419   0.287
20686WAT     H264161   1.092   9.474   0.224
20687WAT      O64162   1.712   9.871   1.277
20687WAT     H164163   1.630   9.878   1.229
20687WAT     H264164   1.772   9.929   1.230
20688WAT      O64165   1.465   9.931   0.630
20688WAT     H164166   1.403   9.898   0.565
20688WAT     H264167   1.463   9.867   0.700
20689WAT      O64168   1.409   9.549   1.371
20689WAT     H164169   1.367   9.632   1.397
20689WAT     H264170   1.336   9.491   1.352
20690WAT      O64171   0.622   9.828   0.857
20690WAT     H164172   0.582   9.757   0.808
20690WAT     H264173   0.631   9.793   0.946
20691WAT      O64174   0.493   9.505   1.235
20691WAT     H164175   0.549   9.516   1.158
20691WAT     H264176   0.545   9.543   1.307
20692WAT      O64177   1.282   9.855   0.330
20692WAT     H164178   1.326   9.772   0.316
20692WAT     H264179   1.353   9.919   0.339
20693WAT      O64180   0.461   9.857   1.596
20693WAT     H164181   0.447   9.945   1.633
20693WAT     H264182   0.373   9.823   1.582
20694WAT      O64183   0.292   9.717   0.607
20694WAT     H164184   0.280   9.790   0.546
20694WAT     H264185   0.261   9.640   0.560
20695WAT      O64186   1.761   9.454   1.759
20695WAT     H164187   1.700   9.505   1.707
20695WAT     H264188   1.729   9.364   1.754
20696WAT      O64189   0.539   9.052   0.946
20696WAT     H164190   0.494   9.130   0.913
20696WAT     H264191   0.595   9.084   1.016
20697WAT      O64192   0.967   9.338   1.506
20697WAT     H164193   0.921   9.359   1.587
20697WAT     H264194   0.927   9.257   1.476
20698WAT      O64195   1.468   9.460   1.619
20698WAT     H164196   1.382   9.431   1.651
20698WAT     H264197   1.452   9.485   1.528
20699WAT      O64198   1.177   9.610   1.829
20699WAT     H164199   1.210   9.527   1.795
20699WAT     H264200   1.256   9.663   1.844
20700WAT      O64201   0.850   9.014   0.434
20700WAT     H164202   0.788   9.013   0.506
20700WAT     H264203   0.842   8.927   0.394
20701WAT      O64204   0.743   9.106   1.132
20701WAT     H164205   0.772   9.197   1.124
20701WAT     H264206   0.797   9.057   1.070
20702WAT      O64207   0.518   9.564   0.719
20702WAT     H164208   0.495   9.542   0.809
20702WAT     H264209   0.440   9.607   0.684
20703WAT      O64210   1.241   9.565   0.578
20703WAT     H164211   1.181   9.637   0.560
20703WAT     H264212   1.296   9.558   0.500
20704WAT      O64213   0.762   9.654   1.785
20704WAT     H164214   0.752   9.560   1.770
20704WAT     H264215   0.846   9.676   1.746
20705WAT      O64216   1.102   9.428   0.781
20705WAT     H164217   1.141   9.460   0.700
20705WAT     H264218   1.138   9.340   0.793
20706WAT      O64219   0.275   9.295   1.600
20706WAT     H164220   0.236   9.380   1.621
20706WAT     H264221   0.206   9.231   1.620
20707WAT      O64222   0.932   9.303   1.907
20707WAT     H164223   0.863   9.284   1.971
20707WAT     H264224   1.007   9.332   1.961
20708WAT      O64225   1.160   9.687   1.191
20708WAT     H164226   1.087   9.738   1.226
20708WAT     H264227   1.120   9.606   1.161
20709WAT      O64228   0.804   9.355   1.031
20709WAT     H164229   0.804   9.311   0.947
20709WAT     H264230   0.893   9.387   1.042
20710WAT      O64231   0.389   9.343   0.927
20710WAT     H164232   0.355   9.391   1.003
20710WAT     H264233   0.313   9.298   0.891
20711WAT      O64234   0.810   9.455   0.331
20711WAT     H164235   0.822   9.451   0.425
20711WAT     H264236   0.772   9.541   0.315
20712WAT      O64237   1.206   9.233   1.132
20712WAT     H164238   1.208   9.278   1.217
20712WAT     H264239   1.182   9.143   1.154
20713WAT      O64240   0.711   9.686   0.270
20713WAT     H164241   0.654   9.641   0.208
20713WAT     H264242   0.782   9.722   0.217
20714WAT      O64243   1.549   8.974   1.716
20714WAT     H164244   1.582   8.901   1.769
20714WAT     H264245   1.553   8.942   1.626
20715WAT      O64246   0.834   9.761   1.206
20715WAT     H164247   0.871   9.713   1.281
20715WAT     H264248   0.815   9.848   1.240
20716WAT      O64249   0.613   9.665   1.438
20716WAT     H164250   0.583   9.753   1.460
20716WAT     H264251   0.708   9.671   1.442
20717WAT      O64252   0.466  10.086   0.498
20717WAT     H164253   0.388  10.032   0.482
20717WAT     H264254   0.539  10.034   0.464
20718WAT      O64255   1.542   9.985   1.077
20718WAT     H164256   1.614  10.035   1.038
20718WAT     H264257   1.521   9.917   1.012
20719WAT      O64258   1.088   9.125   0.491
20719WAT     H164259   1.006   9.075   0.484
20719WAT     H264260   1.068   9.209   0.450
20720WAT      O64261   1.080   9.992   1.666
20720WAT     H164262   1.073   9.900   1.640
20720WAT     H264263   1.017  10.002   1.737
20721WAT      O64264   1.359   9.562   0.321
20721WAT     H164265   1.448   9.593   0.303
20721WAT     H264266   1.356   9.475   0.282
20722WAT      O64267   0.470  10.052   0.861
20722WAT     H164268   0.522   9.972   0.856
20722WAT     H264269   0.425  10.046   0.946
20723WAT      O64270   0.219   9.749   1.553
20723WAT     H164271   0.183   9.816   1.611
20723WAT     H264272   0.189   9.666   1.590
20724WAT      O64273   0.539   9.795   1.841
20724WAT     H164274   0.509   9.809   1.751
20724WAT     H264275   0.616   9.739   1.832
20725WAT      O64276   1.586   9.693   0.268
20725WAT     H164277   1.578   9.736   0.183
20725WAT     H264278   1.658   9.739   0.311
20726WAT      O64279   1.694   9.939   1.575
20726WAT     H164280   1.622   9.998   1.556
20726WAT     H264281   1.747   9.938   1.495
20727WAT      O64282   0.786   9.888   0.627
20727WAT     H164283   0.832   9.969   0.650
20727WAT     H264284   0.751   9.856   0.710
20728WAT      O64285   0.376   8.922   0.674
20728WAT     H164286   0.363   8.921   0.769
20728WAT     H264287   0.294   8.956   0.639
20729WAT      O64288   0.268   9.931   0.428
20729WAT     H164289   0.207  10.005   0.429
20729WAT     H264290   0.316   9.940   0.345
20730WAT      O64291   1.225   9.347   1.395
20730WAT     H164292   1.262   9.265   1.428
20730WAT     H264293   1.139   9.353   1.437
20731WAT      O64294   1.562   9.243   0.476
20731WAT     H164295   1.499   9.253   0.405
20731WAT     H264296   1.513   9.265   0.555
20732WAT      O64297   0.759   9.471   0.618
20732WAT     H164298   0.688   9.517   0.662
20732WAT     H264299   0.787   9.405   0.681
20733WAT      O64300   0.921   9.613   1.418
20733WAT     H164301   0.971   9.660   1.484
20733WAT     H264302   0.936   9.520   1.439
20734WAT      O64303   1.162   9.143   0.762
20734WAT     H164304   1.150   9.145   0.667
20734WAT     H264305   1.257   9.148   0.774
20735WAT      O64306   0.579   9.301   0.355
20735WAT     H164307   0.664   9.345   0.349
20735WAT     H264308   0.543   9.333   0.438
20736WAT      O64309   1.642   9.234   1.502
20736WAT     H164310   1.592   9.308   1.536
20736WAT     H264311   1.724   9.273   1.470
20737WAT      O64312   1.471   9.759   0.847
20737WAT     H164313   1.377   9.760   0.864
20737WAT     H264314   1.503   9.680   0.891
20738WAT      O64315   0.339   9.670   0.271
20738WAT     H164316   0.347   9.575   0.282
20738WAT     H264317   0.428   9.703   0.282
20739WAT      O64318   0.797   9.993   1.748
20739WAT     H164319   0.720  10.050   1.740
20739WAT     H264320   0.815   9.964   1.659
20740WAT      O64321   1.106  10.031   0.211
20740WAT     H164322   1.051  10.075   0.275
20740WAT     H264323   1.168   9.980   0.263
20741WAT      O64324   0.295   9.666   1.884
20741WAT     H164325   0.299   9.637   1.975
20741WAT     H264326   0.380   9.707   1.868
20742WAT      O64327   0.672   9.926   0.400
20742WAT     H164328   0.715   9.910   0.484
20742WAT     H264329   0.685   9.845   0.351
20743WAT      O64330   0.489   9.524   1.681
20743WAT     H164331   0.436   9.475   1.618
20743WAT     H264332   0.556   9.567   1.627
20744WAT      O64333   1.378   9.971   1.657
20744WAT     H164334   1.420   9.987   1.742
20744WAT     H264335   1.285   9.984   1.674
20745WAT      O64336   1.426   9.705   1.858
20745WAT     H164337   1.484   9.630   1.849
20745WAT     H264338   1.443   9.758   1.780
20746WAT      O64339   0.537   9.221   1.689
20746WAT     H164340   0.528   9.159   1.616
20746WAT     H264341   0.479   9.294   1.666
20747WAT      O64342   0.814   9.077   1.392
20747WAT     H164343   0.769   9.079   1.308
20747WAT     H264344   0.751   9.037   1.452
20748WAT      O64345   0.855   9.966   1.454
20748WAT     H164346   0.896  10.051   1.437
20748WAT     H264347   0.763   9.980   1.431
20749WAT      O64348   1.088   9.739   1.593
20749WAT     H164349   1.100   9.680   1.667
20749WAT     H264350   1.174   9.743   1.551
20750WAT      O64351   1.322   9.795   1.450
20750WAT     H164352   1.269   9.847   1.390
20750WAT     H264353   1.356   9.858   1.513
20751WAT      O64354   0.765   9.394   1.718
20751WAT     H164355   0.824   9.363   1.787
20751WAT     H264356   0.683   9.346   1.734
20752WAT      O64357   1.247   9.355   1.742
20752WAT     H164358   1.178   9.289   1.735
20752WAT     H264359   1.319   9.311   1.786
20753WAT      O64360   1.310   9.015   0.348
20753WAT     H164361   1.338   8.931   0.383
20753WAT     H264362   1.233   9.038   0.399
20754WAT      O64363   1.748   9.939   0.409
20754WAT     H164364   1.824   9.996   0.419
20754WAT     H264365   1.749   9.882   0.486
20755WAT      O64366   1.393   9.270   0.254
20755WAT     H164367   1.434   9.252   0.170
20755WAT     H264368   1.362   9.185   0.285
20756WAT      O64369   1.743   9.762   0.624
20756WAT     H164370   1.705   9.685   0.580
20756WAT     H264371   1.670   9.800   0.672
20757WAT      O64372   0.201   9.830   1.286
20757WAT     H164373   0.238   9.821   1.374
20757WAT     H264374   0.145   9.753   1.276
20758WAT      O64375   1.682   9.676   1.587
20758WAT     H164376   1.658   9.653   1.497
20758WAT     H264377   1.708   9.768   1.583
20759WAT      O64378   1.525   9.199   1.865
20759WAT     H164379   1.613   9.200   1.903
20759WAT     H264380   1.527   9.125   1.804
20760WAT      O64381   1.670   9.584   0.954
20760WAT     H164382   1.722   9.535   0.891
20760WAT     H264383   1.729   9.598   1.028
20761WAT      O64384   1.688   9.593   1.306
20761WAT     H164385   1.593   9.589   1.317
20761WAT     H264386   1.706   9.684   1.282
20762WAT      O64387   1.619   9.510   0.548
20762WAT     H164388   1.669   9.487   0.626
20762WAT     H264389   1.599   9.426   0.506
20763WAT      O64390   0.207   8.948   1.111
20763WAT     H164391   0.272   8.893   1.067
20763WAT     H264392   0.249   8.974   1.193
20764WAT      O64393   1.762   9.374   0.801
20764WAT     H164394   1.751   9.358   0.895
20764WAT     H264395   1.838   9.321   0.777
20765WAT      O64396   1.597   8.967   1.447
20765WAT     H164397   1.660   9.029   1.483
20765WAT     H264398   1.611   8.971   1.352
20766WAT      O64399   1.858   9.234   0.388
20766WAT     H164400   1.779   9.227   0.441
20766WAT     H264401   1.879   9.327   0.387
20767WAT      O64402   0.182   8.964   1.385
20767WAT     H164403   0.147   9.009   1.462
20767WAT     H264404   0.149   8.874   1.394
20768WAT      O64405   0.934   9.083   1.738
20768WAT     H164406   0.927   9.142   1.813
20768WAT     H264407   1.028   9.072   1.723
20769WAT      O64408   1.197   9.048   1.702
20769WAT     H164409   1.259   9.080   1.635
20769WAT     H264410   1.252   9.000   1.764
20770WAT      O64411   0.250   8.916   1.713
20770WAT     H164412   0.304   8.898   1.637
20770WAT     H264413   0.256   8.837   1.767
20771WAT      O64414   1.271   8.905   1.334
20771WAT     H164415   1.184   8.938   1.314
20771WAT     H264416   1.261   8.858   1.417
20772WAT      O64417   1.362   9.125   1.473
20772WAT     H164418   1.329   9.044   1.435
20772WAT     H264419   1.457   9.121   1.460
20773WAT      O64420   1.046   8.996   1.228
20773WAT     H164421   0.968   9.044   1.256
20773WAT     H264422   1.017   8.906   1.217
20774WAT      O64423   1.501   9.067   1.033
20774WAT     H164424   1.545   9.061   0.948
20774WAT     H264425   1.474   9.158   1.040
20775WAT      O64426   1.688   9.030   0.834
20775WAT     H164427   1.682   8.935   0.819
20775WAT     H264428   1.766   9.041   0.888
20776WAT      O64429   0.181   9.027   0.480
20776WAT     H164430   0.256   9.038   0.423
20776WAT     H264431   0.134   9.111   0.476
20777WAT      O64432   0.835   9.238   0.779
20777WAT     H164433   0.753   9.201   0.745
20777WAT     H264434   0.885   9.163   0.810
20778WAT      O64435   1.285   8.905   0.903
20778WAT     H164436   1.345   8.962   0.951
20778WAT     H264437   1.211   8.961   0.881
20779WAT      O64438   1.599   8.945   0.431
20779WAT     H164439   1.619   9.035   0.457
20779WAT     H264440   1.521   8.922   0.480
20780WAT      O64441   0.418   9.080   0.334
20780WAT     H164442   0.471   9.001   0.321
20780WAT     H264443   0.481   9.147   0.358
20781WAT      O64444   0.637   9.053   0.640
20781WAT     H164445   0.574   8.983   0.656
20781WAT     H264446   0.583   9.129   0.618
20782WAT      O64447   0.650   8.981   1.883
20782WAT     H164448   0.622   9.032   1.807
20782WAT     H264449   0.688   8.901   1.847
20783WAT      O64450   1.310   8.923   1.941
20783WAT     H164451   1.299   8.955   2.031
20783WAT     H264452   1.392   8.963   1.911
20784WAT      O64453   1.200   7.847   6.487
20784WAT     H164454   1.192   7.756   6.460
20784WAT     H264455   1.159   7.897   6.417
20785WAT      O64456   1.014   8.025   6.675
20785WAT     H164457   0.936   7.977   6.704
20785WAT     H264458   1.079   7.957   6.658
20786WAT      O64459   0.415   8.056   6.763
20786WAT     H164460   0.332   8.031   6.803
20786WAT     H264461   0.476   8.063   6.837
20787WAT      O64462   1.416   8.466   6.553
20787WAT     H164463   1.370   8.388   6.586
20787WAT     H264464   1.497   8.468   6.604
20788WAT      O64465   0.413   8.460   6.783
20788WAT     H164466   0.444   8.371   6.765
20788WAT     H264467   0.488   8.515   6.760
20789WAT      O64468   0.256   7.552   6.141
20789WAT     H164469   0.167   7.586   6.131
20789WAT     H264470   0.285   7.532   6.052
20790WAT      O64471   1.038   8.694   6.515
20790WAT     H164472   0.976   8.740   6.458
20790WAT     H264473   1.124   8.710   6.475
20791WAT      O64474   0.958   8.293   6.676
20791WAT     H164475   0.951   8.198   6.660
20791WAT     H264476   1.034   8.302   6.733
20792WAT      O64477   0.177   7.353   6.909
20792WAT     H164478   0.159   7.263   6.937
20792WAT     H264479   0.137   7.408   6.976
20793WAT      O64480   1.061   7.573   6.699
20793WAT     H164481   1.098   7.486   6.687
20793WAT     H264482   1.051   7.607   6.610
20794WAT      O64483   0.474   7.411   6.245
20794WAT     H164484   0.485   7.501   6.276
20794WAT     H264485   0.383   7.406   6.216
20795WAT      O64486   1.439   7.323   6.392
20795WAT     H164487   1.521   7.274   6.396
20795WAT     H264488   1.442   7.382   6.467
20796WAT      O64489   0.239   7.603   6.769
20796WAT     H164490   0.307   7.629   6.831
20796WAT     H264491   0.207   7.519   6.803
20797WAT      O64492   0.658   7.707   6.678
20797WAT     H164493   0.709   7.757   6.742
20797WAT     H264494   0.711   7.630   6.661
20798WAT      O64495   1.868   7.524   7.048
20798WAT     H164496   1.798   7.563   6.997
20798WAT     H264497   1.895   7.594   7.109
20799WAT      O64498   0.486   7.171   7.105
20799WAT     H164499   0.486   7.223   7.024
20799WAT     H264500   0.403   7.124   7.102
20800WAT      O64501   1.125   8.183   6.255
20800WAT     H164502   1.063   8.229   6.198
20800WAT     H264503   1.176   8.252   6.296
20801WAT      O64504   0.611   8.135   6.922
20801WAT     H164505   0.578   8.198   6.987
20801WAT     H264506   0.629   8.188   6.845
20802WAT      O64507   1.463   7.517   6.669
20802WAT     H164508   1.392   7.546   6.727
20802WAT     H264509   1.499   7.598   6.633
20803WAT      O64510   0.454   7.342   6.905
20803WAT     H164511   0.489   7.427   6.876
20803WAT     H264512   0.361   7.357   6.917
20804WAT      O64513   0.533   8.332   7.104
20804WAT     H164514   0.594   8.400   7.076
20804WAT     H264515   0.446   8.373   7.095
20805WAT      O64516   1.624   8.479   6.896
20805WAT     H164517   1.556   8.546   6.895
20805WAT     H264518   1.678   8.498   6.819
20806WAT      O64519   1.770   7.461   6.708
20806WAT     H164520   1.675   7.465   6.721
20806WAT     H264521   1.802   7.543   6.747
20807WAT      O64522   0.823   7.091   6.538
20807WAT     H164523   0.853   7.036   6.466
20807WAT     H264524   0.730   7.105   6.520
20808WAT      O64525   1.378   8.663   6.767
20808WAT     H164526   1.379   8.623   6.680
20808WAT     H264527   1.323   8.740   6.757
20809WAT      O64528   1.507   8.335   6.276
20809WAT     H164529   1.496   8.241   6.288
20809WAT     H264530   1.507   8.371   6.365
20810WAT      O64531   1.318   8.153   6.900
20810WAT     H164532   1.359   8.132   6.816
20810WAT     H264533   1.390   8.179   6.957
20811WAT      O64534   1.062   7.898   6.212
20811WAT     H164535   0.969   7.891   6.234
20811WAT     H264536   1.077   7.992   6.200
20812WAT      O64537   1.060   7.525   5.911
20812WAT     H164538   0.966   7.541   5.920
20812WAT     H264539   1.092   7.597   5.857
20813WAT      O64540   1.712   7.993   6.909
20813WAT     H164541   1.630   8.000   6.861
20813WAT     H264542   1.772   8.052   6.862
20814WAT      O64543   1.465   8.054   6.262
20814WAT     H164544   1.403   8.020   6.197
20814WAT     H264545   1.463   7.990   6.333
20815WAT      O64546   1.409   7.672   7.004
20815WAT     H164547   1.367   7.754   7.029
20815WAT     H264548   1.336   7.613   6.984
20816WAT      O64549   0.622   7.950   6.490
20816WAT     H164550   0.582   7.879   6.440
20816WAT     H264551   0.631   7.916   6.579
20817WAT      O64552   0.669   8.319   6.706
20817WAT     H164553   0.639   8.259   6.638
20817WAT     H264554   0.764   8.323   6.695
20818WAT      O64555   0.493   7.628   6.868
20818WAT     H164556   0.549   7.639   6.790
20818WAT     H264557   0.545   7.665   6.939
20819WAT      O64558   1.478   8.676   7.072
20819WAT     H164559   1.430   8.757   7.053
20819WAT     H264560   1.409   8.611   7.088
20820WAT      O64561   0.578   8.293   7.371
20820WAT     H164562   0.488   8.315   7.396
20820WAT     H264563   0.581   8.305   7.276
20821WAT      O64564   1.282   7.978   5.963
20821WAT     H164565   1.326   7.894   5.948
20821WAT     H264566   1.353   8.041   5.971
20822WAT      O64567   0.461   7.980   7.229
20822WAT     H164568   0.447   8.067   7.266
20822WAT     H264569   0.373   7.946   7.214
20823WAT      O64570   1.093   8.472   6.359
20823WAT     H164571   1.137   8.546   6.318
20823WAT     H264572   1.087   8.496   6.452
20824WAT      O64573   0.641   8.574   7.450
20824WAT     H164574   0.638   8.615   7.363
20824WAT     H264575   0.624   8.481   7.433
20825WAT      O64576   1.640   7.103   5.794
20825WAT     H164577   1.609   7.113   5.884
20825WAT     H264578   1.716   7.161   5.789
20826WAT      O64579   0.292   7.840   6.240
20826WAT     H164580   0.280   7.913   6.179
20826WAT     H264581   0.261   7.763   6.192
20827WAT      O64582   0.180   8.327   6.462
20827WAT     H164583   0.140   8.341   6.376
20827WAT     H264584   0.270   8.299   6.441
20828WAT      O64585   1.776   8.372   7.295
20828WAT     H164586   1.789   8.348   7.203
20828WAT     H264587   1.780   8.289   7.342
20829WAT      O64588   1.162   8.742   7.152
20829WAT     H164589   1.214   8.733   7.232
20829WAT     H264590   1.078   8.777   7.181
20830WAT      O64591   1.360   8.771   6.095
20830WAT     H164592   1.344   8.742   6.185
20830WAT     H264593   1.343   8.693   6.041
20831WAT      O64594   0.608   8.748   6.273
20831WAT     H164595   0.590   8.657   6.251
20831WAT     H264596   0.522   8.784   6.297
20832WAT      O64597   1.330   8.521   5.951
20832WAT     H164598   1.261   8.521   5.885
20832WAT     H264599   1.404   8.479   5.908
20833WAT      O64600   1.287   8.684   6.358
20833WAT     H164601   1.332   8.606   6.390
20833WAT     H264602   1.321   8.755   6.413
20834WAT      O64603   1.761   7.577   7.392
20834WAT     H164604   1.700   7.628   7.339
20834WAT     H264605   1.729   7.487   7.386
20835WAT      O64606   0.539   7.174   6.578
20835WAT     H164607   0.494   7.252   6.545
20835WAT     H264608   0.595   7.207   6.649
20836WAT      O64609   0.967   7.461   7.138
20836WAT     H164610   0.921   7.482   7.220
20836WAT     H264611   0.927   7.380   7.108
20837WAT      O64612   1.468   7.583   7.251
20837WAT     H164613   1.382   7.553   7.283
20837WAT     H264614   1.452   7.607   7.160
20838WAT      O64615   1.177   7.733   7.461
20838WAT     H164616   1.210   7.650   7.427
20838WAT     H264617   1.256   7.785   7.476
20839WAT      O64618   0.850   7.136   6.066
20839WAT     H164619   0.788   7.136   6.139
20839WAT     H264620   0.842   7.050   6.026
20840WAT      O64621   0.743   7.229   6.764
20840WAT     H164622   0.772   7.319   6.756
20840WAT     H264623   0.797   7.180   6.702
20841WAT      O64624   0.518   7.687   6.351
20841WAT     H164625   0.495   7.665   6.441
20841WAT     H264626   0.440   7.730   6.316
20842WAT      O64627   1.241   7.687   6.211
20842WAT     H164628   1.181   7.760   6.192
20842WAT     H264629   1.296   7.681   6.132
20843WAT      O64630   0.762   7.776   7.417
20843WAT     H164631   0.752   7.682   7.402
20843WAT     H264632   0.846   7.799   7.378
20844WAT      O64633   1.102   7.551   6.414
20844WAT     H164634   1.141   7.583   6.332
20844WAT     H264635   1.138   7.463   6.425
20845WAT      O64636   0.275   7.418   7.233
20845WAT     H164637   0.236   7.502   7.253
20845WAT     H264638   0.206   7.354   7.252
20846WAT      O64639   1.160   7.810   6.823
20846WAT     H164640   1.087   7.861   6.858
20846WAT     H264641   1.120   7.728   6.793
20847WAT      O64642   0.804   7.477   6.664
20847WAT     H164643   0.804   7.433   6.579
20847WAT     H264644   0.893   7.510   6.675
20848WAT      O64645   0.389   7.466   6.560
20848WAT     H164646   0.355   7.513   6.635
20848WAT     H264647   0.313   7.420   6.524
20849WAT      O64648   0.810   7.578   5.963
20849WAT     H164649   0.822   7.573   6.058
20849WAT     H264650   0.772   7.664   5.947
20850WAT      O64651   1.206   7.355   6.764
20850WAT     H164652   1.208   7.400   6.849
20850WAT     H264653   1.182   7.265   6.786
20851WAT      O64654   0.711   7.809   5.903
20851WAT     H164655   0.654   7.764   5.840
20851WAT     H264656   0.782   7.844   5.849
20852WAT      O64657   1.549   7.097   7.348
20852WAT     H164658   1.582   7.023   7.401
20852WAT     H264659   1.553   7.065   7.258
20853WAT      O64660   0.219   8.199   7.290
20853WAT     H164661   0.181   8.135   7.350
20853WAT     H264662   0.250   8.269   7.347
20854WAT      O64663   0.834   7.883   6.838
20854WAT     H164664   0.871   7.836   6.913
20854WAT     H264665   0.815   7.971   6.873
20855WAT      O64666   0.613   7.788   7.070
20855WAT     H164667   0.583   7.875   7.093
20855WAT     H264668   0.708   7.794   7.074
20856WAT      O64669   0.466   8.208   6.130
20856WAT     H164670   0.388   8.154   6.114
20856WAT     H264671   0.539   8.156   6.096
20857WAT      O64672   1.542   8.108   6.709
20857WAT     H164673   1.614   8.157   6.670
20857WAT     H264674   1.521   8.040   6.645
20858WAT      O64675   1.088   7.247   6.124
20858WAT     H164676   1.006   7.197   6.116
20858WAT     H264677   1.068   7.331   6.082
20859WAT      O64678   1.080   8.115   7.298
20859WAT     H164679   1.073   8.023   7.272
20859WAT     H264680   1.017   8.125   7.369
20860WAT      O64681   1.359   7.684   5.953
20860WAT     H164682   1.448   7.716   5.936
20860WAT     H264683   1.356   7.597   5.914
20861WAT      O64684   0.470   8.175   6.494
20861WAT     H164685   0.522   8.095   6.488
20861WAT     H264686   0.425   8.169   6.578
20862WAT      O64687   0.959   8.302   6.021
20862WAT     H164688   0.993   8.376   5.971
20862WAT     H264689   0.876   8.333   6.057
20863WAT      O64690   0.219   7.872   7.185
20863WAT     H164691   0.183   7.938   7.244
20863WAT     H264692   0.189   7.788   7.222
20864WAT      O64693   0.539   7.917   7.473
20864WAT     H164694   0.509   7.932   7.384
20864WAT     H264695   0.616   7.861   7.464
20865WAT      O64696   1.073   8.397   7.273
20865WAT     H164697   1.074   8.304   7.251
20865WAT     H264698   1.002   8.406   7.337
20866WAT      O64699   1.586   7.816   5.900
20866WAT     H164700   1.578   7.859   5.815
20866WAT     H264701   1.658   7.861   5.943
20867WAT      O64702   1.694   8.061   7.208
20867WAT     H164703   1.622   8.120   7.188
20867WAT     H264704   1.747   8.060   7.128
20868WAT      O64705   1.689   8.501   6.173
20868WAT     H164706   1.625   8.435   6.200
20868WAT     H264707   1.651   8.541   6.095
20869WAT      O64708   1.247   8.234   6.557
20869WAT     H164709   1.282   8.174   6.491
20869WAT     H264710   1.159   8.201   6.575
20870WAT      O64711   0.856   8.310   6.298
20870WAT     H164712   0.924   8.364   6.336
20870WAT     H264713   0.777   8.364   6.302
20871WAT      O64714   0.786   8.010   6.259
20871WAT     H164715   0.832   8.091   6.282
20871WAT     H264716   0.751   7.978   6.343
20872WAT      O64717   1.016   8.561   6.982
20872WAT     H164718   1.081   8.582   7.050
20872WAT     H264719   1.053   8.485   6.937
20873WAT      O64720   0.376   7.045   6.307
20873WAT     H164721   0.363   7.044   6.402
20873WAT     H264722   0.294   7.078   6.272
20874WAT      O64723   1.144   8.362   6.854
20874WAT     H164724   1.208   8.292   6.865
20874WAT     H264725   1.196   8.440   6.836
20875WAT      O64726   1.528   8.390   5.827
20875WAT     H164727   1.506   8.318   5.886
20875WAT     H264728   1.489   8.365   5.743
20876WAT      O64729   1.321   8.442   7.174
20876WAT     H164730   1.355   8.500   7.242
20876WAT     H264731   1.229   8.428   7.197
20877WAT      O64732   1.486   8.182   5.993
20877WAT     H164733   1.458   8.228   6.071
20877WAT     H264734   1.566   8.136   6.019
20878WAT      O64735   0.708   8.531   5.986
20878WAT     H164736   0.707   8.604   5.924
20878WAT     H264737   0.616   8.506   5.995
20879WAT      O64738   0.268   8.053   6.060
20879WAT     H164739   0.207   8.127   6.061
20879WAT     H264740   0.316   8.062   5.978
20880WAT      O64741   1.225   7.470   7.028
20880WAT     H164742   1.262   7.388   7.061
20880WAT     H264743   1.139   7.476   7.069
20881WAT      O64744   1.562   7.365   6.109
20881WAT     H164745   1.499   7.376   6.037
20881WAT     H264746   1.513   7.387   6.188
20882WAT      O64747   1.007   8.537   5.852
20882WAT     H164748   1.017   8.517   5.759
20882WAT     H264749   0.917   8.512   5.872
20883WAT      O64750   0.759   7.593   6.250
20883WAT     H164751   0.688   7.640   6.294
20883WAT     H264752   0.787   7.527   6.314
20884WAT      O64753   0.921   7.735   7.050
20884WAT     H164754   0.971   7.783   7.117
20884WAT     H264755   0.936   7.643   7.071
20885WAT      O64756   1.162   7.266   6.394
20885WAT     H164757   1.150   7.268   6.299
20885WAT     H264758   1.257   7.270   6.406
20886WAT      O64759   0.871   8.789   6.321
20886WAT     H164760   0.896   8.785   6.229
20886WAT     H264761   0.776   8.777   6.321
20887WAT      O64762   0.579   7.424   5.988
20887WAT     H164763   0.664   7.468   5.981
20887WAT     H264764   0.543   7.455   6.070
20888WAT      O64765   1.642   7.357   7.134
20888WAT     H164766   1.592   7.431   7.168
20888WAT     H264767   1.724   7.396   7.103
20889WAT      O64768   1.471   7.881   6.479
20889WAT     H164769   1.377   7.883   6.496
20889WAT     H264770   1.503   7.802   6.524
20890WAT      O64771   0.469   8.049   5.835
20890WAT     H164772   0.546   8.038   5.891
20890WAT     H264773   0.477   7.980   5.770
20891WAT      O64774   0.339   7.793   5.903
20891WAT     H164775   0.347   7.698   5.915
20891WAT     H264776   0.428   7.826   5.914
20892WAT      O64777   1.672   8.598   6.647
20892WAT     H164778   1.684   8.681   6.694
20892WAT     H264779   1.758   8.577   6.612
20893WAT      O64780   0.419   8.808   6.614
20893WAT     H164781   0.492   8.753   6.641
20893WAT     H264782   0.457   8.894   6.600
20894WAT      O64783   0.730   8.725   5.796
20894WAT     H164784   0.809   8.754   5.751
20894WAT     H264785   0.678   8.682   5.728
20895WAT      O64786   1.346   8.710   7.388
20895WAT     H164787   1.441   8.701   7.383
20895WAT     H264788   1.331   8.776   7.456
20896WAT      O64789   1.635   8.648   5.938
20896WAT     H164790   1.607   8.606   5.857
20896WAT     H264791   1.615   8.740   5.926
20897WAT      O64792   0.782   8.247   5.782
20897WAT     H164793   0.771   8.185   5.855
20897WAT     H264794   0.765   8.195   5.704
20898WAT      O64795   0.797   8.115   7.380
20898WAT     H164796   0.720   8.172   7.372
20898WAT     H264797   0.815   8.086   7.291
20899WAT      O64798   1.106   8.153   5.843
20899WAT     H164799   1.051   8.198   5.907
20899WAT     H264800   1.168   8.103   5.895
20900WAT      O64801   1.511   8.288   7.436
20900WAT     H164802   1.585   8.322   7.386
20900WAT     H264803   1.435   8.305   7.381
20901WAT      O64804   0.672   8.049   6.032
20901WAT     H164805   0.715   8.032   6.117
20901WAT     H264806   0.685   7.968   5.983
20902WAT      O64807   0.489   7.647   7.313
20902WAT     H164808   0.436   7.598   7.250
20902WAT     H264809   0.556   7.690   7.260
20903WAT      O64810   0.924   7.951   5.757
20903WAT     H164811   0.976   7.880   5.721
20903WAT     H264812   0.988   8.015   5.787
20904WAT      O64813   1.378   8.094   7.290
20904WAT     H164814   1.420   8.109   7.375
20904WAT     H264815   1.285   8.106   7.306
20905WAT      O64816   1.426   7.828   7.490
20905WAT     H164817   1.484   7.752   7.481
20905WAT     H264818   1.443   7.881   7.412
20906WAT      O64819   0.537   7.344   7.321
20906WAT     H164820   0.528   7.282   7.249
20906WAT     H264821   0.479   7.416   7.298
20907WAT      O64822   0.814   7.199   7.024
20907WAT     H164823   0.769   7.202   6.940
20907WAT     H264824   0.751   7.159   7.084
20908WAT      O64825   0.855   8.089   7.087
20908WAT     H164826   0.896   8.173   7.069
20908WAT     H264827   0.763   8.103   7.064
20909WAT      O64828   1.088   7.862   7.225
20909WAT     H164829   1.100   7.802   7.299
20909WAT     H264830   1.174   7.866   7.183
20910WAT      O64831   1.322   7.917   7.083
20910WAT     H164832   1.269   7.970   7.022
20910WAT     H264833   1.356   7.981   7.146
20911WAT      O64834   0.562   7.656   5.727
20911WAT     H164835   0.542   7.570   5.763
20911WAT     H264836   0.545   7.648   5.633
20912WAT      O64837   0.640   8.719   7.198
20912WAT     H164838   0.586   8.792   7.166
20912WAT     H264839   0.665   8.672   7.119
20913WAT      O64840   0.765   7.516   7.351
20913WAT     H164841   0.824   7.485   7.419
20913WAT     H264842   0.683   7.469   7.366
20914WAT      O64843   1.247   7.478   7.374
20914WAT     H164844   1.178   7.412   7.368
20914WAT     H264845   1.319   7.433   7.419
20915WAT      O64846   1.310   7.137   5.980
20915WAT     H164847   1.338   7.053   6.016
20915WAT     H264848   1.233   7.161   6.031
20916WAT      O64849   0.442   7.366   5.726
20916WAT     H164850   0.472   7.367   5.635
20916WAT     H264851   0.516   7.331   5.776
20917WAT      O64852   0.925   8.843   7.224
20917WAT     H164853   0.918   8.933   7.255
20917WAT     H264854   0.835   8.811   7.221
20918WAT      O64855   0.764   7.261   5.824
20918WAT     H164856   0.729   7.193   5.766
20918WAT     H264857   0.784   7.215   5.906
20919WAT      O64858   0.980   8.759   5.986
20919WAT     H164859   1.070   8.793   5.988
20919WAT     H264860   0.983   8.687   5.924
20920WAT      O64861   0.344   8.297   5.809
20920WAT     H164862   0.388   8.351   5.875
20920WAT     H264863   0.393   8.214   5.810
20921WAT      O64864   0.525   8.409   6.320
20921WAT     H164865   0.495   8.396   6.410
20921WAT     H264866   0.515   8.323   6.280
20922WAT      O64867   1.678   8.613   7.257
20922WAT     H164868   1.618   8.618   7.183
20922WAT     H264869   1.691   8.519   7.270
20923WAT      O64870   1.802   8.387   5.791
20923WAT     H164871   1.719   8.393   5.838
20923WAT     H264872   1.820   8.476   5.760
20924WAT      O64873   1.748   8.061   6.041
20924WAT     H164874   1.824   8.118   6.052
20924WAT     H264875   1.749   8.004   6.118
20925WAT      O64876   1.848   8.147   6.525
20925WAT     H164877   1.885   8.068   6.485
20925WAT     H264878   1.912   8.216   6.508
20926WAT      O64879   1.547   8.285   7.067
20926WAT     H164880   1.465   8.328   7.093
20926WAT     H264881   1.587   8.346   7.005
20927WAT      O64882   1.753   8.091   5.757
20927WAT     H164883   1.780   8.181   5.744
20927WAT     H264884   1.734   8.084   5.850
20928WAT      O64885   1.393   7.393   5.886
20928WAT     H164886   1.434   7.374   5.802
20928WAT     H264887   1.362   7.308   5.917
20929WAT      O64888   1.743   7.884   6.256
20929WAT     H164889   1.705   7.807   6.213
20929WAT     H264890   1.670   7.922   6.305
20930WAT      O64891   0.201   7.952   6.918
20930WAT     H164892   0.238   7.943   7.006
20930WAT     H264893   0.145   7.876   6.908
20931WAT      O64894   1.682   7.799   7.219
20931WAT     H164895   1.658   7.776   7.129
20931WAT     H264896   1.708   7.891   7.215
20932WAT      O64897   1.670   7.707   6.586
20932WAT     H164898   1.722   7.657   6.523
20932WAT     H264899   1.729   7.720   6.661
20933WAT      O64900   1.688   7.715   6.938
20933WAT     H164901   1.593   7.712   6.950
20933WAT     H264902   1.706   7.806   6.915
20934WAT      O64903   0.273   7.540   5.849
20934WAT     H164904   0.344   7.498   5.801
20934WAT     H264905   0.202   7.547   5.786
20935WAT      O64906   0.238   7.146   5.753
20935WAT     H164907   0.310   7.200   5.785
20935WAT     H264908   0.265   7.118   5.666
20936WAT      O64909   1.619   7.633   6.180
20936WAT     H164910   1.669   7.609   6.258
20936WAT     H264911   1.599   7.549   6.138
20937WAT      O64912   0.207   7.071   6.743
20937WAT     H164913   0.272   7.016   6.699
20937WAT     H264914   0.249   7.096   6.826
20938WAT      O64915   1.762   7.496   6.433
20938WAT     H164916   1.751   7.481   6.527
20938WAT     H264917   1.838   7.443   6.409
20939WAT      O64918   1.597   7.090   7.079
20939WAT     H164919   1.660   7.151   7.116
20939WAT     H264920   1.611   7.094   6.985
20940WAT      O64921   1.851   7.279   5.757
20940WAT     H164922   1.943   7.266   5.737
20940WAT     H264923   1.849   7.287   5.853
20941WAT      O64924   1.858   7.356   6.020
20941WAT     H164925   1.779   7.350   6.073
20941WAT     H264926   1.879   7.450   6.019
20942WAT      O64927   1.552   8.760   6.419
20942WAT     H164928   1.612   8.728   6.352
20942WAT     H264929   1.578   8.713   6.499
20943WAT      O64930   0.182   7.086   7.018
20943WAT     H164931   0.147   7.132   7.094
20943WAT     H264932   0.149   6.997   7.026
20944WAT      O64933   0.713   8.559   6.994
20944WAT     H164934   0.689   8.586   6.906
20944WAT     H264935   0.807   8.576   7.000
20945WAT      O64936   0.934   7.205   7.370
20945WAT     H164937   0.927   7.265   7.445
20945WAT     H264938   1.028   7.195   7.355
20946WAT      O64939   1.197   7.171   7.334
20946WAT     H164940   1.259   7.203   7.268
20946WAT     H264941   1.252   7.123   7.396
20947WAT      O64942   1.839   8.761   7.074
20947WAT     H164943   1.790   8.801   7.003
20947WAT     H264944   1.778   8.698   7.114
20948WAT      O64945   0.250   7.039   7.345
20948WAT     H164946   0.304   7.021   7.269
20948WAT     H264947   0.256   6.960   7.399
20949WAT      O64948   0.327   8.698   7.146
20949WAT     H164949   0.267   8.685   7.220
20949WAT     H264950   0.326   8.614   7.100
20950WAT      O64951   1.271   7.027   6.967
20950WAT     H164952   1.184   7.061   6.946
20950WAT     H264953   1.261   6.980   7.049
20951WAT      O64954   1.362   7.248   7.105
20951WAT     H164955   1.329   7.167   7.067
20951WAT     H264956   1.457   7.244   7.093
20952WAT      O64957   1.607   8.825   6.802
20952WAT     H164958   1.562   8.900   6.765
20952WAT     H264959   1.545   8.753   6.796
20953WAT      O64960   0.290   8.435   7.041
20953WAT     H164961   0.217   8.373   7.035
20953WAT     H264962   0.296   8.474   6.954
20954WAT      O64963   0.650   8.656   6.720
20954WAT     H164964   0.702   8.595   6.667
20954WAT     H264965   0.715   8.706   6.769
20955WAT      O64966   0.924   8.745   6.803
20955WAT     H164967   0.953   8.720   6.715
20955WAT     H264968   0.976   8.690   6.862
20956WAT      O64969   1.046   7.119   6.860
20956WAT     H164970   0.968   7.166   6.888
20956WAT     H264971   1.017   7.029   6.850
20957WAT      O64972   1.501   7.189   6.665
20957WAT     H164973   1.545   7.184   6.580
20957WAT     H264974   1.474   7.281   6.672
20958WAT      O64975   1.688   7.152   6.466
20958WAT     H164976   1.682   7.058   6.451
20958WAT     H264977   1.766   7.163   6.521
20959WAT      O64978   0.181   7.150   6.113
20959WAT     H164979   0.256   7.161   6.055
20959WAT     H264980   0.134   7.233   6.108
20960WAT      O64981   0.835   7.361   6.412
20960WAT     H164982   0.753   7.323   6.378
20960WAT     H264983   0.885   7.285   6.442
20961WAT      O64984   1.285   7.027   6.535
20961WAT     H164985   1.345   7.085   6.583
20961WAT     H264986   1.211   7.084   6.513
20962WAT      O64987   1.599   7.068   6.063
20962WAT     H164988   1.619   7.157   6.090
20962WAT     H264989   1.521   7.044   6.112
20963WAT      O64990   0.279   8.636   6.107
20963WAT     H164991   0.226   8.674   6.036
20963WAT     H264992   0.271   8.698   6.179
20964WAT      O64993   0.418   7.202   5.967
20964WAT     H164994   0.471   7.123   5.954
20964WAT     H264995   0.481   7.270   5.990
20965WAT      O64996   0.637   7.176   6.272
20965WAT     H164997   0.574   7.106   6.289
20965WAT     H264998   0.583   7.252   6.250
20966WAT      O64999   1.755   8.792   6.239
20966WAT     H165000   1.772   8.723   6.175
20966WAT     H265001   1.685   8.844   6.200
20967WAT      O65002   0.539   8.831   5.994
20967WAT     H165003   0.612   8.802   5.940
20967WAT     H265004   0.565   8.807   6.083
20968WAT      O65005   0.455   8.442   5.995
20968WAT     H165006   0.392   8.489   6.050
20968WAT     H265007   0.466   8.358   6.038
20969WAT      O65008   1.200   7.847   4.610
20969WAT     H165009   1.192   7.756   4.583
20969WAT     H265010   1.159   7.897   4.539
20970WAT      O65011   1.014   8.025   4.798
20970WAT     H165012   0.936   7.977   4.827
20970WAT     H265013   1.079   7.957   4.780
20971WAT      O65014   0.415   8.056   4.886
20971WAT     H165015   0.332   8.031   4.926
20971WAT     H265016   0.476   8.063   4.959
20972WAT      O65017   1.416   8.466   4.676
20972WAT     H165018   1.370   8.388   4.709
20972WAT     H265019   1.497   8.468   4.726
20973WAT      O65020   0.413   8.460   4.905
20973WAT     H165021   0.444   8.371   4.887
20973WAT     H265022   0.488   8.515   4.882
20974WAT      O65023   0.256   7.552   4.264
20974WAT     H165024   0.167   7.586   4.254
20974WAT     H265025   0.285   7.532   4.175
20975WAT      O65026   1.038   8.694   4.638
20975WAT     H165027   0.976   8.740   4.581
20975WAT     H265028   1.124   8.710   4.598
20976WAT      O65029   0.958   8.293   4.799
20976WAT     H165030   0.951   8.198   4.782
20976WAT     H265031   1.034   8.302   4.856
20977WAT      O65032   0.177   7.353   5.031
20977WAT     H165033   0.159   7.263   5.059
20977WAT     H265034   0.137   7.408   5.099
20978WAT      O65035   1.061   7.573   4.821
20978WAT     H165036   1.098   7.486   4.810
20978WAT     H265037   1.051   7.607   4.732
20979WAT      O65038   0.474   7.411   4.367
20979WAT     H165039   0.485   7.501   4.398
20979WAT     H265040   0.383   7.406   4.338
20980WAT      O65041   1.439   7.323   4.515
20980WAT     H165042   1.521   7.274   4.519
20980WAT     H265043   1.442   7.382   4.590
20981WAT      O65044   0.239   7.603   4.892
20981WAT     H165045   0.307   7.629   4.954
20981WAT     H265046   0.207   7.519   4.925
20982WAT      O65047   0.658   7.707   4.801
20982WAT     H165048   0.709   7.757   4.865
20982WAT     H265049   0.711   7.630   4.783
20983WAT      O65050   1.868   7.524   5.171
20983WAT     H165051   1.798   7.563   5.119
20983WAT     H265052   1.895   7.594   5.231
20984WAT      O65053   0.486   7.171   5.227
20984WAT     H165054   0.486   7.223   5.147
20984WAT     H265055   0.403   7.124   5.225
20985WAT      O65056   1.125   8.183   4.377
20985WAT     H165057   1.063   8.229   4.321
20985WAT     H265058   1.176   8.252   4.419
20986WAT      O65059   0.611   8.135   5.045
20986WAT     H165060   0.578   8.198   5.109
20986WAT     H265061   0.629   8.188   4.967
20987WAT      O65062   1.463   7.517   4.792
20987WAT     H165063   1.392   7.546   4.850
20987WAT     H265064   1.499   7.598   4.756
20988WAT      O65065   0.454   7.342   5.028
20988WAT     H165066   0.489   7.427   4.999
20988WAT     H265067   0.361   7.357   5.040
20989WAT      O65068   0.533   8.332   5.227
20989WAT     H165069   0.594   8.400   5.198
20989WAT     H265070   0.446   8.373   5.217
20990WAT      O65071   1.624   8.479   5.018
20990WAT     H165072   1.556   8.546   5.017
20990WAT     H265073   1.678   8.498   4.942
20991WAT      O65074   1.770   7.461   4.831
20991WAT     H165075   1.675   7.465   4.844
20991WAT     H265076   1.802   7.543   4.869
20992WAT      O65077   0.823   7.091   4.660
20992WAT     H165078   0.853   7.036   4.589
20992WAT     H265079   0.730   7.105   4.642
20993WAT      O65080   1.378   8.663   4.890
20993WAT     H165081   1.379   8.623   4.803
20993WAT     H265082   1.323   8.740   4.879
20994WAT      O65083   1.507   8.335   4.398
20994WAT     H165084   1.496   8.241   4.411
20994WAT     H265085   1.507   8.371   4.487
20995WAT      O65086   1.318   8.153   5.022
20995WAT     H165087   1.359   8.132   4.939
20995WAT     H265088   1.390   8.179   5.079
20996WAT      O65089   1.062   7.898   4.334
20996WAT     H165090   0.969   7.891   4.357
20996WAT     H265091   1.077   7.992   4.323
20997WAT      O65092   1.060   7.525   4.034
20997WAT     H165093   0.966   7.541   4.042
20997WAT     H265094   1.092   7.597   3.979
20998WAT      O65095   1.712   7.993   5.032
20998WAT     H165096   1.630   8.000   4.984
20998WAT     H265097   1.772   8.052   4.985
20999WAT      O65098   1.465   8.054   4.384
20999WAT     H165099   1.403   8.020   4.320
20999WAT     H265100   1.463   7.990   4.455
21000WAT      O65101   1.409   7.672   5.126
21000WAT     H165102   1.367   7.754   5.151
21000WAT     H265103   1.336   7.613   5.107
21001WAT      O65104   0.622   7.950   4.612
21001WAT     H165105   0.582   7.879   4.563
21001WAT     H265106   0.631   7.916   4.701
21002WAT      O65107   0.669   8.319   4.829
21002WAT     H165108   0.639   8.259   4.761
21002WAT     H265109   0.764   8.323   4.818
21003WAT      O65110   0.493   7.628   4.990
21003WAT     H165111   0.549   7.639   4.913
21003WAT     H265112   0.545   7.665   5.062
21004WAT      O65113   1.478   8.676   5.195
21004WAT     H165114   1.430   8.757   5.176
21004WAT     H265115   1.409   8.611   5.210
21005WAT      O65116   0.578   8.293   5.494
21005WAT     H165117   0.488   8.315   5.518
21005WAT     H265118   0.581   8.305   5.399
21006WAT      O65119   1.282   7.978   4.085
21006WAT     H165120   1.326   7.894   4.071
21006WAT     H265121   1.353   8.041   4.094
21007WAT      O65122   0.461   7.980   5.351
21007WAT     H165123   0.447   8.067   5.388
21007WAT     H265124   0.373   7.946   5.337
21008WAT      O65125   1.093   8.472   4.482
21008WAT     H165126   1.137   8.546   4.441
21008WAT     H265127   1.087   8.496   4.574
21009WAT      O65128   0.641   8.574   5.572
21009WAT     H165129   0.638   8.615   5.485
21009WAT     H265130   0.624   8.481   5.556
21010WAT      O65131   1.640   7.103   3.917
21010WAT     H165132   1.609   7.113   4.007
21010WAT     H265133   1.716   7.161   3.912
21011WAT      O65134   0.292   7.840   4.362
21011WAT     H165135   0.280   7.913   4.301
21011WAT     H265136   0.261   7.763   4.315
21012WAT      O65137   1.836   8.653   5.702
21012WAT     H165138   1.883   8.700   5.770
21012WAT     H265139   1.898   8.646   5.629
21013WAT      O65140   0.180   8.327   4.584
21013WAT     H165141   0.140   8.341   4.499
21013WAT     H265142   0.270   8.299   4.564
21014WAT      O65143   1.776   8.372   5.418
21014WAT     H165144   1.789   8.348   5.326
21014WAT     H265145   1.780   8.289   5.465
21015WAT      O65146   1.162   8.742   5.275
21015WAT     H165147   1.214   8.733   5.355
21015WAT     H265148   1.078   8.777   5.304
21016WAT      O65149   1.360   8.771   4.218
21016WAT     H165150   1.344   8.742   4.307
21016WAT     H265151   1.343   8.693   4.164
21017WAT      O65152   0.608   8.748   4.395
21017WAT     H165153   0.590   8.657   4.374
21017WAT     H265154   0.522   8.784   4.419
21018WAT      O65155   1.330   8.521   4.074
21018WAT     H165156   1.261   8.521   4.008
21018WAT     H265157   1.404   8.479   4.031
21019WAT      O65158   1.287   8.684   4.481
21019WAT     H165159   1.332   8.606   4.512
21019WAT     H265160   1.321   8.755   4.535
21020WAT      O65161   1.761   7.577   5.514
21020WAT     H165162   1.700   7.628   5.461
21020WAT     H265163   1.729   7.487   5.509
21021WAT      O65164   0.539   7.174   4.701
21021WAT     H165165   0.494   7.252   4.667
21021WAT     H265166   0.595   7.207   4.771
21022WAT      O65167   0.967   7.461   5.261
21022WAT     H165168   0.921   7.482   5.342
21022WAT     H265169   0.927   7.380   5.231
21023WAT      O65170   1.468   7.583   5.374
21023WAT     H165171   1.382   7.553   5.406
21023WAT     H265172   1.452   7.607   5.283
21024WAT      O65173   1.177   7.733   5.584
21024WAT     H165174   1.210   7.650   5.550
21024WAT     H265175   1.256   7.785   5.599
21025WAT      O65176   0.850   7.136   4.189
21025WAT     H165177   0.788   7.136   4.261
21025WAT     H265178   0.842   7.050   4.149
21026WAT      O65179   0.743   7.229   4.886
21026WAT     H165180   0.772   7.319   4.878
21026WAT     H265181   0.797   7.180   4.825
21027WAT      O65182   0.518   7.687   4.473
21027WAT     H165183   0.495   7.665   4.564
21027WAT     H265184   0.440   7.730   4.439
21028WAT      O65185   1.241   7.687   4.333
21028WAT     H165186   1.181   7.760   4.315
21028WAT     H265187   1.296   7.681   4.255
21029WAT      O65188   0.762   7.776   5.540
21029WAT     H165189   0.752   7.682   5.525
21029WAT     H265190   0.846   7.799   5.500
21030WAT      O65191   1.102   7.551   4.536
21030WAT     H165192   1.141   7.583   4.455
21030WAT     H265193   1.138   7.463   4.548
21031WAT      O65194   0.275   7.418   5.355
21031WAT     H165195   0.236   7.502   5.376
21031WAT     H265196   0.206   7.354   5.374
21032WAT      O65197   0.932   7.426   5.662
21032WAT     H165198   0.863   7.407   5.726
21032WAT     H265199   1.007   7.454   5.716
21033WAT      O65200   1.160   7.810   4.946
21033WAT     H165201   1.087   7.861   4.981
21033WAT     H265202   1.120   7.728   4.916
21034WAT      O65203   0.804   7.477   4.786
21034WAT     H165204   0.804   7.433   4.701
21034WAT     H265205   0.893   7.510   4.797
21035WAT      O65206   0.389   7.466   4.682
21035WAT     H165207   0.355   7.513   4.758
21035WAT     H265208   0.313   7.420   4.646
21036WAT      O65209   0.810   7.578   4.085
21036WAT     H165210   0.822   7.573   4.180
21036WAT     H265211   0.772   7.664   4.070
21037WAT      O65212   1.206   7.355   4.887
21037WAT     H165213   1.208   7.400   4.971
21037WAT     H265214   1.182   7.265   4.908
21038WAT      O65215   0.711   7.809   4.025
21038WAT     H165216   0.654   7.764   3.963
21038WAT     H265217   0.782   7.844   3.972
21039WAT      O65218   1.549   7.097   5.471
21039WAT     H165219   1.582   7.023   5.524
21039WAT     H265220   1.553   7.065   5.381
21040WAT      O65221   0.219   8.199   5.413
21040WAT     H165222   0.181   8.135   5.473
21040WAT     H265223   0.250   8.269   5.470
21041WAT      O65224   0.834   7.883   4.961
21041WAT     H165225   0.871   7.836   5.036
21041WAT     H265226   0.815   7.971   4.995
21042WAT      O65227   0.613   7.788   5.193
21042WAT     H165228   0.583   7.875   5.215
21042WAT     H265229   0.708   7.794   5.196
21043WAT      O65230   0.466   8.208   4.253
21043WAT     H165231   0.388   8.154   4.237
21043WAT     H265232   0.539   8.156   4.219
21044WAT      O65233   1.542   8.108   4.832
21044WAT     H165234   1.614   8.157   4.793
21044WAT     H265235   1.521   8.040   4.767
21045WAT      O65236   1.088   7.247   4.246
21045WAT     H165237   1.006   7.197   4.239
21045WAT     H265238   1.068   7.331   4.204
21046WAT      O65239   1.080   8.115   5.420
21046WAT     H165240   1.073   8.023   5.395
21046WAT     H265241   1.017   8.125   5.492
21047WAT      O65242   1.359   7.684   4.076
21047WAT     H165243   1.448   7.716   4.058
21047WAT     H265244   1.356   7.597   4.037
21048WAT      O65245   0.470   8.175   4.616
21048WAT     H165246   0.522   8.095   4.611
21048WAT     H265247   0.425   8.169   4.700
21049WAT      O65248   0.959   8.302   4.144
21049WAT     H165249   0.993   8.376   4.094
21049WAT     H265250   0.876   8.333   4.180
21050WAT      O65251   0.219   7.872   5.308
21050WAT     H165252   0.183   7.938   5.366
21050WAT     H265253   0.189   7.788   5.345
21051WAT      O65254   0.539   7.917   5.596
21051WAT     H165255   0.509   7.932   5.506
21051WAT     H265256   0.616   7.861   5.587
21052WAT      O65257   1.073   8.397   5.396
21052WAT     H165258   1.074   8.304   5.374
21052WAT     H265259   1.002   8.406   5.459
21053WAT      O65260   1.586   7.816   4.022
21053WAT     H165261   1.578   7.859   3.937
21053WAT     H265262   1.658   7.861   4.066
21054WAT      O65263   1.694   8.061   5.330
21054WAT     H165264   1.622   8.120   5.310
21054WAT     H265265   1.747   8.060   5.250
21055WAT      O65266   1.689   8.501   4.295
21055WAT     H165267   1.625   8.435   4.323
21055WAT     H265268   1.651   8.541   4.218
21056WAT      O65269   1.247   8.234   4.680
21056WAT     H165270   1.282   8.174   4.614
21056WAT     H265271   1.159   8.201   4.697
21057WAT      O65272   0.856   8.310   4.421
21057WAT     H165273   0.924   8.364   4.459
21057WAT     H265274   0.777   8.364   4.424
21058WAT      O65275   0.786   8.010   4.382
21058WAT     H165276   0.832   8.091   4.405
21058WAT     H265277   0.751   7.978   4.465
21059WAT      O65278   1.016   8.561   5.105
21059WAT     H165279   1.081   8.582   5.173
21059WAT     H265280   1.053   8.485   5.060
21060WAT      O65281   0.376   7.045   4.429
21060WAT     H165282   0.363   7.044   4.524
21060WAT     H265283   0.294   7.078   4.394
21061WAT      O65284   1.144   8.362   4.977
21061WAT     H165285   1.208   8.292   4.988
21061WAT     H265286   1.196   8.440   4.959
21062WAT      O65287   1.528   8.390   3.949
21062WAT     H165288   1.506   8.318   4.008
21062WAT     H265289   1.489   8.365   3.865
21063WAT      O65290   1.321   8.442   5.297
21063WAT     H165291   1.355   8.500   5.365
21063WAT     H265292   1.229   8.428   5.320
21064WAT      O65293   1.486   8.182   4.115
21064WAT     H165294   1.458   8.228   4.194
21064WAT     H265295   1.566   8.136   4.142
21065WAT      O65296   0.904   8.446   5.614
21065WAT     H165297   0.872   8.375   5.668
21065WAT     H265298   0.837   8.514   5.621
21066WAT      O65299   0.708   8.531   4.108
21066WAT     H165300   0.707   8.604   4.047
21066WAT     H265301   0.616   8.506   4.118
21067WAT      O65302   0.268   8.053   4.183
21067WAT     H165303   0.207   8.127   4.184
21067WAT     H265304   0.316   8.062   4.100
21068WAT      O65305   1.225   7.470   5.150
21068WAT     H165306   1.262   7.388   5.183
21068WAT     H265307   1.139   7.476   5.192
21069WAT      O65308   1.562   7.365   4.231
21069WAT     H165309   1.499   7.376   4.160
21069WAT     H265310   1.513   7.387   4.310
21070WAT      O65311   1.007   8.537   3.975
21070WAT     H165312   1.017   8.517   3.882
21070WAT     H265313   0.917   8.512   3.995
21071WAT      O65314   0.759   7.593   4.373
21071WAT     H165315   0.688   7.640   4.417
21071WAT     H265316   0.787   7.527   4.436
21072WAT      O65317   0.921   7.735   5.173
21072WAT     H165318   0.971   7.783   5.239
21072WAT     H265319   0.936   7.643   5.193
21073WAT      O65320   1.162   7.266   4.517
21073WAT     H165321   1.150   7.268   4.422
21073WAT     H265322   1.257   7.270   4.529
21074WAT      O65323   0.871   8.789   4.444
21074WAT     H165324   0.896   8.785   4.352
21074WAT     H265325   0.776   8.777   4.443
21075WAT      O65326   0.579   7.424   4.110
21075WAT     H165327   0.664   7.468   4.104
21075WAT     H265328   0.543   7.455   4.193
21076WAT      O65329   1.642   7.357   5.257
21076WAT     H165330   1.592   7.431   5.291
21076WAT     H265331   1.724   7.396   5.225
21077WAT      O65332   1.471   7.881   4.602
21077WAT     H165333   1.377   7.883   4.619
21077WAT     H265334   1.503   7.802   4.646
21078WAT      O65335   0.469   8.049   3.958
21078WAT     H165336   0.546   8.038   4.014
21078WAT     H265337   0.477   7.980   3.892
21079WAT      O65338   0.339   7.793   4.026
21079WAT     H165339   0.347   7.698   4.037
21079WAT     H265340   0.428   7.826   4.037
21080WAT      O65341   1.672   8.598   4.769
21080WAT     H165342   1.684   8.681   4.816
21080WAT     H265343   1.758   8.577   4.734
21081WAT      O65344   0.419   8.808   4.736
21081WAT     H165345   0.492   8.753   4.763
21081WAT     H265346   0.457   8.894   4.722
21082WAT      O65347   0.319   8.726   5.655
21082WAT     H165348   0.400   8.758   5.696
21082WAT     H265349   0.268   8.690   5.727
21083WAT      O65350   0.730   8.725   3.919
21083WAT     H165351   0.809   8.754   3.873
21083WAT     H265352   0.678   8.682   3.851
21084WAT      O65353   1.203   8.337   5.650
21084WAT     H165354   1.142   8.339   5.576
21084WAT     H265355   1.173   8.264   5.704
21085WAT      O65356   1.346   8.710   5.511
21085WAT     H165357   1.441   8.701   5.506
21085WAT     H265358   1.331   8.776   5.578
21086WAT      O65359   1.635   8.648   4.061
21086WAT     H165360   1.607   8.606   3.979
21086WAT     H265361   1.615   8.740   4.049
21087WAT      O65362   0.782   8.247   3.905
21087WAT     H165363   0.771   8.185   3.978
21087WAT     H265364   0.765   8.195   3.827
21088WAT      O65365   0.797   8.115   5.503
21088WAT     H165366   0.720   8.172   5.494
21088WAT     H265367   0.815   8.086   5.414
21089WAT      O65368   1.106   8.153   3.965
21089WAT     H165369   1.051   8.198   4.030
21089WAT     H265370   1.168   8.103   4.018
21090WAT      O65371   1.511   8.288   5.559
21090WAT     H165372   1.585   8.322   5.508
21090WAT     H265373   1.435   8.305   5.503
21091WAT      O65374   0.295   7.789   5.639
21091WAT     H165375   0.299   7.759   5.730
21091WAT     H265376   0.380   7.829   5.623
21092WAT      O65377   0.672   8.049   4.155
21092WAT     H165378   0.715   8.032   4.239
21092WAT     H265379   0.685   7.968   4.106
21093WAT      O65380   0.489   7.647   5.436
21093WAT     H165381   0.436   7.598   5.373
21093WAT     H265382   0.556   7.690   5.382
21094WAT      O65383   0.924   7.951   3.880
21094WAT     H165384   0.976   7.880   3.843
21094WAT     H265385   0.988   8.015   3.910
21095WAT      O65386   1.378   8.094   5.412
21095WAT     H165387   1.420   8.109   5.497
21095WAT     H265388   1.285   8.106   5.428
21096WAT      O65389   1.426   7.828   5.613
21096WAT     H165390   1.484   7.752   5.604
21096WAT     H265391   1.443   7.881   5.535
21097WAT      O65392   0.537   7.344   5.444
21097WAT     H165393   0.528   7.282   5.371
21097WAT     H265394   0.479   7.416   5.421
21098WAT      O65395   0.814   7.199   5.147
21098WAT     H165396   0.769   7.202   5.062
21098WAT     H265397   0.751   7.159   5.207
21099WAT      O65398   0.855   8.089   5.209
21099WAT     H165399   0.896   8.173   5.192
21099WAT     H265400   0.763   8.103   5.186
21100WAT      O65401   1.088   7.862   5.348
21100WAT     H165402   1.100   7.802   5.421
21100WAT     H265403   1.174   7.866   5.306
21101WAT      O65404   1.322   7.917   5.205
21101WAT     H165405   1.269   7.970   5.145
21101WAT     H265406   1.356   7.981   5.268
21102WAT      O65407   0.562   7.656   3.850
21102WAT     H165408   0.542   7.570   3.886
21102WAT     H265409   0.545   7.648   3.756
21103WAT      O65410   0.640   8.719   5.321
21103WAT     H165411   0.586   8.792   5.289
21103WAT     H265412   0.665   8.672   5.242
21104WAT      O65413   0.765   7.516   5.473
21104WAT     H165414   0.824   7.485   5.542
21104WAT     H265415   0.683   7.469   5.489
21105WAT      O65416   1.247   7.478   5.497
21105WAT     H165417   1.178   7.412   5.490
21105WAT     H265418   1.319   7.433   5.541
21106WAT      O65419   1.310   7.137   4.102
21106WAT     H165420   1.338   7.053   4.138
21106WAT     H265421   1.233   7.161   4.154
21107WAT      O65422   0.442   7.366   3.848
21107WAT     H165423   0.472   7.367   3.758
21107WAT     H265424   0.516   7.331   3.898
21108WAT      O65425   0.925   8.843   5.347
21108WAT     H165426   0.918   8.933   5.377
21108WAT     H265427   0.835   8.811   5.344
21109WAT      O65428   0.764   7.261   3.947
21109WAT     H165429   0.729   7.193   3.889
21109WAT     H265430   0.784   7.215   4.028
21110WAT      O65431   0.980   8.759   4.109
21110WAT     H165432   1.070   8.793   4.111
21110WAT     H265433   0.983   8.687   4.046
21111WAT      O65434   0.344   8.297   3.932
21111WAT     H165435   0.388   8.351   3.997
21111WAT     H265436   0.393   8.214   3.933
21112WAT      O65437   0.525   8.409   4.443
21112WAT     H165438   0.495   8.396   4.533
21112WAT     H265439   0.515   8.323   4.402
21113WAT      O65440   1.678   8.613   5.379
21113WAT     H165441   1.618   8.618   5.305
21113WAT     H265442   1.691   8.519   5.392
21114WAT      O65443   1.802   8.387   3.913
21114WAT     H165444   1.719   8.393   3.960
21114WAT     H265445   1.820   8.476   3.883
21115WAT      O65446   1.748   8.061   4.164
21115WAT     H165447   1.824   8.118   4.174
21115WAT     H265448   1.749   8.004   4.241
21116WAT      O65449   1.848   8.147   4.648
21116WAT     H165450   1.885   8.068   4.607
21116WAT     H265451   1.912   8.216   4.630
21117WAT      O65452   1.547   8.285   5.189
21117WAT     H165453   1.465   8.328   5.216
21117WAT     H265454   1.587   8.346   5.128
21118WAT      O65455   1.753   8.091   3.879
21118WAT     H165456   1.780   8.181   3.866
21118WAT     H265457   1.734   8.084   3.973
21119WAT      O65458   1.393   7.393   4.009
21119WAT     H165459   1.434   7.374   3.925
21119WAT     H265460   1.362   7.308   4.040
21120WAT      O65461   1.743   7.884   4.379
21120WAT     H165462   1.705   7.807   4.335
21120WAT     H265463   1.670   7.922   4.427
21121WAT      O65464   0.201   7.952   5.041
21121WAT     H165465   0.238   7.943   5.129
21121WAT     H265466   0.145   7.876   5.031
21122WAT      O65467   1.682   7.799   5.342
21122WAT     H165468   1.658   7.776   5.252
21122WAT     H265469   1.708   7.891   5.337
21123WAT      O65470   1.525   7.321   5.620
21123WAT     H165471   1.613   7.322   5.658
21123WAT     H265472   1.527   7.248   5.559
21124WAT      O65473   1.670   7.707   4.709
21124WAT     H165474   1.722   7.657   4.646
21124WAT     H265475   1.729   7.720   4.783
21125WAT      O65476   1.688   7.715   5.061
21125WAT     H165477   1.593   7.712   5.072
21125WAT     H265478   1.706   7.806   5.037
21126WAT      O65479   0.273   7.540   3.972
21126WAT     H165480   0.344   7.498   3.923
21126WAT     H265481   0.202   7.547   3.909
21127WAT      O65482   0.238   7.146   3.876
21127WAT     H165483   0.310   7.200   3.908
21127WAT     H265484   0.265   7.118   3.788
21128WAT      O65485   1.619   7.633   4.303
21128WAT     H165486   1.669   7.609   4.381
21128WAT     H265487   1.599   7.549   4.261
21129WAT      O65488   0.207   7.071   4.866
21129WAT     H165489   0.272   7.016   4.822
21129WAT     H265490   0.249   7.096   4.948
21130WAT      O65491   1.762   7.496   4.556
21130WAT     H165492   1.751   7.481   4.650
21130WAT     H265493   1.838   7.443   4.532
21131WAT      O65494   1.597   7.090   5.202
21131WAT     H165495   1.660   7.151   5.238
21131WAT     H265496   1.611   7.094   5.107
21132WAT      O65497   1.851   7.279   3.880
21132WAT     H165498   1.943   7.266   3.859
21132WAT     H265499   1.849   7.287   3.975
21133WAT      O65500   1.858   7.356   4.143
21133WAT     H165501   1.779   7.350   4.195
21133WAT     H265502   1.879   7.450   4.141
21134WAT      O65503   1.552   8.760   4.542
21134WAT     H165504   1.612   8.728   4.474
21134WAT     H265505   1.578   8.713   4.621
21135WAT      O65506   0.182   7.086   5.140
21135WAT     H165507   0.147   7.132   5.217
21135WAT     H265508   0.149   6.997   5.149
21136WAT      O65509   0.343   8.403   5.557
21136WAT     H165510   0.339   8.366   5.645
21136WAT     H265511   0.356   8.497   5.571
21137WAT      O65512   0.713   8.559   5.117
21137WAT     H165513   0.689   8.586   5.028
21137WAT     H265514   0.807   8.576   5.122
21138WAT      O65515   0.934   7.205   5.493
21138WAT     H165516   0.927   7.265   5.567
21138WAT     H265517   1.028   7.195   5.478
21139WAT      O65518   1.197   7.171   5.456
21139WAT     H165519   1.259   7.203   5.390
21139WAT     H265520   1.252   7.123   5.518
21140WAT      O65521   1.839   8.761   5.197
21140WAT     H165522   1.790   8.801   5.125
21140WAT     H265523   1.778   8.698   5.236
21141WAT      O65524   0.250   7.039   5.468
21141WAT     H165525   0.304   7.021   5.391
21141WAT     H265526   0.256   6.960   5.521
21142WAT      O65527   0.327   8.698   5.269
21142WAT     H165528   0.267   8.685   5.343
21142WAT     H265529   0.326   8.614   5.222
21143WAT      O65530   1.271   7.027   5.089
21143WAT     H165531   1.184   7.061   5.069
21143WAT     H265532   1.261   6.980   5.172
21144WAT      O65533   1.362   7.248   5.228
21144WAT     H165534   1.329   7.167   5.190
21144WAT     H265535   1.457   7.244   5.215
21145WAT      O65536   1.607   8.825   4.925
21145WAT     H165537   1.562   8.900   4.887
21145WAT     H265538   1.545   8.753   4.919
21146WAT      O65539   0.290   8.435   5.164
21146WAT     H165540   0.217   8.373   5.157
21146WAT     H265541   0.296   8.474   5.077
21147WAT      O65542   0.650   8.656   4.842
21147WAT     H165543   0.702   8.595   4.790
21147WAT     H265544   0.715   8.706   4.892
21148WAT      O65545   0.924   8.745   4.925
21148WAT     H165546   0.953   8.720   4.837
21148WAT     H265547   0.976   8.690   4.984
21149WAT      O65548   1.046   7.119   4.983
21149WAT     H165549   0.968   7.166   5.011
21149WAT     H265550   1.017   7.029   4.972
21150WAT      O65551   1.501   7.189   4.788
21150WAT     H165552   1.545   7.184   4.703
21150WAT     H265553   1.474   7.281   4.795
21151WAT      O65554   1.688   7.152   4.589
21151WAT     H165555   1.682   7.058   4.574
21151WAT     H265556   1.766   7.163   4.643
21152WAT      O65557   0.181   7.150   4.235
21152WAT     H165558   0.256   7.161   4.178
21152WAT     H265559   0.134   7.233   4.231
21153WAT      O65560   0.835   7.361   4.534
21153WAT     H165561   0.753   7.323   4.500
21153WAT     H265562   0.885   7.285   4.564
21154WAT      O65563   1.285   7.027   4.658
21154WAT     H165564   1.345   7.085   4.706
21154WAT     H265565   1.211   7.084   4.636
21155WAT      O65566   1.599   7.068   4.185
21155WAT     H165567   1.619   7.157   4.212
21155WAT     H265568   1.521   7.044   4.235
21156WAT      O65569   0.279   8.636   4.229
21156WAT     H165570   0.226   8.674   4.159
21156WAT     H265571   0.271   8.698   4.301
21157WAT      O65572   0.418   7.202   4.089
21157WAT     H165573   0.471   7.123   4.076
21157WAT     H265574   0.481   7.270   4.113
21158WAT      O65575   0.637   7.176   4.395
21158WAT     H165576   0.574   7.106   4.411
21158WAT     H265577   0.583   7.252   4.373
21159WAT      O65578   0.931   8.837   5.662
21159WAT     H165579   1.024   8.814   5.666
21159WAT     H265580   0.930   8.920   5.614
21160WAT      O65581   1.755   8.792   4.362
21160WAT     H165582   1.772   8.723   4.297
21160WAT     H265583   1.685   8.844   4.322
21161WAT      O65584   0.650   7.104   5.638
21161WAT     H165585   0.622   7.154   5.562
21161WAT     H265586   0.688   7.024   5.602
21162WAT      O65587   0.539   8.831   4.117
21162WAT     H165588   0.612   8.802   4.062
21162WAT     H265589   0.565   8.807   4.206
21163WAT      O65590   0.455   8.442   4.117
21163WAT     H165591   0.392   8.489   4.172
21163WAT     H265592   0.466   8.358   4.161
21164WAT      O65593   1.310   7.045   5.696
21164WAT     H165594   1.299   7.077   5.786
21164WAT     H265595   1.392   7.085   5.666
21165WAT      O65596   1.588   8.760   5.644
21165WAT     H165597   1.667   8.710   5.623
21165WAT     H265598   1.617   8.828   5.705
21166WAT      O65599   1.200   7.847   2.732
21166WAT     H165600   1.192   7.756   2.705
21166WAT     H265601   1.159   7.897   2.662
21167WAT      O65602   1.014   8.025   2.920
21167WAT     H165603   0.936   7.977   2.949
21167WAT     H265604   1.079   7.957   2.903
21168WAT      O65605   0.415   8.056   3.008
21168WAT     H165606   0.332   8.031   3.048
21168WAT     H265607   0.476   8.063   3.082
21169WAT      O65608   0.413   8.460   3.028
21169WAT     H165609   0.444   8.371   3.010
21169WAT     H265610   0.488   8.515   3.005
21170WAT      O65611   0.256   7.552   2.387
21170WAT     H165612   0.167   7.586   2.376
21170WAT     H265613   0.285   7.532   2.297
21171WAT      O65614   1.038   8.694   2.760
21171WAT     H165615   0.976   8.740   2.703
21171WAT     H265616   1.124   8.710   2.720
21172WAT      O65617   0.958   8.293   2.921
21172WAT     H165618   0.951   8.198   2.905
21172WAT     H265619   1.034   8.302   2.978
21173WAT      O65620   0.177   7.353   3.154
21173WAT     H165621   0.159   7.263   3.182
21173WAT     H265622   0.137   7.408   3.221
21174WAT      O65623   1.061   7.573   2.944
21174WAT     H165624   1.098   7.486   2.933
21174WAT     H265625   1.051   7.607   2.855
21175WAT      O65626   0.474   7.411   2.490
21175WAT     H165627   0.485   7.501   2.521
21175WAT     H265628   0.383   7.406   2.461
21176WAT      O65629   1.439   7.323   2.637
21176WAT     H165630   1.521   7.274   2.641
21176WAT     H265631   1.442   7.382   2.712
21177WAT      O65632   0.239   7.603   3.015
21177WAT     H165633   0.307   7.629   3.076
21177WAT     H265634   0.207   7.519   3.048
21178WAT      O65635   0.658   7.707   2.923
21178WAT     H165636   0.709   7.757   2.987
21178WAT     H265637   0.711   7.630   2.906
21179WAT      O65638   0.486   7.171   3.350
21179WAT     H165639   0.486   7.223   3.269
21179WAT     H265640   0.403   7.124   3.348
21180WAT      O65641   1.125   8.183   2.500
21180WAT     H165642   1.063   8.229   2.443
21180WAT     H265643   1.176   8.252   2.541
21181WAT      O65644   0.611   8.135   3.168
21181WAT     H165645   0.578   8.198   3.232
21181WAT     H265646   0.629   8.188   3.090
21182WAT      O65647   1.463   7.517   2.914
21182WAT     H165648   1.392   7.546   2.972
21182WAT     H265649   1.499   7.598   2.878
21183WAT      O65650   0.454   7.342   3.151
21183WAT     H165651   0.489   7.427   3.121
21183WAT     H265652   0.361   7.357   3.162
21184WAT      O65653   0.533   8.332   3.349
21184WAT     H165654   0.594   8.400   3.321
21184WAT     H265655   0.446   8.373   3.340
21185WAT      O65656   1.770   7.461   2.953
21185WAT     H165657   1.675   7.465   2.967
21185WAT     H265658   1.802   7.543   2.992
21186WAT      O65659   0.823   7.091   2.783
21186WAT     H165660   0.853   7.036   2.711
21186WAT     H265661   0.730   7.105   2.765
21187WAT      O65662   1.318   8.153   3.145
21187WAT     H165663   1.359   8.132   3.061
21187WAT     H265664   1.390   8.179   3.202
21188WAT      O65665   1.062   7.898   2.457
21188WAT     H165666   0.969   7.891   2.480
21188WAT     H265667   1.077   7.992   2.445
21189WAT      O65668   1.060   7.525   2.156
21189WAT     H165669   0.966   7.541   2.165
21189WAT     H265670   1.092   7.597   2.102
21190WAT      O65671   1.409   7.672   3.249
21190WAT     H165672   1.367   7.754   3.274
21190WAT     H265673   1.336   7.613   3.229
21191WAT      O65674   0.622   7.950   2.735
21191WAT     H165675   0.582   7.879   2.685
21191WAT     H265676   0.631   7.916   2.824
21192WAT      O65677   0.669   8.319   2.951
21192WAT     H165678   0.639   8.259   2.883
21192WAT     H265679   0.764   8.323   2.940
21193WAT      O65680   0.493   7.628   3.113
21193WAT     H165681   0.549   7.639   3.035
21193WAT     H265682   0.545   7.665   3.184
21194WAT      O65683   1.478   8.676   3.317
21194WAT     H165684   1.430   8.757   3.298
21194WAT     H265685   1.409   8.611   3.333
21195WAT      O65686   0.578   8.293   3.616
21195WAT     H165687   0.488   8.315   3.641
21195WAT     H265688   0.581   8.305   3.521
21196WAT      O65689   1.282   7.978   2.208
21196WAT     H165690   1.326   7.894   2.193
21196WAT     H265691   1.353   8.041   2.216
21197WAT      O65692   0.461   7.980   3.474
21197WAT     H165693   0.447   8.067   3.511
21197WAT     H265694   0.373   7.946   3.459
21198WAT      O65695   1.093   8.472   2.605
21198WAT     H165696   1.137   8.546   2.563
21198WAT     H265697   1.087   8.496   2.697
21199WAT      O65698   0.641   8.574   3.695
21199WAT     H165699   0.638   8.615   3.608
21199WAT     H265700   0.624   8.481   3.678
21200WAT      O65701   1.640   7.103   2.039
21200WAT     H165702   1.609   7.113   2.129
21200WAT     H265703   1.716   7.161   2.034
21201WAT      O65704   0.292   7.840   2.485
21201WAT     H165705   0.280   7.913   2.424
21201WAT     H265706   0.261   7.763   2.437
21202WAT      O65707   1.836   8.653   3.824
21202WAT     H165708   1.883   8.700   3.892
21202WAT     H265709   1.898   8.646   3.752
21203WAT      O65710   0.180   8.327   2.707
21203WAT     H165711   0.140   8.341   2.621
21203WAT     H265712   0.270   8.299   2.686
21204WAT      O65713   1.776   8.372   3.540
21204WAT     H165714   1.789   8.348   3.449
21204WAT     H265715   1.780   8.289   3.588
21205WAT      O65716   1.162   8.742   3.397
21205WAT     H165717   1.214   8.733   3.478
21205WAT     H265718   1.078   8.777   3.427
21206WAT      O65719   1.360   8.771   2.340
21206WAT     H165720   1.344   8.742   2.430
21206WAT     H265721   1.343   8.693   2.287
21207WAT      O65722   0.608   8.748   2.518
21207WAT     H165723   0.590   8.657   2.497
21207WAT     H265724   0.522   8.784   2.542
21208WAT      O65725   0.539   7.174   2.823
21208WAT     H165726   0.494   7.252   2.790
21208WAT     H265727   0.595   7.207   2.894
21209WAT      O65728   0.967   7.461   3.383
21209WAT     H165729   0.921   7.482   3.465
21209WAT     H265730   0.927   7.380   3.353
21210WAT      O65731   1.468   7.583   3.496
21210WAT     H165732   1.382   7.553   3.529
21210WAT     H265733   1.452   7.607   3.405
21211WAT      O65734   1.177   7.733   3.706
21211WAT     H165735   1.210   7.650   3.672
21211WAT     H265736   1.256   7.785   3.721
21212WAT      O65737   0.850   7.136   2.311
21212WAT     H165738   0.788   7.136   2.384
21212WAT     H265739   0.842   7.050   2.272
21213WAT      O65740   0.743   7.229   3.009
21213WAT     H165741   0.772   7.319   3.001
21213WAT     H265742   0.797   7.180   2.948
21214WAT      O65743   0.518   7.687   2.596
21214WAT     H165744   0.495   7.665   2.686
21214WAT     H265745   0.440   7.730   2.561
21215WAT      O65746   1.241   7.687   2.456
21215WAT     H165747   1.181   7.760   2.437
21215WAT     H265748   1.296   7.681   2.378
21216WAT      O65749   0.762   7.776   3.663
21216WAT     H165750   0.752   7.682   3.648
21216WAT     H265751   0.846   7.799   3.623
21217WAT      O65752   1.102   7.551   2.659
21217WAT     H165753   1.141   7.583   2.578
21217WAT     H265754   1.138   7.463   2.670
21218WAT      O65755   0.275   7.418   3.478
21218WAT     H165756   0.236   7.502   3.499
21218WAT     H265757   0.206   7.354   3.497
21219WAT      O65758   0.932   7.426   3.785
21219WAT     H165759   0.863   7.407   3.848
21219WAT     H265760   1.007   7.454   3.838
21220WAT      O65761   1.160   7.810   3.068
21220WAT     H165762   1.087   7.861   3.103
21220WAT     H265763   1.120   7.728   3.038
21221WAT      O65764   0.804   7.477   2.909
21221WAT     H165765   0.804   7.433   2.824
21221WAT     H265766   0.893   7.510   2.920
21222WAT      O65767   0.389   7.466   2.805
21222WAT     H165768   0.355   7.513   2.881
21222WAT     H265769   0.313   7.420   2.769
21223WAT      O65770   0.810   7.578   2.208
21223WAT     H165771   0.822   7.573   2.303
21223WAT     H265772   0.772   7.664   2.192
21224WAT      O65773   1.206   7.355   3.010
21224WAT     H165774   1.208   7.400   3.094
21224WAT     H265775   1.182   7.265   3.031
21225WAT      O65776   0.711   7.809   2.148
21225WAT     H165777   0.654   7.764   2.085
21225WAT     H265778   0.782   7.844   2.094
21226WAT      O65779   1.549   7.097   3.593
21226WAT     H165780   1.582   7.023   3.646
21226WAT     H265781   1.553   7.065   3.503
21227WAT      O65782   0.219   8.199   3.535
21227WAT     H165783   0.181   8.135   3.595
21227WAT     H265784   0.250   8.269   3.592
21228WAT      O65785   0.834   7.883   3.084
21228WAT     H165786   0.871   7.836   3.158
21228WAT     H265787   0.815   7.971   3.118
21229WAT      O65788   0.613   7.788   3.315
21229WAT     H165789   0.583   7.875   3.338
21229WAT     H265790   0.708   7.794   3.319
21230WAT      O65791   0.466   8.208   2.375
21230WAT     H165792   0.388   8.154   2.359
21230WAT     H265793   0.539   8.156   2.341
21231WAT      O65794   1.088   7.247   2.369
21231WAT     H165795   1.006   7.197   2.361
21231WAT     H265796   1.068   7.331   2.327
21232WAT      O65797   1.080   8.115   3.543
21232WAT     H165798   1.073   8.023   3.518
21232WAT     H265799   1.017   8.125   3.614
21233WAT      O65800   1.359   7.684   2.198
21233WAT     H165801   1.448   7.716   2.181
21233WAT     H265802   1.356   7.597   2.159
21234WAT      O65803   0.470   8.175   2.739
21234WAT     H165804   0.522   8.095   2.733
21234WAT     H265805   0.425   8.169   2.823
21235WAT      O65806   0.959   8.302   2.266
21235WAT     H165807   0.993   8.376   2.217
21235WAT     H265808   0.876   8.333   2.302
21236WAT      O65809   0.219   7.872   3.430
21236WAT     H165810   0.183   7.938   3.489
21236WAT     H265811   0.189   7.788   3.467
21237WAT      O65812   0.539   7.917   3.719
21237WAT     H165813   0.509   7.932   3.629
21237WAT     H265814   0.616   7.861   3.709
21238WAT      O65815   1.073   8.397   3.518
21238WAT     H165816   1.074   8.304   3.496
21238WAT     H265817   1.002   8.406   3.582
21239WAT      O65818   1.586   7.816   2.145
21239WAT     H165819   1.578   7.859   2.060
21239WAT     H265820   1.658   7.861   2.188
21240WAT      O65821   1.247   8.234   2.803
21240WAT     H165822   1.282   8.174   2.737
21240WAT     H265823   1.159   8.201   2.820
21241WAT      O65824   0.856   8.310   2.543
21241WAT     H165825   0.924   8.364   2.581
21241WAT     H265826   0.777   8.364   2.547
21242WAT      O65827   0.786   8.010   2.505
21242WAT     H165828   0.832   8.091   2.527
21242WAT     H265829   0.751   7.978   2.588
21243WAT      O65830   1.016   8.561   3.227
21243WAT     H165831   1.081   8.582   3.295
21243WAT     H265832   1.053   8.485   3.182
21244WAT      O65833   0.376   7.045   2.552
21244WAT     H165834   0.363   7.044   2.647
21244WAT     H265835   0.294   7.078   2.517
21245WAT      O65836   1.144   8.362   3.099
21245WAT     H165837   1.208   8.292   3.111
21245WAT     H265838   1.196   8.440   3.081
21246WAT      O65839   1.321   8.442   3.420
21246WAT     H165840   1.355   8.500   3.487
21246WAT     H265841   1.229   8.428   3.443
21247WAT      O65842   0.904   8.446   3.736
21247WAT     H165843   0.872   8.375   3.791
21247WAT     H265844   0.837   8.514   3.744
21248WAT      O65845   0.708   8.531   2.231
21248WAT     H165846   0.707   8.604   2.169
21248WAT     H265847   0.616   8.506   2.240
21249WAT      O65848   0.268   8.053   2.305
21249WAT     H165849   0.207   8.127   2.306
21249WAT     H265850   0.316   8.062   2.223
21250WAT      O65851   1.225   7.470   3.273
21250WAT     H165852   1.262   7.388   3.306
21250WAT     H265853   1.139   7.476   3.314
21251WAT      O65854   1.562   7.365   2.354
21251WAT     H165855   1.499   7.376   2.282
21251WAT     H265856   1.513   7.387   2.433
21252WAT      O65857   1.007   8.537   2.097
21252WAT     H165858   1.017   8.517   2.004
21252WAT     H265859   0.917   8.512   2.118
21253WAT      O65860   0.759   7.593   2.495
21253WAT     H165861   0.688   7.640   2.539
21253WAT     H265862   0.787   7.527   2.559
21254WAT      O65863   0.921   7.735   3.295
21254WAT     H165864   0.971   7.783   3.362
21254WAT     H265865   0.936   7.643   3.316
21255WAT      O65866   1.162   7.266   2.639
21255WAT     H165867   1.150   7.268   2.544
21255WAT     H265868   1.257   7.270   2.651
21256WAT      O65869   0.871   8.789   2.567
21256WAT     H165870   0.896   8.785   2.474
21256WAT     H265871   0.776   8.777   2.566
21257WAT      O65872   0.579   7.424   2.233
21257WAT     H165873   0.664   7.468   2.226
21257WAT     H265874   0.543   7.455   2.316
21258WAT      O65875   1.642   7.357   3.380
21258WAT     H165876   1.592   7.431   3.413
21258WAT     H265877   1.724   7.396   3.348
21259WAT      O65878   1.471   7.881   2.724
21259WAT     H165879   1.377   7.883   2.742
21259WAT     H265880   1.503   7.802   2.769
21260WAT      O65881   0.469   8.049   2.080
21260WAT     H165882   0.546   8.038   2.136
21260WAT     H265883   0.477   7.980   2.015
21261WAT      O65884   0.339   7.793   2.149
21261WAT     H165885   0.347   7.698   2.160
21261WAT     H265886   0.428   7.826   2.159
21262WAT      O65887   0.419   8.808   2.859
21262WAT     H165888   0.492   8.753   2.886
21262WAT     H265889   0.457   8.894   2.845
21263WAT      O65890   0.319   8.726   3.778
21263WAT     H165891   0.400   8.758   3.819
21263WAT     H265892   0.268   8.690   3.850
21264WAT      O65893   0.730   8.725   2.041
21264WAT     H165894   0.809   8.754   1.996
21264WAT     H265895   0.678   8.682   1.973
21265WAT      O65896   1.203   8.337   3.772
21265WAT     H165897   1.142   8.339   3.698
21265WAT     H265898   1.173   8.264   3.826
21266WAT      O65899   1.346   8.710   3.634
21266WAT     H165900   1.441   8.701   3.629
21266WAT     H265901   1.331   8.776   3.701
21267WAT      O65902   0.782   8.247   2.028
21267WAT     H165903   0.771   8.185   2.100
21267WAT     H265904   0.765   8.195   1.949
21268WAT      O65905   0.797   8.115   3.625
21268WAT     H165906   0.720   8.172   3.617
21268WAT     H265907   0.815   8.086   3.536
21269WAT      O65908   1.106   8.153   2.088
21269WAT     H165909   1.051   8.198   2.152
21269WAT     H265910   1.168   8.103   2.140
21270WAT      O65911   1.511   8.288   3.681
21270WAT     H165912   1.585   8.322   3.631
21270WAT     H265913   1.435   8.305   3.626
21271WAT      O65914   0.295   7.789   3.762
21271WAT     H165915   0.299   7.759   3.852
21271WAT     H265916   0.380   7.829   3.746
21272WAT      O65917   0.672   8.049   2.278
21272WAT     H165918   0.715   8.032   2.362
21272WAT     H265919   0.685   7.968   2.228
21273WAT      O65920   0.489   7.647   3.558
21273WAT     H165921   0.436   7.598   3.496
21273WAT     H265922   0.556   7.690   3.505
21274WAT      O65923   0.924   7.951   2.002
21274WAT     H165924   0.976   7.880   1.966
21274WAT     H265925   0.988   8.015   2.032
21275WAT      O65926   1.378   8.094   3.535
21275WAT     H165927   1.420   8.109   3.620
21275WAT     H265928   1.285   8.106   3.551
21276WAT      O65929   1.426   7.828   3.735
21276WAT     H165930   1.484   7.752   3.726
21276WAT     H265931   1.443   7.881   3.657
21277WAT      O65932   0.537   7.344   3.566
21277WAT     H165933   0.528   7.282   3.494
21277WAT     H265934   0.479   7.416   3.544
21278WAT      O65935   0.814   7.199   3.270
21278WAT     H165936   0.769   7.202   3.185
21278WAT     H265937   0.751   7.159   3.329
21279WAT      O65938   0.855   8.089   3.332
21279WAT     H165939   0.896   8.173   3.314
21279WAT     H265940   0.763   8.103   3.309
21280WAT      O65941   1.088   7.862   3.470
21280WAT     H165942   1.100   7.802   3.544
21280WAT     H265943   1.174   7.866   3.428
21281WAT      O65944   1.322   7.917   3.328
21281WAT     H165945   1.269   7.970   3.267
21281WAT     H265946   1.356   7.981   3.391
21282WAT      O65947   0.562   7.656   1.972
21282WAT     H165948   0.542   7.570   2.008
21282WAT     H265949   0.545   7.648   1.878
21283WAT      O65950   0.640   8.719   3.443
21283WAT     H165951   0.586   8.792   3.411
21283WAT     H265952   0.665   8.672   3.364
21284WAT      O65953   0.765   7.516   3.596
21284WAT     H165954   0.824   7.485   3.665
21284WAT     H265955   0.683   7.469   3.611
21285WAT      O65956   1.247   7.478   3.619
21285WAT     H165957   1.178   7.412   3.613
21285WAT     H265958   1.319   7.433   3.664
21286WAT      O65959   1.310   7.137   2.225
21286WAT     H165960   1.338   7.053   2.261
21286WAT     H265961   1.233   7.161   2.276
21287WAT      O65962   0.442   7.366   1.971
21287WAT     H165963   0.472   7.367   1.880
21287WAT     H265964   0.516   7.331   2.021
21288WAT      O65965   0.925   8.843   3.469
21288WAT     H165966   0.918   8.933   3.500
21288WAT     H265967   0.835   8.811   3.466
21289WAT      O65968   0.764   7.261   2.070
21289WAT     H165969   0.729   7.193   2.012
21289WAT     H265970   0.784   7.215   2.151
21290WAT      O65971   0.980   8.759   2.231
21290WAT     H165972   1.070   8.793   2.234
21290WAT     H265973   0.983   8.687   2.169
21291WAT      O65974   0.344   8.297   2.054
21291WAT     H165975   0.388   8.351   2.120
21291WAT     H265976   0.393   8.214   2.055
21292WAT      O65977   0.525   8.409   2.565
21292WAT     H165978   0.495   8.396   2.656
21292WAT     H265979   0.515   8.323   2.525
21293WAT      O65980   1.678   8.613   3.502
21293WAT     H165981   1.618   8.618   3.428
21293WAT     H265982   1.691   8.519   3.515
21294WAT      O65983   1.802   8.387   2.036
21294WAT     H165984   1.719   8.393   2.083
21294WAT     H265985   1.820   8.476   2.005
21295WAT      O65986   1.547   8.285   3.312
21295WAT     H165987   1.465   8.328   3.338
21295WAT     H265988   1.587   8.346   3.251
21296WAT      O65989   1.753   8.091   2.002
21296WAT     H165990   1.780   8.181   1.989
21296WAT     H265991   1.734   8.084   2.095
21297WAT      O65992   1.393   7.393   2.131
21297WAT     H165993   1.434   7.374   2.047
21297WAT     H265994   1.362   7.308   2.162
21298WAT      O65995   1.743   7.884   2.501
21298WAT     H165996   1.705   7.807   2.458
21298WAT     H265997   1.670   7.922   2.550
21299WAT      O65998   0.201   7.952   3.163
21299WAT     H165999   0.238   7.943   3.251
21299WAT     H266000   0.145   7.876   3.153
21300WAT      O66001   1.525   7.321   3.742
21300WAT     H166002   1.613   7.322   3.781
21300WAT     H266003   1.527   7.248   3.681
21301WAT      O66004   1.670   7.707   2.831
21301WAT     H166005   1.722   7.657   2.768
21301WAT     H266006   1.729   7.720   2.906
21302WAT      O66007   0.273   7.540   2.094
21302WAT     H166008   0.344   7.498   2.046
21302WAT     H266009   0.202   7.547   2.031
21303WAT      O66010   0.238   7.146   1.998
21303WAT     H166011   0.310   7.200   2.030
21303WAT     H266012   0.265   7.118   1.911
21304WAT      O66013   1.619   7.633   2.425
21304WAT     H166014   1.669   7.609   2.504
21304WAT     H266015   1.599   7.549   2.383
21305WAT      O66016   0.207   7.071   2.989
21305WAT     H166017   0.272   7.016   2.945
21305WAT     H266018   0.249   7.096   3.071
21306WAT      O66019   1.762   7.496   2.678
21306WAT     H166020   1.751   7.481   2.772
21306WAT     H266021   1.838   7.443   2.654
21307WAT      O66022   1.597   7.090   3.324
21307WAT     H166023   1.660   7.151   3.361
21307WAT     H266024   1.611   7.094   3.230
21308WAT      O66025   1.851   7.279   2.003
21308WAT     H166026   1.943   7.266   1.982
21308WAT     H266027   1.849   7.287   2.098
21309WAT      O66028   1.858   7.356   2.265
21309WAT     H166029   1.779   7.350   2.318
21309WAT     H266030   1.879   7.450   2.264
21310WAT      O66031   0.182   7.086   3.263
21310WAT     H166032   0.147   7.132   3.339
21310WAT     H266033   0.149   6.997   3.271
21311WAT      O66034   0.343   8.403   3.679
21311WAT     H166035   0.339   8.366   3.768
21311WAT     H266036   0.356   8.497   3.693
21312WAT      O66037   0.713   8.559   3.240
21312WAT     H166038   0.689   8.586   3.151
21312WAT     H266039   0.807   8.576   3.245
21313WAT      O66040   0.934   7.205   3.615
21313WAT     H166041   0.927   7.265   3.690
21313WAT     H266042   1.028   7.195   3.601
21314WAT      O66043   1.197   7.171   3.579
21314WAT     H166044   1.259   7.203   3.513
21314WAT     H266045   1.252   7.123   3.641
21315WAT      O66046   1.839   8.761   3.320
21315WAT     H166047   1.790   8.801   3.248
21315WAT     H266048   1.778   8.698   3.359
21316WAT      O66049   0.250   7.039   3.590
21316WAT     H166050   0.304   7.021   3.514
21316WAT     H266051   0.256   6.960   3.644
21317WAT      O66052   0.327   8.698   3.391
21317WAT     H166053   0.267   8.685   3.465
21317WAT     H266054   0.326   8.614   3.345
21318WAT      O66055   1.271   7.027   3.212
21318WAT     H166056   1.184   7.061   3.191
21318WAT     H266057   1.261   6.980   3.294
21319WAT      O66058   1.362   7.248   3.350
21319WAT     H166059   1.329   7.167   3.312
21319WAT     H266060   1.457   7.244   3.338
21320WAT      O66061   0.290   8.435   3.286
21320WAT     H166062   0.217   8.373   3.280
21320WAT     H266063   0.296   8.474   3.199
21321WAT      O66064   0.650   8.656   2.965
21321WAT     H166065   0.702   8.595   2.912
21321WAT     H266066   0.715   8.706   3.014
21322WAT      O66067   0.924   8.745   3.048
21322WAT     H166068   0.953   8.720   2.960
21322WAT     H266069   0.976   8.690   3.107
21323WAT      O66070   1.046   7.119   3.106
21323WAT     H166071   0.968   7.166   3.134
21323WAT     H266072   1.017   7.029   3.095
21324WAT      O66073   1.501   7.189   2.910
21324WAT     H166074   1.545   7.184   2.825
21324WAT     H266075   1.474   7.281   2.917
21325WAT      O66076   1.688   7.152   2.711
21325WAT     H166077   1.682   7.058   2.697
21325WAT     H266078   1.766   7.163   2.766
21326WAT      O66079   0.181   7.150   2.358
21326WAT     H166080   0.256   7.161   2.300
21326WAT     H266081   0.134   7.233   2.353
21327WAT      O66082   0.835   7.361   2.657
21327WAT     H166083   0.753   7.323   2.623
21327WAT     H266084   0.885   7.285   2.687
21328WAT      O66085   1.285   7.027   2.781
21328WAT     H166086   1.345   7.085   2.828
21328WAT     H266087   1.211   7.084   2.758
21329WAT      O66088   1.599   7.068   2.308
21329WAT     H166089   1.619   7.157   2.335
21329WAT     H266090   1.521   7.044   2.357
21330WAT      O66091   0.279   8.636   2.352
21330WAT     H166092   0.226   8.674   2.282
21330WAT     H266093   0.271   8.698   2.424
21331WAT      O66094   0.418   7.202   2.212
21331WAT     H166095   0.471   7.123   2.199
21331WAT     H266096   0.481   7.270   2.235
21332WAT      O66097   0.637   7.176   2.517
21332WAT     H166098   0.574   7.106   2.534
21332WAT     H266099   0.583   7.252   2.496
21333WAT      O66100   0.931   8.837   3.784
21333WAT     H166101   1.024   8.814   3.789
21333WAT     H266102   0.930   8.920   3.736
21334WAT      O66103   0.650   7.104   3.761
21334WAT     H166104   0.622   7.154   3.684
21334WAT     H266105   0.688   7.024   3.724
21335WAT      O66106   0.539   8.831   2.239
21335WAT     H166107   0.612   8.802   2.185
21335WAT     H266108   0.565   8.807   2.328
21336WAT      O66109   0.455   8.442   2.240
21336WAT     H166110   0.392   8.489   2.295
21336WAT     H266111   0.466   8.358   2.283
21337WAT      O66112   1.310   7.045   3.819
21337WAT     H166113   1.299   7.077   3.908
21337WAT     H266114   1.392   7.085   3.789
21338WAT      O66115   1.588   8.760   3.767
21338WAT     H166116   1.667   8.710   3.746
21338WAT     H266117   1.617   8.828   3.827
21339WAT      O66118   1.200   7.847   0.855
21339WAT     H166119   1.192   7.756   0.828
21339WAT     H266120   1.159   7.897   0.784
21340WAT      O66121   1.014   8.025   1.043
21340WAT     H166122   0.936   7.977   1.072
21340WAT     H266123   1.079   7.957   1.026
21341WAT      O66124   0.415   8.056   1.131
21341WAT     H166125   0.332   8.031   1.171
21341WAT     H266126   0.476   8.063   1.204
21342WAT      O66127   1.416   8.466   0.921
21342WAT     H166128   1.370   8.388   0.954
21342WAT     H266129   1.497   8.468   0.972
21343WAT      O66130   0.413   8.460   1.150
21343WAT     H166131   0.444   8.371   1.132
21343WAT     H266132   0.488   8.515   1.128
21344WAT      O66133   0.256   7.552   0.509
21344WAT     H166134   0.167   7.586   0.499
21344WAT     H266135   0.285   7.532   0.420
21345WAT      O66136   1.038   8.694   0.883
21345WAT     H166137   0.976   8.740   0.826
21345WAT     H266138   1.124   8.710   0.843
21346WAT      O66139   0.958   8.293   1.044
21346WAT     H166140   0.951   8.198   1.028
21346WAT     H266141   1.034   8.302   1.101
21347WAT      O66142   0.177   7.353   1.276
21347WAT     H166143   0.159   7.263   1.304
21347WAT     H266144   0.137   7.408   1.344
21348WAT      O66145   1.061   7.573   1.066
21348WAT     H166146   1.098   7.486   1.055
21348WAT     H266147   1.051   7.607   0.977
21349WAT      O66148   0.474   7.411   0.613
21349WAT     H166149   0.485   7.501   0.643
21349WAT     H266150   0.383   7.406   0.584
21350WAT      O66151   1.439   7.323   0.760
21350WAT     H166152   1.521   7.274   0.764
21350WAT     H266153   1.442   7.382   0.835
21351WAT      O66154   0.239   7.603   1.137
21351WAT     H166155   0.307   7.629   1.199
21351WAT     H266156   0.207   7.519   1.170
21352WAT      O66157   0.658   7.707   1.046
21352WAT     H166158   0.709   7.757   1.110
21352WAT     H266159   0.711   7.630   1.028
21353WAT      O66160   1.868   7.524   1.416
21353WAT     H166161   1.798   7.563   1.364
21353WAT     H266162   1.895   7.594   1.476
21354WAT      O66163   0.486   7.171   1.472
21354WAT     H166164   0.486   7.223   1.392
21354WAT     H266165   0.403   7.124   1.470
21355WAT      O66166   1.125   8.183   0.622
21355WAT     H166167   1.063   8.229   0.566
21355WAT     H266168   1.176   8.252   0.664
21356WAT      O66169   0.611   8.135   1.290
21356WAT     H166170   0.578   8.198   1.354
21356WAT     H266171   0.629   8.188   1.212
21357WAT      O66172   1.463   7.517   1.037
21357WAT     H166173   1.392   7.546   1.095
21357WAT     H266174   1.499   7.598   1.001
21358WAT      O66175   0.454   7.342   1.273
21358WAT     H166176   0.489   7.427   1.244
21358WAT     H266177   0.361   7.357   1.285
21359WAT      O66178   0.533   8.332   1.472
21359WAT     H166179   0.594   8.400   1.444
21359WAT     H266180   0.446   8.373   1.463
21360WAT      O66181   1.624   8.479   1.263
21360WAT     H166182   1.556   8.546   1.262
21360WAT     H266183   1.678   8.498   1.187
21361WAT      O66184   1.770   7.461   1.076
21361WAT     H166185   1.675   7.465   1.089
21361WAT     H266186   1.802   7.543   1.115
21362WAT      O66187   0.823   7.091   0.906
21362WAT     H166188   0.853   7.036   0.834
21362WAT     H266189   0.730   7.105   0.887
21363WAT      O66190   1.378   8.663   1.135
21363WAT     H166191   1.379   8.623   1.048
21363WAT     H266192   1.323   8.740   1.124
21364WAT      O66193   1.507   8.335   0.644
21364WAT     H166194   1.496   8.241   0.656
21364WAT     H266195   1.507   8.371   0.732
21365WAT      O66196   1.318   8.153   1.267
21365WAT     H166197   1.359   8.132   1.184
21365WAT     H266198   1.390   8.179   1.325
21366WAT      O66199   1.062   7.898   0.579
21366WAT     H166200   0.969   7.891   0.602
21366WAT     H266201   1.077   7.992   0.568
21367WAT      O66202   1.060   7.525   0.279
21367WAT     H166203   0.966   7.541   0.287
21367WAT     H266204   1.092   7.597   0.224
21368WAT      O66205   1.712   7.993   1.277
21368WAT     H166206   1.630   8.000   1.229
21368WAT     H266207   1.772   8.052   1.230
21369WAT      O66208   1.465   8.054   0.630
21369WAT     H166209   1.403   8.020   0.565
21369WAT     H266210   1.463   7.990   0.700
21370WAT      O66211   1.409   7.672   1.371
21370WAT     H166212   1.367   7.754   1.397
21370WAT     H266213   1.336   7.613   1.352
21371WAT      O66214   0.622   7.950   0.857
21371WAT     H166215   0.582   7.879   0.808
21371WAT     H266216   0.631   7.916   0.946
21372WAT      O66217   0.669   8.319   1.074
21372WAT     H166218   0.639   8.259   1.006
21372WAT     H266219   0.764   8.323   1.063
21373WAT      O66220   0.493   7.628   1.235
21373WAT     H166221   0.549   7.639   1.158
21373WAT     H266222   0.545   7.665   1.307
21374WAT      O66223   1.478   8.676   1.440
21374WAT     H166224   1.430   8.757   1.421
21374WAT     H266225   1.409   8.611   1.455
21375WAT      O66226   0.578   8.293   1.739
21375WAT     H166227   0.488   8.315   1.764
21375WAT     H266228   0.581   8.305   1.644
21376WAT      O66229   1.282   7.978   0.330
21376WAT     H166230   1.326   7.894   0.316
21376WAT     H266231   1.353   8.041   0.339
21377WAT      O66232   0.461   7.980   1.596
21377WAT     H166233   0.447   8.067   1.633
21377WAT     H266234   0.373   7.946   1.582
21378WAT      O66235   1.093   8.472   0.727
21378WAT     H166236   1.137   8.546   0.686
21378WAT     H266237   1.087   8.496   0.819
21379WAT      O66238   0.641   8.574   1.817
21379WAT     H166239   0.638   8.615   1.731
21379WAT     H266240   0.624   8.481   1.801
21380WAT      O66241   0.292   7.840   0.607
21380WAT     H166242   0.280   7.913   0.546
21380WAT     H266243   0.261   7.763   0.560
21381WAT      O66244   1.836   8.653   1.947
21381WAT     H166245   1.883   8.700   2.015
21381WAT     H266246   1.898   8.646   1.874
21382WAT      O66247   0.180   8.327   0.829
21382WAT     H166248   0.140   8.341   0.744
21382WAT     H266249   0.270   8.299   0.809
21383WAT      O66250   1.776   8.372   1.663
21383WAT     H166251   1.789   8.348   1.571
21383WAT     H266252   1.780   8.289   1.710
21384WAT      O66253   1.162   8.742   1.520
21384WAT     H166254   1.214   8.733   1.600
21384WAT     H266255   1.078   8.777   1.549
21385WAT      O66256   1.360   8.771   0.463
21385WAT     H166257   1.344   8.742   0.553
21385WAT     H266258   1.343   8.693   0.409
21386WAT      O66259   0.608   8.748   0.640
21386WAT     H166260   0.590   8.657   0.619
21386WAT     H266261   0.522   8.784   0.664
21387WAT      O66262   1.330   8.521   0.319
21387WAT     H166263   1.261   8.521   0.253
21387WAT     H266264   1.404   8.479   0.276
21388WAT      O66265   1.287   8.684   0.726
21388WAT     H166266   1.332   8.606   0.758
21388WAT     H266267   1.321   8.755   0.781
21389WAT      O66268   1.761   7.577   1.759
21389WAT     H166269   1.700   7.628   1.707
21389WAT     H266270   1.729   7.487   1.754
21390WAT      O66271   0.539   7.174   0.946
21390WAT     H166272   0.494   7.252   0.913
21390WAT     H266273   0.595   7.207   1.016
21391WAT      O66274   0.967   7.461   1.506
21391WAT     H166275   0.921   7.482   1.587
21391WAT     H266276   0.927   7.380   1.476
21392WAT      O66277   1.468   7.583   1.619
21392WAT     H166278   1.382   7.553   1.651
21392WAT     H266279   1.452   7.607   1.528
21393WAT      O66280   1.177   7.733   1.829
21393WAT     H166281   1.210   7.650   1.795
21393WAT     H266282   1.256   7.785   1.844
21394WAT      O66283   0.850   7.136   0.434
21394WAT     H166284   0.788   7.136   0.506
21394WAT     H266285   0.842   7.050   0.394
21395WAT      O66286   0.743   7.229   1.132
21395WAT     H166287   0.772   7.319   1.124
21395WAT     H266288   0.797   7.180   1.070
21396WAT      O66289   0.518   7.687   0.719
21396WAT     H166290   0.495   7.665   0.809
21396WAT     H266291   0.440   7.730   0.684
21397WAT      O66292   1.241   7.687   0.578
21397WAT     H166293   1.181   7.760   0.560
21397WAT     H266294   1.296   7.681   0.500
21398WAT      O66295   0.762   7.776   1.785
21398WAT     H166296   0.752   7.682   1.770
21398WAT     H266297   0.846   7.799   1.746
21399WAT      O66298   1.102   7.551   0.781
21399WAT     H166299   1.141   7.583   0.700
21399WAT     H266300   1.138   7.463   0.793
21400WAT      O66301   0.275   7.418   1.600
21400WAT     H166302   0.236   7.502   1.621
21400WAT     H266303   0.206   7.354   1.620
21401WAT      O66304   0.932   7.426   1.907
21401WAT     H166305   0.863   7.407   1.971
21401WAT     H266306   1.007   7.454   1.961
21402WAT      O66307   1.160   7.810   1.191
21402WAT     H166308   1.087   7.861   1.226
21402WAT     H266309   1.120   7.728   1.161
21403WAT      O66310   0.804   7.477   1.031
21403WAT     H166311   0.804   7.433   0.947
21403WAT     H266312   0.893   7.510   1.042
21404WAT      O66313   0.389   7.466   0.927
21404WAT     H166314   0.355   7.513   1.003
21404WAT     H266315   0.313   7.420   0.891
21405WAT      O66316   0.810   7.578   0.331
21405WAT     H166317   0.822   7.573   0.425
21405WAT     H266318   0.772   7.664   0.315
21406WAT      O66319   1.206   7.355   1.132
21406WAT     H166320   1.208   7.400   1.217
21406WAT     H266321   1.182   7.265   1.154
21407WAT      O66322   0.711   7.809   0.270
21407WAT     H166323   0.654   7.764   0.208
21407WAT     H266324   0.782   7.844   0.217
21408WAT      O66325   1.549   7.097   1.716
21408WAT     H166326   1.582   7.023   1.769
21408WAT     H266327   1.553   7.065   1.626
21409WAT      O66328   0.219   8.199   1.658
21409WAT     H166329   0.181   8.135   1.718
21409WAT     H266330   0.250   8.269   1.715
21410WAT      O66331   0.834   7.883   1.206
21410WAT     H166332   0.871   7.836   1.281
21410WAT     H266333   0.815   7.971   1.240
21411WAT      O66334   0.613   7.788   1.438
21411WAT     H166335   0.583   7.875   1.460
21411WAT     H266336   0.708   7.794   1.442
21412WAT      O66337   0.466   8.208   0.498
21412WAT     H166338   0.388   8.154   0.482
21412WAT     H266339   0.539   8.156   0.464
21413WAT      O66340   1.542   8.108   1.077
21413WAT     H166341   1.614   8.157   1.038
21413WAT     H266342   1.521   8.040   1.012
21414WAT      O66343   1.088   7.247   0.491
21414WAT     H166344   1.006   7.197   0.484
21414WAT     H266345   1.068   7.331   0.450
21415WAT      O66346   1.080   8.115   1.666
21415WAT     H166347   1.073   8.023   1.640
21415WAT     H266348   1.017   8.125   1.737
21416WAT      O66349   1.359   7.684   0.321
21416WAT     H166350   1.448   7.716   0.303
21416WAT     H266351   1.356   7.597   0.282
21417WAT      O66352   0.470   8.175   0.861
21417WAT     H166353   0.522   8.095   0.856
21417WAT     H266354   0.425   8.169   0.946
21418WAT      O66355   0.959   8.302   0.389
21418WAT     H166356   0.993   8.376   0.339
21418WAT     H266357   0.876   8.333   0.425
21419WAT      O66358   0.219   7.872   1.553
21419WAT     H166359   0.183   7.938   1.611
21419WAT     H266360   0.189   7.788   1.590
21420WAT      O66361   0.539   7.917   1.841
21420WAT     H166362   0.509   7.932   1.751
21420WAT     H266363   0.616   7.861   1.832
21421WAT      O66364   1.073   8.397   1.641
21421WAT     H166365   1.074   8.304   1.619
21421WAT     H266366   1.002   8.406   1.705
21422WAT      O66367   1.586   7.816   0.268
21422WAT     H166368   1.578   7.859   0.183
21422WAT     H266369   1.658   7.861   0.311
21423WAT      O66370   1.694   8.061   1.575
21423WAT     H166371   1.622   8.120   1.556
21423WAT     H266372   1.747   8.060   1.495
21424WAT      O66373   1.689   8.501   0.540
21424WAT     H166374   1.625   8.435   0.568
21424WAT     H266375   1.651   8.541   0.463
21425WAT      O66376   1.247   8.234   0.925
21425WAT     H166377   1.282   8.174   0.859
21425WAT     H266378   1.159   8.201   0.942
21426WAT      O66379   0.856   8.310   0.666
21426WAT     H166380   0.924   8.364   0.704
21426WAT     H266381   0.777   8.364   0.669
21427WAT      O66382   0.786   8.010   0.627
21427WAT     H166383   0.832   8.091   0.650
21427WAT     H266384   0.751   7.978   0.710
21428WAT      O66385   1.016   8.561   1.350
21428WAT     H166386   1.081   8.582   1.418
21428WAT     H266387   1.053   8.485   1.305
21429WAT      O66388   0.376   7.045   0.674
21429WAT     H166389   0.363   7.044   0.769
21429WAT     H266390   0.294   7.078   0.639
21430WAT      O66391   1.144   8.362   1.222
21430WAT     H166392   1.208   8.292   1.233
21430WAT     H266393   1.196   8.440   1.204
21431WAT      O66394   1.321   8.442   1.542
21431WAT     H166395   1.355   8.500   1.610
21431WAT     H266396   1.229   8.428   1.565
21432WAT      O66397   1.486   8.182   0.360
21432WAT     H166398   1.458   8.228   0.439
21432WAT     H266399   1.566   8.136   0.387
21433WAT      O66400   0.904   8.446   1.859
21433WAT     H166401   0.872   8.375   1.914
21433WAT     H266402   0.837   8.514   1.866
21434WAT      O66403   0.708   8.531   0.353
21434WAT     H166404   0.707   8.604   0.292
21434WAT     H266405   0.616   8.506   0.363
21435WAT      O66406   0.268   8.053   0.428
21435WAT     H166407   0.207   8.127   0.429
21435WAT     H266408   0.316   8.062   0.345
21436WAT      O66409   1.225   7.470   1.395
21436WAT     H166410   1.262   7.388   1.428
21436WAT     H266411   1.139   7.476   1.437
21437WAT      O66412   1.562   7.365   0.476
21437WAT     H166413   1.499   7.376   0.405
21437WAT     H266414   1.513   7.387   0.555
21438WAT      O66415   0.759   7.593   0.618
21438WAT     H166416   0.688   7.640   0.662
21438WAT     H266417   0.787   7.527   0.681
21439WAT      O66418   0.921   7.735   1.418
21439WAT     H166419   0.971   7.783   1.484
21439WAT     H266420   0.936   7.643   1.439
21440WAT      O66421   1.162   7.266   0.762
21440WAT     H166422   1.150   7.268   0.667
21440WAT     H266423   1.257   7.270   0.774
21441WAT      O66424   0.871   8.789   0.689
21441WAT     H166425   0.896   8.785   0.597
21441WAT     H266426   0.776   8.777   0.688
21442WAT      O66427   0.579   7.424   0.355
21442WAT     H166428   0.664   7.468   0.349
21442WAT     H266429   0.543   7.455   0.438
21443WAT      O66430   1.642   7.357   1.502
21443WAT     H166431   1.592   7.431   1.536
21443WAT     H266432   1.724   7.396   1.470
21444WAT      O66433   1.471   7.881   0.847
21444WAT     H166434   1.377   7.883   0.864
21444WAT     H266435   1.503   7.802   0.891
21445WAT      O66436   0.339   7.793   0.271
21445WAT     H166437   0.347   7.698   0.282
21445WAT     H266438   0.428   7.826   0.282
21446WAT      O66439   1.672   8.598   1.014
21446WAT     H166440   1.684   8.681   1.061
21446WAT     H266441   1.758   8.577   0.979
21447WAT      O66442   0.419   8.808   0.981
21447WAT     H166443   0.492   8.753   1.009
21447WAT     H266444   0.457   8.894   0.967
21448WAT      O66445   0.319   8.726   1.900
21448WAT     H166446   0.400   8.758   1.942
21448WAT     H266447   0.268   8.690   1.972
21449WAT      O66448   1.203   8.337   1.895
21449WAT     H166449   1.142   8.339   1.821
21449WAT     H266450   1.173   8.264   1.949
21450WAT      O66451   1.346   8.710   1.756
21450WAT     H166452   1.441   8.701   1.751
21450WAT     H266453   1.331   8.776   1.823
21451WAT      O66454   1.635   8.648   0.306
21451WAT     H166455   1.607   8.606   0.225
21451WAT     H266456   1.615   8.740   0.294
21452WAT      O66457   0.797   8.115   1.748
21452WAT     H166458   0.720   8.172   1.740
21452WAT     H266459   0.815   8.086   1.659
21453WAT      O66460   1.106   8.153   0.211
21453WAT     H166461   1.051   8.198   0.275
21453WAT     H266462   1.168   8.103   0.263
21454WAT      O66463   1.511   8.288   1.804
21454WAT     H166464   1.585   8.322   1.753
21454WAT     H266465   1.435   8.305   1.748
21455WAT      O66466   0.295   7.789   1.884
21455WAT     H166467   0.299   7.759   1.975
21455WAT     H266468   0.380   7.829   1.868
21456WAT      O66469   0.672   8.049   0.400
21456WAT     H166470   0.715   8.032   0.484
21456WAT     H266471   0.685   7.968   0.351
21457WAT      O66472   0.489   7.647   1.681
21457WAT     H166473   0.436   7.598   1.618
21457WAT     H266474   0.556   7.690   1.627
21458WAT      O66475   1.378   8.094   1.657
21458WAT     H166476   1.420   8.109   1.742
21458WAT     H266477   1.285   8.106   1.674
21459WAT      O66478   1.426   7.828   1.858
21459WAT     H166479   1.484   7.752   1.849
21459WAT     H266480   1.443   7.881   1.780
21460WAT      O66481   0.537   7.344   1.689
21460WAT     H166482   0.528   7.282   1.616
21460WAT     H266483   0.479   7.416   1.666
21461WAT      O66484   0.814   7.199   1.392
21461WAT     H166485   0.769   7.202   1.308
21461WAT     H266486   0.751   7.159   1.452
21462WAT      O66487   0.855   8.089   1.454
21462WAT     H166488   0.896   8.173   1.437
21462WAT     H266489   0.763   8.103   1.431
21463WAT      O66490   1.088   7.862   1.593
21463WAT     H166491   1.100   7.802   1.667
21463WAT     H266492   1.174   7.866   1.551
21464WAT      O66493   1.322   7.917   1.450
21464WAT     H166494   1.269   7.970   1.390
21464WAT     H266495   1.356   7.981   1.513
21465WAT      O66496   0.640   8.719   1.566
21465WAT     H166497   0.586   8.792   1.534
21465WAT     H266498   0.665   8.672   1.487
21466WAT      O66499   0.765   7.516   1.718
21466WAT     H166500   0.824   7.485   1.787
21466WAT     H266501   0.683   7.469   1.734
21467WAT      O66502   1.247   7.478   1.742
21467WAT     H166503   1.178   7.412   1.735
21467WAT     H266504   1.319   7.433   1.786
21468WAT      O66505   1.310   7.137   0.348
21468WAT     H166506   1.338   7.053   0.383
21468WAT     H266507   1.233   7.161   0.399
21469WAT      O66508   0.925   8.843   1.592
21469WAT     H166509   0.918   8.933   1.622
21469WAT     H266510   0.835   8.811   1.589
21470WAT      O66511   0.980   8.759   0.354
21470WAT     H166512   1.070   8.793   0.356
21470WAT     H266513   0.983   8.687   0.291
21471WAT      O66514   0.344   8.297   0.177
21471WAT     H166515   0.388   8.351   0.242
21471WAT     H266516   0.393   8.214   0.178
21472WAT      O66517   0.525   8.409   0.688
21472WAT     H166518   0.495   8.396   0.778
21472WAT     H266519   0.515   8.323   0.647
21473WAT      O66520   1.678   8.613   1.625
21473WAT     H166521   1.618   8.618   1.550
21473WAT     H266522   1.691   8.519   1.638
21474WAT      O66523   1.748   8.061   0.409
21474WAT     H166524   1.824   8.118   0.419
21474WAT     H266525   1.749   8.004   0.486
21475WAT      O66526   1.848   8.147   0.893
21475WAT     H166527   1.885   8.068   0.852
21475WAT     H266528   1.912   8.216   0.875
21476WAT      O66529   1.547   8.285   1.434
21476WAT     H166530   1.465   8.328   1.461
21476WAT     H266531   1.587   8.346   1.373
21477WAT      O66532   1.393   7.393   0.254
21477WAT     H166533   1.434   7.374   0.170
21477WAT     H266534   1.362   7.308   0.285
21478WAT      O66535   1.743   7.884   0.624
21478WAT     H166536   1.705   7.807   0.580
21478WAT     H266537   1.670   7.922   0.672
21479WAT      O66538   0.201   7.952   1.286
21479WAT     H166539   0.238   7.943   1.374
21479WAT     H266540   0.145   7.876   1.276
21480WAT      O66541   1.682   7.799   1.587
21480WAT     H166542   1.658   7.776   1.497
21480WAT     H266543   1.708   7.891   1.583
21481WAT      O66544   1.525   7.321   1.865
21481WAT     H166545   1.613   7.322   1.903
21481WAT     H266546   1.527   7.248   1.804
21482WAT      O66547   1.670   7.707   0.954
21482WAT     H166548   1.722   7.657   0.891
21482WAT     H266549   1.729   7.720   1.028
21483WAT      O66550   1.688   7.715   1.306
21483WAT     H166551   1.593   7.712   1.317
21483WAT     H266552   1.706   7.806   1.282
21484WAT      O66553   1.619   7.633   0.548
21484WAT     H166554   1.669   7.609   0.626
21484WAT     H266555   1.599   7.549   0.506
21485WAT      O66556   0.207   7.071   1.111
21485WAT     H166557   0.272   7.016   1.067
21485WAT     H266558   0.249   7.096   1.193
21486WAT      O66559   1.762   7.496   0.801
21486WAT     H166560   1.751   7.481   0.895
21486WAT     H266561   1.838   7.443   0.777
21487WAT      O66562   1.597   7.090   1.447
21487WAT     H166563   1.660   7.151   1.483
21487WAT     H266564   1.611   7.094   1.352
21488WAT      O66565   1.858   7.356   0.388
21488WAT     H166566   1.779   7.350   0.441
21488WAT     H266567   1.879   7.450   0.387
21489WAT      O66568   1.552   8.760   0.787
21489WAT     H166569   1.612   8.728   0.719
21489WAT     H266570   1.578   8.713   0.866
21490WAT      O66571   0.182   7.086   1.385
21490WAT     H166572   0.147   7.132   1.462
21490WAT     H266573   0.149   6.997   1.394
21491WAT      O66574   0.343   8.403   1.802
21491WAT     H166575   0.339   8.366   1.890
21491WAT     H266576   0.356   8.497   1.816
21492WAT      O66577   0.713   8.559   1.362
21492WAT     H166578   0.689   8.586   1.273
21492WAT     H266579   0.807   8.576   1.368
21493WAT      O66580   0.934   7.205   1.738
21493WAT     H166581   0.927   7.265   1.813
21493WAT     H266582   1.028   7.195   1.723
21494WAT      O66583   1.197   7.171   1.702
21494WAT     H166584   1.259   7.203   1.635
21494WAT     H266585   1.252   7.123   1.764
21495WAT      O66586   1.839   8.761   1.442
21495WAT     H166587   1.790   8.801   1.370
21495WAT     H266588   1.778   8.698   1.482
21496WAT      O66589   0.250   7.039   1.713
21496WAT     H166590   0.304   7.021   1.637
21496WAT     H266591   0.256   6.960   1.767
21497WAT      O66592   0.327   8.698   1.514
21497WAT     H166593   0.267   8.685   1.588
21497WAT     H266594   0.326   8.614   1.467
21498WAT      O66595   1.271   7.027   1.334
21498WAT     H166596   1.184   7.061   1.314
21498WAT     H266597   1.261   6.980   1.417
21499WAT      O66598   1.362   7.248   1.473
21499WAT     H166599   1.329   7.167   1.435
21499WAT     H266600   1.457   7.244   1.460
21500WAT      O66601   1.607   8.825   1.170
21500WAT     H166602   1.562   8.900   1.133
21500WAT     H266603   1.545   8.753   1.164
21501WAT      O66604   0.290   8.435   1.409
21501WAT     H166605   0.217   8.373   1.402
21501WAT     H266606   0.296   8.474   1.322
21502WAT      O66607   0.650   8.656   1.088
21502WAT     H166608   0.702   8.595   1.035
21502WAT     H266609   0.715   8.706   1.137
21503WAT      O66610   0.924   8.745   1.170
21503WAT     H166611   0.953   8.720   1.083
21503WAT     H266612   0.976   8.690   1.229
21504WAT      O66613   1.046   7.119   1.228
21504WAT     H166614   0.968   7.166   1.256
21504WAT     H266615   1.017   7.029   1.217
21505WAT      O66616   1.501   7.189   1.033
21505WAT     H166617   1.545   7.184   0.948
21505WAT     H266618   1.474   7.281   1.040
21506WAT      O66619   1.688   7.152   0.834
21506WAT     H166620   1.682   7.058   0.819
21506WAT     H266621   1.766   7.163   0.888
21507WAT      O66622   0.181   7.150   0.480
21507WAT     H166623   0.256   7.161   0.423
21507WAT     H266624   0.134   7.233   0.476
21508WAT      O66625   0.835   7.361   0.779
21508WAT     H166626   0.753   7.323   0.745
21508WAT     H266627   0.885   7.285   0.810
21509WAT      O66628   1.285   7.027   0.903
21509WAT     H166629   1.345   7.085   0.951
21509WAT     H266630   1.211   7.084   0.881
21510WAT      O66631   1.599   7.068   0.431
21510WAT     H166632   1.619   7.157   0.457
21510WAT     H266633   1.521   7.044   0.480
21511WAT      O66634   0.279   8.636   0.474
21511WAT     H166635   0.226   8.674   0.404
21511WAT     H266636   0.271   8.698   0.547
21512WAT      O66637   0.418   7.202   0.334
21512WAT     H166638   0.471   7.123   0.321
21512WAT     H266639   0.481   7.270   0.358
21513WAT      O66640   0.637   7.176   0.640
21513WAT     H166641   0.574   7.106   0.656
21513WAT     H266642   0.583   7.252   0.618
21514WAT      O66643   0.931   8.837   1.907
21514WAT     H166644   1.024   8.814   1.911
21514WAT     H266645   0.930   8.920   1.859
21515WAT      O66646   1.755   8.792   0.607
21515WAT     H166647   1.772   8.723   0.542
21515WAT     H266648   1.685   8.844   0.567
21516WAT      O66649   0.650   7.104   1.883
21516WAT     H166650   0.622   7.154   1.807
21516WAT     H266651   0.688   7.024   1.847
21517WAT      O66652   0.539   8.831   0.362
21517WAT     H166653   0.612   8.802   0.307
21517WAT     H266654   0.565   8.807   0.451
21518WAT      O66655   0.455   8.442   0.362
21518WAT     H166656   0.392   8.489   0.417
21518WAT     H266657   0.466   8.358   0.406
21519WAT      O66658   1.310   7.045   1.941
21519WAT     H166659   1.299   7.077   2.031
21519WAT     H266660   1.392   7.085   1.911
21520WAT      O66661   1.588   8.760   1.889
21520WAT     H166662   1.667   8.710   1.869
21520WAT     H266663   1.617   8.828   1.950
21521WAT      O66664   1.200   5.970   6.487
21521WAT     H166665   1.192   5.878   6.460
21521WAT     H266666   1.159   6.019   6.417
21522WAT      O66667   1.014   6.148   6.675
21522WAT     H166668   0.936   6.100   6.704
21522WAT     H266669   1.079   6.080   6.658
21523WAT      O66670   0.415   6.179   6.763
21523WAT     H166671   0.332   6.153   6.803
21523WAT     H266672   0.476   6.186   6.837
21524WAT      O66673   1.416   6.588   6.553
21524WAT     H166674   1.370   6.511   6.586
21524WAT     H266675   1.497   6.591   6.604
21525WAT      O66676   0.413   6.582   6.783
21525WAT     H166677   0.444   6.493   6.765
21525WAT     H266678   0.488   6.638   6.760
21526WAT      O66679   0.256   5.675   6.141
21526WAT     H166680   0.167   5.709   6.131
21526WAT     H266681   0.285   5.655   6.052
21527WAT      O66682   1.038   6.817   6.515
21527WAT     H166683   0.976   6.862   6.458
21527WAT     H266684   1.124   6.832   6.475
21528WAT      O66685   0.958   6.415   6.676
21528WAT     H166686   0.951   6.321   6.660
21528WAT     H266687   1.034   6.424   6.733
21529WAT      O66688   0.177   5.476   6.909
21529WAT     H166689   0.159   5.386   6.937
21529WAT     H266690   0.137   5.530   6.976
21530WAT      O66691   1.061   5.696   6.699
21530WAT     H166692   1.098   5.609   6.687
21530WAT     H266693   1.051   5.729   6.610
21531WAT      O66694   0.474   5.533   6.245
21531WAT     H166695   0.485   5.623   6.276
21531WAT     H266696   0.383   5.528   6.216
21532WAT      O66697   1.439   5.445   6.392
21532WAT     H166698   1.521   5.396   6.396
21532WAT     H266699   1.442   5.504   6.467
21533WAT      O66700   0.239   5.725   6.769
21533WAT     H166701   0.307   5.752   6.831
21533WAT     H266702   0.207   5.641   6.803
21534WAT      O66703   0.658   5.830   6.678
21534WAT     H166704   0.709   5.880   6.742
21534WAT     H266705   0.711   5.752   6.661
21535WAT      O66706   1.868   5.647   7.048
21535WAT     H166707   1.798   5.686   6.997
21535WAT     H266708   1.895   5.717   7.109
21536WAT      O66709   0.486   5.294   7.105
21536WAT     H166710   0.486   5.346   7.024
21536WAT     H266711   0.403   5.246   7.102
21537WAT      O66712   1.125   6.305   6.255
21537WAT     H166713   1.063   6.352   6.198
21537WAT     H266714   1.176   6.374   6.296
21538WAT      O66715   0.611   6.258   6.922
21538WAT     H166716   0.578   6.321   6.987
21538WAT     H266717   0.629   6.311   6.845
21539WAT      O66718   1.463   5.639   6.669
21539WAT     H166719   1.392   5.668   6.727
21539WAT     H266720   1.499   5.720   6.633
21540WAT      O66721   0.454   5.465   6.905
21540WAT     H166722   0.489   5.549   6.876
21540WAT     H266723   0.361   5.480   6.917
21541WAT      O66724   0.533   6.455   7.104
21541WAT     H166725   0.594   6.522   7.076
21541WAT     H266726   0.446   6.496   7.095
21542WAT      O66727   1.624   6.601   6.896
21542WAT     H166728   1.556   6.668   6.895
21542WAT     H266729   1.678   6.621   6.819
21543WAT      O66730   1.770   5.584   6.708
21543WAT     H166731   1.675   5.587   6.721
21543WAT     H266732   1.802   5.665   6.747
21544WAT      O66733   0.823   5.214   6.538
21544WAT     H166734   0.853   5.158   6.466
21544WAT     H266735   0.730   5.227   6.520
21545WAT      O66736   1.378   6.786   6.767
21545WAT     H166737   1.379   6.745   6.680
21545WAT     H266738   1.323   6.863   6.757
21546WAT      O66739   1.507   6.458   6.276
21546WAT     H166740   1.496   6.363   6.288
21546WAT     H266741   1.507   6.494   6.365
21547WAT      O66742   1.318   6.276   6.900
21547WAT     H166743   1.359   6.254   6.816
21547WAT     H266744   1.390   6.302   6.957
21548WAT      O66745   1.062   6.020   6.212
21548WAT     H166746   0.969   6.014   6.234
21548WAT     H266747   1.077   6.114   6.200
21549WAT      O66748   1.060   5.648   5.911
21549WAT     H166749   0.966   5.664   5.920
21549WAT     H266750   1.092   5.719   5.857
21550WAT      O66751   1.712   6.116   6.909
21550WAT     H166752   1.630   6.123   6.861
21550WAT     H266753   1.772   6.174   6.862
21551WAT      O66754   1.465   6.177   6.262
21551WAT     H166755   1.403   6.143   6.197
21551WAT     H266756   1.463   6.112   6.333
21552WAT      O66757   1.409   5.794   7.004
21552WAT     H166758   1.367   5.877   7.029
21552WAT     H266759   1.336   5.736   6.984
21553WAT      O66760   0.622   6.073   6.490
21553WAT     H166761   0.582   6.002   6.440
21553WAT     H266762   0.631   6.039   6.579
21554WAT      O66763   0.669   6.442   6.706
21554WAT     H166764   0.639   6.381   6.638
21554WAT     H266765   0.764   6.445   6.695
21555WAT      O66766   0.493   5.750   6.868
21555WAT     H166767   0.549   5.761   6.790
21555WAT     H266768   0.545   5.788   6.939
21556WAT      O66769   1.478   6.799   7.072
21556WAT     H166770   1.430   6.880   7.053
21556WAT     H266771   1.409   6.734   7.088
21557WAT      O66772   0.578   6.415   7.371
21557WAT     H166773   0.488   6.438   7.396
21557WAT     H266774   0.581   6.428   7.276
21558WAT      O66775   1.282   6.100   5.963
21558WAT     H166776   1.326   6.017   5.948
21558WAT     H266777   1.353   6.164   5.971
21559WAT      O66778   0.461   6.103   7.229
21559WAT     H166779   0.447   6.190   7.266
21559WAT     H266780   0.373   6.068   7.214
21560WAT      O66781   1.093   6.594   6.359
21560WAT     H166782   1.137   6.669   6.318
21560WAT     H266783   1.087   6.619   6.452
21561WAT      O66784   0.641   6.697   7.450
21561WAT     H166785   0.638   6.737   7.363
21561WAT     H266786   0.624   6.604   7.433
21562WAT      O66787   1.640   5.226   5.794
21562WAT     H166788   1.609   5.235   5.884
21562WAT     H266789   1.716   5.284   5.789
21563WAT      O66790   0.292   5.962   6.240
21563WAT     H166791   0.280   6.035   6.179
21563WAT     H266792   0.261   5.885   6.192
21564WAT      O66793   0.180   6.450   6.462
21564WAT     H166794   0.140   6.464   6.376
21564WAT     H266795   0.270   6.421   6.441
21565WAT      O66796   1.776   6.494   7.295
21565WAT     H166797   1.789   6.470   7.203
21565WAT     H266798   1.780   6.411   7.342
21566WAT      O66799   1.162   6.865   7.152
21566WAT     H166800   1.214   6.856   7.232
21566WAT     H266801   1.078   6.899   7.181
21567WAT      O66802   1.360   6.893   6.095
21567WAT     H166803   1.344   6.864   6.185
21567WAT     H266804   1.343   6.815   6.041
21568WAT      O66805   0.608   6.871   6.273
21568WAT     H166806   0.590   6.779   6.251
21568WAT     H266807   0.522   6.907   6.297
21569WAT      O66808   1.330   6.644   5.951
21569WAT     H166809   1.261   6.644   5.885
21569WAT     H266810   1.404   6.602   5.908
21570WAT      O66811   1.287   6.807   6.358
21570WAT     H166812   1.332   6.728   6.390
21570WAT     H266813   1.321   6.878   6.413
21571WAT      O66814   1.761   5.700   7.392
21571WAT     H166815   1.700   5.750   7.339
21571WAT     H266816   1.729   5.610   7.386
21572WAT      O66817   0.539   5.297   6.578
21572WAT     H166818   0.494   5.375   6.545
21572WAT     H266819   0.595   5.329   6.649
21573WAT      O66820   0.967   5.583   7.138
21573WAT     H166821   0.921   5.604   7.220
21573WAT     H266822   0.927   5.502   7.108
21574WAT      O66823   1.468   5.706   7.251
21574WAT     H166824   1.382   5.676   7.283
21574WAT     H266825   1.452   5.730   7.160
21575WAT      O66826   1.177   5.856   7.461
21575WAT     H166827   1.210   5.772   7.427
21575WAT     H266828   1.256   5.908   7.476
21576WAT      O66829   0.850   5.259   6.066
21576WAT     H166830   0.788   5.259   6.139
21576WAT     H266831   0.842   5.172   6.026
21577WAT      O66832   0.743   5.351   6.764
21577WAT     H166833   0.772   5.442   6.756
21577WAT     H266834   0.797   5.302   6.702
21578WAT      O66835   0.518   5.809   6.351
21578WAT     H166836   0.495   5.788   6.441
21578WAT     H266837   0.440   5.852   6.316
21579WAT      O66838   1.241   5.810   6.211
21579WAT     H166839   1.181   5.882   6.192
21579WAT     H266840   1.296   5.804   6.132
21580WAT      O66841   0.762   5.899   7.417
21580WAT     H166842   0.752   5.805   7.402
21580WAT     H266843   0.846   5.921   7.378
21581WAT      O66844   1.102   5.673   6.414
21581WAT     H166845   1.141   5.705   6.332
21581WAT     H266846   1.138   5.586   6.425
21582WAT      O66847   0.275   5.540   7.233
21582WAT     H166848   0.236   5.625   7.253
21582WAT     H266849   0.206   5.476   7.252
21583WAT      O66850   1.160   5.932   6.823
21583WAT     H166851   1.087   5.983   6.858
21583WAT     H266852   1.120   5.851   6.793
21584WAT      O66853   0.804   5.600   6.664
21584WAT     H166854   0.804   5.556   6.579
21584WAT     H266855   0.893   5.632   6.675
21585WAT      O66856   0.389   5.588   6.560
21585WAT     H166857   0.355   5.636   6.635
21585WAT     H266858   0.313   5.543   6.524
21586WAT      O66859   0.810   5.700   5.963
21586WAT     H166860   0.822   5.696   6.058
21586WAT     H266861   0.772   5.786   5.947
21587WAT      O66862   1.206   5.478   6.764
21587WAT     H166863   1.208   5.523   6.849
21587WAT     H266864   1.182   5.388   6.786
21588WAT      O66865   0.711   5.931   5.903
21588WAT     H166866   0.654   5.886   5.840
21588WAT     H266867   0.782   5.967   5.849
21589WAT      O66868   1.549   5.219   7.348
21589WAT     H166869   1.582   5.146   7.401
21589WAT     H266870   1.553   5.187   7.258
21590WAT      O66871   0.219   6.321   7.290
21590WAT     H166872   0.181   6.257   7.350
21590WAT     H266873   0.250   6.392   7.347
21591WAT      O66874   0.834   6.006   6.838
21591WAT     H166875   0.871   5.959   6.913
21591WAT     H266876   0.815   6.093   6.873
21592WAT      O66877   0.613   5.910   7.070
21592WAT     H166878   0.583   5.998   7.093
21592WAT     H266879   0.708   5.916   7.074
21593WAT      O66880   0.466   6.331   6.130
21593WAT     H166881   0.388   6.277   6.114
21593WAT     H266882   0.539   6.279   6.096
21594WAT      O66883   1.542   6.230   6.709
21594WAT     H166884   1.614   6.280   6.670
21594WAT     H266885   1.521   6.163   6.645
21595WAT      O66886   1.088   5.370   6.124
21595WAT     H166887   1.006   5.320   6.116
21595WAT     H266888   1.068   5.454   6.082
21596WAT      O66889   1.080   6.237   7.298
21596WAT     H166890   1.073   6.145   7.272
21596WAT     H266891   1.017   6.247   7.369
21597WAT      O66892   1.359   5.807   5.953
21597WAT     H166893   1.448   5.838   5.936
21597WAT     H266894   1.356   5.720   5.914
21598WAT      O66895   0.470   6.298   6.494
21598WAT     H166896   0.522   6.217   6.488
21598WAT     H266897   0.425   6.291   6.578
21599WAT      O66898   0.959   6.424   6.021
21599WAT     H166899   0.993   6.499   5.971
21599WAT     H266900   0.876   6.455   6.057
21600WAT      O66901   0.219   5.994   7.185
21600WAT     H166902   0.183   6.061   7.244
21600WAT     H266903   0.189   5.911   7.222
21601WAT      O66904   0.539   6.040   7.473
21601WAT     H166905   0.509   6.055   7.384
21601WAT     H266906   0.616   5.984   7.464
21602WAT      O66907   1.073   6.520   7.273
21602WAT     H166908   1.074   6.426   7.251
21602WAT     H266909   1.002   6.528   7.337
21603WAT      O66910   1.586   5.938   5.900
21603WAT     H166911   1.578   5.981   5.815
21603WAT     H266912   1.658   5.984   5.943
21604WAT      O66913   1.694   6.184   7.208
21604WAT     H166914   1.622   6.243   7.188
21604WAT     H266915   1.747   6.183   7.128
21605WAT      O66916   1.689   6.623   6.173
21605WAT     H166917   1.625   6.558   6.200
21605WAT     H266918   1.651   6.664   6.095
21606WAT      O66919   1.247   6.356   6.557
21606WAT     H166920   1.282   6.297   6.491
21606WAT     H266921   1.159   6.324   6.575
21607WAT      O66922   0.856   6.432   6.298
21607WAT     H166923   0.924   6.487   6.336
21607WAT     H266924   0.777   6.487   6.302
21608WAT      O66925   0.786   6.133   6.259
21608WAT     H166926   0.832   6.214   6.282
21608WAT     H266927   0.751   6.101   6.343
21609WAT      O66928   1.016   6.684   6.982
21609WAT     H166929   1.081   6.704   7.050
21609WAT     H266930   1.053   6.608   6.937
21610WAT      O66931   0.376   5.167   6.307
21610WAT     H166932   0.363   5.166   6.402
21610WAT     H266933   0.294   5.201   6.272
21611WAT      O66934   1.144   6.484   6.854
21611WAT     H166935   1.208   6.414   6.865
21611WAT     H266936   1.196   6.562   6.836
21612WAT      O66937   1.528   6.513   5.827
21612WAT     H166938   1.506   6.441   5.886
21612WAT     H266939   1.489   6.488   5.743
21613WAT      O66940   1.321   6.564   7.174
21613WAT     H166941   1.355   6.623   7.242
21613WAT     H266942   1.229   6.551   7.197
21614WAT      O66943   1.486   6.304   5.993
21614WAT     H166944   1.458   6.350   6.071
21614WAT     H266945   1.566   6.258   6.019
21615WAT      O66946   0.708   6.654   5.986
21615WAT     H166947   0.707   6.727   5.924
21615WAT     H266948   0.616   6.629   5.995
21616WAT      O66949   0.268   6.176   6.060
21616WAT     H166950   0.207   6.250   6.061
21616WAT     H266951   0.316   6.185   5.978
21617WAT      O66952   1.225   5.592   7.028
21617WAT     H166953   1.262   5.510   7.061
21617WAT     H266954   1.139   5.598   7.069
21618WAT      O66955   1.562   5.488   6.109
21618WAT     H166956   1.499   5.498   6.037
21618WAT     H266957   1.513   5.510   6.188
21619WAT      O66958   1.007   6.660   5.852
21619WAT     H166959   1.017   6.640   5.759
21619WAT     H266960   0.917   6.634   5.872
21620WAT      O66961   0.759   5.716   6.250
21620WAT     H166962   0.688   5.763   6.294
21620WAT     H266963   0.787   5.650   6.314
21621WAT      O66964   0.921   5.858   7.050
21621WAT     H166965   0.971   5.905   7.117
21621WAT     H266966   0.936   5.765   7.071
21622WAT      O66967   1.162   5.388   6.394
21622WAT     H166968   1.150   5.390   6.299
21622WAT     H266969   1.257   5.393   6.406
21623WAT      O66970   0.871   6.912   6.321
21623WAT     H166971   0.896   6.908   6.229
21623WAT     H266972   0.776   6.899   6.321
21624WAT      O66973   0.579   5.547   5.988
21624WAT     H166974   0.664   5.590   5.981
21624WAT     H266975   0.543   5.578   6.070
21625WAT      O66976   1.642   5.479   7.134
21625WAT     H166977   1.592   5.553   7.168
21625WAT     H266978   1.724   5.518   7.103
21626WAT      O66979   1.471   6.004   6.479
21626WAT     H166980   1.377   6.005   6.496
21626WAT     H266981   1.503   5.925   6.524
21627WAT      O66982   0.469   6.172   5.835
21627WAT     H166983   0.546   6.161   5.891
21627WAT     H266984   0.477   6.102   5.770
21628WAT      O66985   0.339   5.915   5.903
21628WAT     H166986   0.347   5.820   5.915
21628WAT     H266987   0.428   5.948   5.914
21629WAT      O66988   1.672   6.721   6.647
21629WAT     H166989   1.684   6.803   6.694
21629WAT     H266990   1.758   6.700   6.612
21630WAT      O66991   0.419   6.930   6.614
21630WAT     H166992   0.492   6.875   6.641
21630WAT     H266993   0.457   7.017   6.600
21631WAT      O66994   0.730   6.847   5.796
21631WAT     H166995   0.809   6.876   5.751
21631WAT     H266996   0.678   6.804   5.728
21632WAT      O66997   1.346   6.832   7.388
21632WAT     H166998   1.441   6.824   7.383
21632WAT     H266999   1.331   6.899   7.456
21633WAT      O67000   1.635   6.770   5.938
21633WAT     H167001   1.607   6.729   5.857
21633WAT     H267002   1.615   6.863   5.926
21634WAT      O67003   0.782   6.369   5.782
21634WAT     H167004   0.771   6.308   5.855
21634WAT     H267005   0.765   6.317   5.704
21635WAT      O67006   0.797   6.238   7.380
21635WAT     H167007   0.720   6.295   7.372
21635WAT     H267008   0.815   6.209   7.291
21636WAT      O67009   1.106   6.276   5.843
21636WAT     H167010   1.051   6.320   5.907
21636WAT     H267011   1.168   6.225   5.895
21637WAT      O67012   1.511   6.411   7.436
21637WAT     H167013   1.585   6.445   7.386
21637WAT     H267014   1.435   6.428   7.381
21638WAT      O67015   0.672   6.172   6.032
21638WAT     H167016   0.715   6.155   6.117
21638WAT     H267017   0.685   6.091   5.983
21639WAT      O67018   0.489   5.770   7.313
21639WAT     H167019   0.436   5.720   7.250
21639WAT     H267020   0.556   5.812   7.260
21640WAT      O67021   0.924   6.074   5.757
21640WAT     H167022   0.976   6.002   5.721
21640WAT     H267023   0.988   6.138   5.787
21641WAT      O67024   1.378   6.216   7.290
21641WAT     H167025   1.420   6.232   7.375
21641WAT     H267026   1.285   6.229   7.306
21642WAT      O67027   1.426   5.950   7.490
21642WAT     H167028   1.484   5.875   7.481
21642WAT     H267029   1.443   6.003   7.412
21643WAT      O67030   0.537   5.466   7.321
21643WAT     H167031   0.528   5.404   7.249
21643WAT     H267032   0.479   5.539   7.298
21644WAT      O67033   0.814   5.322   7.024
21644WAT     H167034   0.769   5.324   6.940
21644WAT     H267035   0.751   5.282   7.084
21645WAT      O67036   0.855   6.211   7.087
21645WAT     H167037   0.896   6.296   7.069
21645WAT     H267038   0.763   6.225   7.064
21646WAT      O67039   1.088   5.985   7.225
21646WAT     H167040   1.100   5.925   7.299
21646WAT     H267041   1.174   5.988   7.183
21647WAT      O67042   1.322   6.040   7.083
21647WAT     H167043   1.269   6.092   7.022
21647WAT     H267044   1.356   6.103   7.146
21648WAT      O67045   0.562   5.779   5.727
21648WAT     H167046   0.542   5.693   5.763
21648WAT     H267047   0.545   5.770   5.633
21649WAT      O67048   0.640   6.842   7.198
21649WAT     H167049   0.586   6.914   7.166
21649WAT     H267050   0.665   6.794   7.119
21650WAT      O67051   0.765   5.639   7.351
21650WAT     H167052   0.824   5.608   7.419
21650WAT     H267053   0.683   5.592   7.366
21651WAT      O67054   1.247   5.600   7.374
21651WAT     H167055   1.178   5.534   7.368
21651WAT     H267056   1.319   5.556   7.419
21652WAT      O67057   1.310   5.260   5.980
21652WAT     H167058   1.338   5.176   6.016
21652WAT     H267059   1.233   5.283   6.031
21653WAT      O67060   0.442   5.489   5.726
21653WAT     H167061   0.472   5.490   5.635
21653WAT     H267062   0.516   5.454   5.776
21654WAT      O67063   0.925   6.965   7.224
21654WAT     H167064   0.918   7.056   7.255
21654WAT     H267065   0.835   6.934   7.221
21655WAT      O67066   0.764   5.383   5.824
21655WAT     H167067   0.729   5.315   5.766
21655WAT     H267068   0.784   5.337   5.906
21656WAT      O67069   0.980   6.882   5.986
21656WAT     H167070   1.070   6.916   5.988
21656WAT     H267071   0.983   6.810   5.924
21657WAT      O67072   0.344   6.419   5.809
21657WAT     H167073   0.388   6.474   5.875
21657WAT     H267074   0.393   6.337   5.810
21658WAT      O67075   0.525   6.531   6.320
21658WAT     H167076   0.495   6.519   6.410
21658WAT     H267077   0.515   6.445   6.280
21659WAT      O67078   1.678   6.735   7.257
21659WAT     H167079   1.618   6.741   7.183
21659WAT     H267080   1.691   6.641   7.270
21660WAT      O67081   1.802   6.509   5.791
21660WAT     H167082   1.719   6.516   5.838
21660WAT     H267083   1.820   6.598   5.760
21661WAT      O67084   1.748   6.184   6.041
21661WAT     H167085   1.824   6.241   6.052
21661WAT     H267086   1.749   6.127   6.118
21662WAT      O67087   1.848   6.269   6.525
21662WAT     H167088   1.885   6.191   6.485
21662WAT     H267089   1.912   6.338   6.508
21663WAT      O67090   1.547   6.408   7.067
21663WAT     H167091   1.465   6.451   7.093
21663WAT     H267092   1.587   6.469   7.005
21664WAT      O67093   1.753   6.213   5.757
21664WAT     H167094   1.780   6.304   5.744
21664WAT     H267095   1.734   6.207   5.850
21665WAT      O67096   1.393   5.516   5.886
21665WAT     H167097   1.434   5.497   5.802
21665WAT     H267098   1.362   5.430   5.917
21666WAT      O67099   1.743   6.007   6.256
21666WAT     H167100   1.705   5.930   6.213
21666WAT     H267101   1.670   6.045   6.305
21667WAT      O67102   0.201   6.075   6.918
21667WAT     H167103   0.238   6.066   7.006
21667WAT     H267104   0.145   5.998   6.908
21668WAT      O67105   1.682   5.921   7.219
21668WAT     H167106   1.658   5.899   7.129
21668WAT     H267107   1.708   6.013   7.215
21669WAT      O67108   1.670   5.829   6.586
21669WAT     H167109   1.722   5.780   6.523
21669WAT     H267110   1.729   5.843   6.661
21670WAT      O67111   1.688   5.838   6.938
21670WAT     H167112   1.593   5.834   6.950
21670WAT     H267113   1.706   5.929   6.915
21671WAT      O67114   0.273   5.663   5.849
21671WAT     H167115   0.344   5.621   5.801
21671WAT     H267116   0.202   5.670   5.786
21672WAT      O67117   0.238   5.268   5.753
21672WAT     H167118   0.310   5.322   5.785
21672WAT     H267119   0.265   5.241   5.666
21673WAT      O67120   1.619   5.755   6.180
21673WAT     H167121   1.669   5.732   6.258
21673WAT     H267122   1.599   5.671   6.138
21674WAT      O67123   0.207   5.193   6.743
21674WAT     H167124   0.272   5.138   6.699
21674WAT     H267125   0.249   5.219   6.826
21675WAT      O67126   1.762   5.619   6.433
21675WAT     H167127   1.751   5.603   6.527
21675WAT     H267128   1.838   5.566   6.409
21676WAT      O67129   1.597   5.213   7.079
21676WAT     H167130   1.660   5.274   7.116
21676WAT     H267131   1.611   5.216   6.985
21677WAT      O67132   1.851   5.402   5.757
21677WAT     H167133   1.943   5.389   5.737
21677WAT     H267134   1.849   5.410   5.853
21678WAT      O67135   1.858   5.479   6.020
21678WAT     H167136   1.779   5.472   6.073
21678WAT     H267137   1.879   5.572   6.019
21679WAT      O67138   1.552   6.883   6.419
21679WAT     H167139   1.612   6.851   6.352
21679WAT     H267140   1.578   6.835   6.499
21680WAT      O67141   0.182   5.209   7.018
21680WAT     H167142   0.147   5.254   7.094
21680WAT     H267143   0.149   5.119   7.026
21681WAT      O67144   0.713   6.682   6.994
21681WAT     H167145   0.689   6.708   6.906
21681WAT     H267146   0.807   6.699   7.000
21682WAT      O67147   0.934   5.328   7.370
21682WAT     H167148   0.927   5.387   7.445
21682WAT     H267149   1.028   5.317   7.355
21683WAT      O67150   1.197   5.294   7.334
21683WAT     H167151   1.259   5.325   7.268
21683WAT     H267152   1.252   5.245   7.396
21684WAT      O67153   1.839   6.883   7.074
21684WAT     H167154   1.790   6.923   7.003
21684WAT     H267155   1.778   6.821   7.114
21685WAT      O67156   0.250   5.162   7.345
21685WAT     H167157   0.304   5.143   7.269
21685WAT     H267158   0.256   5.082   7.399
21686WAT      O67159   0.327   6.821   7.146
21686WAT     H167160   0.267   6.807   7.220
21686WAT     H267161   0.326   6.737   7.100
21687WAT      O67162   1.271   5.150   6.967
21687WAT     H167163   1.184   5.183   6.946
21687WAT     H267164   1.261   5.103   7.049
21688WAT      O67165   1.362   5.371   7.105
21688WAT     H167166   1.329   5.289   7.067
21688WAT     H267167   1.457   5.366   7.093
21689WAT      O67168   1.607   6.948   6.802
21689WAT     H167169   1.562   7.023   6.765
21689WAT     H267170   1.545   6.876   6.796
21690WAT      O67171   0.290   6.557   7.041
21690WAT     H167172   0.217   6.495   7.035
21690WAT     H267173   0.296   6.597   6.954
21691WAT      O67174   0.650   6.779   6.720
21691WAT     H167175   0.702   6.717   6.667
21691WAT     H267176   0.715   6.829   6.769
21692WAT      O67177   0.924   6.868   6.803
21692WAT     H167178   0.953   6.842   6.715
21692WAT     H267179   0.976   6.812   6.862
21693WAT      O67180   1.046   5.242   6.860
21693WAT     H167181   0.968   5.289   6.888
21693WAT     H267182   1.017   5.151   6.850
21694WAT      O67183   1.501   5.312   6.665
21694WAT     H167184   1.545   5.306   6.580
21694WAT     H267185   1.474   5.403   6.672
21695WAT      O67186   1.688   5.275   6.466
21695WAT     H167187   1.682   5.181   6.451
21695WAT     H267188   1.766   5.286   6.521
21696WAT      O67189   0.181   5.272   6.113
21696WAT     H167190   0.256   5.283   6.055
21696WAT     H267191   0.134   5.356   6.108
21697WAT      O67192   0.835   5.483   6.412
21697WAT     H167193   0.753   5.446   6.378
21697WAT     H267194   0.885   5.408   6.442
21698WAT      O67195   1.285   5.150   6.535
21698WAT     H167196   1.345   5.207   6.583
21698WAT     H267197   1.211   5.206   6.513
21699WAT      O67198   1.599   5.190   6.063
21699WAT     H167199   1.619   5.280   6.090
21699WAT     H267200   1.521   5.167   6.112
21700WAT      O67201   0.279   6.758   6.107
21700WAT     H167202   0.226   6.796   6.036
21700WAT     H267203   0.271   6.821   6.179
21701WAT      O67204   0.418   5.325   5.967
21701WAT     H167205   0.471   5.246   5.954
21701WAT     H267206   0.481   5.393   5.990
21702WAT      O67207   0.637   5.298   6.272
21702WAT     H167208   0.574   5.228   6.289
21702WAT     H267209   0.583   5.375   6.250
21703WAT      O67210   1.755   6.914   6.239
21703WAT     H167211   1.772   6.845   6.175
21703WAT     H267212   1.685   6.967   6.200
21704WAT      O67213   0.539   6.953   5.994
21704WAT     H167214   0.612   6.925   5.940
21704WAT     H267215   0.565   6.929   6.083
21705WAT      O67216   0.455   6.565   5.995
21705WAT     H167217   0.392   6.612   6.050
21705WAT     H267218   0.466   6.480   6.038
21706WAT      O67219   1.014   6.148   4.798
21706WAT     H167220   0.936   6.100   4.827
21706WAT     H267221   1.079   6.080   4.780
21707WAT      O67222   0.415   6.179   4.886
21707WAT     H167223   0.332   6.153   4.926
21707WAT     H267224   0.476   6.186   4.959
21708WAT      O67225   1.416   6.588   4.676
21708WAT     H167226   1.370   6.511   4.709
21708WAT     H267227   1.497   6.591   4.726
21709WAT      O67228   0.413   6.582   4.905
21709WAT     H167229   0.444   6.493   4.887
21709WAT     H267230   0.488   6.638   4.882
21710WAT      O67231   0.256   5.675   4.264
21710WAT     H167232   0.167   5.709   4.254
21710WAT     H267233   0.285   5.655   4.175
21711WAT      O67234   1.038   6.817   4.638
21711WAT     H167235   0.976   6.862   4.581
21711WAT     H267236   1.124   6.832   4.598
21712WAT      O67237   0.958   6.415   4.799
21712WAT     H167238   0.951   6.321   4.782
21712WAT     H267239   1.034   6.424   4.856
21713WAT      O67240   0.177   5.476   5.031
21713WAT     H167241   0.159   5.386   5.059
21713WAT     H267242   0.137   5.530   5.099
21714WAT      O67243   1.061   5.696   4.821
21714WAT     H167244   1.098   5.609   4.810
21714WAT     H267245   1.051   5.729   4.732
21715WAT      O67246   0.474   5.533   4.367
21715WAT     H167247   0.485   5.623   4.398
21715WAT     H267248   0.383   5.528   4.338
21716WAT      O67249   1.439   5.445   4.515
21716WAT     H167250   1.521   5.396   4.519
21716WAT     H267251   1.442   5.504   4.590
21717WAT      O67252   0.239   5.725   4.892
21717WAT     H167253   0.307   5.752   4.954
21717WAT     H267254   0.207   5.641   4.925
21718WAT      O67255   0.658   5.830   4.801
21718WAT     H167256   0.709   5.880   4.865
21718WAT     H267257   0.711   5.752   4.783
21719WAT      O67258   0.486   5.294   5.227
21719WAT     H167259   0.486   5.346   5.147
21719WAT     H267260   0.403   5.246   5.225
21720WAT      O67261   1.125   6.305   4.377
21720WAT     H167262   1.063   6.352   4.321
21720WAT     H267263   1.176   6.374   4.419
21721WAT      O67264   0.611   6.258   5.045
21721WAT     H167265   0.578   6.321   5.109
21721WAT     H267266   0.629   6.311   4.967
21722WAT      O67267   0.454   5.465   5.028
21722WAT     H167268   0.489   5.549   4.999
21722WAT     H267269   0.361   5.480   5.040
21723WAT      O67270   0.533   6.455   5.227
21723WAT     H167271   0.594   6.522   5.198
21723WAT     H267272   0.446   6.496   5.217
21724WAT      O67273   1.624   6.601   5.018
21724WAT     H167274   1.556   6.668   5.017
21724WAT     H267275   1.678   6.621   4.942
21725WAT      O67276   0.823   5.214   4.660
21725WAT     H167277   0.853   5.158   4.589
21725WAT     H267278   0.730   5.227   4.642
21726WAT      O67279   1.378   6.786   4.890
21726WAT     H167280   1.379   6.745   4.803
21726WAT     H267281   1.323   6.863   4.879
21727WAT      O67282   1.507   6.458   4.398
21727WAT     H167283   1.496   6.363   4.411
21727WAT     H267284   1.507   6.494   4.487
21728WAT      O67285   1.318   6.276   5.022
21728WAT     H167286   1.359   6.254   4.939
21728WAT     H267287   1.390   6.302   5.079
21729WAT      O67288   1.062   6.020   4.334
21729WAT     H167289   0.969   6.014   4.357
21729WAT     H267290   1.077   6.114   4.323
21730WAT      O67291   1.060   5.648   4.034
21730WAT     H167292   0.966   5.664   4.042
21730WAT     H267293   1.092   5.719   3.979
21731WAT      O67294   0.622   6.073   4.612
21731WAT     H167295   0.582   6.002   4.563
21731WAT     H267296   0.631   6.039   4.701
21732WAT      O67297   0.669   6.442   4.829
21732WAT     H167298   0.639   6.381   4.761
21732WAT     H267299   0.764   6.445   4.818
21733WAT      O67300   0.493   5.750   4.990
21733WAT     H167301   0.549   5.761   4.913
21733WAT     H267302   0.545   5.788   5.062
21734WAT      O67303   1.478   6.799   5.195
21734WAT     H167304   1.430   6.880   5.176
21734WAT     H267305   1.409   6.734   5.210
21735WAT      O67306   0.578   6.415   5.494
21735WAT     H167307   0.488   6.438   5.518
21735WAT     H267308   0.581   6.428   5.399
21736WAT      O67309   1.282   6.100   4.085
21736WAT     H167310   1.326   6.017   4.071
21736WAT     H267311   1.353   6.164   4.094
21737WAT      O67312   0.461   6.103   5.351
21737WAT     H167313   0.447   6.190   5.388
21737WAT     H267314   0.373   6.068   5.337
21738WAT      O67315   1.093   6.594   4.482
21738WAT     H167316   1.137   6.669   4.441
21738WAT     H267317   1.087   6.619   4.574
21739WAT      O67318   0.641   6.697   5.572
21739WAT     H167319   0.638   6.737   5.485
21739WAT     H267320   0.624   6.604   5.556
21740WAT      O67321   1.640   5.226   3.917
21740WAT     H167322   1.609   5.235   4.007
21740WAT     H267323   1.716   5.284   3.912
21741WAT      O67324   0.292   5.962   4.362
21741WAT     H167325   0.280   6.035   4.301
21741WAT     H267326   0.261   5.885   4.315
21742WAT      O67327   1.836   6.775   5.702
21742WAT     H167328   1.883   6.823   5.770
21742WAT     H267329   1.898   6.768   5.629
21743WAT      O67330   0.180   6.450   4.584
21743WAT     H167331   0.140   6.464   4.499
21743WAT     H267332   0.270   6.421   4.564
21744WAT      O67333   1.776   6.494   5.418
21744WAT     H167334   1.789   6.470   5.326
21744WAT     H267335   1.780   6.411   5.465
21745WAT      O67336   1.162   6.865   5.275
21745WAT     H167337   1.214   6.856   5.355
21745WAT     H267338   1.078   6.899   5.304
21746WAT      O67339   1.360   6.893   4.218
21746WAT     H167340   1.344   6.864   4.307
21746WAT     H267341   1.343   6.815   4.164
21747WAT      O67342   0.608   6.871   4.395
21747WAT     H167343   0.590   6.779   4.374
21747WAT     H267344   0.522   6.907   4.419
21748WAT      O67345   1.330   6.644   4.074
21748WAT     H167346   1.261   6.644   4.008
21748WAT     H267347   1.404   6.602   4.031
21749WAT      O67348   1.287   6.807   4.481
21749WAT     H167349   1.332   6.728   4.512
21749WAT     H267350   1.321   6.878   4.535
21750WAT      O67351   0.539   5.297   4.701
21750WAT     H167352   0.494   5.375   4.667
21750WAT     H267353   0.595   5.329   4.771
21751WAT      O67354   0.967   5.583   5.261
21751WAT     H167355   0.921   5.604   5.342
21751WAT     H267356   0.927   5.502   5.231
21752WAT      O67357   1.468   5.706   5.374
21752WAT     H167358   1.382   5.676   5.406
21752WAT     H267359   1.452   5.730   5.283
21753WAT      O67360   1.177   5.856   5.584
21753WAT     H167361   1.210   5.772   5.550
21753WAT     H267362   1.256   5.908   5.599
21754WAT      O67363   0.850   5.259   4.189
21754WAT     H167364   0.788   5.259   4.261
21754WAT     H267365   0.842   5.172   4.149
21755WAT      O67366   0.743   5.351   4.886
21755WAT     H167367   0.772   5.442   4.878
21755WAT     H267368   0.797   5.302   4.825
21756WAT      O67369   0.518   5.809   4.473
21756WAT     H167370   0.495   5.788   4.564
21756WAT     H267371   0.440   5.852   4.439
21757WAT      O67372   1.241   5.810   4.333
21757WAT     H167373   1.181   5.882   4.315
21757WAT     H267374   1.296   5.804   4.255
21758WAT      O67375   0.762   5.899   5.540
21758WAT     H167376   0.752   5.805   5.525
21758WAT     H267377   0.846   5.921   5.500
21759WAT      O67378   1.102   5.673   4.536
21759WAT     H167379   1.141   5.705   4.455
21759WAT     H267380   1.138   5.586   4.548
21760WAT      O67381   0.275   5.540   5.355
21760WAT     H167382   0.236   5.625   5.376
21760WAT     H267383   0.206   5.476   5.374
21761WAT      O67384   0.932   5.548   5.662
21761WAT     H167385   0.863   5.529   5.726
21761WAT     H267386   1.007   5.577   5.716
21762WAT      O67387   1.160   5.932   4.946
21762WAT     H167388   1.087   5.983   4.981
21762WAT     H267389   1.120   5.851   4.916
21763WAT      O67390   0.804   5.600   4.786
21763WAT     H167391   0.804   5.556   4.701
21763WAT     H267392   0.893   5.632   4.797
21764WAT      O67393   0.389   5.588   4.682
21764WAT     H167394   0.355   5.636   4.758
21764WAT     H267395   0.313   5.543   4.646
21765WAT      O67396   0.810   5.700   4.085
21765WAT     H167397   0.822   5.696   4.180
21765WAT     H267398   0.772   5.786   4.070
21766WAT      O67399   1.206   5.478   4.887
21766WAT     H167400   1.208   5.523   4.971
21766WAT     H267401   1.182   5.388   4.908
21767WAT      O67402   0.711   5.931   4.025
21767WAT     H167403   0.654   5.886   3.963
21767WAT     H267404   0.782   5.967   3.972
21768WAT      O67405   1.549   5.219   5.471
21768WAT     H167406   1.582   5.146   5.524
21768WAT     H267407   1.553   5.187   5.381
21769WAT      O67408   0.219   6.321   5.413
21769WAT     H167409   0.181   6.257   5.473
21769WAT     H267410   0.250   6.392   5.470
21770WAT      O67411   0.834   6.006   4.961
21770WAT     H167412   0.871   5.959   5.036
21770WAT     H267413   0.815   6.093   4.995
21771WAT      O67414   0.613   5.910   5.193
21771WAT     H167415   0.583   5.998   5.215
21771WAT     H267416   0.708   5.916   5.196
21772WAT      O67417   0.466   6.331   4.253
21772WAT     H167418   0.388   6.277   4.237
21772WAT     H267419   0.539   6.279   4.219
21773WAT      O67420   1.088   5.370   4.246
21773WAT     H167421   1.006   5.320   4.239
21773WAT     H267422   1.068   5.454   4.204
21774WAT      O67423   1.080   6.237   5.420
21774WAT     H167424   1.073   6.145   5.395
21774WAT     H267425   1.017   6.247   5.492
21775WAT      O67426   1.359   5.807   4.076
21775WAT     H167427   1.448   5.838   4.058
21775WAT     H267428   1.356   5.720   4.037
21776WAT      O67429   0.470   6.298   4.616
21776WAT     H167430   0.522   6.217   4.611
21776WAT     H267431   0.425   6.291   4.700
21777WAT      O67432   0.959   6.424   4.144
21777WAT     H167433   0.993   6.499   4.094
21777WAT     H267434   0.876   6.455   4.180
21778WAT      O67435   0.219   5.994   5.308
21778WAT     H167436   0.183   6.061   5.366
21778WAT     H267437   0.189   5.911   5.345
21779WAT      O67438   0.539   6.040   5.596
21779WAT     H167439   0.509   6.055   5.506
21779WAT     H267440   0.616   5.984   5.587
21780WAT      O67441   1.073   6.520   5.396
21780WAT     H167442   1.074   6.426   5.374
21780WAT     H267443   1.002   6.528   5.459
21781WAT      O67444   1.586   5.938   4.022
21781WAT     H167445   1.578   5.981   3.937
21781WAT     H267446   1.658   5.984   4.066
21782WAT      O67447   1.694   6.184   5.330
21782WAT     H167448   1.622   6.243   5.310
21782WAT     H267449   1.747   6.183   5.250
21783WAT      O67450   1.689   6.623   4.295
21783WAT     H167451   1.625   6.558   4.323
21783WAT     H267452   1.651   6.664   4.218
21784WAT      O67453   1.247   6.356   4.680
21784WAT     H167454   1.282   6.297   4.614
21784WAT     H267455   1.159   6.324   4.697
21785WAT      O67456   0.856   6.432   4.421
21785WAT     H167457   0.924   6.487   4.459
21785WAT     H267458   0.777   6.487   4.424
21786WAT      O67459   0.786   6.133   4.382
21786WAT     H167460   0.832   6.214   4.405
21786WAT     H267461   0.751   6.101   4.465
21787WAT      O67462   1.016   6.684   5.105
21787WAT     H167463   1.081   6.704   5.173
21787WAT     H267464   1.053   6.608   5.060
21788WAT      O67465   0.376   5.167   4.429
21788WAT     H167466   0.363   5.166   4.524
21788WAT     H267467   0.294   5.201   4.394
21789WAT      O67468   1.144   6.484   4.977
21789WAT     H167469   1.208   6.414   4.988
21789WAT     H267470   1.196   6.562   4.959
21790WAT      O67471   1.528   6.513   3.949
21790WAT     H167472   1.506   6.441   4.008
21790WAT     H267473   1.489   6.488   3.865
21791WAT      O67474   1.321   6.564   5.297
21791WAT     H167475   1.355   6.623   5.365
21791WAT     H267476   1.229   6.551   5.320
21792WAT      O67477   1.486   6.304   4.115
21792WAT     H167478   1.458   6.350   4.194
21792WAT     H267479   1.566   6.258   4.142
21793WAT      O67480   0.904   6.569   5.614
21793WAT     H167481   0.872   6.497   5.668
21793WAT     H267482   0.837   6.637   5.621
21794WAT      O67483   0.708   6.654   4.108
21794WAT     H167484   0.707   6.727   4.047
21794WAT     H267485   0.616   6.629   4.118
21795WAT      O67486   0.268   6.176   4.183
21795WAT     H167487   0.207   6.250   4.184
21795WAT     H267488   0.316   6.185   4.100
21796WAT      O67489   1.225   5.592   5.150
21796WAT     H167490   1.262   5.510   5.183
21796WAT     H267491   1.139   5.598   5.192
21797WAT      O67492   1.562   5.488   4.231
21797WAT     H167493   1.499   5.498   4.160
21797WAT     H267494   1.513   5.510   4.310
21798WAT      O67495   1.007   6.660   3.975
21798WAT     H167496   1.017   6.640   3.882
21798WAT     H267497   0.917   6.634   3.995
21799WAT      O67498   0.759   5.716   4.373
21799WAT     H167499   0.688   5.763   4.417
21799WAT     H267500   0.787   5.650   4.436
21800WAT      O67501   0.921   5.858   5.173
21800WAT     H167502   0.971   5.905   5.239
21800WAT     H267503   0.936   5.765   5.193
21801WAT      O67504   1.162   5.388   4.517
21801WAT     H167505   1.150   5.390   4.422
21801WAT     H267506   1.257   5.393   4.529
21802WAT      O67507   0.871   6.912   4.444
21802WAT     H167508   0.896   6.908   4.352
21802WAT     H267509   0.776   6.899   4.443
21803WAT      O67510   0.579   5.547   4.110
21803WAT     H167511   0.664   5.590   4.104
21803WAT     H267512   0.543   5.578   4.193
21804WAT      O67513   1.642   5.479   5.257
21804WAT     H167514   1.592   5.553   5.291
21804WAT     H267515   1.724   5.518   5.225
21805WAT      O67516   0.469   6.172   3.958
21805WAT     H167517   0.546   6.161   4.014
21805WAT     H267518   0.477   6.102   3.892
21806WAT      O67519   0.339   5.915   4.026
21806WAT     H167520   0.347   5.820   4.037
21806WAT     H267521   0.428   5.948   4.037
21807WAT      O67522   1.672   6.721   4.769
21807WAT     H167523   1.684   6.803   4.816
21807WAT     H267524   1.758   6.700   4.734
21808WAT      O67525   0.419   6.930   4.736
21808WAT     H167526   0.492   6.875   4.763
21808WAT     H267527   0.457   7.017   4.722
21809WAT      O67528   0.319   6.849   5.655
21809WAT     H167529   0.400   6.881   5.696
21809WAT     H267530   0.268   6.813   5.727
21810WAT      O67531   0.730   6.847   3.919
21810WAT     H167532   0.809   6.876   3.873
21810WAT     H267533   0.678   6.804   3.851
21811WAT      O67534   1.203   6.459   5.650
21811WAT     H167535   1.142   6.462   5.576
21811WAT     H267536   1.173   6.386   5.704
21812WAT      O67537   1.346   6.832   5.511
21812WAT     H167538   1.441   6.824   5.506
21812WAT     H267539   1.331   6.899   5.578
21813WAT      O67540   1.635   6.770   4.061
21813WAT     H167541   1.607   6.729   3.979
21813WAT     H267542   1.615   6.863   4.049
21814WAT      O67543   0.782   6.369   3.905
21814WAT     H167544   0.771   6.308   3.978
21814WAT     H267545   0.765   6.317   3.827
21815WAT      O67546   0.797   6.238   5.503
21815WAT     H167547   0.720   6.295   5.494
21815WAT     H267548   0.815   6.209   5.414
21816WAT      O67549   1.106   6.276   3.965
21816WAT     H167550   1.051   6.320   4.030
21816WAT     H267551   1.168   6.225   4.018
21817WAT      O67552   1.511   6.411   5.559
21817WAT     H167553   1.585   6.445   5.508
21817WAT     H267554   1.435   6.428   5.503
21818WAT      O67555   0.295   5.912   5.639
21818WAT     H167556   0.299   5.882   5.730
21818WAT     H267557   0.380   5.952   5.623
21819WAT      O67558   0.672   6.172   4.155
21819WAT     H167559   0.715   6.155   4.239
21819WAT     H267560   0.685   6.091   4.106
21820WAT      O67561   0.489   5.770   5.436
21820WAT     H167562   0.436   5.720   5.373
21820WAT     H267563   0.556   5.812   5.382
21821WAT      O67564   0.924   6.074   3.880
21821WAT     H167565   0.976   6.002   3.843
21821WAT     H267566   0.988   6.138   3.910
21822WAT      O67567   1.378   6.216   5.412
21822WAT     H167568   1.420   6.232   5.497
21822WAT     H267569   1.285   6.229   5.428
21823WAT      O67570   1.426   5.950   5.613
21823WAT     H167571   1.484   5.875   5.604
21823WAT     H267572   1.443   6.003   5.535
21824WAT      O67573   0.537   5.466   5.444
21824WAT     H167574   0.528   5.404   5.371
21824WAT     H267575   0.479   5.539   5.421
21825WAT      O67576   0.814   5.322   5.147
21825WAT     H167577   0.769   5.324   5.062
21825WAT     H267578   0.751   5.282   5.207
21826WAT      O67579   0.855   6.211   5.209
21826WAT     H167580   0.896   6.296   5.192
21826WAT     H267581   0.763   6.225   5.186
21827WAT      O67582   1.088   5.985   5.348
21827WAT     H167583   1.100   5.925   5.421
21827WAT     H267584   1.174   5.988   5.306
21828WAT      O67585   1.322   6.040   5.205
21828WAT     H167586   1.269   6.092   5.145
21828WAT     H267587   1.356   6.103   5.268
21829WAT      O67588   0.562   5.779   3.850
21829WAT     H167589   0.542   5.693   3.886
21829WAT     H267590   0.545   5.770   3.756
21830WAT      O67591   0.640   6.842   5.321
21830WAT     H167592   0.586   6.914   5.289
21830WAT     H267593   0.665   6.794   5.242
21831WAT      O67594   0.765   5.639   5.473
21831WAT     H167595   0.824   5.608   5.542
21831WAT     H267596   0.683   5.592   5.489
21832WAT      O67597   1.247   5.600   5.497
21832WAT     H167598   1.178   5.534   5.490
21832WAT     H267599   1.319   5.556   5.541
21833WAT      O67600   1.310   5.260   4.102
21833WAT     H167601   1.338   5.176   4.138
21833WAT     H267602   1.233   5.283   4.154
21834WAT      O67603   0.442   5.489   3.848
21834WAT     H167604   0.472   5.490   3.758
21834WAT     H267605   0.516   5.454   3.898
21835WAT      O67606   0.925   6.965   5.347
21835WAT     H167607   0.918   7.056   5.377
21835WAT     H267608   0.835   6.934   5.344
21836WAT      O67609   0.764   5.383   3.947
21836WAT     H167610   0.729   5.315   3.889
21836WAT     H267611   0.784   5.337   4.028
21837WAT      O67612   0.980   6.882   4.109
21837WAT     H167613   1.070   6.916   4.111
21837WAT     H267614   0.983   6.810   4.046
21838WAT      O67615   0.344   6.419   3.932
21838WAT     H167616   0.388   6.474   3.997
21838WAT     H267617   0.393   6.337   3.933
21839WAT      O67618   0.525   6.531   4.443
21839WAT     H167619   0.495   6.519   4.533
21839WAT     H267620   0.515   6.445   4.402
21840WAT      O67621   1.678   6.735   5.379
21840WAT     H167622   1.618   6.741   5.305
21840WAT     H267623   1.691   6.641   5.392
21841WAT      O67624   1.802   6.509   3.913
21841WAT     H167625   1.719   6.516   3.960
21841WAT     H267626   1.820   6.598   3.883
21842WAT      O67627   1.748   6.184   4.164
21842WAT     H167628   1.824   6.241   4.174
21842WAT     H267629   1.749   6.127   4.241
21843WAT      O67630   1.547   6.408   5.189
21843WAT     H167631   1.465   6.451   5.216
21843WAT     H267632   1.587   6.469   5.128
21844WAT      O67633   1.753   6.213   3.879
21844WAT     H167634   1.780   6.304   3.866
21844WAT     H267635   1.734   6.207   3.973
21845WAT      O67636   1.393   5.516   4.009
21845WAT     H167637   1.434   5.497   3.925
21845WAT     H267638   1.362   5.430   4.040
21846WAT      O67639   0.201   6.075   5.041
21846WAT     H167640   0.238   6.066   5.129
21846WAT     H267641   0.145   5.998   5.031
21847WAT      O67642   1.525   5.444   5.620
21847WAT     H167643   1.613   5.445   5.658
21847WAT     H267644   1.527   5.370   5.559
21848WAT      O67645   0.273   5.663   3.972
21848WAT     H167646   0.344   5.621   3.923
21848WAT     H267647   0.202   5.670   3.909
21849WAT      O67648   0.238   5.268   3.876
21849WAT     H167649   0.310   5.322   3.908
21849WAT     H267650   0.265   5.241   3.788
21850WAT      O67651   0.207   5.193   4.866
21850WAT     H167652   0.272   5.138   4.822
21850WAT     H267653   0.249   5.219   4.948
21851WAT      O67654   1.597   5.213   5.202
21851WAT     H167655   1.660   5.274   5.238
21851WAT     H267656   1.611   5.216   5.107
21852WAT      O67657   1.851   5.402   3.880
21852WAT     H167658   1.943   5.389   3.859
21852WAT     H267659   1.849   5.410   3.975
21853WAT      O67660   1.858   5.479   4.143
21853WAT     H167661   1.779   5.472   4.195
21853WAT     H267662   1.879   5.572   4.141
21854WAT      O67663   1.552   6.883   4.542
21854WAT     H167664   1.612   6.851   4.474
21854WAT     H267665   1.578   6.835   4.621
21855WAT      O67666   0.182   5.209   5.140
21855WAT     H167667   0.147   5.254   5.217
21855WAT     H267668   0.149   5.119   5.149
21856WAT      O67669   0.343   6.526   5.557
21856WAT     H167670   0.339   6.489   5.645
21856WAT     H267671   0.356   6.620   5.571
21857WAT      O67672   0.713   6.682   5.117
21857WAT     H167673   0.689   6.708   5.028
21857WAT     H267674   0.807   6.699   5.122
21858WAT      O67675   0.934   5.328   5.493
21858WAT     H167676   0.927   5.387   5.567
21858WAT     H267677   1.028   5.317   5.478
21859WAT      O67678   1.197   5.294   5.456
21859WAT     H167679   1.259   5.325   5.390
21859WAT     H267680   1.252   5.245   5.518
21860WAT      O67681   1.839   6.883   5.197
21860WAT     H167682   1.790   6.923   5.125
21860WAT     H267683   1.778   6.821   5.236
21861WAT      O67684   0.250   5.162   5.468
21861WAT     H167685   0.304   5.143   5.391
21861WAT     H267686   0.256   5.082   5.521
21862WAT      O67687   0.327   6.821   5.269
21862WAT     H167688   0.267   6.807   5.343
21862WAT     H267689   0.326   6.737   5.222
21863WAT      O67690   1.271   5.150   5.089
21863WAT     H167691   1.184   5.183   5.069
21863WAT     H267692   1.261   5.103   5.172
21864WAT      O67693   1.362   5.371   5.228
21864WAT     H167694   1.329   5.289   5.190
21864WAT     H267695   1.457   5.366   5.215
21865WAT      O67696   1.607   6.948   4.925
21865WAT     H167697   1.562   7.023   4.887
21865WAT     H267698   1.545   6.876   4.919
21866WAT      O67699   0.290   6.557   5.164
21866WAT     H167700   0.217   6.495   5.157
21866WAT     H267701   0.296   6.597   5.077
21867WAT      O67702   0.650   6.779   4.842
21867WAT     H167703   0.702   6.717   4.790
21867WAT     H267704   0.715   6.829   4.892
21868WAT      O67705   0.924   6.868   4.925
21868WAT     H167706   0.953   6.842   4.837
21868WAT     H267707   0.976   6.812   4.984
21869WAT      O67708   1.046   5.242   4.983
21869WAT     H167709   0.968   5.289   5.011
21869WAT     H267710   1.017   5.151   4.972
21870WAT      O67711   1.501   5.312   4.788
21870WAT     H167712   1.545   5.306   4.703
21870WAT     H267713   1.474   5.403   4.795
21871WAT      O67714   1.688   5.275   4.589
21871WAT     H167715   1.682   5.181   4.574
21871WAT     H267716   1.766   5.286   4.643
21872WAT      O67717   0.181   5.272   4.235
21872WAT     H167718   0.256   5.283   4.178
21872WAT     H267719   0.134   5.356   4.231
21873WAT      O67720   0.835   5.483   4.534
21873WAT     H167721   0.753   5.446   4.500
21873WAT     H267722   0.885   5.408   4.564
21874WAT      O67723   1.285   5.150   4.658
21874WAT     H167724   1.345   5.207   4.706
21874WAT     H267725   1.211   5.206   4.636
21875WAT      O67726   1.599   5.190   4.185
21875WAT     H167727   1.619   5.280   4.212
21875WAT     H267728   1.521   5.167   4.235
21876WAT      O67729   0.279   6.758   4.229
21876WAT     H167730   0.226   6.796   4.159
21876WAT     H267731   0.271   6.821   4.301
21877WAT      O67732   0.418   5.325   4.089
21877WAT     H167733   0.471   5.246   4.076
21877WAT     H267734   0.481   5.393   4.113
21878WAT      O67735   0.637   5.298   4.395
21878WAT     H167736   0.574   5.228   4.411
21878WAT     H267737   0.583   5.375   4.373
21879WAT      O67738   0.931   6.960   5.662
21879WAT     H167739   1.024   6.936   5.666
21879WAT     H267740   0.930   7.043   5.614
21880WAT      O67741   1.755   6.914   4.362
21880WAT     H167742   1.772   6.845   4.297
21880WAT     H267743   1.685   6.967   4.322
21881WAT      O67744   0.650   5.226   5.638
21881WAT     H167745   0.622   5.277   5.562
21881WAT     H267746   0.688   5.147   5.602
21882WAT      O67747   0.539   6.953   4.117
21882WAT     H167748   0.612   6.925   4.062
21882WAT     H267749   0.565   6.929   4.206
21883WAT      O67750   0.455   6.565   4.117
21883WAT     H167751   0.392   6.612   4.172
21883WAT     H267752   0.466   6.480   4.161
21884WAT      O67753   1.310   5.168   5.696
21884WAT     H167754   1.299   5.200   5.786
21884WAT     H267755   1.392   5.208   5.666
21885WAT      O67756   1.588   6.883   5.644
21885WAT     H167757   1.667   6.833   5.623
21885WAT     H267758   1.617   6.950   5.705
21886WAT      O67759   1.200   5.970   2.732
21886WAT     H167760   1.192   5.878   2.705
21886WAT     H267761   1.159   6.019   2.662
21887WAT      O67762   1.014   6.148   2.920
21887WAT     H167763   0.936   6.100   2.949
21887WAT     H267764   1.079   6.080   2.903
21888WAT      O67765   0.415   6.179   3.008
21888WAT     H167766   0.332   6.153   3.048
21888WAT     H267767   0.476   6.186   3.082
21889WAT      O67768   1.416   6.588   2.798
21889WAT     H167769   1.370   6.511   2.831
21889WAT     H267770   1.497   6.591   2.849
21890WAT      O67771   0.413   6.582   3.028
21890WAT     H167772   0.444   6.493   3.010
21890WAT     H267773   0.488   6.638   3.005
21891WAT      O67774   0.256   5.675   2.387
21891WAT     H167775   0.167   5.709   2.376
21891WAT     H267776   0.285   5.655   2.297
21892WAT      O67777   1.038   6.817   2.760
21892WAT     H167778   0.976   6.862   2.703
21892WAT     H267779   1.124   6.832   2.720
21893WAT      O67780   0.958   6.415   2.921
21893WAT     H167781   0.951   6.321   2.905
21893WAT     H267782   1.034   6.424   2.978
21894WAT      O67783   0.177   5.476   3.154
21894WAT     H167784   0.159   5.386   3.182
21894WAT     H267785   0.137   5.530   3.221
21895WAT      O67786   1.061   5.696   2.944
21895WAT     H167787   1.098   5.609   2.933
21895WAT     H267788   1.051   5.729   2.855
21896WAT      O67789   0.474   5.533   2.490
21896WAT     H167790   0.485   5.623   2.521
21896WAT     H267791   0.383   5.528   2.461
21897WAT      O67792   1.439   5.445   2.637
21897WAT     H167793   1.521   5.396   2.641
21897WAT     H267794   1.442   5.504   2.712
21898WAT      O67795   0.239   5.725   3.015
21898WAT     H167796   0.307   5.752   3.076
21898WAT     H267797   0.207   5.641   3.048
21899WAT      O67798   0.658   5.830   2.923
21899WAT     H167799   0.709   5.880   2.987
21899WAT     H267800   0.711   5.752   2.906
21900WAT      O67801   1.868   5.647   3.294
21900WAT     H167802   1.798   5.686   3.242
21900WAT     H267803   1.895   5.717   3.354
21901WAT      O67804   0.486   5.294   3.350
21901WAT     H167805   0.486   5.346   3.269
21901WAT     H267806   0.403   5.246   3.348
21902WAT      O67807   1.125   6.305   2.500
21902WAT     H167808   1.063   6.352   2.443
21902WAT     H267809   1.176   6.374   2.541
21903WAT      O67810   0.611   6.258   3.168
21903WAT     H167811   0.578   6.321   3.232
21903WAT     H267812   0.629   6.311   3.090
21904WAT      O67813   1.463   5.639   2.914
21904WAT     H167814   1.392   5.668   2.972
21904WAT     H267815   1.499   5.720   2.878
21905WAT      O67816   0.454   5.465   3.151
21905WAT     H167817   0.489   5.549   3.121
21905WAT     H267818   0.361   5.480   3.162
21906WAT      O67819   0.533   6.455   3.349
21906WAT     H167820   0.594   6.522   3.321
21906WAT     H267821   0.446   6.496   3.340
21907WAT      O67822   1.624   6.601   3.141
21907WAT     H167823   1.556   6.668   3.140
21907WAT     H267824   1.678   6.621   3.064
21908WAT      O67825   1.770   5.584   2.953
21908WAT     H167826   1.675   5.587   2.967
21908WAT     H267827   1.802   5.665   2.992
21909WAT      O67828   0.823   5.214   2.783
21909WAT     H167829   0.853   5.158   2.711
21909WAT     H267830   0.730   5.227   2.765
21910WAT      O67831   1.378   6.786   3.012
21910WAT     H167832   1.379   6.745   2.925
21910WAT     H267833   1.323   6.863   3.002
21911WAT      O67834   1.507   6.458   2.521
21911WAT     H167835   1.496   6.363   2.534
21911WAT     H267836   1.507   6.494   2.610
21912WAT      O67837   1.318   6.276   3.145
21912WAT     H167838   1.359   6.254   3.061
21912WAT     H267839   1.390   6.302   3.202
21913WAT      O67840   1.062   6.020   2.457
21913WAT     H167841   0.969   6.014   2.480
21913WAT     H267842   1.077   6.114   2.445
21914WAT      O67843   1.060   5.648   2.156
21914WAT     H167844   0.966   5.664   2.165
21914WAT     H267845   1.092   5.719   2.102
21915WAT      O67846   1.712   6.116   3.154
21915WAT     H167847   1.630   6.123   3.107
21915WAT     H267848   1.772   6.174   3.107
21916WAT      O67849   1.465   6.177   2.507
21916WAT     H167850   1.403   6.143   2.442
21916WAT     H267851   1.463   6.112   2.578
21917WAT      O67852   1.409   5.794   3.249
21917WAT     H167853   1.367   5.877   3.274
21917WAT     H267854   1.336   5.736   3.229
21918WAT      O67855   0.622   6.073   2.735
21918WAT     H167856   0.582   6.002   2.685
21918WAT     H267857   0.631   6.039   2.824
21919WAT      O67858   0.669   6.442   2.951
21919WAT     H167859   0.639   6.381   2.883
21919WAT     H267860   0.764   6.445   2.940
21920WAT      O67861   0.493   5.750   3.113
21920WAT     H167862   0.549   5.761   3.035
21920WAT     H267863   0.545   5.788   3.184
21921WAT      O67864   1.478   6.799   3.317
21921WAT     H167865   1.430   6.880   3.298
21921WAT     H267866   1.409   6.734   3.333
21922WAT      O67867   0.578   6.415   3.616
21922WAT     H167868   0.488   6.438   3.641
21922WAT     H267869   0.581   6.428   3.521
21923WAT      O67870   1.282   6.100   2.208
21923WAT     H167871   1.326   6.017   2.193
21923WAT     H267872   1.353   6.164   2.216
21924WAT      O67873   0.461   6.103   3.474
21924WAT     H167874   0.447   6.190   3.511
21924WAT     H267875   0.373   6.068   3.459
21925WAT      O67876   1.093   6.594   2.605
21925WAT     H167877   1.137   6.669   2.563
21925WAT     H267878   1.087   6.619   2.697
21926WAT      O67879   0.641   6.697   3.695
21926WAT     H167880   0.638   6.737   3.608
21926WAT     H267881   0.624   6.604   3.678
21927WAT      O67882   1.640   5.226   2.039
21927WAT     H167883   1.609   5.235   2.129
21927WAT     H267884   1.716   5.284   2.034
21928WAT      O67885   0.292   5.962   2.485
21928WAT     H167886   0.280   6.035   2.424
21928WAT     H267887   0.261   5.885   2.437
21929WAT      O67888   1.836   6.775   3.824
21929WAT     H167889   1.883   6.823   3.892
21929WAT     H267890   1.898   6.768   3.752
21930WAT      O67891   0.180   6.450   2.707
21930WAT     H167892   0.140   6.464   2.621
21930WAT     H267893   0.270   6.421   2.686
21931WAT      O67894   1.776   6.494   3.540
21931WAT     H167895   1.789   6.470   3.449
21931WAT     H267896   1.780   6.411   3.588
21932WAT      O67897   1.162   6.865   3.397
21932WAT     H167898   1.214   6.856   3.478
21932WAT     H267899   1.078   6.899   3.427
21933WAT      O67900   1.360   6.893   2.340
21933WAT     H167901   1.344   6.864   2.430
21933WAT     H267902   1.343   6.815   2.287
21934WAT      O67903   0.608   6.871   2.518
21934WAT     H167904   0.590   6.779   2.497
21934WAT     H267905   0.522   6.907   2.542
21935WAT      O67906   1.330   6.644   2.196
21935WAT     H167907   1.261   6.644   2.130
21935WAT     H267908   1.404   6.602   2.153
21936WAT      O67909   1.287   6.807   2.604
21936WAT     H167910   1.332   6.728   2.635
21936WAT     H267911   1.321   6.878   2.658
21937WAT      O67912   1.761   5.700   3.637
21937WAT     H167913   1.700   5.750   3.584
21937WAT     H267914   1.729   5.610   3.631
21938WAT      O67915   0.539   5.297   2.823
21938WAT     H167916   0.494   5.375   2.790
21938WAT     H267917   0.595   5.329   2.894
21939WAT      O67918   0.967   5.583   3.383
21939WAT     H167919   0.921   5.604   3.465
21939WAT     H267920   0.927   5.502   3.353
21940WAT      O67921   1.468   5.706   3.496
21940WAT     H167922   1.382   5.676   3.529
21940WAT     H267923   1.452   5.730   3.405
21941WAT      O67924   1.177   5.856   3.706
21941WAT     H167925   1.210   5.772   3.672
21941WAT     H267926   1.256   5.908   3.721
21942WAT      O67927   0.850   5.259   2.311
21942WAT     H167928   0.788   5.259   2.384
21942WAT     H267929   0.842   5.172   2.272
21943WAT      O67930   0.743   5.351   3.009
21943WAT     H167931   0.772   5.442   3.001
21943WAT     H267932   0.797   5.302   2.948
21944WAT      O67933   0.518   5.809   2.596
21944WAT     H167934   0.495   5.788   2.686
21944WAT     H267935   0.440   5.852   2.561
21945WAT      O67936   1.241   5.810   2.456
21945WAT     H167937   1.181   5.882   2.437
21945WAT     H267938   1.296   5.804   2.378
21946WAT      O67939   0.762   5.899   3.663
21946WAT     H167940   0.752   5.805   3.648
21946WAT     H267941   0.846   5.921   3.623
21947WAT      O67942   1.102   5.673   2.659
21947WAT     H167943   1.141   5.705   2.578
21947WAT     H267944   1.138   5.586   2.670
21948WAT      O67945   0.275   5.540   3.478
21948WAT     H167946   0.236   5.625   3.499
21948WAT     H267947   0.206   5.476   3.497
21949WAT      O67948   0.932   5.548   3.785
21949WAT     H167949   0.863   5.529   3.848
21949WAT     H267950   1.007   5.577   3.838
21950WAT      O67951   1.160   5.932   3.068
21950WAT     H167952   1.087   5.983   3.103
21950WAT     H267953   1.120   5.851   3.038
21951WAT      O67954   0.804   5.600   2.909
21951WAT     H167955   0.804   5.556   2.824
21951WAT     H267956   0.893   5.632   2.920
21952WAT      O67957   0.389   5.588   2.805
21952WAT     H167958   0.355   5.636   2.881
21952WAT     H267959   0.313   5.543   2.769
21953WAT      O67960   0.810   5.700   2.208
21953WAT     H167961   0.822   5.696   2.303
21953WAT     H267962   0.772   5.786   2.192
21954WAT      O67963   1.206   5.478   3.010
21954WAT     H167964   1.208   5.523   3.094
21954WAT     H267965   1.182   5.388   3.031
21955WAT      O67966   0.711   5.931   2.148
21955WAT     H167967   0.654   5.886   2.085
21955WAT     H267968   0.782   5.967   2.094
21956WAT      O67969   1.549   5.219   3.593
21956WAT     H167970   1.582   5.146   3.646
21956WAT     H267971   1.553   5.187   3.503
21957WAT      O67972   0.219   6.321   3.535
21957WAT     H167973   0.181   6.257   3.595
21957WAT     H267974   0.250   6.392   3.592
21958WAT      O67975   0.834   6.006   3.084
21958WAT     H167976   0.871   5.959   3.158
21958WAT     H267977   0.815   6.093   3.118
21959WAT      O67978   0.613   5.910   3.315
21959WAT     H167979   0.583   5.998   3.338
21959WAT     H267980   0.708   5.916   3.319
21960WAT      O67981   0.466   6.331   2.375
21960WAT     H167982   0.388   6.277   2.359
21960WAT     H267983   0.539   6.279   2.341
21961WAT      O67984   1.542   6.230   2.954
21961WAT     H167985   1.614   6.280   2.915
21961WAT     H267986   1.521   6.163   2.890
21962WAT      O67987   1.088   5.370   2.369
21962WAT     H167988   1.006   5.320   2.361
21962WAT     H267989   1.068   5.454   2.327
21963WAT      O67990   1.080   6.237   3.543
21963WAT     H167991   1.073   6.145   3.518
21963WAT     H267992   1.017   6.247   3.614
21964WAT      O67993   1.359   5.807   2.198
21964WAT     H167994   1.448   5.838   2.181
21964WAT     H267995   1.356   5.720   2.159
21965WAT      O67996   0.470   6.298   2.739
21965WAT     H167997   0.522   6.217   2.733
21965WAT     H267998   0.425   6.291   2.823
21966WAT      O67999   0.959   6.424   2.266
21966WAT     H168000   0.993   6.499   2.217
21966WAT     H268001   0.876   6.455   2.302
21967WAT      O68002   0.219   5.994   3.430
21967WAT     H168003   0.183   6.061   3.489
21967WAT     H268004   0.189   5.911   3.467
21968WAT      O68005   0.539   6.040   3.719
21968WAT     H168006   0.509   6.055   3.629
21968WAT     H268007   0.616   5.984   3.709
21969WAT      O68008   1.073   6.520   3.518
21969WAT     H168009   1.074   6.426   3.496
21969WAT     H268010   1.002   6.528   3.582
21970WAT      O68011   1.586   5.938   2.145
21970WAT     H168012   1.578   5.981   2.060
21970WAT     H268013   1.658   5.984   2.188
21971WAT      O68014   1.694   6.184   3.453
21971WAT     H168015   1.622   6.243   3.433
21971WAT     H268016   1.747   6.183   3.373
21972WAT      O68017   1.689   6.623   2.418
21972WAT     H168018   1.625   6.558   2.445
21972WAT     H268019   1.651   6.664   2.340
21973WAT      O68020   1.247   6.356   2.803
21973WAT     H168021   1.282   6.297   2.737
21973WAT     H268022   1.159   6.324   2.820
21974WAT      O68023   0.856   6.432   2.543
21974WAT     H168024   0.924   6.487   2.581
21974WAT     H268025   0.777   6.487   2.547
21975WAT      O68026   0.786   6.133   2.505
21975WAT     H168027   0.832   6.214   2.527
21975WAT     H268028   0.751   6.101   2.588
21976WAT      O68029   1.016   6.684   3.227
21976WAT     H168030   1.081   6.704   3.295
21976WAT     H268031   1.053   6.608   3.182
21977WAT      O68032   0.376   5.167   2.552
21977WAT     H168033   0.363   5.166   2.647
21977WAT     H268034   0.294   5.201   2.517
21978WAT      O68035   1.144   6.484   3.099
21978WAT     H168036   1.208   6.414   3.111
21978WAT     H268037   1.196   6.562   3.081
21979WAT      O68038   1.528   6.513   2.072
21979WAT     H168039   1.506   6.441   2.131
21979WAT     H268040   1.489   6.488   1.988
21980WAT      O68041   1.321   6.564   3.420
21980WAT     H168042   1.355   6.623   3.487
21980WAT     H268043   1.229   6.551   3.443
21981WAT      O68044   1.486   6.304   2.238
21981WAT     H168045   1.458   6.350   2.317
21981WAT     H268046   1.566   6.258   2.265
21982WAT      O68047   0.904   6.569   3.736
21982WAT     H168048   0.872   6.497   3.791
21982WAT     H268049   0.837   6.637   3.744
21983WAT      O68050   0.708   6.654   2.231
21983WAT     H168051   0.707   6.727   2.169
21983WAT     H268052   0.616   6.629   2.240
21984WAT      O68053   0.268   6.176   2.305
21984WAT     H168054   0.207   6.250   2.306
21984WAT     H268055   0.316   6.185   2.223
21985WAT      O68056   1.225   5.592   3.273
21985WAT     H168057   1.262   5.510   3.306
21985WAT     H268058   1.139   5.598   3.314
21986WAT      O68059   1.562   5.488   2.354
21986WAT     H168060   1.499   5.498   2.282
21986WAT     H268061   1.513   5.510   2.433
21987WAT      O68062   1.007   6.660   2.097
21987WAT     H168063   1.017   6.640   2.004
21987WAT     H268064   0.917   6.634   2.118
21988WAT      O68065   0.759   5.716   2.495
21988WAT     H168066   0.688   5.763   2.539
21988WAT     H268067   0.787   5.650   2.559
21989WAT      O68068   0.921   5.858   3.295
21989WAT     H168069   0.971   5.905   3.362
21989WAT     H268070   0.936   5.765   3.316
21990WAT      O68071   1.162   5.388   2.639
21990WAT     H168072   1.150   5.390   2.544
21990WAT     H268073   1.257   5.393   2.651
21991WAT      O68074   0.871   6.912   2.567
21991WAT     H168075   0.896   6.908   2.474
21991WAT     H268076   0.776   6.899   2.566
21992WAT      O68077   0.579   5.547   2.233
21992WAT     H168078   0.664   5.590   2.226
21992WAT     H268079   0.543   5.578   2.316
21993WAT      O68080   1.642   5.479   3.380
21993WAT     H168081   1.592   5.553   3.413
21993WAT     H268082   1.724   5.518   3.348
21994WAT      O68083   1.471   6.004   2.724
21994WAT     H168084   1.377   6.005   2.742
21994WAT     H268085   1.503   5.925   2.769
21995WAT      O68086   0.469   6.172   2.080
21995WAT     H168087   0.546   6.161   2.136
21995WAT     H268088   0.477   6.102   2.015
21996WAT      O68089   0.339   5.915   2.149
21996WAT     H168090   0.347   5.820   2.160
21996WAT     H268091   0.428   5.948   2.159
21997WAT      O68092   1.672   6.721   2.892
21997WAT     H168093   1.684   6.803   2.939
21997WAT     H268094   1.758   6.700   2.857
21998WAT      O68095   0.419   6.930   2.859
21998WAT     H168096   0.492   6.875   2.886
21998WAT     H268097   0.457   7.017   2.845
21999WAT      O68098   0.319   6.849   3.778
21999WAT     H168099   0.400   6.881   3.819
21999WAT     H268100   0.268   6.813   3.850
22000WAT      O68101   0.730   6.847   2.041
22000WAT     H168102   0.809   6.876   1.996
22000WAT     H268103   0.678   6.804   1.973
22001WAT      O68104   1.203   6.459   3.772
22001WAT     H168105   1.142   6.462   3.698
22001WAT     H268106   1.173   6.386   3.826
22002WAT      O68107   1.346   6.832   3.634
22002WAT     H168108   1.441   6.824   3.629
22002WAT     H268109   1.331   6.899   3.701
22003WAT      O68110   1.635   6.770   2.183
22003WAT     H168111   1.607   6.729   2.102
22003WAT     H268112   1.615   6.863   2.171
22004WAT      O68113   0.782   6.369   2.028
22004WAT     H168114   0.771   6.308   2.100
22004WAT     H268115   0.765   6.317   1.949
22005WAT      O68116   0.797   6.238   3.625
22005WAT     H168117   0.720   6.295   3.617
22005WAT     H268118   0.815   6.209   3.536
22006WAT      O68119   1.106   6.276   2.088
22006WAT     H168120   1.051   6.320   2.152
22006WAT     H268121   1.168   6.225   2.140
22007WAT      O68122   1.511   6.411   3.681
22007WAT     H168123   1.585   6.445   3.631
22007WAT     H268124   1.435   6.428   3.626
22008WAT      O68125   0.295   5.912   3.762
22008WAT     H168126   0.299   5.882   3.852
22008WAT     H268127   0.380   5.952   3.746
22009WAT      O68128   0.672   6.172   2.278
22009WAT     H168129   0.715   6.155   2.362
22009WAT     H268130   0.685   6.091   2.228
22010WAT      O68131   0.489   5.770   3.558
22010WAT     H168132   0.436   5.720   3.496
22010WAT     H268133   0.556   5.812   3.505
22011WAT      O68134   0.924   6.074   2.002
22011WAT     H168135   0.976   6.002   1.966
22011WAT     H268136   0.988   6.138   2.032
22012WAT      O68137   1.378   6.216   3.535
22012WAT     H168138   1.420   6.232   3.620
22012WAT     H268139   1.285   6.229   3.551
22013WAT      O68140   1.426   5.950   3.735
22013WAT     H168141   1.484   5.875   3.726
22013WAT     H268142   1.443   6.003   3.657
22014WAT      O68143   0.537   5.466   3.566
22014WAT     H168144   0.528   5.404   3.494
22014WAT     H268145   0.479   5.539   3.544
22015WAT      O68146   0.814   5.322   3.270
22015WAT     H168147   0.769   5.324   3.185
22015WAT     H268148   0.751   5.282   3.329
22016WAT      O68149   0.855   6.211   3.332
22016WAT     H168150   0.896   6.296   3.314
22016WAT     H268151   0.763   6.225   3.309
22017WAT      O68152   1.088   5.985   3.470
22017WAT     H168153   1.100   5.925   3.544
22017WAT     H268154   1.174   5.988   3.428
22018WAT      O68155   1.322   6.040   3.328
22018WAT     H168156   1.269   6.092   3.267
22018WAT     H268157   1.356   6.103   3.391
22019WAT      O68158   0.562   5.779   1.972
22019WAT     H168159   0.542   5.693   2.008
22019WAT     H268160   0.545   5.770   1.878
22020WAT      O68161   0.640   6.842   3.443
22020WAT     H168162   0.586   6.914   3.411
22020WAT     H268163   0.665   6.794   3.364
22021WAT      O68164   0.765   5.639   3.596
22021WAT     H168165   0.824   5.608   3.665
22021WAT     H268166   0.683   5.592   3.611
22022WAT      O68167   1.247   5.600   3.619
22022WAT     H168168   1.178   5.534   3.613
22022WAT     H268169   1.319   5.556   3.664
22023WAT      O68170   1.310   5.260   2.225
22023WAT     H168171   1.338   5.176   2.261
22023WAT     H268172   1.233   5.283   2.276
22024WAT      O68173   0.442   5.489   1.971
22024WAT     H168174   0.472   5.490   1.880
22024WAT     H268175   0.516   5.454   2.021
22025WAT      O68176   0.925   6.965   3.469
22025WAT     H168177   0.918   7.056   3.500
22025WAT     H268178   0.835   6.934   3.466
22026WAT      O68179   0.764   5.383   2.070
22026WAT     H168180   0.729   5.315   2.012
22026WAT     H268181   0.784   5.337   2.151
22027WAT      O68182   0.980   6.882   2.231
22027WAT     H168183   1.070   6.916   2.234
22027WAT     H268184   0.983   6.810   2.169
22028WAT      O68185   0.344   6.419   2.054
22028WAT     H168186   0.388   6.474   2.120
22028WAT     H268187   0.393   6.337   2.055
22029WAT      O68188   0.525   6.531   2.565
22029WAT     H168189   0.495   6.519   2.656
22029WAT     H268190   0.515   6.445   2.525
22030WAT      O68191   1.678   6.735   3.502
22030WAT     H168192   1.618   6.741   3.428
22030WAT     H268193   1.691   6.641   3.515
22031WAT      O68194   1.802   6.509   2.036
22031WAT     H168195   1.719   6.516   2.083
22031WAT     H268196   1.820   6.598   2.005
22032WAT      O68197   1.748   6.184   2.286
22032WAT     H168198   1.824   6.241   2.297
22032WAT     H268199   1.749   6.127   2.363
22033WAT      O68200   1.848   6.269   2.771
22033WAT     H168201   1.885   6.191   2.730
22033WAT     H268202   1.912   6.338   2.753
22034WAT      O68203   1.547   6.408   3.312
22034WAT     H168204   1.465   6.451   3.338
22034WAT     H268205   1.587   6.469   3.251
22035WAT      O68206   1.753   6.213   2.002
22035WAT     H168207   1.780   6.304   1.989
22035WAT     H268208   1.734   6.207   2.095
22036WAT      O68209   1.393   5.516   2.131
22036WAT     H168210   1.434   5.497   2.047
22036WAT     H268211   1.362   5.430   2.162
22037WAT      O68212   1.743   6.007   2.501
22037WAT     H168213   1.705   5.930   2.458
22037WAT     H268214   1.670   6.045   2.550
22038WAT      O68215   0.201   6.075   3.163
22038WAT     H168216   0.238   6.066   3.251
22038WAT     H268217   0.145   5.998   3.153
22039WAT      O68218   1.682   5.921   3.465
22039WAT     H168219   1.658   5.899   3.374
22039WAT     H268220   1.708   6.013   3.460
22040WAT      O68221   1.525   5.444   3.742
22040WAT     H168222   1.613   5.445   3.781
22040WAT     H268223   1.527   5.370   3.681
22041WAT      O68224   1.670   5.829   2.831
22041WAT     H168225   1.722   5.780   2.768
22041WAT     H268226   1.729   5.843   2.906
22042WAT      O68227   1.688   5.838   3.183
22042WAT     H168228   1.593   5.834   3.195
22042WAT     H268229   1.706   5.929   3.160
22043WAT      O68230   0.273   5.663   2.094
22043WAT     H168231   0.344   5.621   2.046
22043WAT     H268232   0.202   5.670   2.031
22044WAT      O68233   0.238   5.268   1.998
22044WAT     H168234   0.310   5.322   2.030
22044WAT     H268235   0.265   5.241   1.911
22045WAT      O68236   1.619   5.755   2.425
22045WAT     H168237   1.669   5.732   2.504
22045WAT     H268238   1.599   5.671   2.383
22046WAT      O68239   0.207   5.193   2.989
22046WAT     H168240   0.272   5.138   2.945
22046WAT     H268241   0.249   5.219   3.071
22047WAT      O68242   1.762   5.619   2.678
22047WAT     H168243   1.751   5.603   2.772
22047WAT     H268244   1.838   5.566   2.654
22048WAT      O68245   1.597   5.213   3.324
22048WAT     H168246   1.660   5.274   3.361
22048WAT     H268247   1.611   5.216   3.230
22049WAT      O68248   1.851   5.402   2.003
22049WAT     H168249   1.943   5.389   1.982
22049WAT     H268250   1.849   5.410   2.098
22050WAT      O68251   1.858   5.479   2.265
22050WAT     H168252   1.779   5.472   2.318
22050WAT     H268253   1.879   5.572   2.264
22051WAT      O68254   1.552   6.883   2.665
22051WAT     H168255   1.612   6.851   2.597
22051WAT     H268256   1.578   6.835   2.744
22052WAT      O68257   0.182   5.209   3.263
22052WAT     H168258   0.147   5.254   3.339
22052WAT     H268259   0.149   5.119   3.271
22053WAT      O68260   0.343   6.526   3.679
22053WAT     H168261   0.339   6.489   3.768
22053WAT     H268262   0.356   6.620   3.693
22054WAT      O68263   0.713   6.682   3.240
22054WAT     H168264   0.689   6.708   3.151
22054WAT     H268265   0.807   6.699   3.245
22055WAT      O68266   0.934   5.328   3.615
22055WAT     H168267   0.927   5.387   3.690
22055WAT     H268268   1.028   5.317   3.601
22056WAT      O68269   1.197   5.294   3.579
22056WAT     H168270   1.259   5.325   3.513
22056WAT     H268271   1.252   5.245   3.641
22057WAT      O68272   1.839   6.883   3.320
22057WAT     H168273   1.790   6.923   3.248
22057WAT     H268274   1.778   6.821   3.359
22058WAT      O68275   0.250   5.162   3.590
22058WAT     H168276   0.304   5.143   3.514
22058WAT     H268277   0.256   5.082   3.644
22059WAT      O68278   0.327   6.821   3.391
22059WAT     H168279   0.267   6.807   3.465
22059WAT     H268280   0.326   6.737   3.345
22060WAT      O68281   1.271   5.150   3.212
22060WAT     H168282   1.184   5.183   3.191
22060WAT     H268283   1.261   5.103   3.294
22061WAT      O68284   1.362   5.371   3.350
22061WAT     H168285   1.329   5.289   3.312
22061WAT     H268286   1.457   5.366   3.338
22062WAT      O68287   1.607   6.948   3.047
22062WAT     H168288   1.562   7.023   3.010
22062WAT     H268289   1.545   6.876   3.042
22063WAT      O68290   0.290   6.557   3.286
22063WAT     H168291   0.217   6.495   3.280
22063WAT     H268292   0.296   6.597   3.199
22064WAT      O68293   0.650   6.779   2.965
22064WAT     H168294   0.702   6.717   2.912
22064WAT     H268295   0.715   6.829   3.014
22065WAT      O68296   0.924   6.868   3.048
22065WAT     H168297   0.953   6.842   2.960
22065WAT     H268298   0.976   6.812   3.107
22066WAT      O68299   1.046   5.242   3.106
22066WAT     H168300   0.968   5.289   3.134
22066WAT     H268301   1.017   5.151   3.095
22067WAT      O68302   1.501   5.312   2.910
22067WAT     H168303   1.545   5.306   2.825
22067WAT     H268304   1.474   5.403   2.917
22068WAT      O68305   1.688   5.275   2.711
22068WAT     H168306   1.682   5.181   2.697
22068WAT     H268307   1.766   5.286   2.766
22069WAT      O68308   0.181   5.272   2.358
22069WAT     H168309   0.256   5.283   2.300
22069WAT     H268310   0.134   5.356   2.353
22070WAT      O68311   0.835   5.483   2.657
22070WAT     H168312   0.753   5.446   2.623
22070WAT     H268313   0.885   5.408   2.687
22071WAT      O68314   1.285   5.150   2.781
22071WAT     H168315   1.345   5.207   2.828
22071WAT     H268316   1.211   5.206   2.758
22072WAT      O68317   1.599   5.190   2.308
22072WAT     H168318   1.619   5.280   2.335
22072WAT     H268319   1.521   5.167   2.357
22073WAT      O68320   0.279   6.758   2.352
22073WAT     H168321   0.226   6.796   2.282
22073WAT     H268322   0.271   6.821   2.424
22074WAT      O68323   0.418   5.325   2.212
22074WAT     H168324   0.471   5.246   2.199
22074WAT     H268325   0.481   5.393   2.235
22075WAT      O68326   0.637   5.298   2.517
22075WAT     H168327   0.574   5.228   2.534
22075WAT     H268328   0.583   5.375   2.496
22076WAT      O68329   0.931   6.960   3.784
22076WAT     H168330   1.024   6.936   3.789
22076WAT     H268331   0.930   7.043   3.736
22077WAT      O68332   1.755   6.914   2.484
22077WAT     H168333   1.772   6.845   2.420
22077WAT     H268334   1.685   6.967   2.445
22078WAT      O68335   0.650   5.226   3.761
22078WAT     H168336   0.622   5.277   3.684
22078WAT     H268337   0.688   5.147   3.724
22079WAT      O68338   0.539   6.953   2.239
22079WAT     H168339   0.612   6.925   2.185
22079WAT     H268340   0.565   6.929   2.328
22080WAT      O68341   0.455   6.565   2.240
22080WAT     H168342   0.392   6.612   2.295
22080WAT     H268343   0.466   6.480   2.283
22081WAT      O68344   1.310   5.168   3.819
22081WAT     H168345   1.299   5.200   3.908
22081WAT     H268346   1.392   5.208   3.789
22082WAT      O68347   1.588   6.883   3.767
22082WAT     H168348   1.667   6.833   3.746
22082WAT     H268349   1.617   6.950   3.827
22083WAT      O68350   1.200   5.970   0.855
22083WAT     H168351   1.192   5.878   0.828
22083WAT     H268352   1.159   6.019   0.784
22084WAT      O68353   1.014   6.148   1.043
22084WAT     H168354   0.936   6.100   1.072
22084WAT     H268355   1.079   6.080   1.026
22085WAT      O68356   0.415   6.179   1.131
22085WAT     H168357   0.332   6.153   1.171
22085WAT     H268358   0.476   6.186   1.204
22086WAT      O68359   1.416   6.588   0.921
22086WAT     H168360   1.370   6.511   0.954
22086WAT     H268361   1.497   6.591   0.972
22087WAT      O68362   0.413   6.582   1.150
22087WAT     H168363   0.444   6.493   1.132
22087WAT     H268364   0.488   6.638   1.128
22088WAT      O68365   0.256   5.675   0.509
22088WAT     H168366   0.167   5.709   0.499
22088WAT     H268367   0.285   5.655   0.420
22089WAT      O68368   1.038   6.817   0.883
22089WAT     H168369   0.976   6.862   0.826
22089WAT     H268370   1.124   6.832   0.843
22090WAT      O68371   0.958   6.415   1.044
22090WAT     H168372   0.951   6.321   1.028
22090WAT     H268373   1.034   6.424   1.101
22091WAT      O68374   0.177   5.476   1.276
22091WAT     H168375   0.159   5.386   1.304
22091WAT     H268376   0.137   5.530   1.344
22092WAT      O68377   1.061   5.696   1.066
22092WAT     H168378   1.098   5.609   1.055
22092WAT     H268379   1.051   5.729   0.977
22093WAT      O68380   0.474   5.533   0.613
22093WAT     H168381   0.485   5.623   0.643
22093WAT     H268382   0.383   5.528   0.584
22094WAT      O68383   1.439   5.445   0.760
22094WAT     H168384   1.521   5.396   0.764
22094WAT     H268385   1.442   5.504   0.835
22095WAT      O68386   0.239   5.725   1.137
22095WAT     H168387   0.307   5.752   1.199
22095WAT     H268388   0.207   5.641   1.170
22096WAT      O68389   0.658   5.830   1.046
22096WAT     H168390   0.709   5.880   1.110
22096WAT     H268391   0.711   5.752   1.028
22097WAT      O68392   1.868   5.647   1.416
22097WAT     H168393   1.798   5.686   1.364
22097WAT     H268394   1.895   5.717   1.476
22098WAT      O68395   0.486   5.294   1.472
22098WAT     H168396   0.486   5.346   1.392
22098WAT     H268397   0.403   5.246   1.470
22099WAT      O68398   1.125   6.305   0.622
22099WAT     H168399   1.063   6.352   0.566
22099WAT     H268400   1.176   6.374   0.664
22100WAT      O68401   0.611   6.258   1.290
22100WAT     H168402   0.578   6.321   1.354
22100WAT     H268403   0.629   6.311   1.212
22101WAT      O68404   1.463   5.639   1.037
22101WAT     H168405   1.392   5.668   1.095
22101WAT     H268406   1.499   5.720   1.001
22102WAT      O68407   0.454   5.465   1.273
22102WAT     H168408   0.489   5.549   1.244
22102WAT     H268409   0.361   5.480   1.285
22103WAT      O68410   0.533   6.455   1.472
22103WAT     H168411   0.594   6.522   1.444
22103WAT     H268412   0.446   6.496   1.463
22104WAT      O68413   1.624   6.601   1.263
22104WAT     H168414   1.556   6.668   1.262
22104WAT     H268415   1.678   6.621   1.187
22105WAT      O68416   1.770   5.584   1.076
22105WAT     H168417   1.675   5.587   1.089
22105WAT     H268418   1.802   5.665   1.115
22106WAT      O68419   0.823   5.214   0.906
22106WAT     H168420   0.853   5.158   0.834
22106WAT     H268421   0.730   5.227   0.887
22107WAT      O68422   1.378   6.786   1.135
22107WAT     H168423   1.379   6.745   1.048
22107WAT     H268424   1.323   6.863   1.124
22108WAT      O68425   1.507   6.458   0.644
22108WAT     H168426   1.496   6.363   0.656
22108WAT     H268427   1.507   6.494   0.732
22109WAT      O68428   1.318   6.276   1.267
22109WAT     H168429   1.359   6.254   1.184
22109WAT     H268430   1.390   6.302   1.325
22110WAT      O68431   1.062   6.020   0.579
22110WAT     H168432   0.969   6.014   0.602
22110WAT     H268433   1.077   6.114   0.568
22111WAT      O68434   1.060   5.648   0.279
22111WAT     H168435   0.966   5.664   0.287
22111WAT     H268436   1.092   5.719   0.224
22112WAT      O68437   1.712   6.116   1.277
22112WAT     H168438   1.630   6.123   1.229
22112WAT     H268439   1.772   6.174   1.230
22113WAT      O68440   1.465   6.177   0.630
22113WAT     H168441   1.403   6.143   0.565
22113WAT     H268442   1.463   6.112   0.700
22114WAT      O68443   1.409   5.794   1.371
22114WAT     H168444   1.367   5.877   1.397
22114WAT     H268445   1.336   5.736   1.352
22115WAT      O68446   0.622   6.073   0.857
22115WAT     H168447   0.582   6.002   0.808
22115WAT     H268448   0.631   6.039   0.946
22116WAT      O68449   0.669   6.442   1.074
22116WAT     H168450   0.639   6.381   1.006
22116WAT     H268451   0.764   6.445   1.063
22117WAT      O68452   0.493   5.750   1.235
22117WAT     H168453   0.549   5.761   1.158
22117WAT     H268454   0.545   5.788   1.307
22118WAT      O68455   1.478   6.799   1.440
22118WAT     H168456   1.430   6.880   1.421
22118WAT     H268457   1.409   6.734   1.455
22119WAT      O68458   0.578   6.415   1.739
22119WAT     H168459   0.488   6.438   1.764
22119WAT     H268460   0.581   6.428   1.644
22120WAT      O68461   1.282   6.100   0.330
22120WAT     H168462   1.326   6.017   0.316
22120WAT     H268463   1.353   6.164   0.339
22121WAT      O68464   0.461   6.103   1.596
22121WAT     H168465   0.447   6.190   1.633
22121WAT     H268466   0.373   6.068   1.582
22122WAT      O68467   1.093   6.594   0.727
22122WAT     H168468   1.137   6.669   0.686
22122WAT     H268469   1.087   6.619   0.819
22123WAT      O68470   0.641   6.697   1.817
22123WAT     H168471   0.638   6.737   1.731
22123WAT     H268472   0.624   6.604   1.801
22124WAT      O68473   0.292   5.962   0.607
22124WAT     H168474   0.280   6.035   0.546
22124WAT     H268475   0.261   5.885   0.560
22125WAT      O68476   1.836   6.775   1.947
22125WAT     H168477   1.883   6.823   2.015
22125WAT     H268478   1.898   6.768   1.874
22126WAT      O68479   0.180   6.450   0.829
22126WAT     H168480   0.140   6.464   0.744
22126WAT     H268481   0.270   6.421   0.809
22127WAT      O68482   1.776   6.494   1.663
22127WAT     H168483   1.789   6.470   1.571
22127WAT     H268484   1.780   6.411   1.710
22128WAT      O68485   1.162   6.865   1.520
22128WAT     H168486   1.214   6.856   1.600
22128WAT     H268487   1.078   6.899   1.549
22129WAT      O68488   1.360   6.893   0.463
22129WAT     H168489   1.344   6.864   0.553
22129WAT     H268490   1.343   6.815   0.409
22130WAT      O68491   0.608   6.871   0.640
22130WAT     H168492   0.590   6.779   0.619
22130WAT     H268493   0.522   6.907   0.664
22131WAT      O68494   1.330   6.644   0.319
22131WAT     H168495   1.261   6.644   0.253
22131WAT     H268496   1.404   6.602   0.276
22132WAT      O68497   1.287   6.807   0.726
22132WAT     H168498   1.332   6.728   0.758
22132WAT     H268499   1.321   6.878   0.781
22133WAT      O68500   1.761   5.700   1.759
22133WAT     H168501   1.700   5.750   1.707
22133WAT     H268502   1.729   5.610   1.754
22134WAT      O68503   0.539   5.297   0.946
22134WAT     H168504   0.494   5.375   0.913
22134WAT     H268505   0.595   5.329   1.016
22135WAT      O68506   0.967   5.583   1.506
22135WAT     H168507   0.921   5.604   1.587
22135WAT     H268508   0.927   5.502   1.476
22136WAT      O68509   1.468   5.706   1.619
22136WAT     H168510   1.382   5.676   1.651
22136WAT     H268511   1.452   5.730   1.528
22137WAT      O68512   1.177   5.856   1.829
22137WAT     H168513   1.210   5.772   1.795
22137WAT     H268514   1.256   5.908   1.844
22138WAT      O68515   0.850   5.259   0.434
22138WAT     H168516   0.788   5.259   0.506
22138WAT     H268517   0.842   5.172   0.394
22139WAT      O68518   0.743   5.351   1.132
22139WAT     H168519   0.772   5.442   1.124
22139WAT     H268520   0.797   5.302   1.070
22140WAT      O68521   0.518   5.809   0.719
22140WAT     H168522   0.495   5.788   0.809
22140WAT     H268523   0.440   5.852   0.684
22141WAT      O68524   1.241   5.810   0.578
22141WAT     H168525   1.181   5.882   0.560
22141WAT     H268526   1.296   5.804   0.500
22142WAT      O68527   0.762   5.899   1.785
22142WAT     H168528   0.752   5.805   1.770
22142WAT     H268529   0.846   5.921   1.746
22143WAT      O68530   1.102   5.673   0.781
22143WAT     H168531   1.141   5.705   0.700
22143WAT     H268532   1.138   5.586   0.793
22144WAT      O68533   0.275   5.540   1.600
22144WAT     H168534   0.236   5.625   1.621
22144WAT     H268535   0.206   5.476   1.620
22145WAT      O68536   0.932   5.548   1.907
22145WAT     H168537   0.863   5.529   1.971
22145WAT     H268538   1.007   5.577   1.961
22146WAT      O68539   1.160   5.932   1.191
22146WAT     H168540   1.087   5.983   1.226
22146WAT     H268541   1.120   5.851   1.161
22147WAT      O68542   0.804   5.600   1.031
22147WAT     H168543   0.804   5.556   0.947
22147WAT     H268544   0.893   5.632   1.042
22148WAT      O68545   0.389   5.588   0.927
22148WAT     H168546   0.355   5.636   1.003
22148WAT     H268547   0.313   5.543   0.891
22149WAT      O68548   0.810   5.700   0.331
22149WAT     H168549   0.822   5.696   0.425
22149WAT     H268550   0.772   5.786   0.315
22150WAT      O68551   1.206   5.478   1.132
22150WAT     H168552   1.208   5.523   1.217
22150WAT     H268553   1.182   5.388   1.154
22151WAT      O68554   0.711   5.931   0.270
22151WAT     H168555   0.654   5.886   0.208
22151WAT     H268556   0.782   5.967   0.217
22152WAT      O68557   1.549   5.219   1.716
22152WAT     H168558   1.582   5.146   1.769
22152WAT     H268559   1.553   5.187   1.626
22153WAT      O68560   0.219   6.321   1.658
22153WAT     H168561   0.181   6.257   1.718
22153WAT     H268562   0.250   6.392   1.715
22154WAT      O68563   0.834   6.006   1.206
22154WAT     H168564   0.871   5.959   1.281
22154WAT     H268565   0.815   6.093   1.240
22155WAT      O68566   0.613   5.910   1.438
22155WAT     H168567   0.583   5.998   1.460
22155WAT     H268568   0.708   5.916   1.442
22156WAT      O68569   0.466   6.331   0.498
22156WAT     H168570   0.388   6.277   0.482
22156WAT     H268571   0.539   6.279   0.464
22157WAT      O68572   1.542   6.230   1.077
22157WAT     H168573   1.614   6.280   1.038
22157WAT     H268574   1.521   6.163   1.012
22158WAT      O68575   1.088   5.370   0.491
22158WAT     H168576   1.006   5.320   0.484
22158WAT     H268577   1.068   5.454   0.450
22159WAT      O68578   1.080   6.237   1.666
22159WAT     H168579   1.073   6.145   1.640
22159WAT     H268580   1.017   6.247   1.737
22160WAT      O68581   1.359   5.807   0.321
22160WAT     H168582   1.448   5.838   0.303
22160WAT     H268583   1.356   5.720   0.282
22161WAT      O68584   0.470   6.298   0.861
22161WAT     H168585   0.522   6.217   0.856
22161WAT     H268586   0.425   6.291   0.946
22162WAT      O68587   0.959   6.424   0.389
22162WAT     H168588   0.993   6.499   0.339
22162WAT     H268589   0.876   6.455   0.425
22163WAT      O68590   0.219   5.994   1.553
22163WAT     H168591   0.183   6.061   1.611
22163WAT     H268592   0.189   5.911   1.590
22164WAT      O68593   0.539   6.040   1.841
22164WAT     H168594   0.509   6.055   1.751
22164WAT     H268595   0.616   5.984   1.832
22165WAT      O68596   1.073   6.520   1.641
22165WAT     H168597   1.074   6.426   1.619
22165WAT     H268598   1.002   6.528   1.705
22166WAT      O68599   1.586   5.938   0.268
22166WAT     H168600   1.578   5.981   0.183
22166WAT     H268601   1.658   5.984   0.311
22167WAT      O68602   1.694   6.184   1.575
22167WAT     H168603   1.622   6.243   1.556
22167WAT     H268604   1.747   6.183   1.495
22168WAT      O68605   1.689   6.623   0.540
22168WAT     H168606   1.625   6.558   0.568
22168WAT     H268607   1.651   6.664   0.463
22169WAT      O68608   1.247   6.356   0.925
22169WAT     H168609   1.282   6.297   0.859
22169WAT     H268610   1.159   6.324   0.942
22170WAT      O68611   0.856   6.432   0.666
22170WAT     H168612   0.924   6.487   0.704
22170WAT     H268613   0.777   6.487   0.669
22171WAT      O68614   0.786   6.133   0.627
22171WAT     H168615   0.832   6.214   0.650
22171WAT     H268616   0.751   6.101   0.710
22172WAT      O68617   1.016   6.684   1.350
22172WAT     H168618   1.081   6.704   1.418
22172WAT     H268619   1.053   6.608   1.305
22173WAT      O68620   0.376   5.167   0.674
22173WAT     H168621   0.363   5.166   0.769
22173WAT     H268622   0.294   5.201   0.639
22174WAT      O68623   1.144   6.484   1.222
22174WAT     H168624   1.208   6.414   1.233
22174WAT     H268625   1.196   6.562   1.204
22175WAT      O68626   1.321   6.564   1.542
22175WAT     H168627   1.355   6.623   1.610
22175WAT     H268628   1.229   6.551   1.565
22176WAT      O68629   1.486   6.304   0.360
22176WAT     H168630   1.458   6.350   0.439
22176WAT     H268631   1.566   6.258   0.387
22177WAT      O68632   0.904   6.569   1.859
22177WAT     H168633   0.872   6.497   1.914
22177WAT     H268634   0.837   6.637   1.866
22178WAT      O68635   0.708   6.654   0.353
22178WAT     H168636   0.707   6.727   0.292
22178WAT     H268637   0.616   6.629   0.363
22179WAT      O68638   0.268   6.176   0.428
22179WAT     H168639   0.207   6.250   0.429
22179WAT     H268640   0.316   6.185   0.345
22180WAT      O68641   1.225   5.592   1.395
22180WAT     H168642   1.262   5.510   1.428
22180WAT     H268643   1.139   5.598   1.437
22181WAT      O68644   1.562   5.488   0.476
22181WAT     H168645   1.499   5.498   0.405
22181WAT     H268646   1.513   5.510   0.555
22182WAT      O68647   0.759   5.716   0.618
22182WAT     H168648   0.688   5.763   0.662
22182WAT     H268649   0.787   5.650   0.681
22183WAT      O68650   0.921   5.858   1.418
22183WAT     H168651   0.971   5.905   1.484
22183WAT     H268652   0.936   5.765   1.439
22184WAT      O68653   1.162   5.388   0.762
22184WAT     H168654   1.150   5.390   0.667
22184WAT     H268655   1.257   5.393   0.774
22185WAT      O68656   0.871   6.912   0.689
22185WAT     H168657   0.896   6.908   0.597
22185WAT     H268658   0.776   6.899   0.688
22186WAT      O68659   0.579   5.547   0.355
22186WAT     H168660   0.664   5.590   0.349
22186WAT     H268661   0.543   5.578   0.438
22187WAT      O68662   1.642   5.479   1.502
22187WAT     H168663   1.592   5.553   1.536
22187WAT     H268664   1.724   5.518   1.470
22188WAT      O68665   1.471   6.004   0.847
22188WAT     H168666   1.377   6.005   0.864
22188WAT     H268667   1.503   5.925   0.891
22189WAT      O68668   0.339   5.915   0.271
22189WAT     H168669   0.347   5.820   0.282
22189WAT     H268670   0.428   5.948   0.282
22190WAT      O68671   1.672   6.721   1.014
22190WAT     H168672   1.684   6.803   1.061
22190WAT     H268673   1.758   6.700   0.979
22191WAT      O68674   0.419   6.930   0.981
22191WAT     H168675   0.492   6.875   1.009
22191WAT     H268676   0.457   7.017   0.967
22192WAT      O68677   0.319   6.849   1.900
22192WAT     H168678   0.400   6.881   1.942
22192WAT     H268679   0.268   6.813   1.972
22193WAT      O68680   1.203   6.459   1.895
22193WAT     H168681   1.142   6.462   1.821
22193WAT     H268682   1.173   6.386   1.949
22194WAT      O68683   1.346   6.832   1.756
22194WAT     H168684   1.441   6.824   1.751
22194WAT     H268685   1.331   6.899   1.823
22195WAT      O68686   1.635   6.770   0.306
22195WAT     H168687   1.607   6.729   0.225
22195WAT     H268688   1.615   6.863   0.294
22196WAT      O68689   0.797   6.238   1.748
22196WAT     H168690   0.720   6.295   1.740
22196WAT     H268691   0.815   6.209   1.659
22197WAT      O68692   1.106   6.276   0.211
22197WAT     H168693   1.051   6.320   0.275
22197WAT     H268694   1.168   6.225   0.263
22198WAT      O68695   1.511   6.411   1.804
22198WAT     H168696   1.585   6.445   1.753
22198WAT     H268697   1.435   6.428   1.748
22199WAT      O68698   0.295   5.912   1.884
22199WAT     H168699   0.299   5.882   1.975
22199WAT     H268700   0.380   5.952   1.868
22200WAT      O68701   0.672   6.172   0.400
22200WAT     H168702   0.715   6.155   0.484
22200WAT     H268703   0.685   6.091   0.351
22201WAT      O68704   0.489   5.770   1.681
22201WAT     H168705   0.436   5.720   1.618
22201WAT     H268706   0.556   5.812   1.627
22202WAT      O68707   1.378   6.216   1.657
22202WAT     H168708   1.420   6.232   1.742
22202WAT     H268709   1.285   6.229   1.674
22203WAT      O68710   1.426   5.950   1.858
22203WAT     H168711   1.484   5.875   1.849
22203WAT     H268712   1.443   6.003   1.780
22204WAT      O68713   0.537   5.466   1.689
22204WAT     H168714   0.528   5.404   1.616
22204WAT     H268715   0.479   5.539   1.666
22205WAT      O68716   0.814   5.322   1.392
22205WAT     H168717   0.769   5.324   1.308
22205WAT     H268718   0.751   5.282   1.452
22206WAT      O68719   0.855   6.211   1.454
22206WAT     H168720   0.896   6.296   1.437
22206WAT     H268721   0.763   6.225   1.431
22207WAT      O68722   1.088   5.985   1.593
22207WAT     H168723   1.100   5.925   1.667
22207WAT     H268724   1.174   5.988   1.551
22208WAT      O68725   1.322   6.040   1.450
22208WAT     H168726   1.269   6.092   1.390
22208WAT     H268727   1.356   6.103   1.513
22209WAT      O68728   0.640   6.842   1.566
22209WAT     H168729   0.586   6.914   1.534
22209WAT     H268730   0.665   6.794   1.487
22210WAT      O68731   0.765   5.639   1.718
22210WAT     H168732   0.824   5.608   1.787
22210WAT     H268733   0.683   5.592   1.734
22211WAT      O68734   1.247   5.600   1.742
22211WAT     H168735   1.178   5.534   1.735
22211WAT     H268736   1.319   5.556   1.786
22212WAT      O68737   1.310   5.260   0.348
22212WAT     H168738   1.338   5.176   0.383
22212WAT     H268739   1.233   5.283   0.399
22213WAT      O68740   0.925   6.965   1.592
22213WAT     H168741   0.918   7.056   1.622
22213WAT     H268742   0.835   6.934   1.589
22214WAT      O68743   0.980   6.882   0.354
22214WAT     H168744   1.070   6.916   0.356
22214WAT     H268745   0.983   6.810   0.291
22215WAT      O68746   0.344   6.419   0.177
22215WAT     H168747   0.388   6.474   0.242
22215WAT     H268748   0.393   6.337   0.178
22216WAT      O68749   0.525   6.531   0.688
22216WAT     H168750   0.495   6.519   0.778
22216WAT     H268751   0.515   6.445   0.647
22217WAT      O68752   1.678   6.735   1.625
22217WAT     H168753   1.618   6.741   1.550
22217WAT     H268754   1.691   6.641   1.638
22218WAT      O68755   1.748   6.184   0.409
22218WAT     H168756   1.824   6.241   0.419
22218WAT     H268757   1.749   6.127   0.486
22219WAT      O68758   1.848   6.269   0.893
22219WAT     H168759   1.885   6.191   0.852
22219WAT     H268760   1.912   6.338   0.875
22220WAT      O68761   1.547   6.408   1.434
22220WAT     H168762   1.465   6.451   1.461
22220WAT     H268763   1.587   6.469   1.373
22221WAT      O68764   1.393   5.516   0.254
22221WAT     H168765   1.434   5.497   0.170
22221WAT     H268766   1.362   5.430   0.285
22222WAT      O68767   1.743   6.007   0.624
22222WAT     H168768   1.705   5.930   0.580
22222WAT     H268769   1.670   6.045   0.672
22223WAT      O68770   0.201   6.075   1.286
22223WAT     H168771   0.238   6.066   1.374
22223WAT     H268772   0.145   5.998   1.276
22224WAT      O68773   1.682   5.921   1.587
22224WAT     H168774   1.658   5.899   1.497
22224WAT     H268775   1.708   6.013   1.583
22225WAT      O68776   1.525   5.444   1.865
22225WAT     H168777   1.613   5.445   1.903
22225WAT     H268778   1.527   5.370   1.804
22226WAT      O68779   1.670   5.829   0.954
22226WAT     H168780   1.722   5.780   0.891
22226WAT     H268781   1.729   5.843   1.028
22227WAT      O68782   1.688   5.838   1.306
22227WAT     H168783   1.593   5.834   1.317
22227WAT     H268784   1.706   5.929   1.282
22228WAT      O68785   1.619   5.755   0.548
22228WAT     H168786   1.669   5.732   0.626
22228WAT     H268787   1.599   5.671   0.506
22229WAT      O68788   0.207   5.193   1.111
22229WAT     H168789   0.272   5.138   1.067
22229WAT     H268790   0.249   5.219   1.193
22230WAT      O68791   1.762   5.619   0.801
22230WAT     H168792   1.751   5.603   0.895
22230WAT     H268793   1.838   5.566   0.777
22231WAT      O68794   1.597   5.213   1.447
22231WAT     H168795   1.660   5.274   1.483
22231WAT     H268796   1.611   5.216   1.352
22232WAT      O68797   1.858   5.479   0.388
22232WAT     H168798   1.779   5.472   0.441
22232WAT     H268799   1.879   5.572   0.387
22233WAT      O68800   1.552   6.883   0.787
22233WAT     H168801   1.612   6.851   0.719
22233WAT     H268802   1.578   6.835   0.866
22234WAT      O68803   0.182   5.209   1.385
22234WAT     H168804   0.147   5.254   1.462
22234WAT     H268805   0.149   5.119   1.394
22235WAT      O68806   0.343   6.526   1.802
22235WAT     H168807   0.339   6.489   1.890
22235WAT     H268808   0.356   6.620   1.816
22236WAT      O68809   0.713   6.682   1.362
22236WAT     H168810   0.689   6.708   1.273
22236WAT     H268811   0.807   6.699   1.368
22237WAT      O68812   0.934   5.328   1.738
22237WAT     H168813   0.927   5.387   1.813
22237WAT     H268814   1.028   5.317   1.723
22238WAT      O68815   1.197   5.294   1.702
22238WAT     H168816   1.259   5.325   1.635
22238WAT     H268817   1.252   5.245   1.764
22239WAT      O68818   1.839   6.883   1.442
22239WAT     H168819   1.790   6.923   1.370
22239WAT     H268820   1.778   6.821   1.482
22240WAT      O68821   0.250   5.162   1.713
22240WAT     H168822   0.304   5.143   1.637
22240WAT     H268823   0.256   5.082   1.767
22241WAT      O68824   0.327   6.821   1.514
22241WAT     H168825   0.267   6.807   1.588
22241WAT     H268826   0.326   6.737   1.467
22242WAT      O68827   1.271   5.150   1.334
22242WAT     H168828   1.184   5.183   1.314
22242WAT     H268829   1.261   5.103   1.417
22243WAT      O68830   1.362   5.371   1.473
22243WAT     H168831   1.329   5.289   1.435
22243WAT     H268832   1.457   5.366   1.460
22244WAT      O68833   1.607   6.948   1.170
22244WAT     H168834   1.562   7.023   1.133
22244WAT     H268835   1.545   6.876   1.164
22245WAT      O68836   0.290   6.557   1.409
22245WAT     H168837   0.217   6.495   1.402
22245WAT     H268838   0.296   6.597   1.322
22246WAT      O68839   0.650   6.779   1.088
22246WAT     H168840   0.702   6.717   1.035
22246WAT     H268841   0.715   6.829   1.137
22247WAT      O68842   0.924   6.868   1.170
22247WAT     H168843   0.953   6.842   1.083
22247WAT     H268844   0.976   6.812   1.229
22248WAT      O68845   1.046   5.242   1.228
22248WAT     H168846   0.968   5.289   1.256
22248WAT     H268847   1.017   5.151   1.217
22249WAT      O68848   1.501   5.312   1.033
22249WAT     H168849   1.545   5.306   0.948
22249WAT     H268850   1.474   5.403   1.040
22250WAT      O68851   1.688   5.275   0.834
22250WAT     H168852   1.682   5.181   0.819
22250WAT     H268853   1.766   5.286   0.888
22251WAT      O68854   0.181   5.272   0.480
22251WAT     H168855   0.256   5.283   0.423
22251WAT     H268856   0.134   5.356   0.476
22252WAT      O68857   0.835   5.483   0.779
22252WAT     H168858   0.753   5.446   0.745
22252WAT     H268859   0.885   5.408   0.810
22253WAT      O68860   1.285   5.150   0.903
22253WAT     H168861   1.345   5.207   0.951
22253WAT     H268862   1.211   5.206   0.881
22254WAT      O68863   1.599   5.190   0.431
22254WAT     H168864   1.619   5.280   0.457
22254WAT     H268865   1.521   5.167   0.480
22255WAT      O68866   0.279   6.758   0.474
22255WAT     H168867   0.226   6.796   0.404
22255WAT     H268868   0.271   6.821   0.547
22256WAT      O68869   0.418   5.325   0.334
22256WAT     H168870   0.471   5.246   0.321
22256WAT     H268871   0.481   5.393   0.358
22257WAT      O68872   0.637   5.298   0.640
22257WAT     H168873   0.574   5.228   0.656
22257WAT     H268874   0.583   5.375   0.618
22258WAT      O68875   0.931   6.960   1.907
22258WAT     H168876   1.024   6.936   1.911
22258WAT     H268877   0.930   7.043   1.859
22259WAT      O68878   1.755   6.914   0.607
22259WAT     H168879   1.772   6.845   0.542
22259WAT     H268880   1.685   6.967   0.567
22260WAT      O68881   0.650   5.226   1.883
22260WAT     H168882   0.622   5.277   1.807
22260WAT     H268883   0.688   5.147   1.847
22261WAT      O68884   0.539   6.953   0.362
22261WAT     H168885   0.612   6.925   0.307
22261WAT     H268886   0.565   6.929   0.451
22262WAT      O68887   0.455   6.565   0.362
22262WAT     H168888   0.392   6.612   0.417
22262WAT     H268889   0.466   6.480   0.406
22263WAT      O68890   1.310   5.168   1.941
22263WAT     H168891   1.299   5.200   2.031
22263WAT     H268892   1.392   5.208   1.911
22264WAT      O68893   1.588   6.883   1.889
22264WAT     H168894   1.667   6.833   1.869
22264WAT     H268895   1.617   6.950   1.950
22265WAT      O68896   1.200   4.092   6.487
22265WAT     H168897   1.192   4.001   6.460
22265WAT     H268898   1.159   4.142   6.417
22266WAT      O68899   1.014   4.270   6.675
22266WAT     H168900   0.936   4.222   6.704
22266WAT     H268901   1.079   4.202   6.658
22267WAT      O68902   0.415   4.301   6.763
22267WAT     H168903   0.332   4.276   6.803
22267WAT     H268904   0.476   4.308   6.837
22268WAT      O68905   1.416   4.711   6.553
22268WAT     H168906   1.370   4.634   6.586
22268WAT     H268907   1.497   4.713   6.604
22269WAT      O68908   0.413   4.705   6.783
22269WAT     H168909   0.444   4.616   6.765
22269WAT     H268910   0.488   4.760   6.760
22270WAT      O68911   0.256   3.797   6.141
22270WAT     H168912   0.167   3.832   6.131
22270WAT     H268913   0.285   3.777   6.052
22271WAT      O68914   1.038   4.939   6.515
22271WAT     H168915   0.976   4.985   6.458
22271WAT     H268916   1.124   4.955   6.475
22272WAT      O68917   0.958   4.538   6.676
22272WAT     H168918   0.951   4.444   6.660
22272WAT     H268919   1.034   4.547   6.733
22273WAT      O68920   0.177   3.598   6.909
22273WAT     H168921   0.159   3.508   6.937
22273WAT     H268922   0.137   3.653   6.976
22274WAT      O68923   1.061   3.818   6.699
22274WAT     H168924   1.098   3.731   6.687
22274WAT     H268925   1.051   3.852   6.610
22275WAT      O68926   0.474   3.656   6.245
22275WAT     H168927   0.485   3.746   6.276
22275WAT     H268928   0.383   3.651   6.216
22276WAT      O68929   1.439   3.568   6.392
22276WAT     H168930   1.521   3.519   6.396
22276WAT     H268931   1.442   3.627   6.467
22277WAT      O68932   0.239   3.848   6.769
22277WAT     H168933   0.307   3.874   6.831
22277WAT     H268934   0.207   3.764   6.803
22278WAT      O68935   0.658   3.953   6.678
22278WAT     H168936   0.709   4.002   6.742
22278WAT     H268937   0.711   3.875   6.661
22279WAT      O68938   1.868   3.770   7.048
22279WAT     H168939   1.798   3.808   6.997
22279WAT     H268940   1.895   3.839   7.109
22280WAT      O68941   0.486   3.417   7.105
22280WAT     H168942   0.486   3.468   7.024
22280WAT     H268943   0.403   3.369   7.102
22281WAT      O68944   1.125   4.428   6.255
22281WAT     H168945   1.063   4.474   6.198
22281WAT     H268946   1.176   4.497   6.296
22282WAT      O68947   0.611   4.380   6.922
22282WAT     H168948   0.578   4.443   6.987
22282WAT     H268949   0.629   4.433   6.845
22283WAT      O68950   1.463   3.762   6.669
22283WAT     H168951   1.392   3.791   6.727
22283WAT     H268952   1.499   3.843   6.633
22284WAT      O68953   0.454   3.588   6.905
22284WAT     H168954   0.489   3.672   6.876
22284WAT     H268955   0.361   3.602   6.917
22285WAT      O68956   0.533   4.577   7.104
22285WAT     H168957   0.594   4.645   7.076
22285WAT     H268958   0.446   4.618   7.095
22286WAT      O68959   1.624   4.724   6.896
22286WAT     H168960   1.556   4.791   6.895
22286WAT     H268961   1.678   4.743   6.819
22287WAT      O68962   1.770   3.706   6.708
22287WAT     H168963   1.675   3.710   6.721
22287WAT     H268964   1.802   3.788   6.747
22288WAT      O68965   0.823   3.336   6.538
22288WAT     H168966   0.853   3.281   6.466
22288WAT     H268967   0.730   3.350   6.520
22289WAT      O68968   1.378   4.908   6.767
22289WAT     H168969   1.379   4.868   6.680
22289WAT     H268970   1.323   4.986   6.757
22290WAT      O68971   1.507   4.580   6.276
22290WAT     H168972   1.496   4.486   6.288
22290WAT     H268973   1.507   4.616   6.365
22291WAT      O68974   1.318   4.398   6.900
22291WAT     H168975   1.359   4.377   6.816
22291WAT     H268976   1.390   4.424   6.957
22292WAT      O68977   1.062   4.143   6.212
22292WAT     H168978   0.969   4.136   6.234
22292WAT     H268979   1.077   4.237   6.200
22293WAT      O68980   1.060   3.770   5.911
22293WAT     H168981   0.966   3.786   5.920
22293WAT     H268982   1.092   3.842   5.857
22294WAT      O68983   1.712   4.238   6.909
22294WAT     H168984   1.630   4.245   6.861
22294WAT     H268985   1.772   4.297   6.862
22295WAT      O68986   1.465   4.299   6.262
22295WAT     H168987   1.403   4.265   6.197
22295WAT     H268988   1.463   4.235   6.333
22296WAT      O68989   1.409   3.917   7.004
22296WAT     H168990   1.367   4.000   7.029
22296WAT     H268991   1.336   3.858   6.984
22297WAT      O68992   0.622   4.196   6.490
22297WAT     H168993   0.582   4.124   6.440
22297WAT     H268994   0.631   4.161   6.579
22298WAT      O68995   0.669   4.564   6.706
22298WAT     H168996   0.639   4.504   6.638
22298WAT     H268997   0.764   4.568   6.695
22299WAT      O68998   0.493   3.873   6.868
22299WAT     H168999   0.549   3.884   6.790
22299WAT     H269000   0.545   3.910   6.939
22300WAT      O69001   1.478   4.922   7.072
22300WAT     H169002   1.430   5.002   7.053
22300WAT     H269003   1.409   4.856   7.088
22301WAT      O69004   0.578   4.538   7.371
22301WAT     H169005   0.488   4.560   7.396
22301WAT     H269006   0.581   4.550   7.276
22302WAT      O69007   1.282   4.223   5.963
22302WAT     H169008   1.326   4.139   5.948
22302WAT     H269009   1.353   4.286   5.971
22303WAT      O69010   0.461   4.225   7.229
22303WAT     H169011   0.447   4.312   7.266
22303WAT     H269012   0.373   4.191   7.214
22304WAT      O69013   1.093   4.717   6.359
22304WAT     H169014   1.137   4.791   6.318
22304WAT     H269015   1.087   4.741   6.452
22305WAT      O69016   0.641   4.819   7.450
22305WAT     H169017   0.638   4.860   7.363
22305WAT     H269018   0.624   4.727   7.433
22306WAT      O69019   1.640   3.348   5.794
22306WAT     H169020   1.609   3.358   5.884
22306WAT     H269021   1.716   3.406   5.789
22307WAT      O69022   0.292   4.085   6.240
22307WAT     H169023   0.280   4.158   6.179
22307WAT     H269024   0.261   4.008   6.192
22308WAT      O69025   0.180   4.572   6.462
22308WAT     H169026   0.140   4.586   6.376
22308WAT     H269027   0.270   4.544   6.441
22309WAT      O69028   1.776   4.617   7.295
22309WAT     H169029   1.789   4.593   7.203
22309WAT     H269030   1.780   4.534   7.342
22310WAT      O69031   1.162   4.987   7.152
22310WAT     H169032   1.214   4.978   7.232
22310WAT     H269033   1.078   5.022   7.181
22311WAT      O69034   1.360   5.016   6.095
22311WAT     H169035   1.344   4.987   6.185
22311WAT     H269036   1.343   4.938   6.041
22312WAT      O69037   0.608   4.994   6.273
22312WAT     H169038   0.590   4.902   6.251
22312WAT     H269039   0.522   5.029   6.297
22313WAT      O69040   1.330   4.767   5.951
22313WAT     H169041   1.261   4.766   5.885
22313WAT     H269042   1.404   4.724   5.908
22314WAT      O69043   1.287   4.929   6.358
22314WAT     H169044   1.332   4.851   6.390
22314WAT     H269045   1.321   5.000   6.413
22315WAT      O69046   1.761   3.822   7.392
22315WAT     H169047   1.700   3.873   7.339
22315WAT     H269048   1.729   3.732   7.386
22316WAT      O69049   0.539   3.419   6.578
22316WAT     H169050   0.494   3.497   6.545
22316WAT     H269051   0.595   3.452   6.649
22317WAT      O69052   0.967   3.706   7.138
22317WAT     H169053   0.921   3.727   7.220
22317WAT     H269054   0.927   3.625   7.108
22318WAT      O69055   1.468   3.828   7.251
22318WAT     H169056   1.382   3.798   7.283
22318WAT     H269057   1.452   3.853   7.160
22319WAT      O69058   1.177   3.978   7.461
22319WAT     H169059   1.210   3.895   7.427
22319WAT     H269060   1.256   4.030   7.476
22320WAT      O69061   0.850   3.381   6.066
22320WAT     H169062   0.788   3.381   6.139
22320WAT     H269063   0.842   3.295   6.026
22321WAT      O69064   0.743   3.474   6.764
22321WAT     H169065   0.772   3.564   6.756
22321WAT     H269066   0.797   3.425   6.702
22322WAT      O69067   0.518   3.932   6.351
22322WAT     H169068   0.495   3.910   6.441
22322WAT     H269069   0.440   3.975   6.316
22323WAT      O69070   1.241   3.932   6.211
22323WAT     H169071   1.181   4.005   6.192
22323WAT     H269072   1.296   3.926   6.132
22324WAT      O69073   0.762   4.022   7.417
22324WAT     H169074   0.752   3.928   7.402
22324WAT     H269075   0.846   4.044   7.378
22325WAT      O69076   1.102   3.796   6.414
22325WAT     H169077   1.141   3.828   6.332
22325WAT     H269078   1.138   3.708   6.425
22326WAT      O69079   0.275   3.663   7.233
22326WAT     H169080   0.236   3.747   7.253
22326WAT     H269081   0.206   3.599   7.252
22327WAT      O69082   1.160   4.055   6.823
22327WAT     H169083   1.087   4.106   6.858
22327WAT     H269084   1.120   3.973   6.793
22328WAT      O69085   0.804   3.723   6.664
22328WAT     H169086   0.804   3.678   6.579
22328WAT     H269087   0.893   3.755   6.675
22329WAT      O69088   0.389   3.711   6.560
22329WAT     H169089   0.355   3.759   6.635
22329WAT     H269090   0.313   3.665   6.524
22330WAT      O69091   0.810   3.823   5.963
22330WAT     H169092   0.822   3.819   6.058
22330WAT     H269093   0.772   3.909   5.947
22331WAT      O69094   1.206   3.600   6.764
22331WAT     H169095   1.208   3.645   6.849
22331WAT     H269096   1.182   3.510   6.786
22332WAT      O69097   0.711   4.054   5.903
22332WAT     H169098   0.654   4.009   5.840
22332WAT     H269099   0.782   4.090   5.849
22333WAT      O69100   1.549   3.342   7.348
22333WAT     H169101   1.582   3.269   7.401
22333WAT     H269102   1.553   3.310   7.258
22334WAT      O69103   0.219   4.444   7.290
22334WAT     H169104   0.181   4.380   7.350
22334WAT     H269105   0.250   4.514   7.347
22335WAT      O69106   0.834   4.129   6.838
22335WAT     H169107   0.871   4.081   6.913
22335WAT     H269108   0.815   4.216   6.873
22336WAT      O69109   0.613   4.033   7.070
22336WAT     H169110   0.583   4.121   7.093
22336WAT     H269111   0.708   4.039   7.074
22337WAT      O69112   0.466   4.453   6.130
22337WAT     H169113   0.388   4.399   6.114
22337WAT     H269114   0.539   4.401   6.096
22338WAT      O69115   1.542   4.353   6.709
22338WAT     H169116   1.614   4.402   6.670
22338WAT     H269117   1.521   4.285   6.645
22339WAT      O69118   1.088   3.492   6.124
22339WAT     H169119   1.006   3.442   6.116
22339WAT     H269120   1.068   3.576   6.082
22340WAT      O69121   1.080   4.360   7.298
22340WAT     H169122   1.073   4.268   7.272
22340WAT     H269123   1.017   4.370   7.369
22341WAT      O69124   1.359   3.930   5.953
22341WAT     H169125   1.448   3.961   5.936
22341WAT     H269126   1.356   3.842   5.914
22342WAT      O69127   0.470   4.420   6.494
22342WAT     H169128   0.522   4.340   6.488
22342WAT     H269129   0.425   4.414   6.578
22343WAT      O69130   0.959   4.547   6.021
22343WAT     H169131   0.993   4.621   5.971
22343WAT     H269132   0.876   4.578   6.057
22344WAT      O69133   0.219   4.117   7.185
22344WAT     H169134   0.183   4.183   7.244
22344WAT     H269135   0.189   4.034   7.222
22345WAT      O69136   0.539   4.163   7.473
22345WAT     H169137   0.509   4.177   7.384
22345WAT     H269138   0.616   4.107   7.464
22346WAT      O69139   1.073   4.642   7.273
22346WAT     H169140   1.074   4.549   7.251
22346WAT     H269141   1.002   4.651   7.337
22347WAT      O69142   1.586   4.061   5.900
22347WAT     H169143   1.578   4.104   5.815
22347WAT     H269144   1.658   4.107   5.943
22348WAT      O69145   1.694   4.306   7.208
22348WAT     H169146   1.622   4.366   7.188
22348WAT     H269147   1.747   4.306   7.128
22349WAT      O69148   1.689   4.746   6.173
22349WAT     H169149   1.625   4.681   6.200
22349WAT     H269150   1.651   4.787   6.095
22350WAT      O69151   1.247   4.479   6.557
22350WAT     H169152   1.282   4.419   6.491
22350WAT     H269153   1.159   4.446   6.575
22351WAT      O69154   0.856   4.555   6.298
22351WAT     H169155   0.924   4.610   6.336
22351WAT     H269156   0.777   4.609   6.302
22352WAT      O69157   0.786   4.255   6.259
22352WAT     H169158   0.832   4.336   6.282
22352WAT     H269159   0.751   4.224   6.343
22353WAT      O69160   1.016   4.806   6.982
22353WAT     H169161   1.081   4.827   7.050
22353WAT     H269162   1.053   4.730   6.937
22354WAT      O69163   0.376   3.290   6.307
22354WAT     H169164   0.363   3.289   6.402
22354WAT     H269165   0.294   3.324   6.272
22355WAT      O69166   1.144   4.607   6.854
22355WAT     H169167   1.208   4.537   6.865
22355WAT     H269168   1.196   4.685   6.836
22356WAT      O69169   1.528   4.635   5.827
22356WAT     H169170   1.506   4.564   5.886
22356WAT     H269171   1.489   4.610   5.743
22357WAT      O69172   1.321   4.687   7.174
22357WAT     H169173   1.355   4.745   7.242
22357WAT     H269174   1.229   4.674   7.197
22358WAT      O69175   1.486   4.427   5.993
22358WAT     H169176   1.458   4.473   6.071
22358WAT     H269177   1.566   4.381   6.019
22359WAT      O69178   0.708   4.776   5.986
22359WAT     H169179   0.707   4.849   5.924
22359WAT     H269180   0.616   4.752   5.995
22360WAT      O69181   0.268   4.298   6.060
22360WAT     H169182   0.207   4.372   6.061
22360WAT     H269183   0.316   4.307   5.978
22361WAT      O69184   1.225   3.715   7.028
22361WAT     H169185   1.262   3.633   7.061
22361WAT     H269186   1.139   3.721   7.069
22362WAT      O69187   1.562   3.610   6.109
22362WAT     H169188   1.499   3.621   6.037
22362WAT     H269189   1.513   3.632   6.188
22363WAT      O69190   1.007   4.782   5.852
22363WAT     H169191   1.017   4.762   5.759
22363WAT     H269192   0.917   4.757   5.872
22364WAT      O69193   0.759   3.838   6.250
22364WAT     H169194   0.688   3.885   6.294
22364WAT     H269195   0.787   3.773   6.314
22365WAT      O69196   0.921   3.980   7.050
22365WAT     H169197   0.971   4.028   7.117
22365WAT     H269198   0.936   3.888   7.071
22366WAT      O69199   1.162   3.511   6.394
22366WAT     H169200   1.150   3.513   6.299
22366WAT     H269201   1.257   3.516   6.406
22367WAT      O69202   0.871   5.034   6.321
22367WAT     H169203   0.896   5.031   6.229
22367WAT     H269204   0.776   5.022   6.321
22368WAT      O69205   0.579   3.669   5.988
22368WAT     H169206   0.664   3.713   5.981
22368WAT     H269207   0.543   3.700   6.070
22369WAT      O69208   1.642   3.602   7.134
22369WAT     H169209   1.592   3.676   7.168
22369WAT     H269210   1.724   3.641   7.103
22370WAT      O69211   1.471   4.126   6.479
22370WAT     H169212   1.377   4.128   6.496
22370WAT     H269213   1.503   4.048   6.524
22371WAT      O69214   0.469   4.294   5.835
22371WAT     H169215   0.546   4.283   5.891
22371WAT     H269216   0.477   4.225   5.770
22372WAT      O69217   0.339   4.038   5.903
22372WAT     H169218   0.347   3.943   5.915
22372WAT     H269219   0.428   4.071   5.914
22373WAT      O69220   1.672   4.843   6.647
22373WAT     H169221   1.684   4.926   6.694
22373WAT     H269222   1.758   4.822   6.612
22374WAT      O69223   0.419   5.053   6.614
22374WAT     H169224   0.492   4.998   6.641
22374WAT     H269225   0.457   5.139   6.600
22375WAT      O69226   0.730   4.970   5.796
22375WAT     H169227   0.809   4.999   5.751
22375WAT     H269228   0.678   4.927   5.728
22376WAT      O69229   1.346   4.955   7.388
22376WAT     H169230   1.441   4.946   7.383
22376WAT     H269231   1.331   5.021   7.456
22377WAT      O69232   1.635   4.893   5.938
22377WAT     H169233   1.607   4.851   5.857
22377WAT     H269234   1.615   4.986   5.926
22378WAT      O69235   0.782   4.492   5.782
22378WAT     H169236   0.771   4.431   5.855
22378WAT     H269237   0.765   4.440   5.704
22379WAT      O69238   0.797   4.361   7.380
22379WAT     H169239   0.720   4.417   7.372
22379WAT     H269240   0.815   4.331   7.291
22380WAT      O69241   1.106   4.398   5.843
22380WAT     H169242   1.051   4.443   5.907
22380WAT     H269243   1.168   4.348   5.895
22381WAT      O69244   1.511   4.534   7.436
22381WAT     H169245   1.585   4.567   7.386
22381WAT     H269246   1.435   4.551   7.381
22382WAT      O69247   0.672   4.294   6.032
22382WAT     H169248   0.715   4.278   6.117
22382WAT     H269249   0.685   4.213   5.983
22383WAT      O69250   0.489   3.892   7.313
22383WAT     H169251   0.436   3.843   7.250
22383WAT     H269252   0.556   3.935   7.260
22384WAT      O69253   0.924   4.196   5.757
22384WAT     H169254   0.976   4.125   5.721
22384WAT     H269255   0.988   4.260   5.787
22385WAT      O69256   1.378   4.339   7.290
22385WAT     H169257   1.420   4.354   7.375
22385WAT     H269258   1.285   4.351   7.306
22386WAT      O69259   1.426   4.073   7.490
22386WAT     H169260   1.484   3.997   7.481
22386WAT     H269261   1.443   4.126   7.412
22387WAT      O69262   0.537   3.589   7.321
22387WAT     H169263   0.528   3.527   7.249
22387WAT     H269264   0.479   3.661   7.298
22388WAT      O69265   0.814   3.444   7.024
22388WAT     H169266   0.769   3.447   6.940
22388WAT     H269267   0.751   3.405   7.084
22389WAT      O69268   0.855   4.334   7.087
22389WAT     H169269   0.896   4.418   7.069
22389WAT     H269270   0.763   4.348   7.064
22390WAT      O69271   1.088   4.107   7.225
22390WAT     H169272   1.100   4.048   7.299
22390WAT     H269273   1.174   4.111   7.183
22391WAT      O69274   1.322   4.163   7.083
22391WAT     H169275   1.269   4.215   7.022
22391WAT     H269276   1.356   4.226   7.146
22392WAT      O69277   0.562   3.901   5.727
22392WAT     H169278   0.542   3.815   5.763
22392WAT     H269279   0.545   3.893   5.633
22393WAT      O69280   0.640   4.965   7.198
22393WAT     H169281   0.586   5.037   7.166
22393WAT     H269282   0.665   4.917   7.119
22394WAT      O69283   0.765   3.761   7.351
22394WAT     H169284   0.824   3.731   7.419
22394WAT     H269285   0.683   3.714   7.366
22395WAT      O69286   1.247   3.723   7.374
22395WAT     H169287   1.178   3.657   7.368
22395WAT     H269288   1.319   3.678   7.419
22396WAT      O69289   1.310   3.383   5.980
22396WAT     H169290   1.338   3.298   6.016
22396WAT     H269291   1.233   3.406   6.031
22397WAT      O69292   0.442   3.611   5.726
22397WAT     H169293   0.472   3.612   5.635
22397WAT     H269294   0.516   3.576   5.776
22398WAT      O69295   0.925   5.088   7.224
22398WAT     H169296   0.918   5.178   7.255
22398WAT     H269297   0.835   5.056   7.221
22399WAT      O69298   0.764   3.506   5.824
22399WAT     H169299   0.729   3.438   5.766
22399WAT     H269300   0.784   3.460   5.906
22400WAT      O69301   0.980   5.005   5.986
22400WAT     H169302   1.070   5.038   5.988
22400WAT     H269303   0.983   4.932   5.924
22401WAT      O69304   0.344   4.542   5.809
22401WAT     H169305   0.388   4.596   5.875
22401WAT     H269306   0.393   4.459   5.810
22402WAT      O69307   0.525   4.654   6.320
22402WAT     H169308   0.495   4.642   6.410
22402WAT     H269309   0.515   4.568   6.280
22403WAT      O69310   1.678   4.858   7.257
22403WAT     H169311   1.618   4.864   7.183
22403WAT     H269312   1.691   4.764   7.270
22404WAT      O69313   1.802   4.632   5.791
22404WAT     H169314   1.719   4.639   5.838
22404WAT     H269315   1.820   4.721   5.760
22405WAT      O69316   1.748   4.306   6.041
22405WAT     H169317   1.824   4.363   6.052
22405WAT     H269318   1.749   4.250   6.118
22406WAT      O69319   1.848   4.392   6.525
22406WAT     H169320   1.885   4.313   6.485
22406WAT     H269321   1.912   4.461   6.508
22407WAT      O69322   1.547   4.530   7.067
22407WAT     H169323   1.465   4.573   7.093
22407WAT     H269324   1.587   4.591   7.005
22408WAT      O69325   1.753   4.336   5.757
22408WAT     H169326   1.780   4.426   5.744
22408WAT     H269327   1.734   4.329   5.850
22409WAT      O69328   1.393   3.638   5.886
22409WAT     H169329   1.434   3.619   5.802
22409WAT     H269330   1.362   3.553   5.917
22410WAT      O69331   1.743   4.129   6.256
22410WAT     H169332   1.705   4.053   6.213
22410WAT     H269333   1.670   4.168   6.305
22411WAT      O69334   0.201   4.197   6.918
22411WAT     H169335   0.238   4.188   7.006
22411WAT     H269336   0.145   4.121   6.908
22412WAT      O69337   1.682   4.044   7.219
22412WAT     H169338   1.658   4.021   7.129
22412WAT     H269339   1.708   4.136   7.215
22413WAT      O69340   1.670   3.952   6.586
22413WAT     H169341   1.722   3.903   6.523
22413WAT     H269342   1.729   3.965   6.661
22414WAT      O69343   1.688   3.960   6.938
22414WAT     H169344   1.593   3.957   6.950
22414WAT     H269345   1.706   4.051   6.915
22415WAT      O69346   0.273   3.785   5.849
22415WAT     H169347   0.344   3.743   5.801
22415WAT     H269348   0.202   3.792   5.786
22416WAT      O69349   0.238   3.391   5.753
22416WAT     H169350   0.310   3.445   5.785
22416WAT     H269351   0.265   3.363   5.666
22417WAT      O69352   1.619   3.878   6.180
22417WAT     H169353   1.669   3.854   6.258
22417WAT     H269354   1.599   3.794   6.138
22418WAT      O69355   0.207   3.316   6.743
22418WAT     H169356   0.272   3.261   6.699
22418WAT     H269357   0.249   3.341   6.826
22419WAT      O69358   1.762   3.741   6.433
22419WAT     H169359   1.751   3.726   6.527
22419WAT     H269360   1.838   3.688   6.409
22420WAT      O69361   1.597   3.335   7.079
22420WAT     H169362   1.660   3.397   7.116
22420WAT     H269363   1.611   3.339   6.985
22421WAT      O69364   1.851   3.524   5.757
22421WAT     H169365   1.943   3.511   5.737
22421WAT     H269366   1.849   3.532   5.853
22422WAT      O69367   1.858   3.601   6.020
22422WAT     H169368   1.779   3.595   6.073
22422WAT     H269369   1.879   3.695   6.019
22423WAT      O69370   1.552   5.005   6.419
22423WAT     H169371   1.612   4.973   6.352
22423WAT     H269372   1.578   4.958   6.499
22424WAT      O69373   0.182   3.331   7.018
22424WAT     H169374   0.147   3.377   7.094
22424WAT     H269375   0.149   3.242   7.026
22425WAT      O69376   0.713   4.804   6.994
22425WAT     H169377   0.689   4.831   6.906
22425WAT     H269378   0.807   4.821   7.000
22426WAT      O69379   0.934   3.450   7.370
22426WAT     H169380   0.927   3.510   7.445
22426WAT     H269381   1.028   3.440   7.355
22427WAT      O69382   1.197   3.416   7.334
22427WAT     H169383   1.259   3.448   7.268
22427WAT     H269384   1.252   3.368   7.396
22428WAT      O69385   1.839   5.006   7.074
22428WAT     H169386   1.790   5.046   7.003
22428WAT     H269387   1.778   4.944   7.114
22429WAT      O69388   0.250   3.284   7.345
22429WAT     H169389   0.304   3.266   7.269
22429WAT     H269390   0.256   3.205   7.399
22430WAT      O69391   0.327   4.943   7.146
22430WAT     H169392   0.267   4.930   7.220
22430WAT     H269393   0.326   4.860   7.100
22431WAT      O69394   1.271   3.272   6.967
22431WAT     H169395   1.184   3.306   6.946
22431WAT     H269396   1.261   3.225   7.049
22432WAT      O69397   1.362   3.493   7.105
22432WAT     H169398   1.329   3.412   7.067
22432WAT     H269399   1.457   3.489   7.093
22433WAT      O69400   1.607   5.070   6.802
22433WAT     H169401   1.562   5.145   6.765
22433WAT     H269402   1.545   4.998   6.796
22434WAT      O69403   0.290   4.680   7.041
22434WAT     H169404   0.217   4.618   7.035
22434WAT     H269405   0.296   4.719   6.954
22435WAT      O69406   0.650   4.901   6.720
22435WAT     H169407   0.702   4.840   6.667
22435WAT     H269408   0.715   4.951   6.769
22436WAT      O69409   0.924   4.990   6.803
22436WAT     H169410   0.953   4.965   6.715
22436WAT     H269411   0.976   4.935   6.862
22437WAT      O69412   1.046   3.364   6.860
22437WAT     H169413   0.968   3.412   6.888
22437WAT     H269414   1.017   3.274   6.850
22438WAT      O69415   1.501   3.434   6.665
22438WAT     H169416   1.545   3.429   6.580
22438WAT     H269417   1.474   3.526   6.672
22439WAT      O69418   1.688   3.398   6.466
22439WAT     H169419   1.682   3.303   6.451
22439WAT     H269420   1.766   3.408   6.521
22440WAT      O69421   0.181   3.395   6.113
22440WAT     H169422   0.256   3.406   6.055
22440WAT     H269423   0.134   3.478   6.108
22441WAT      O69424   0.835   3.606   6.412
22441WAT     H169425   0.753   3.569   6.378
22441WAT     H269426   0.885   3.530   6.442
22442WAT      O69427   1.285   3.272   6.535
22442WAT     H169428   1.345   3.330   6.583
22442WAT     H269429   1.211   3.329   6.513
22443WAT      O69430   1.599   3.313   6.063
22443WAT     H169431   1.619   3.403   6.090
22443WAT     H269432   1.521   3.290   6.112
22444WAT      O69433   0.279   4.881   6.107
22444WAT     H169434   0.226   4.919   6.036
22444WAT     H269435   0.271   4.943   6.179
22445WAT      O69436   0.418   3.447   5.967
22445WAT     H169437   0.471   3.369   5.954
22445WAT     H269438   0.481   3.515   5.990
22446WAT      O69439   0.637   3.421   6.272
22446WAT     H169440   0.574   3.351   6.289
22446WAT     H269441   0.583   3.497   6.250
22447WAT      O69442   1.755   5.037   6.239
22447WAT     H169443   1.772   4.968   6.175
22447WAT     H269444   1.685   5.089   6.200
22448WAT      O69445   0.539   5.076   5.994
22448WAT     H169446   0.612   5.047   5.940
22448WAT     H269447   0.565   5.052   6.083
22449WAT      O69448   0.455   4.687   5.995
22449WAT     H169449   0.392   4.734   6.050
22449WAT     H269450   0.466   4.603   6.038
22450WAT      O69451   1.200   4.092   4.610
22450WAT     H169452   1.192   4.001   4.583
22450WAT     H269453   1.159   4.142   4.539
22451WAT      O69454   1.014   4.270   4.798
22451WAT     H169455   0.936   4.222   4.827
22451WAT     H269456   1.079   4.202   4.780
22452WAT      O69457   0.415   4.301   4.886
22452WAT     H169458   0.332   4.276   4.926
22452WAT     H269459   0.476   4.308   4.959
22453WAT      O69460   1.416   4.711   4.676
22453WAT     H169461   1.370   4.634   4.709
22453WAT     H269462   1.497   4.713   4.726
22454WAT      O69463   0.413   4.705   4.905
22454WAT     H169464   0.444   4.616   4.887
22454WAT     H269465   0.488   4.760   4.882
22455WAT      O69466   0.256   3.797   4.264
22455WAT     H169467   0.167   3.832   4.254
22455WAT     H269468   0.285   3.777   4.175
22456WAT      O69469   1.038   4.939   4.638
22456WAT     H169470   0.976   4.985   4.581
22456WAT     H269471   1.124   4.955   4.598
22457WAT      O69472   0.958   4.538   4.799
22457WAT     H169473   0.951   4.444   4.782
22457WAT     H269474   1.034   4.547   4.856
22458WAT      O69475   0.177   3.598   5.031
22458WAT     H169476   0.159   3.508   5.059
22458WAT     H269477   0.137   3.653   5.099
22459WAT      O69478   1.061   3.818   4.821
22459WAT     H169479   1.098   3.731   4.810
22459WAT     H269480   1.051   3.852   4.732
22460WAT      O69481   0.474   3.656   4.367
22460WAT     H169482   0.485   3.746   4.398
22460WAT     H269483   0.383   3.651   4.338
22461WAT      O69484   1.439   3.568   4.515
22461WAT     H169485   1.521   3.519   4.519
22461WAT     H269486   1.442   3.627   4.590
22462WAT      O69487   0.239   3.848   4.892
22462WAT     H169488   0.307   3.874   4.954
22462WAT     H269489   0.207   3.764   4.925
22463WAT      O69490   0.658   3.953   4.801
22463WAT     H169491   0.709   4.002   4.865
22463WAT     H269492   0.711   3.875   4.783
22464WAT      O69493   1.868   3.770   5.171
22464WAT     H169494   1.798   3.808   5.119
22464WAT     H269495   1.895   3.839   5.231
22465WAT      O69496   0.486   3.417   5.227
22465WAT     H169497   0.486   3.468   5.147
22465WAT     H269498   0.403   3.369   5.225
22466WAT      O69499   1.125   4.428   4.377
22466WAT     H169500   1.063   4.474   4.321
22466WAT     H269501   1.176   4.497   4.419
22467WAT      O69502   0.611   4.380   5.045
22467WAT     H169503   0.578   4.443   5.109
22467WAT     H269504   0.629   4.433   4.967
22468WAT      O69505   1.463   3.762   4.792
22468WAT     H169506   1.392   3.791   4.850
22468WAT     H269507   1.499   3.843   4.756
22469WAT      O69508   0.454   3.588   5.028
22469WAT     H169509   0.489   3.672   4.999
22469WAT     H269510   0.361   3.602   5.040
22470WAT      O69511   0.533   4.577   5.227
22470WAT     H169512   0.594   4.645   5.198
22470WAT     H269513   0.446   4.618   5.217
22471WAT      O69514   1.624   4.724   5.018
22471WAT     H169515   1.556   4.791   5.017
22471WAT     H269516   1.678   4.743   4.942
22472WAT      O69517   1.770   3.706   4.831
22472WAT     H169518   1.675   3.710   4.844
22472WAT     H269519   1.802   3.788   4.869
22473WAT      O69520   0.823   3.336   4.660
22473WAT     H169521   0.853   3.281   4.589
22473WAT     H269522   0.730   3.350   4.642
22474WAT      O69523   1.378   4.908   4.890
22474WAT     H169524   1.379   4.868   4.803
22474WAT     H269525   1.323   4.986   4.879
22475WAT      O69526   1.507   4.580   4.398
22475WAT     H169527   1.496   4.486   4.411
22475WAT     H269528   1.507   4.616   4.487
22476WAT      O69529   1.318   4.398   5.022
22476WAT     H169530   1.359   4.377   4.939
22476WAT     H269531   1.390   4.424   5.079
22477WAT      O69532   1.062   4.143   4.334
22477WAT     H169533   0.969   4.136   4.357
22477WAT     H269534   1.077   4.237   4.323
22478WAT      O69535   1.060   3.770   4.034
22478WAT     H169536   0.966   3.786   4.042
22478WAT     H269537   1.092   3.842   3.979
22479WAT      O69538   1.712   4.238   5.032
22479WAT     H169539   1.630   4.245   4.984
22479WAT     H269540   1.772   4.297   4.985
22480WAT      O69541   1.465   4.299   4.384
22480WAT     H169542   1.403   4.265   4.320
22480WAT     H269543   1.463   4.235   4.455
22481WAT      O69544   1.409   3.917   5.126
22481WAT     H169545   1.367   4.000   5.151
22481WAT     H269546   1.336   3.858   5.107
22482WAT      O69547   0.622   4.196   4.612
22482WAT     H169548   0.582   4.124   4.563
22482WAT     H269549   0.631   4.161   4.701
22483WAT      O69550   0.669   4.564   4.829
22483WAT     H169551   0.639   4.504   4.761
22483WAT     H269552   0.764   4.568   4.818
22484WAT      O69553   0.493   3.873   4.990
22484WAT     H169554   0.549   3.884   4.913
22484WAT     H269555   0.545   3.910   5.062
22485WAT      O69556   1.478   4.922   5.195
22485WAT     H169557   1.430   5.002   5.176
22485WAT     H269558   1.409   4.856   5.210
22486WAT      O69559   0.578   4.538   5.494
22486WAT     H169560   0.488   4.560   5.518
22486WAT     H269561   0.581   4.550   5.399
22487WAT      O69562   1.282   4.223   4.085
22487WAT     H169563   1.326   4.139   4.071
22487WAT     H269564   1.353   4.286   4.094
22488WAT      O69565   0.461   4.225   5.351
22488WAT     H169566   0.447   4.312   5.388
22488WAT     H269567   0.373   4.191   5.337
22489WAT      O69568   1.093   4.717   4.482
22489WAT     H169569   1.137   4.791   4.441
22489WAT     H269570   1.087   4.741   4.574
22490WAT      O69571   0.641   4.819   5.572
22490WAT     H169572   0.638   4.860   5.485
22490WAT     H269573   0.624   4.727   5.556
22491WAT      O69574   1.640   3.348   3.917
22491WAT     H169575   1.609   3.358   4.007
22491WAT     H269576   1.716   3.406   3.912
22492WAT      O69577   0.292   4.085   4.362
22492WAT     H169578   0.280   4.158   4.301
22492WAT     H269579   0.261   4.008   4.315
22493WAT      O69580   1.836   4.898   5.702
22493WAT     H169581   1.883   4.946   5.770
22493WAT     H269582   1.898   4.891   5.629
22494WAT      O69583   0.180   4.572   4.584
22494WAT     H169584   0.140   4.586   4.499
22494WAT     H269585   0.270   4.544   4.564
22495WAT      O69586   1.776   4.617   5.418
22495WAT     H169587   1.789   4.593   5.326
22495WAT     H269588   1.780   4.534   5.465
22496WAT      O69589   1.162   4.987   5.275
22496WAT     H169590   1.214   4.978   5.355
22496WAT     H269591   1.078   5.022   5.304
22497WAT      O69592   1.360   5.016   4.218
22497WAT     H169593   1.344   4.987   4.307
22497WAT     H269594   1.343   4.938   4.164
22498WAT      O69595   0.608   4.994   4.395
22498WAT     H169596   0.590   4.902   4.374
22498WAT     H269597   0.522   5.029   4.419
22499WAT      O69598   1.330   4.767   4.074
22499WAT     H169599   1.261   4.766   4.008
22499WAT     H269600   1.404   4.724   4.031
22500WAT      O69601   1.287   4.929   4.481
22500WAT     H169602   1.332   4.851   4.512
22500WAT     H269603   1.321   5.000   4.535
22501WAT      O69604   1.761   3.822   5.514
22501WAT     H169605   1.700   3.873   5.461
22501WAT     H269606   1.729   3.732   5.509
22502WAT      O69607   0.539   3.419   4.701
22502WAT     H169608   0.494   3.497   4.667
22502WAT     H269609   0.595   3.452   4.771
22503WAT      O69610   0.967   3.706   5.261
22503WAT     H169611   0.921   3.727   5.342
22503WAT     H269612   0.927   3.625   5.231
22504WAT      O69613   1.468   3.828   5.374
22504WAT     H169614   1.382   3.798   5.406
22504WAT     H269615   1.452   3.853   5.283
22505WAT      O69616   1.177   3.978   5.584
22505WAT     H169617   1.210   3.895   5.550
22505WAT     H269618   1.256   4.030   5.599
22506WAT      O69619   0.850   3.381   4.189
22506WAT     H169620   0.788   3.381   4.261
22506WAT     H269621   0.842   3.295   4.149
22507WAT      O69622   0.743   3.474   4.886
22507WAT     H169623   0.772   3.564   4.878
22507WAT     H269624   0.797   3.425   4.825
22508WAT      O69625   0.518   3.932   4.473
22508WAT     H169626   0.495   3.910   4.564
22508WAT     H269627   0.440   3.975   4.439
22509WAT      O69628   1.241   3.932   4.333
22509WAT     H169629   1.181   4.005   4.315
22509WAT     H269630   1.296   3.926   4.255
22510WAT      O69631   0.762   4.022   5.540
22510WAT     H169632   0.752   3.928   5.525
22510WAT     H269633   0.846   4.044   5.500
22511WAT      O69634   1.102   3.796   4.536
22511WAT     H169635   1.141   3.828   4.455
22511WAT     H269636   1.138   3.708   4.548
22512WAT      O69637   0.275   3.663   5.355
22512WAT     H169638   0.236   3.747   5.376
22512WAT     H269639   0.206   3.599   5.374
22513WAT      O69640   0.932   3.671   5.662
22513WAT     H169641   0.863   3.652   5.726
22513WAT     H269642   1.007   3.699   5.716
22514WAT      O69643   1.160   4.055   4.946
22514WAT     H169644   1.087   4.106   4.981
22514WAT     H269645   1.120   3.973   4.916
22515WAT      O69646   0.804   3.723   4.786
22515WAT     H169647   0.804   3.678   4.701
22515WAT     H269648   0.893   3.755   4.797
22516WAT      O69649   0.389   3.711   4.682
22516WAT     H169650   0.355   3.759   4.758
22516WAT     H269651   0.313   3.665   4.646
22517WAT      O69652   0.810   3.823   4.085
22517WAT     H169653   0.822   3.819   4.180
22517WAT     H269654   0.772   3.909   4.070
22518WAT      O69655   1.206   3.600   4.887
22518WAT     H169656   1.208   3.645   4.971
22518WAT     H269657   1.182   3.510   4.908
22519WAT      O69658   0.711   4.054   4.025
22519WAT     H169659   0.654   4.009   3.963
22519WAT     H269660   0.782   4.090   3.972
22520WAT      O69661   1.549   3.342   5.471
22520WAT     H169662   1.582   3.269   5.524
22520WAT     H269663   1.553   3.310   5.381
22521WAT      O69664   0.219   4.444   5.413
22521WAT     H169665   0.181   4.380   5.473
22521WAT     H269666   0.250   4.514   5.470
22522WAT      O69667   0.834   4.129   4.961
22522WAT     H169668   0.871   4.081   5.036
22522WAT     H269669   0.815   4.216   4.995
22523WAT      O69670   0.613   4.033   5.193
22523WAT     H169671   0.583   4.121   5.215
22523WAT     H269672   0.708   4.039   5.196
22524WAT      O69673   0.466   4.453   4.253
22524WAT     H169674   0.388   4.399   4.237
22524WAT     H269675   0.539   4.401   4.219
22525WAT      O69676   1.542   4.353   4.832
22525WAT     H169677   1.614   4.402   4.793
22525WAT     H269678   1.521   4.285   4.767
22526WAT      O69679   1.088   3.492   4.246
22526WAT     H169680   1.006   3.442   4.239
22526WAT     H269681   1.068   3.576   4.204
22527WAT      O69682   1.080   4.360   5.420
22527WAT     H169683   1.073   4.268   5.395
22527WAT     H269684   1.017   4.370   5.492
22528WAT      O69685   1.359   3.930   4.076
22528WAT     H169686   1.448   3.961   4.058
22528WAT     H269687   1.356   3.842   4.037
22529WAT      O69688   0.470   4.420   4.616
22529WAT     H169689   0.522   4.340   4.611
22529WAT     H269690   0.425   4.414   4.700
22530WAT      O69691   0.959   4.547   4.144
22530WAT     H169692   0.993   4.621   4.094
22530WAT     H269693   0.876   4.578   4.180
22531WAT      O69694   0.219   4.117   5.308
22531WAT     H169695   0.183   4.183   5.366
22531WAT     H269696   0.189   4.034   5.345
22532WAT      O69697   0.539   4.163   5.596
22532WAT     H169698   0.509   4.177   5.506
22532WAT     H269699   0.616   4.107   5.587
22533WAT      O69700   1.073   4.642   5.396
22533WAT     H169701   1.074   4.549   5.374
22533WAT     H269702   1.002   4.651   5.459
22534WAT      O69703   1.586   4.061   4.022
22534WAT     H169704   1.578   4.104   3.937
22534WAT     H269705   1.658   4.107   4.066
22535WAT      O69706   1.694   4.306   5.330
22535WAT     H169707   1.622   4.366   5.310
22535WAT     H269708   1.747   4.306   5.250
22536WAT      O69709   1.689   4.746   4.295
22536WAT     H169710   1.625   4.681   4.323
22536WAT     H269711   1.651   4.787   4.218
22537WAT      O69712   1.247   4.479   4.680
22537WAT     H169713   1.282   4.419   4.614
22537WAT     H269714   1.159   4.446   4.697
22538WAT      O69715   0.856   4.555   4.421
22538WAT     H169716   0.924   4.610   4.459
22538WAT     H269717   0.777   4.609   4.424
22539WAT      O69718   0.786   4.255   4.382
22539WAT     H169719   0.832   4.336   4.405
22539WAT     H269720   0.751   4.224   4.465
22540WAT      O69721   1.016   4.806   5.105
22540WAT     H169722   1.081   4.827   5.173
22540WAT     H269723   1.053   4.730   5.060
22541WAT      O69724   0.376   3.290   4.429
22541WAT     H169725   0.363   3.289   4.524
22541WAT     H269726   0.294   3.324   4.394
22542WAT      O69727   1.144   4.607   4.977
22542WAT     H169728   1.208   4.537   4.988
22542WAT     H269729   1.196   4.685   4.959
22543WAT      O69730   1.528   4.635   3.949
22543WAT     H169731   1.506   4.564   4.008
22543WAT     H269732   1.489   4.610   3.865
22544WAT      O69733   1.321   4.687   5.297
22544WAT     H169734   1.355   4.745   5.365
22544WAT     H269735   1.229   4.674   5.320
22545WAT      O69736   1.486   4.427   4.115
22545WAT     H169737   1.458   4.473   4.194
22545WAT     H269738   1.566   4.381   4.142
22546WAT      O69739   0.904   4.692   5.614
22546WAT     H169740   0.872   4.620   5.668
22546WAT     H269741   0.837   4.759   5.621
22547WAT      O69742   0.708   4.776   4.108
22547WAT     H169743   0.707   4.849   4.047
22547WAT     H269744   0.616   4.752   4.118
22548WAT      O69745   0.268   4.298   4.183
22548WAT     H169746   0.207   4.372   4.184
22548WAT     H269747   0.316   4.307   4.100
22549WAT      O69748   1.225   3.715   5.150
22549WAT     H169749   1.262   3.633   5.183
22549WAT     H269750   1.139   3.721   5.192
22550WAT      O69751   1.562   3.610   4.231
22550WAT     H169752   1.499   3.621   4.160
22550WAT     H269753   1.513   3.632   4.310
22551WAT      O69754   1.007   4.782   3.975
22551WAT     H169755   1.017   4.762   3.882
22551WAT     H269756   0.917   4.757   3.995
22552WAT      O69757   0.759   3.838   4.373
22552WAT     H169758   0.688   3.885   4.417
22552WAT     H269759   0.787   3.773   4.436
22553WAT      O69760   0.921   3.980   5.173
22553WAT     H169761   0.971   4.028   5.239
22553WAT     H269762   0.936   3.888   5.193
22554WAT      O69763   1.162   3.511   4.517
22554WAT     H169764   1.150   3.513   4.422
22554WAT     H269765   1.257   3.516   4.529
22555WAT      O69766   0.871   5.034   4.444
22555WAT     H169767   0.896   5.031   4.352
22555WAT     H269768   0.776   5.022   4.443
22556WAT      O69769   0.579   3.669   4.110
22556WAT     H169770   0.664   3.713   4.104
22556WAT     H269771   0.543   3.700   4.193
22557WAT      O69772   1.642   3.602   5.257
22557WAT     H169773   1.592   3.676   5.291
22557WAT     H269774   1.724   3.641   5.225
22558WAT      O69775   1.471   4.126   4.602
22558WAT     H169776   1.377   4.128   4.619
22558WAT     H269777   1.503   4.048   4.646
22559WAT      O69778   0.469   4.294   3.958
22559WAT     H169779   0.546   4.283   4.014
22559WAT     H269780   0.477   4.225   3.892
22560WAT      O69781   0.339   4.038   4.026
22560WAT     H169782   0.347   3.943   4.037
22560WAT     H269783   0.428   4.071   4.037
22561WAT      O69784   1.672   4.843   4.769
22561WAT     H169785   1.684   4.926   4.816
22561WAT     H269786   1.758   4.822   4.734
22562WAT      O69787   0.419   5.053   4.736
22562WAT     H169788   0.492   4.998   4.763
22562WAT     H269789   0.457   5.139   4.722
22563WAT      O69790   0.319   4.971   5.655
22563WAT     H169791   0.400   5.003   5.696
22563WAT     H269792   0.268   4.935   5.727
22564WAT      O69793   0.730   4.970   3.919
22564WAT     H169794   0.809   4.999   3.873
22564WAT     H269795   0.678   4.927   3.851
22565WAT      O69796   1.203   4.582   5.650
22565WAT     H169797   1.142   4.584   5.576
22565WAT     H269798   1.173   4.509   5.704
22566WAT      O69799   1.346   4.955   5.511
22566WAT     H169800   1.441   4.946   5.506
22566WAT     H269801   1.331   5.021   5.578
22567WAT      O69802   1.635   4.893   4.061
22567WAT     H169803   1.607   4.851   3.979
22567WAT     H269804   1.615   4.986   4.049
22568WAT      O69805   0.782   4.492   3.905
22568WAT     H169806   0.771   4.431   3.978
22568WAT     H269807   0.765   4.440   3.827
22569WAT      O69808   0.797   4.361   5.503
22569WAT     H169809   0.720   4.417   5.494
22569WAT     H269810   0.815   4.331   5.414
22570WAT      O69811   1.106   4.398   3.965
22570WAT     H169812   1.051   4.443   4.030
22570WAT     H269813   1.168   4.348   4.018
22571WAT      O69814   1.511   4.534   5.559
22571WAT     H169815   1.585   4.567   5.508
22571WAT     H269816   1.435   4.551   5.503
22572WAT      O69817   0.295   4.034   5.639
22572WAT     H169818   0.299   4.004   5.730
22572WAT     H269819   0.380   4.074   5.623
22573WAT      O69820   0.672   4.294   4.155
22573WAT     H169821   0.715   4.278   4.239
22573WAT     H269822   0.685   4.213   4.106
22574WAT      O69823   0.489   3.892   5.436
22574WAT     H169824   0.436   3.843   5.373
22574WAT     H269825   0.556   3.935   5.382
22575WAT      O69826   0.924   4.196   3.880
22575WAT     H169827   0.976   4.125   3.843
22575WAT     H269828   0.988   4.260   3.910
22576WAT      O69829   1.378   4.339   5.412
22576WAT     H169830   1.420   4.354   5.497
22576WAT     H269831   1.285   4.351   5.428
22577WAT      O69832   1.426   4.073   5.613
22577WAT     H169833   1.484   3.997   5.604
22577WAT     H269834   1.443   4.126   5.535
22578WAT      O69835   0.537   3.589   5.444
22578WAT     H169836   0.528   3.527   5.371
22578WAT     H269837   0.479   3.661   5.421
22579WAT      O69838   0.814   3.444   5.147
22579WAT     H169839   0.769   3.447   5.062
22579WAT     H269840   0.751   3.405   5.207
22580WAT      O69841   0.855   4.334   5.209
22580WAT     H169842   0.896   4.418   5.192
22580WAT     H269843   0.763   4.348   5.186
22581WAT      O69844   1.088   4.107   5.348
22581WAT     H169845   1.100   4.048   5.421
22581WAT     H269846   1.174   4.111   5.306
22582WAT      O69847   1.322   4.163   5.205
22582WAT     H169848   1.269   4.215   5.145
22582WAT     H269849   1.356   4.226   5.268
22583WAT      O69850   0.562   3.901   3.850
22583WAT     H169851   0.542   3.815   3.886
22583WAT     H269852   0.545   3.893   3.756
22584WAT      O69853   0.640   4.965   5.321
22584WAT     H169854   0.586   5.037   5.289
22584WAT     H269855   0.665   4.917   5.242
22585WAT      O69856   0.765   3.761   5.473
22585WAT     H169857   0.824   3.731   5.542
22585WAT     H269858   0.683   3.714   5.489
22586WAT      O69859   1.247   3.723   5.497
22586WAT     H169860   1.178   3.657   5.490
22586WAT     H269861   1.319   3.678   5.541
22587WAT      O69862   1.310   3.383   4.102
22587WAT     H169863   1.338   3.298   4.138
22587WAT     H269864   1.233   3.406   4.154
22588WAT      O69865   0.442   3.611   3.848
22588WAT     H169866   0.472   3.612   3.758
22588WAT     H269867   0.516   3.576   3.898
22589WAT      O69868   0.925   5.088   5.347
22589WAT     H169869   0.918   5.178   5.377
22589WAT     H269870   0.835   5.056   5.344
22590WAT      O69871   0.764   3.506   3.947
22590WAT     H169872   0.729   3.438   3.889
22590WAT     H269873   0.784   3.460   4.028
22591WAT      O69874   0.980   5.005   4.109
22591WAT     H169875   1.070   5.038   4.111
22591WAT     H269876   0.983   4.932   4.046
22592WAT      O69877   0.344   4.542   3.932
22592WAT     H169878   0.388   4.596   3.997
22592WAT     H269879   0.393   4.459   3.933
22593WAT      O69880   0.525   4.654   4.443
22593WAT     H169881   0.495   4.642   4.533
22593WAT     H269882   0.515   4.568   4.402
22594WAT      O69883   1.678   4.858   5.379
22594WAT     H169884   1.618   4.864   5.305
22594WAT     H269885   1.691   4.764   5.392
22595WAT      O69886   1.802   4.632   3.913
22595WAT     H169887   1.719   4.639   3.960
22595WAT     H269888   1.820   4.721   3.883
22596WAT      O69889   1.748   4.306   4.164
22596WAT     H169890   1.824   4.363   4.174
22596WAT     H269891   1.749   4.250   4.241
22597WAT      O69892   1.848   4.392   4.648
22597WAT     H169893   1.885   4.313   4.607
22597WAT     H269894   1.912   4.461   4.630
22598WAT      O69895   1.547   4.530   5.189
22598WAT     H169896   1.465   4.573   5.216
22598WAT     H269897   1.587   4.591   5.128
22599WAT      O69898   1.753   4.336   3.879
22599WAT     H169899   1.780   4.426   3.866
22599WAT     H269900   1.734   4.329   3.973
22600WAT      O69901   1.393   3.638   4.009
22600WAT     H169902   1.434   3.619   3.925
22600WAT     H269903   1.362   3.553   4.040
22601WAT      O69904   1.743   4.129   4.379
22601WAT     H169905   1.705   4.053   4.335
22601WAT     H269906   1.670   4.168   4.427
22602WAT      O69907   0.201   4.197   5.041
22602WAT     H169908   0.238   4.188   5.129
22602WAT     H269909   0.145   4.121   5.031
22603WAT      O69910   1.682   4.044   5.342
22603WAT     H169911   1.658   4.021   5.252
22603WAT     H269912   1.708   4.136   5.337
22604WAT      O69913   1.525   3.567   5.620
22604WAT     H169914   1.613   3.567   5.658
22604WAT     H269915   1.527   3.493   5.559
22605WAT      O69916   1.670   3.952   4.709
22605WAT     H169917   1.722   3.903   4.646
22605WAT     H269918   1.729   3.965   4.783
22606WAT      O69919   1.688   3.960   5.061
22606WAT     H169920   1.593   3.957   5.072
22606WAT     H269921   1.706   4.051   5.037
22607WAT      O69922   0.273   3.785   3.972
22607WAT     H169923   0.344   3.743   3.923
22607WAT     H269924   0.202   3.792   3.909
22608WAT      O69925   0.238   3.391   3.876
22608WAT     H169926   0.310   3.445   3.908
22608WAT     H269927   0.265   3.363   3.788
22609WAT      O69928   1.619   3.878   4.303
22609WAT     H169929   1.669   3.854   4.381
22609WAT     H269930   1.599   3.794   4.261
22610WAT      O69931   0.207   3.316   4.866
22610WAT     H169932   0.272   3.261   4.822
22610WAT     H269933   0.249   3.341   4.948
22611WAT      O69934   1.762   3.741   4.556
22611WAT     H169935   1.751   3.726   4.650
22611WAT     H269936   1.838   3.688   4.532
22612WAT      O69937   1.597   3.335   5.202
22612WAT     H169938   1.660   3.397   5.238
22612WAT     H269939   1.611   3.339   5.107
22613WAT      O69940   1.851   3.524   3.880
22613WAT     H169941   1.943   3.511   3.859
22613WAT     H269942   1.849   3.532   3.975
22614WAT      O69943   1.858   3.601   4.143
22614WAT     H169944   1.779   3.595   4.195
22614WAT     H269945   1.879   3.695   4.141
22615WAT      O69946   1.552   5.005   4.542
22615WAT     H169947   1.612   4.973   4.474
22615WAT     H269948   1.578   4.958   4.621
22616WAT      O69949   0.182   3.331   5.140
22616WAT     H169950   0.147   3.377   5.217
22616WAT     H269951   0.149   3.242   5.149
22617WAT      O69952   0.343   4.649   5.557
22617WAT     H169953   0.339   4.611   5.645
22617WAT     H269954   0.356   4.742   5.571
22618WAT      O69955   0.713   4.804   5.117
22618WAT     H169956   0.689   4.831   5.028
22618WAT     H269957   0.807   4.821   5.122
22619WAT      O69958   0.934   3.450   5.493
22619WAT     H169959   0.927   3.510   5.567
22619WAT     H269960   1.028   3.440   5.478
22620WAT      O69961   1.197   3.416   5.456
22620WAT     H169962   1.259   3.448   5.390
22620WAT     H269963   1.252   3.368   5.518
22621WAT      O69964   1.839   5.006   5.197
22621WAT     H169965   1.790   5.046   5.125
22621WAT     H269966   1.778   4.944   5.236
22622WAT      O69967   0.250   3.284   5.468
22622WAT     H169968   0.304   3.266   5.391
22622WAT     H269969   0.256   3.205   5.521
22623WAT      O69970   0.327   4.943   5.269
22623WAT     H169971   0.267   4.930   5.343
22623WAT     H269972   0.326   4.860   5.222
22624WAT      O69973   1.271   3.272   5.089
22624WAT     H169974   1.184   3.306   5.069
22624WAT     H269975   1.261   3.225   5.172
22625WAT      O69976   1.362   3.493   5.228
22625WAT     H169977   1.329   3.412   5.190
22625WAT     H269978   1.457   3.489   5.215
22626WAT      O69979   1.607   5.070   4.925
22626WAT     H169980   1.562   5.145   4.887
22626WAT     H269981   1.545   4.998   4.919
22627WAT      O69982   0.290   4.680   5.164
22627WAT     H169983   0.217   4.618   5.157
22627WAT     H269984   0.296   4.719   5.077
22628WAT      O69985   0.650   4.901   4.842
22628WAT     H169986   0.702   4.840   4.790
22628WAT     H269987   0.715   4.951   4.892
22629WAT      O69988   0.924   4.990   4.925
22629WAT     H169989   0.953   4.965   4.837
22629WAT     H269990   0.976   4.935   4.984
22630WAT      O69991   1.046   3.364   4.983
22630WAT     H169992   0.968   3.412   5.011
22630WAT     H269993   1.017   3.274   4.972
22631WAT      O69994   1.501   3.434   4.788
22631WAT     H169995   1.545   3.429   4.703
22631WAT     H269996   1.474   3.526   4.795
22632WAT      O69997   1.688   3.398   4.589
22632WAT     H169998   1.682   3.303   4.574
22632WAT     H269999   1.766   3.408   4.643
22633WAT      O70000   0.181   3.395   4.235
22633WAT     H170001   0.256   3.406   4.178
22633WAT     H270002   0.134   3.478   4.231
22634WAT      O70003   0.835   3.606   4.534
22634WAT     H170004   0.753   3.569   4.500
22634WAT     H270005   0.885   3.530   4.564
22635WAT      O70006   1.285   3.272   4.658
22635WAT     H170007   1.345   3.330   4.706
22635WAT     H270008   1.211   3.329   4.636
22636WAT      O70009   1.599   3.313   4.185
22636WAT     H170010   1.619   3.403   4.212
22636WAT     H270011   1.521   3.290   4.235
22637WAT      O70012   0.279   4.881   4.229
22637WAT     H170013   0.226   4.919   4.159
22637WAT     H270014   0.271   4.943   4.301
22638WAT      O70015   0.418   3.447   4.089
22638WAT     H170016   0.471   3.369   4.076
22638WAT     H270017   0.481   3.515   4.113
22639WAT      O70018   0.637   3.421   4.395
22639WAT     H170019   0.574   3.351   4.411
22639WAT     H270020   0.583   3.497   4.373
22640WAT      O70021   0.931   5.082   5.662
22640WAT     H170022   1.024   5.059   5.666
22640WAT     H270023   0.930   5.165   5.614
22641WAT      O70024   1.755   5.037   4.362
22641WAT     H170025   1.772   4.968   4.297
22641WAT     H270026   1.685   5.089   4.322
22642WAT      O70027   0.650   3.349   5.638
22642WAT     H170028   0.622   3.399   5.562
22642WAT     H270029   0.688   3.269   5.602
22643WAT      O70030   0.539   5.076   4.117
22643WAT     H170031   0.612   5.047   4.062
22643WAT     H270032   0.565   5.052   4.206
22644WAT      O70033   0.455   4.687   4.117
22644WAT     H170034   0.392   4.734   4.172
22644WAT     H270035   0.466   4.603   4.161
22645WAT      O70036   1.310   3.290   5.696
22645WAT     H170037   1.299   3.322   5.786
22645WAT     H270038   1.392   3.331   5.666
22646WAT      O70039   1.588   5.005   5.644
22646WAT     H170040   1.667   4.956   5.623
22646WAT     H270041   1.617   5.073   5.705
22647WAT      O70042   1.200   4.092   2.732
22647WAT     H170043   1.192   4.001   2.705
22647WAT     H270044   1.159   4.142   2.662
22648WAT      O70045   1.014   4.270   2.920
22648WAT     H170046   0.936   4.222   2.949
22648WAT     H270047   1.079   4.202   2.903
22649WAT      O70048   0.415   4.301   3.008
22649WAT     H170049   0.332   4.276   3.048
22649WAT     H270050   0.476   4.308   3.082
22650WAT      O70051   1.416   4.711   2.798
22650WAT     H170052   1.370   4.634   2.831
22650WAT     H270053   1.497   4.713   2.849
22651WAT      O70054   0.413   4.705   3.028
22651WAT     H170055   0.444   4.616   3.010
22651WAT     H270056   0.488   4.760   3.005
22652WAT      O70057   0.256   3.797   2.387
22652WAT     H170058   0.167   3.832   2.376
22652WAT     H270059   0.285   3.777   2.297
22653WAT      O70060   1.038   4.939   2.760
22653WAT     H170061   0.976   4.985   2.703
22653WAT     H270062   1.124   4.955   2.720
22654WAT      O70063   0.958   4.538   2.921
22654WAT     H170064   0.951   4.444   2.905
22654WAT     H270065   1.034   4.547   2.978
22655WAT      O70066   0.177   3.598   3.154
22655WAT     H170067   0.159   3.508   3.182
22655WAT     H270068   0.137   3.653   3.221
22656WAT      O70069   1.061   3.818   2.944
22656WAT     H170070   1.098   3.731   2.933
22656WAT     H270071   1.051   3.852   2.855
22657WAT      O70072   0.474   3.656   2.490
22657WAT     H170073   0.485   3.746   2.521
22657WAT     H270074   0.383   3.651   2.461
22658WAT      O70075   1.439   3.568   2.637
22658WAT     H170076   1.521   3.519   2.641
22658WAT     H270077   1.442   3.627   2.712
22659WAT      O70078   0.239   3.848   3.015
22659WAT     H170079   0.307   3.874   3.076
22659WAT     H270080   0.207   3.764   3.048
22660WAT      O70081   0.658   3.953   2.923
22660WAT     H170082   0.709   4.002   2.987
22660WAT     H270083   0.711   3.875   2.906
22661WAT      O70084   1.868   3.770   3.294
22661WAT     H170085   1.798   3.808   3.242
22661WAT     H270086   1.895   3.839   3.354
22662WAT      O70087   0.486   3.417   3.350
22662WAT     H170088   0.486   3.468   3.269
22662WAT     H270089   0.403   3.369   3.348
22663WAT      O70090   1.125   4.428   2.500
22663WAT     H170091   1.063   4.474   2.443
22663WAT     H270092   1.176   4.497   2.541
22664WAT      O70093   0.611   4.380   3.168
22664WAT     H170094   0.578   4.443   3.232
22664WAT     H270095   0.629   4.433   3.090
22665WAT      O70096   1.463   3.762   2.914
22665WAT     H170097   1.392   3.791   2.972
22665WAT     H270098   1.499   3.843   2.878
22666WAT      O70099   0.454   3.588   3.151
22666WAT     H170100   0.489   3.672   3.121
22666WAT     H270101   0.361   3.602   3.162
22667WAT      O70102   0.533   4.577   3.349
22667WAT     H170103   0.594   4.645   3.321
22667WAT     H270104   0.446   4.618   3.340
22668WAT      O70105   1.624   4.724   3.141
22668WAT     H170106   1.556   4.791   3.140
22668WAT     H270107   1.678   4.743   3.064
22669WAT      O70108   1.770   3.706   2.953
22669WAT     H170109   1.675   3.710   2.967
22669WAT     H270110   1.802   3.788   2.992
22670WAT      O70111   0.823   3.336   2.783
22670WAT     H170112   0.853   3.281   2.711
22670WAT     H270113   0.730   3.350   2.765
22671WAT      O70114   1.378   4.908   3.012
22671WAT     H170115   1.379   4.868   2.925
22671WAT     H270116   1.323   4.986   3.002
22672WAT      O70117   1.507   4.580   2.521
22672WAT     H170118   1.496   4.486   2.534
22672WAT     H270119   1.507   4.616   2.610
22673WAT      O70120   1.318   4.398   3.145
22673WAT     H170121   1.359   4.377   3.061
22673WAT     H270122   1.390   4.424   3.202
22674WAT      O70123   1.062   4.143   2.457
22674WAT     H170124   0.969   4.136   2.480
22674WAT     H270125   1.077   4.237   2.445
22675WAT      O70126   1.060   3.770   2.156
22675WAT     H170127   0.966   3.786   2.165
22675WAT     H270128   1.092   3.842   2.102
22676WAT      O70129   1.712   4.238   3.154
22676WAT     H170130   1.630   4.245   3.107
22676WAT     H270131   1.772   4.297   3.107
22677WAT      O70132   1.465   4.299   2.507
22677WAT     H170133   1.403   4.265   2.442
22677WAT     H270134   1.463   4.235   2.578
22678WAT      O70135   1.409   3.917   3.249
22678WAT     H170136   1.367   4.000   3.274
22678WAT     H270137   1.336   3.858   3.229
22679WAT      O70138   0.622   4.196   2.735
22679WAT     H170139   0.582   4.124   2.685
22679WAT     H270140   0.631   4.161   2.824
22680WAT      O70141   0.669   4.564   2.951
22680WAT     H170142   0.639   4.504   2.883
22680WAT     H270143   0.764   4.568   2.940
22681WAT      O70144   0.493   3.873   3.113
22681WAT     H170145   0.549   3.884   3.035
22681WAT     H270146   0.545   3.910   3.184
22682WAT      O70147   1.478   4.922   3.317
22682WAT     H170148   1.430   5.002   3.298
22682WAT     H270149   1.409   4.856   3.333
22683WAT      O70150   0.578   4.538   3.616
22683WAT     H170151   0.488   4.560   3.641
22683WAT     H270152   0.581   4.550   3.521
22684WAT      O70153   1.282   4.223   2.208
22684WAT     H170154   1.326   4.139   2.193
22684WAT     H270155   1.353   4.286   2.216
22685WAT      O70156   0.461   4.225   3.474
22685WAT     H170157   0.447   4.312   3.511
22685WAT     H270158   0.373   4.191   3.459
22686WAT      O70159   1.093   4.717   2.605
22686WAT     H170160   1.137   4.791   2.563
22686WAT     H270161   1.087   4.741   2.697
22687WAT      O70162   0.641   4.819   3.695
22687WAT     H170163   0.638   4.860   3.608
22687WAT     H270164   0.624   4.727   3.678
22688WAT      O70165   1.640   3.348   2.039
22688WAT     H170166   1.609   3.358   2.129
22688WAT     H270167   1.716   3.406   2.034
22689WAT      O70168   0.292   4.085   2.485
22689WAT     H170169   0.280   4.158   2.424
22689WAT     H270170   0.261   4.008   2.437
22690WAT      O70171   1.836   4.898   3.824
22690WAT     H170172   1.883   4.946   3.892
22690WAT     H270173   1.898   4.891   3.752
22691WAT      O70174   0.180   4.572   2.707
22691WAT     H170175   0.140   4.586   2.621
22691WAT     H270176   0.270   4.544   2.686
22692WAT      O70177   1.776   4.617   3.540
22692WAT     H170178   1.789   4.593   3.449
22692WAT     H270179   1.780   4.534   3.588
22693WAT      O70180   1.162   4.987   3.397
22693WAT     H170181   1.214   4.978   3.478
22693WAT     H270182   1.078   5.022   3.427
22694WAT      O70183   1.360   5.016   2.340
22694WAT     H170184   1.344   4.987   2.430
22694WAT     H270185   1.343   4.938   2.287
22695WAT      O70186   0.608   4.994   2.518
22695WAT     H170187   0.590   4.902   2.497
22695WAT     H270188   0.522   5.029   2.542
22696WAT      O70189   1.330   4.767   2.196
22696WAT     H170190   1.261   4.766   2.130
22696WAT     H270191   1.404   4.724   2.153
22697WAT      O70192   1.287   4.929   2.604
22697WAT     H170193   1.332   4.851   2.635
22697WAT     H270194   1.321   5.000   2.658
22698WAT      O70195   1.761   3.822   3.637
22698WAT     H170196   1.700   3.873   3.584
22698WAT     H270197   1.729   3.732   3.631
22699WAT      O70198   0.539   3.419   2.823
22699WAT     H170199   0.494   3.497   2.790
22699WAT     H270200   0.595   3.452   2.894
22700WAT      O70201   0.967   3.706   3.383
22700WAT     H170202   0.921   3.727   3.465
22700WAT     H270203   0.927   3.625   3.353
22701WAT      O70204   1.468   3.828   3.496
22701WAT     H170205   1.382   3.798   3.529
22701WAT     H270206   1.452   3.853   3.405
22702WAT      O70207   1.177   3.978   3.706
22702WAT     H170208   1.210   3.895   3.672
22702WAT     H270209   1.256   4.030   3.721
22703WAT      O70210   0.850   3.381   2.311
22703WAT     H170211   0.788   3.381   2.384
22703WAT     H270212   0.842   3.295   2.272
22704WAT      O70213   0.743   3.474   3.009
22704WAT     H170214   0.772   3.564   3.001
22704WAT     H270215   0.797   3.425   2.948
22705WAT      O70216   0.518   3.932   2.596
22705WAT     H170217   0.495   3.910   2.686
22705WAT     H270218   0.440   3.975   2.561
22706WAT      O70219   1.241   3.932   2.456
22706WAT     H170220   1.181   4.005   2.437
22706WAT     H270221   1.296   3.926   2.378
22707WAT      O70222   0.762   4.022   3.663
22707WAT     H170223   0.752   3.928   3.648
22707WAT     H270224   0.846   4.044   3.623
22708WAT      O70225   1.102   3.796   2.659
22708WAT     H170226   1.141   3.828   2.578
22708WAT     H270227   1.138   3.708   2.670
22709WAT      O70228   0.275   3.663   3.478
22709WAT     H170229   0.236   3.747   3.499
22709WAT     H270230   0.206   3.599   3.497
22710WAT      O70231   0.932   3.671   3.785
22710WAT     H170232   0.863   3.652   3.848
22710WAT     H270233   1.007   3.699   3.838
22711WAT      O70234   1.160   4.055   3.068
22711WAT     H170235   1.087   4.106   3.103
22711WAT     H270236   1.120   3.973   3.038
22712WAT      O70237   0.804   3.723   2.909
22712WAT     H170238   0.804   3.678   2.824
22712WAT     H270239   0.893   3.755   2.920
22713WAT      O70240   0.389   3.711   2.805
22713WAT     H170241   0.355   3.759   2.881
22713WAT     H270242   0.313   3.665   2.769
22714WAT      O70243   0.810   3.823   2.208
22714WAT     H170244   0.822   3.819   2.303
22714WAT     H270245   0.772   3.909   2.192
22715WAT      O70246   1.206   3.600   3.010
22715WAT     H170247   1.208   3.645   3.094
22715WAT     H270248   1.182   3.510   3.031
22716WAT      O70249   0.711   4.054   2.148
22716WAT     H170250   0.654   4.009   2.085
22716WAT     H270251   0.782   4.090   2.094
22717WAT      O70252   1.549   3.342   3.593
22717WAT     H170253   1.582   3.269   3.646
22717WAT     H270254   1.553   3.310   3.503
22718WAT      O70255   0.219   4.444   3.535
22718WAT     H170256   0.181   4.380   3.595
22718WAT     H270257   0.250   4.514   3.592
22719WAT      O70258   0.834   4.129   3.084
22719WAT     H170259   0.871   4.081   3.158
22719WAT     H270260   0.815   4.216   3.118
22720WAT      O70261   0.613   4.033   3.315
22720WAT     H170262   0.583   4.121   3.338
22720WAT     H270263   0.708   4.039   3.319
22721WAT      O70264   0.466   4.453   2.375
22721WAT     H170265   0.388   4.399   2.359
22721WAT     H270266   0.539   4.401   2.341
22722WAT      O70267   1.542   4.353   2.954
22722WAT     H170268   1.614   4.402   2.915
22722WAT     H270269   1.521   4.285   2.890
22723WAT      O70270   1.088   3.492   2.369
22723WAT     H170271   1.006   3.442   2.361
22723WAT     H270272   1.068   3.576   2.327
22724WAT      O70273   1.080   4.360   3.543
22724WAT     H170274   1.073   4.268   3.518
22724WAT     H270275   1.017   4.370   3.614
22725WAT      O70276   1.359   3.930   2.198
22725WAT     H170277   1.448   3.961   2.181
22725WAT     H270278   1.356   3.842   2.159
22726WAT      O70279   0.470   4.420   2.739
22726WAT     H170280   0.522   4.340   2.733
22726WAT     H270281   0.425   4.414   2.823
22727WAT      O70282   0.959   4.547   2.266
22727WAT     H170283   0.993   4.621   2.217
22727WAT     H270284   0.876   4.578   2.302
22728WAT      O70285   0.219   4.117   3.430
22728WAT     H170286   0.183   4.183   3.489
22728WAT     H270287   0.189   4.034   3.467
22729WAT      O70288   0.539   4.163   3.719
22729WAT     H170289   0.509   4.177   3.629
22729WAT     H270290   0.616   4.107   3.709
22730WAT      O70291   1.073   4.642   3.518
22730WAT     H170292   1.074   4.549   3.496
22730WAT     H270293   1.002   4.651   3.582
22731WAT      O70294   1.586   4.061   2.145
22731WAT     H170295   1.578   4.104   2.060
22731WAT     H270296   1.658   4.107   2.188
22732WAT      O70297   1.694   4.306   3.453
22732WAT     H170298   1.622   4.366   3.433
22732WAT     H270299   1.747   4.306   3.373
22733WAT      O70300   1.689   4.746   2.418
22733WAT     H170301   1.625   4.681   2.445
22733WAT     H270302   1.651   4.787   2.340
22734WAT      O70303   1.247   4.479   2.803
22734WAT     H170304   1.282   4.419   2.737
22734WAT     H270305   1.159   4.446   2.820
22735WAT      O70306   0.856   4.555   2.543
22735WAT     H170307   0.924   4.610   2.581
22735WAT     H270308   0.777   4.609   2.547
22736WAT      O70309   0.786   4.255   2.505
22736WAT     H170310   0.832   4.336   2.527
22736WAT     H270311   0.751   4.224   2.588
22737WAT      O70312   1.016   4.806   3.227
22737WAT     H170313   1.081   4.827   3.295
22737WAT     H270314   1.053   4.730   3.182
22738WAT      O70315   0.376   3.290   2.552
22738WAT     H170316   0.363   3.289   2.647
22738WAT     H270317   0.294   3.324   2.517
22739WAT      O70318   1.144   4.607   3.099
22739WAT     H170319   1.208   4.537   3.111
22739WAT     H270320   1.196   4.685   3.081
22740WAT      O70321   1.528   4.635   2.072
22740WAT     H170322   1.506   4.564   2.131
22740WAT     H270323   1.489   4.610   1.988
22741WAT      O70324   1.321   4.687   3.420
22741WAT     H170325   1.355   4.745   3.487
22741WAT     H270326   1.229   4.674   3.443
22742WAT      O70327   1.486   4.427   2.238
22742WAT     H170328   1.458   4.473   2.317
22742WAT     H270329   1.566   4.381   2.265
22743WAT      O70330   0.904   4.692   3.736
22743WAT     H170331   0.872   4.620   3.791
22743WAT     H270332   0.837   4.759   3.744
22744WAT      O70333   0.708   4.776   2.231
22744WAT     H170334   0.707   4.849   2.169
22744WAT     H270335   0.616   4.752   2.240
22745WAT      O70336   0.268   4.298   2.305
22745WAT     H170337   0.207   4.372   2.306
22745WAT     H270338   0.316   4.307   2.223
22746WAT      O70339   1.225   3.715   3.273
22746WAT     H170340   1.262   3.633   3.306
22746WAT     H270341   1.139   3.721   3.314
22747WAT      O70342   1.562   3.610   2.354
22747WAT     H170343   1.499   3.621   2.282
22747WAT     H270344   1.513   3.632   2.433
22748WAT      O70345   1.007   4.782   2.097
22748WAT     H170346   1.017   4.762   2.004
22748WAT     H270347   0.917   4.757   2.118
22749WAT      O70348   0.759   3.838   2.495
22749WAT     H170349   0.688   3.885   2.539
22749WAT     H270350   0.787   3.773   2.559
22750WAT      O70351   0.921   3.980   3.295
22750WAT     H170352   0.971   4.028   3.362
22750WAT     H270353   0.936   3.888   3.316
22751WAT      O70354   1.162   3.511   2.639
22751WAT     H170355   1.150   3.513   2.544
22751WAT     H270356   1.257   3.516   2.651
22752WAT      O70357   0.871   5.034   2.567
22752WAT     H170358   0.896   5.031   2.474
22752WAT     H270359   0.776   5.022   2.566
22753WAT      O70360   0.579   3.669   2.233
22753WAT     H170361   0.664   3.713   2.226
22753WAT     H270362   0.543   3.700   2.316
22754WAT      O70363   1.642   3.602   3.380
22754WAT     H170364   1.592   3.676   3.413
22754WAT     H270365   1.724   3.641   3.348
22755WAT      O70366   1.471   4.126   2.724
22755WAT     H170367   1.377   4.128   2.742
22755WAT     H270368   1.503   4.048   2.769
22756WAT      O70369   0.469   4.294   2.080
22756WAT     H170370   0.546   4.283   2.136
22756WAT     H270371   0.477   4.225   2.015
22757WAT      O70372   0.339   4.038   2.149
22757WAT     H170373   0.347   3.943   2.160
22757WAT     H270374   0.428   4.071   2.159
22758WAT      O70375   1.672   4.843   2.892
22758WAT     H170376   1.684   4.926   2.939
22758WAT     H270377   1.758   4.822   2.857
22759WAT      O70378   0.419   5.053   2.859
22759WAT     H170379   0.492   4.998   2.886
22759WAT     H270380   0.457   5.139   2.845
22760WAT      O70381   0.319   4.971   3.778
22760WAT     H170382   0.400   5.003   3.819
22760WAT     H270383   0.268   4.935   3.850
22761WAT      O70384   0.730   4.970   2.041
22761WAT     H170385   0.809   4.999   1.996
22761WAT     H270386   0.678   4.927   1.973
22762WAT      O70387   1.203   4.582   3.772
22762WAT     H170388   1.142   4.584   3.698
22762WAT     H270389   1.173   4.509   3.826
22763WAT      O70390   1.346   4.955   3.634
22763WAT     H170391   1.441   4.946   3.629
22763WAT     H270392   1.331   5.021   3.701
22764WAT      O70393   1.635   4.893   2.183
22764WAT     H170394   1.607   4.851   2.102
22764WAT     H270395   1.615   4.986   2.171
22765WAT      O70396   0.782   4.492   2.028
22765WAT     H170397   0.771   4.431   2.100
22765WAT     H270398   0.765   4.440   1.949
22766WAT      O70399   0.797   4.361   3.625
22766WAT     H170400   0.720   4.417   3.617
22766WAT     H270401   0.815   4.331   3.536
22767WAT      O70402   1.106   4.398   2.088
22767WAT     H170403   1.051   4.443   2.152
22767WAT     H270404   1.168   4.348   2.140
22768WAT      O70405   1.511   4.534   3.681
22768WAT     H170406   1.585   4.567   3.631
22768WAT     H270407   1.435   4.551   3.626
22769WAT      O70408   0.295   4.034   3.762
22769WAT     H170409   0.299   4.004   3.852
22769WAT     H270410   0.380   4.074   3.746
22770WAT      O70411   0.672   4.294   2.278
22770WAT     H170412   0.715   4.278   2.362
22770WAT     H270413   0.685   4.213   2.228
22771WAT      O70414   0.489   3.892   3.558
22771WAT     H170415   0.436   3.843   3.496
22771WAT     H270416   0.556   3.935   3.505
22772WAT      O70417   0.924   4.196   2.002
22772WAT     H170418   0.976   4.125   1.966
22772WAT     H270419   0.988   4.260   2.032
22773WAT      O70420   1.378   4.339   3.535
22773WAT     H170421   1.420   4.354   3.620
22773WAT     H270422   1.285   4.351   3.551
22774WAT      O70423   1.426   4.073   3.735
22774WAT     H170424   1.484   3.997   3.726
22774WAT     H270425   1.443   4.126   3.657
22775WAT      O70426   0.537   3.589   3.566
22775WAT     H170427   0.528   3.527   3.494
22775WAT     H270428   0.479   3.661   3.544
22776WAT      O70429   0.814   3.444   3.270
22776WAT     H170430   0.769   3.447   3.185
22776WAT     H270431   0.751   3.405   3.329
22777WAT      O70432   0.855   4.334   3.332
22777WAT     H170433   0.896   4.418   3.314
22777WAT     H270434   0.763   4.348   3.309
22778WAT      O70435   1.088   4.107   3.470
22778WAT     H170436   1.100   4.048   3.544
22778WAT     H270437   1.174   4.111   3.428
22779WAT      O70438   1.322   4.163   3.328
22779WAT     H170439   1.269   4.215   3.267
22779WAT     H270440   1.356   4.226   3.391
22780WAT      O70441   0.562   3.901   1.972
22780WAT     H170442   0.542   3.815   2.008
22780WAT     H270443   0.545   3.893   1.878
22781WAT      O70444   0.640   4.965   3.443
22781WAT     H170445   0.586   5.037   3.411
22781WAT     H270446   0.665   4.917   3.364
22782WAT      O70447   0.765   3.761   3.596
22782WAT     H170448   0.824   3.731   3.665
22782WAT     H270449   0.683   3.714   3.611
22783WAT      O70450   1.247   3.723   3.619
22783WAT     H170451   1.178   3.657   3.613
22783WAT     H270452   1.319   3.678   3.664
22784WAT      O70453   1.310   3.383   2.225
22784WAT     H170454   1.338   3.298   2.261
22784WAT     H270455   1.233   3.406   2.276
22785WAT      O70456   0.442   3.611   1.971
22785WAT     H170457   0.472   3.612   1.880
22785WAT     H270458   0.516   3.576   2.021
22786WAT      O70459   0.925   5.088   3.469
22786WAT     H170460   0.918   5.178   3.500
22786WAT     H270461   0.835   5.056   3.466
22787WAT      O70462   0.764   3.506   2.070
22787WAT     H170463   0.729   3.438   2.012
22787WAT     H270464   0.784   3.460   2.151
22788WAT      O70465   0.980   5.005   2.231
22788WAT     H170466   1.070   5.038   2.234
22788WAT     H270467   0.983   4.932   2.169
22789WAT      O70468   0.344   4.542   2.054
22789WAT     H170469   0.388   4.596   2.120
22789WAT     H270470   0.393   4.459   2.055
22790WAT      O70471   0.525   4.654   2.565
22790WAT     H170472   0.495   4.642   2.656
22790WAT     H270473   0.515   4.568   2.525
22791WAT      O70474   1.678   4.858   3.502
22791WAT     H170475   1.618   4.864   3.428
22791WAT     H270476   1.691   4.764   3.515
22792WAT      O70477   1.802   4.632   2.036
22792WAT     H170478   1.719   4.639   2.083
22792WAT     H270479   1.820   4.721   2.005
22793WAT      O70480   1.748   4.306   2.286
22793WAT     H170481   1.824   4.363   2.297
22793WAT     H270482   1.749   4.250   2.363
22794WAT      O70483   1.848   4.392   2.771
22794WAT     H170484   1.885   4.313   2.730
22794WAT     H270485   1.912   4.461   2.753
22795WAT      O70486   1.547   4.530   3.312
22795WAT     H170487   1.465   4.573   3.338
22795WAT     H270488   1.587   4.591   3.251
22796WAT      O70489   1.753   4.336   2.002
22796WAT     H170490   1.780   4.426   1.989
22796WAT     H270491   1.734   4.329   2.095
22797WAT      O70492   1.393   3.638   2.131
22797WAT     H170493   1.434   3.619   2.047
22797WAT     H270494   1.362   3.553   2.162
22798WAT      O70495   1.743   4.129   2.501
22798WAT     H170496   1.705   4.053   2.458
22798WAT     H270497   1.670   4.168   2.550
22799WAT      O70498   0.201   4.197   3.163
22799WAT     H170499   0.238   4.188   3.251
22799WAT     H270500   0.145   4.121   3.153
22800WAT      O70501   1.682   4.044   3.465
22800WAT     H170502   1.658   4.021   3.374
22800WAT     H270503   1.708   4.136   3.460
22801WAT      O70504   1.525   3.567   3.742
22801WAT     H170505   1.613   3.567   3.781
22801WAT     H270506   1.527   3.493   3.681
22802WAT      O70507   1.670   3.952   2.831
22802WAT     H170508   1.722   3.903   2.768
22802WAT     H270509   1.729   3.965   2.906
22803WAT      O70510   1.688   3.960   3.183
22803WAT     H170511   1.593   3.957   3.195
22803WAT     H270512   1.706   4.051   3.160
22804WAT      O70513   0.273   3.785   2.094
22804WAT     H170514   0.344   3.743   2.046
22804WAT     H270515   0.202   3.792   2.031
22805WAT      O70516   0.238   3.391   1.998
22805WAT     H170517   0.310   3.445   2.030
22805WAT     H270518   0.265   3.363   1.911
22806WAT      O70519   1.619   3.878   2.425
22806WAT     H170520   1.669   3.854   2.504
22806WAT     H270521   1.599   3.794   2.383
22807WAT      O70522   0.207   3.316   2.989
22807WAT     H170523   0.272   3.261   2.945
22807WAT     H270524   0.249   3.341   3.071
22808WAT      O70525   1.762   3.741   2.678
22808WAT     H170526   1.751   3.726   2.772
22808WAT     H270527   1.838   3.688   2.654
22809WAT      O70528   1.597   3.335   3.324
22809WAT     H170529   1.660   3.397   3.361
22809WAT     H270530   1.611   3.339   3.230
22810WAT      O70531   1.851   3.524   2.003
22810WAT     H170532   1.943   3.511   1.982
22810WAT     H270533   1.849   3.532   2.098
22811WAT      O70534   1.858   3.601   2.265
22811WAT     H170535   1.779   3.595   2.318
22811WAT     H270536   1.879   3.695   2.264
22812WAT      O70537   1.552   5.005   2.665
22812WAT     H170538   1.612   4.973   2.597
22812WAT     H270539   1.578   4.958   2.744
22813WAT      O70540   0.182   3.331   3.263
22813WAT     H170541   0.147   3.377   3.339
22813WAT     H270542   0.149   3.242   3.271
22814WAT      O70543   0.343   4.649   3.679
22814WAT     H170544   0.339   4.611   3.768
22814WAT     H270545   0.356   4.742   3.693
22815WAT      O70546   0.713   4.804   3.240
22815WAT     H170547   0.689   4.831   3.151
22815WAT     H270548   0.807   4.821   3.245
22816WAT      O70549   0.934   3.450   3.615
22816WAT     H170550   0.927   3.510   3.690
22816WAT     H270551   1.028   3.440   3.601
22817WAT      O70552   1.197   3.416   3.579
22817WAT     H170553   1.259   3.448   3.513
22817WAT     H270554   1.252   3.368   3.641
22818WAT      O70555   1.839   5.006   3.320
22818WAT     H170556   1.790   5.046   3.248
22818WAT     H270557   1.778   4.944   3.359
22819WAT      O70558   0.250   3.284   3.590
22819WAT     H170559   0.304   3.266   3.514
22819WAT     H270560   0.256   3.205   3.644
22820WAT      O70561   0.327   4.943   3.391
22820WAT     H170562   0.267   4.930   3.465
22820WAT     H270563   0.326   4.860   3.345
22821WAT      O70564   1.271   3.272   3.212
22821WAT     H170565   1.184   3.306   3.191
22821WAT     H270566   1.261   3.225   3.294
22822WAT      O70567   1.362   3.493   3.350
22822WAT     H170568   1.329   3.412   3.312
22822WAT     H270569   1.457   3.489   3.338
22823WAT      O70570   1.607   5.070   3.047
22823WAT     H170571   1.562   5.145   3.010
22823WAT     H270572   1.545   4.998   3.042
22824WAT      O70573   0.290   4.680   3.286
22824WAT     H170574   0.217   4.618   3.280
22824WAT     H270575   0.296   4.719   3.199
22825WAT      O70576   0.650   4.901   2.965
22825WAT     H170577   0.702   4.840   2.912
22825WAT     H270578   0.715   4.951   3.014
22826WAT      O70579   0.924   4.990   3.048
22826WAT     H170580   0.953   4.965   2.960
22826WAT     H270581   0.976   4.935   3.107
22827WAT      O70582   1.046   3.364   3.106
22827WAT     H170583   0.968   3.412   3.134
22827WAT     H270584   1.017   3.274   3.095
22828WAT      O70585   1.501   3.434   2.910
22828WAT     H170586   1.545   3.429   2.825
22828WAT     H270587   1.474   3.526   2.917
22829WAT      O70588   1.688   3.398   2.711
22829WAT     H170589   1.682   3.303   2.697
22829WAT     H270590   1.766   3.408   2.766
22830WAT      O70591   0.181   3.395   2.358
22830WAT     H170592   0.256   3.406   2.300
22830WAT     H270593   0.134   3.478   2.353
22831WAT      O70594   0.835   3.606   2.657
22831WAT     H170595   0.753   3.569   2.623
22831WAT     H270596   0.885   3.530   2.687
22832WAT      O70597   1.285   3.272   2.781
22832WAT     H170598   1.345   3.330   2.828
22832WAT     H270599   1.211   3.329   2.758
22833WAT      O70600   1.599   3.313   2.308
22833WAT     H170601   1.619   3.403   2.335
22833WAT     H270602   1.521   3.290   2.357
22834WAT      O70603   0.279   4.881   2.352
22834WAT     H170604   0.226   4.919   2.282
22834WAT     H270605   0.271   4.943   2.424
22835WAT      O70606   0.418   3.447   2.212
22835WAT     H170607   0.471   3.369   2.199
22835WAT     H270608   0.481   3.515   2.235
22836WAT      O70609   0.637   3.421   2.517
22836WAT     H170610   0.574   3.351   2.534
22836WAT     H270611   0.583   3.497   2.496
22837WAT      O70612   0.931   5.082   3.784
22837WAT     H170613   1.024   5.059   3.789
22837WAT     H270614   0.930   5.165   3.736
22838WAT      O70615   1.755   5.037   2.484
22838WAT     H170616   1.772   4.968   2.420
22838WAT     H270617   1.685   5.089   2.445
22839WAT      O70618   0.650   3.349   3.761
22839WAT     H170619   0.622   3.399   3.684
22839WAT     H270620   0.688   3.269   3.724
22840WAT      O70621   0.539   5.076   2.239
22840WAT     H170622   0.612   5.047   2.185
22840WAT     H270623   0.565   5.052   2.328
22841WAT      O70624   0.455   4.687   2.240
22841WAT     H170625   0.392   4.734   2.295
22841WAT     H270626   0.466   4.603   2.283
22842WAT      O70627   1.310   3.290   3.819
22842WAT     H170628   1.299   3.322   3.908
22842WAT     H270629   1.392   3.331   3.789
22843WAT      O70630   1.588   5.005   3.767
22843WAT     H170631   1.667   4.956   3.746
22843WAT     H270632   1.617   5.073   3.827
22844WAT      O70633   1.200   4.092   0.855
22844WAT     H170634   1.192   4.001   0.828
22844WAT     H270635   1.159   4.142   0.784
22845WAT      O70636   1.014   4.270   1.043
22845WAT     H170637   0.936   4.222   1.072
22845WAT     H270638   1.079   4.202   1.026
22846WAT      O70639   0.415   4.301   1.131
22846WAT     H170640   0.332   4.276   1.171
22846WAT     H270641   0.476   4.308   1.204
22847WAT      O70642   1.416   4.711   0.921
22847WAT     H170643   1.370   4.634   0.954
22847WAT     H270644   1.497   4.713   0.972
22848WAT      O70645   0.413   4.705   1.150
22848WAT     H170646   0.444   4.616   1.132
22848WAT     H270647   0.488   4.760   1.128
22849WAT      O70648   0.256   3.797   0.509
22849WAT     H170649   0.167   3.832   0.499
22849WAT     H270650   0.285   3.777   0.420
22850WAT      O70651   1.038   4.939   0.883
22850WAT     H170652   0.976   4.985   0.826
22850WAT     H270653   1.124   4.955   0.843
22851WAT      O70654   0.958   4.538   1.044
22851WAT     H170655   0.951   4.444   1.028
22851WAT     H270656   1.034   4.547   1.101
22852WAT      O70657   0.177   3.598   1.276
22852WAT     H170658   0.159   3.508   1.304
22852WAT     H270659   0.137   3.653   1.344
22853WAT      O70660   1.061   3.818   1.066
22853WAT     H170661   1.098   3.731   1.055
22853WAT     H270662   1.051   3.852   0.977
22854WAT      O70663   0.474   3.656   0.613
22854WAT     H170664   0.485   3.746   0.643
22854WAT     H270665   0.383   3.651   0.584
22855WAT      O70666   1.439   3.568   0.760
22855WAT     H170667   1.521   3.519   0.764
22855WAT     H270668   1.442   3.627   0.835
22856WAT      O70669   0.239   3.848   1.137
22856WAT     H170670   0.307   3.874   1.199
22856WAT     H270671   0.207   3.764   1.170
22857WAT      O70672   0.658   3.953   1.046
22857WAT     H170673   0.709   4.002   1.110
22857WAT     H270674   0.711   3.875   1.028
22858WAT      O70675   1.868   3.770   1.416
22858WAT     H170676   1.798   3.808   1.364
22858WAT     H270677   1.895   3.839   1.476
22859WAT      O70678   0.486   3.417   1.472
22859WAT     H170679   0.486   3.468   1.392
22859WAT     H270680   0.403   3.369   1.470
22860WAT      O70681   1.125   4.428   0.622
22860WAT     H170682   1.063   4.474   0.566
22860WAT     H270683   1.176   4.497   0.664
22861WAT      O70684   0.611   4.380   1.290
22861WAT     H170685   0.578   4.443   1.354
22861WAT     H270686   0.629   4.433   1.212
22862WAT      O70687   1.463   3.762   1.037
22862WAT     H170688   1.392   3.791   1.095
22862WAT     H270689   1.499   3.843   1.001
22863WAT      O70690   0.454   3.588   1.273
22863WAT     H170691   0.489   3.672   1.244
22863WAT     H270692   0.361   3.602   1.285
22864WAT      O70693   0.533   4.577   1.472
22864WAT     H170694   0.594   4.645   1.444
22864WAT     H270695   0.446   4.618   1.463
22865WAT      O70696   1.624   4.724   1.263
22865WAT     H170697   1.556   4.791   1.262
22865WAT     H270698   1.678   4.743   1.187
22866WAT      O70699   1.770   3.706   1.076
22866WAT     H170700   1.675   3.710   1.089
22866WAT     H270701   1.802   3.788   1.115
22867WAT      O70702   0.823   3.336   0.906
22867WAT     H170703   0.853   3.281   0.834
22867WAT     H270704   0.730   3.350   0.887
22868WAT      O70705   1.378   4.908   1.135
22868WAT     H170706   1.379   4.868   1.048
22868WAT     H270707   1.323   4.986   1.124
22869WAT      O70708   1.507   4.580   0.644
22869WAT     H170709   1.496   4.486   0.656
22869WAT     H270710   1.507   4.616   0.732
22870WAT      O70711   1.318   4.398   1.267
22870WAT     H170712   1.359   4.377   1.184
22870WAT     H270713   1.390   4.424   1.325
22871WAT      O70714   1.062   4.143   0.579
22871WAT     H170715   0.969   4.136   0.602
22871WAT     H270716   1.077   4.237   0.568
22872WAT      O70717   1.060   3.770   0.279
22872WAT     H170718   0.966   3.786   0.287
22872WAT     H270719   1.092   3.842   0.224
22873WAT      O70720   1.712   4.238   1.277
22873WAT     H170721   1.630   4.245   1.229
22873WAT     H270722   1.772   4.297   1.230
22874WAT      O70723   1.465   4.299   0.630
22874WAT     H170724   1.403   4.265   0.565
22874WAT     H270725   1.463   4.235   0.700
22875WAT      O70726   1.409   3.917   1.371
22875WAT     H170727   1.367   4.000   1.397
22875WAT     H270728   1.336   3.858   1.352
22876WAT      O70729   0.622   4.196   0.857
22876WAT     H170730   0.582   4.124   0.808
22876WAT     H270731   0.631   4.161   0.946
22877WAT      O70732   0.669   4.564   1.074
22877WAT     H170733   0.639   4.504   1.006
22877WAT     H270734   0.764   4.568   1.063
22878WAT      O70735   0.493   3.873   1.235
22878WAT     H170736   0.549   3.884   1.158
22878WAT     H270737   0.545   3.910   1.307
22879WAT      O70738   1.478   4.922   1.440
22879WAT     H170739   1.430   5.002   1.421
22879WAT     H270740   1.409   4.856   1.455
22880WAT      O70741   0.578   4.538   1.739
22880WAT     H170742   0.488   4.560   1.764
22880WAT     H270743   0.581   4.550   1.644
22881WAT      O70744   1.282   4.223   0.330
22881WAT     H170745   1.326   4.139   0.316
22881WAT     H270746   1.353   4.286   0.339
22882WAT      O70747   0.461   4.225   1.596
22882WAT     H170748   0.447   4.312   1.633
22882WAT     H270749   0.373   4.191   1.582
22883WAT      O70750   1.093   4.717   0.727
22883WAT     H170751   1.137   4.791   0.686
22883WAT     H270752   1.087   4.741   0.819
22884WAT      O70753   0.641   4.819   1.817
22884WAT     H170754   0.638   4.860   1.731
22884WAT     H270755   0.624   4.727   1.801
22885WAT      O70756   0.292   4.085   0.607
22885WAT     H170757   0.280   4.158   0.546
22885WAT     H270758   0.261   4.008   0.560
22886WAT      O70759   1.836   4.898   1.947
22886WAT     H170760   1.883   4.946   2.015
22886WAT     H270761   1.898   4.891   1.874
22887WAT      O70762   0.180   4.572   0.829
22887WAT     H170763   0.140   4.586   0.744
22887WAT     H270764   0.270   4.544   0.809
22888WAT      O70765   1.776   4.617   1.663
22888WAT     H170766   1.789   4.593   1.571
22888WAT     H270767   1.780   4.534   1.710
22889WAT      O70768   1.162   4.987   1.520
22889WAT     H170769   1.214   4.978   1.600
22889WAT     H270770   1.078   5.022   1.549
22890WAT      O70771   1.360   5.016   0.463
22890WAT     H170772   1.344   4.987   0.553
22890WAT     H270773   1.343   4.938   0.409
22891WAT      O70774   0.608   4.994   0.640
22891WAT     H170775   0.590   4.902   0.619
22891WAT     H270776   0.522   5.029   0.664
22892WAT      O70777   1.330   4.767   0.319
22892WAT     H170778   1.261   4.766   0.253
22892WAT     H270779   1.404   4.724   0.276
22893WAT      O70780   1.287   4.929   0.726
22893WAT     H170781   1.332   4.851   0.758
22893WAT     H270782   1.321   5.000   0.781
22894WAT      O70783   1.761   3.822   1.759
22894WAT     H170784   1.700   3.873   1.707
22894WAT     H270785   1.729   3.732   1.754
22895WAT      O70786   0.539   3.419   0.946
22895WAT     H170787   0.494   3.497   0.913
22895WAT     H270788   0.595   3.452   1.016
22896WAT      O70789   0.967   3.706   1.506
22896WAT     H170790   0.921   3.727   1.587
22896WAT     H270791   0.927   3.625   1.476
22897WAT      O70792   1.468   3.828   1.619
22897WAT     H170793   1.382   3.798   1.651
22897WAT     H270794   1.452   3.853   1.528
22898WAT      O70795   1.177   3.978   1.829
22898WAT     H170796   1.210   3.895   1.795
22898WAT     H270797   1.256   4.030   1.844
22899WAT      O70798   0.850   3.381   0.434
22899WAT     H170799   0.788   3.381   0.506
22899WAT     H270800   0.842   3.295   0.394
22900WAT      O70801   0.743   3.474   1.132
22900WAT     H170802   0.772   3.564   1.124
22900WAT     H270803   0.797   3.425   1.070
22901WAT      O70804   0.518   3.932   0.719
22901WAT     H170805   0.495   3.910   0.809
22901WAT     H270806   0.440   3.975   0.684
22902WAT      O70807   1.241   3.932   0.578
22902WAT     H170808   1.181   4.005   0.560
22902WAT     H270809   1.296   3.926   0.500
22903WAT      O70810   0.762   4.022   1.785
22903WAT     H170811   0.752   3.928   1.770
22903WAT     H270812   0.846   4.044   1.746
22904WAT      O70813   1.102   3.796   0.781
22904WAT     H170814   1.141   3.828   0.700
22904WAT     H270815   1.138   3.708   0.793
22905WAT      O70816   0.275   3.663   1.600
22905WAT     H170817   0.236   3.747   1.621
22905WAT     H270818   0.206   3.599   1.620
22906WAT      O70819   0.932   3.671   1.907
22906WAT     H170820   0.863   3.652   1.971
22906WAT     H270821   1.007   3.699   1.961
22907WAT      O70822   1.160   4.055   1.191
22907WAT     H170823   1.087   4.106   1.226
22907WAT     H270824   1.120   3.973   1.161
22908WAT      O70825   0.804   3.723   1.031
22908WAT     H170826   0.804   3.678   0.947
22908WAT     H270827   0.893   3.755   1.042
22909WAT      O70828   0.389   3.711   0.927
22909WAT     H170829   0.355   3.759   1.003
22909WAT     H270830   0.313   3.665   0.891
22910WAT      O70831   0.810   3.823   0.331
22910WAT     H170832   0.822   3.819   0.425
22910WAT     H270833   0.772   3.909   0.315
22911WAT      O70834   1.206   3.600   1.132
22911WAT     H170835   1.208   3.645   1.217
22911WAT     H270836   1.182   3.510   1.154
22912WAT      O70837   0.711   4.054   0.270
22912WAT     H170838   0.654   4.009   0.208
22912WAT     H270839   0.782   4.090   0.217
22913WAT      O70840   1.549   3.342   1.716
22913WAT     H170841   1.582   3.269   1.769
22913WAT     H270842   1.553   3.310   1.626
22914WAT      O70843   0.219   4.444   1.658
22914WAT     H170844   0.181   4.380   1.718
22914WAT     H270845   0.250   4.514   1.715
22915WAT      O70846   0.834   4.129   1.206
22915WAT     H170847   0.871   4.081   1.281
22915WAT     H270848   0.815   4.216   1.240
22916WAT      O70849   0.613   4.033   1.438
22916WAT     H170850   0.583   4.121   1.460
22916WAT     H270851   0.708   4.039   1.442
22917WAT      O70852   0.466   4.453   0.498
22917WAT     H170853   0.388   4.399   0.482
22917WAT     H270854   0.539   4.401   0.464
22918WAT      O70855   1.542   4.353   1.077
22918WAT     H170856   1.614   4.402   1.038
22918WAT     H270857   1.521   4.285   1.012
22919WAT      O70858   1.088   3.492   0.491
22919WAT     H170859   1.006   3.442   0.484
22919WAT     H270860   1.068   3.576   0.450
22920WAT      O70861   1.080   4.360   1.666
22920WAT     H170862   1.073   4.268   1.640
22920WAT     H270863   1.017   4.370   1.737
22921WAT      O70864   1.359   3.930   0.321
22921WAT     H170865   1.448   3.961   0.303
22921WAT     H270866   1.356   3.842   0.282
22922WAT      O70867   0.470   4.420   0.861
22922WAT     H170868   0.522   4.340   0.856
22922WAT     H270869   0.425   4.414   0.946
22923WAT      O70870   0.959   4.547   0.389
22923WAT     H170871   0.993   4.621   0.339
22923WAT     H270872   0.876   4.578   0.425
22924WAT      O70873   0.219   4.117   1.553
22924WAT     H170874   0.183   4.183   1.611
22924WAT     H270875   0.189   4.034   1.590
22925WAT      O70876   0.539   4.163   1.841
22925WAT     H170877   0.509   4.177   1.751
22925WAT     H270878   0.616   4.107   1.832
22926WAT      O70879   1.073   4.642   1.641
22926WAT     H170880   1.074   4.549   1.619
22926WAT     H270881   1.002   4.651   1.705
22927WAT      O70882   1.586   4.061   0.268
22927WAT     H170883   1.578   4.104   0.183
22927WAT     H270884   1.658   4.107   0.311
22928WAT      O70885   1.694   4.306   1.575
22928WAT     H170886   1.622   4.366   1.556
22928WAT     H270887   1.747   4.306   1.495
22929WAT      O70888   1.689   4.746   0.540
22929WAT     H170889   1.625   4.681   0.568
22929WAT     H270890   1.651   4.787   0.463
22930WAT      O70891   1.247   4.479   0.925
22930WAT     H170892   1.282   4.419   0.859
22930WAT     H270893   1.159   4.446   0.942
22931WAT      O70894   0.856   4.555   0.666
22931WAT     H170895   0.924   4.610   0.704
22931WAT     H270896   0.777   4.609   0.669
22932WAT      O70897   0.786   4.255   0.627
22932WAT     H170898   0.832   4.336   0.650
22932WAT     H270899   0.751   4.224   0.710
22933WAT      O70900   1.016   4.806   1.350
22933WAT     H170901   1.081   4.827   1.418
22933WAT     H270902   1.053   4.730   1.305
22934WAT      O70903   0.376   3.290   0.674
22934WAT     H170904   0.363   3.289   0.769
22934WAT     H270905   0.294   3.324   0.639
22935WAT      O70906   1.144   4.607   1.222
22935WAT     H170907   1.208   4.537   1.233
22935WAT     H270908   1.196   4.685   1.204
22936WAT      O70909   1.321   4.687   1.542
22936WAT     H170910   1.355   4.745   1.610
22936WAT     H270911   1.229   4.674   1.565
22937WAT      O70912   1.486   4.427   0.360
22937WAT     H170913   1.458   4.473   0.439
22937WAT     H270914   1.566   4.381   0.387
22938WAT      O70915   0.904   4.692   1.859
22938WAT     H170916   0.872   4.620   1.914
22938WAT     H270917   0.837   4.759   1.866
22939WAT      O70918   0.708   4.776   0.353
22939WAT     H170919   0.707   4.849   0.292
22939WAT     H270920   0.616   4.752   0.363
22940WAT      O70921   0.268   4.298   0.428
22940WAT     H170922   0.207   4.372   0.429
22940WAT     H270923   0.316   4.307   0.345
22941WAT      O70924   1.225   3.715   1.395
22941WAT     H170925   1.262   3.633   1.428
22941WAT     H270926   1.139   3.721   1.437
22942WAT      O70927   1.562   3.610   0.476
22942WAT     H170928   1.499   3.621   0.405
22942WAT     H270929   1.513   3.632   0.555
22943WAT      O70930   0.759   3.838   0.618
22943WAT     H170931   0.688   3.885   0.662
22943WAT     H270932   0.787   3.773   0.681
22944WAT      O70933   0.921   3.980   1.418
22944WAT     H170934   0.971   4.028   1.484
22944WAT     H270935   0.936   3.888   1.439
22945WAT      O70936   1.162   3.511   0.762
22945WAT     H170937   1.150   3.513   0.667
22945WAT     H270938   1.257   3.516   0.774
22946WAT      O70939   0.871   5.034   0.689
22946WAT     H170940   0.896   5.031   0.597
22946WAT     H270941   0.776   5.022   0.688
22947WAT      O70942   0.579   3.669   0.355
22947WAT     H170943   0.664   3.713   0.349
22947WAT     H270944   0.543   3.700   0.438
22948WAT      O70945   1.642   3.602   1.502
22948WAT     H170946   1.592   3.676   1.536
22948WAT     H270947   1.724   3.641   1.470
22949WAT      O70948   1.471   4.126   0.847
22949WAT     H170949   1.377   4.128   0.864
22949WAT     H270950   1.503   4.048   0.891
22950WAT      O70951   0.339   4.038   0.271
22950WAT     H170952   0.347   3.943   0.282
22950WAT     H270953   0.428   4.071   0.282
22951WAT      O70954   1.672   4.843   1.014
22951WAT     H170955   1.684   4.926   1.061
22951WAT     H270956   1.758   4.822   0.979
22952WAT      O70957   0.419   5.053   0.981
22952WAT     H170958   0.492   4.998   1.009
22952WAT     H270959   0.457   5.139   0.967
22953WAT      O70960   0.319   4.971   1.900
22953WAT     H170961   0.400   5.003   1.942
22953WAT     H270962   0.268   4.935   1.972
22954WAT      O70963   1.203   4.582   1.895
22954WAT     H170964   1.142   4.584   1.821
22954WAT     H270965   1.173   4.509   1.949
22955WAT      O70966   1.346   4.955   1.756
22955WAT     H170967   1.441   4.946   1.751
22955WAT     H270968   1.331   5.021   1.823
22956WAT      O70969   1.635   4.893   0.306
22956WAT     H170970   1.607   4.851   0.225
22956WAT     H270971   1.615   4.986   0.294
22957WAT      O70972   0.797   4.361   1.748
22957WAT     H170973   0.720   4.417   1.740
22957WAT     H270974   0.815   4.331   1.659
22958WAT      O70975   1.106   4.398   0.211
22958WAT     H170976   1.051   4.443   0.275
22958WAT     H270977   1.168   4.348   0.263
22959WAT      O70978   1.511   4.534   1.804
22959WAT     H170979   1.585   4.567   1.753
22959WAT     H270980   1.435   4.551   1.748
22960WAT      O70981   0.295   4.034   1.884
22960WAT     H170982   0.299   4.004   1.975
22960WAT     H270983   0.380   4.074   1.868
22961WAT      O70984   0.672   4.294   0.400
22961WAT     H170985   0.715   4.278   0.484
22961WAT     H270986   0.685   4.213   0.351
22962WAT      O70987   0.489   3.892   1.681
22962WAT     H170988   0.436   3.843   1.618
22962WAT     H270989   0.556   3.935   1.627
22963WAT      O70990   1.378   4.339   1.657
22963WAT     H170991   1.420   4.354   1.742
22963WAT     H270992   1.285   4.351   1.674
22964WAT      O70993   1.426   4.073   1.858
22964WAT     H170994   1.484   3.997   1.849
22964WAT     H270995   1.443   4.126   1.780
22965WAT      O70996   0.537   3.589   1.689
22965WAT     H170997   0.528   3.527   1.616
22965WAT     H270998   0.479   3.661   1.666
22966WAT      O70999   0.814   3.444   1.392
22966WAT     H171000   0.769   3.447   1.308
22966WAT     H271001   0.751   3.405   1.452
22967WAT      O71002   0.855   4.334   1.454
22967WAT     H171003   0.896   4.418   1.437
22967WAT     H271004   0.763   4.348   1.431
22968WAT      O71005   1.088   4.107   1.593
22968WAT     H171006   1.100   4.048   1.667
22968WAT     H271007   1.174   4.111   1.551
22969WAT      O71008   1.322   4.163   1.450
22969WAT     H171009   1.269   4.215   1.390
22969WAT     H271010   1.356   4.226   1.513
22970WAT      O71011   0.640   4.965   1.566
22970WAT     H171012   0.586   5.037   1.534
22970WAT     H271013   0.665   4.917   1.487
22971WAT      O71014   0.765   3.761   1.718
22971WAT     H171015   0.824   3.731   1.787
22971WAT     H271016   0.683   3.714   1.734
22972WAT      O71017   1.247   3.723   1.742
22972WAT     H171018   1.178   3.657   1.735
22972WAT     H271019   1.319   3.678   1.786
22973WAT      O71020   1.310   3.383   0.348
22973WAT     H171021   1.338   3.298   0.383
22973WAT     H271022   1.233   3.406   0.399
22974WAT      O71023   0.925   5.088   1.592
22974WAT     H171024   0.918   5.178   1.622
22974WAT     H271025   0.835   5.056   1.589
22975WAT      O71026   0.980   5.005   0.354
22975WAT     H171027   1.070   5.038   0.356
22975WAT     H271028   0.983   4.932   0.291
22976WAT      O71029   0.344   4.542   0.177
22976WAT     H171030   0.388   4.596   0.242
22976WAT     H271031   0.393   4.459   0.178
22977WAT      O71032   0.525   4.654   0.688
22977WAT     H171033   0.495   4.642   0.778
22977WAT     H271034   0.515   4.568   0.647
22978WAT      O71035   1.678   4.858   1.625
22978WAT     H171036   1.618   4.864   1.550
22978WAT     H271037   1.691   4.764   1.638
22979WAT      O71038   1.748   4.306   0.409
22979WAT     H171039   1.824   4.363   0.419
22979WAT     H271040   1.749   4.250   0.486
22980WAT      O71041   1.848   4.392   0.893
22980WAT     H171042   1.885   4.313   0.852
22980WAT     H271043   1.912   4.461   0.875
22981WAT      O71044   1.547   4.530   1.434
22981WAT     H171045   1.465   4.573   1.461
22981WAT     H271046   1.587   4.591   1.373
22982WAT      O71047   1.393   3.638   0.254
22982WAT     H171048   1.434   3.619   0.170
22982WAT     H271049   1.362   3.553   0.285
22983WAT      O71050   1.743   4.129   0.624
22983WAT     H171051   1.705   4.053   0.580
22983WAT     H271052   1.670   4.168   0.672
22984WAT      O71053   0.201   4.197   1.286
22984WAT     H171054   0.238   4.188   1.374
22984WAT     H271055   0.145   4.121   1.276
22985WAT      O71056   1.682   4.044   1.587
22985WAT     H171057   1.658   4.021   1.497
22985WAT     H271058   1.708   4.136   1.583
22986WAT      O71059   1.525   3.567   1.865
22986WAT     H171060   1.613   3.567   1.903
22986WAT     H271061   1.527   3.493   1.804
22987WAT      O71062   1.670   3.952   0.954
22987WAT     H171063   1.722   3.903   0.891
22987WAT     H271064   1.729   3.965   1.028
22988WAT      O71065   1.688   3.960   1.306
22988WAT     H171066   1.593   3.957   1.317
22988WAT     H271067   1.706   4.051   1.282
22989WAT      O71068   1.619   3.878   0.548
22989WAT     H171069   1.669   3.854   0.626
22989WAT     H271070   1.599   3.794   0.506
22990WAT      O71071   0.207   3.316   1.111
22990WAT     H171072   0.272   3.261   1.067
22990WAT     H271073   0.249   3.341   1.193
22991WAT      O71074   1.762   3.741   0.801
22991WAT     H171075   1.751   3.726   0.895
22991WAT     H271076   1.838   3.688   0.777
22992WAT      O71077   1.597   3.335   1.447
22992WAT     H171078   1.660   3.397   1.483
22992WAT     H271079   1.611   3.339   1.352
22993WAT      O71080   1.858   3.601   0.388
22993WAT     H171081   1.779   3.595   0.441
22993WAT     H271082   1.879   3.695   0.387
22994WAT      O71083   1.552   5.005   0.787
22994WAT     H171084   1.612   4.973   0.719
22994WAT     H271085   1.578   4.958   0.866
22995WAT      O71086   0.182   3.331   1.385
22995WAT     H171087   0.147   3.377   1.462
22995WAT     H271088   0.149   3.242   1.394
22996WAT      O71089   0.343   4.649   1.802
22996WAT     H171090   0.339   4.611   1.890
22996WAT     H271091   0.356   4.742   1.816
22997WAT      O71092   0.713   4.804   1.362
22997WAT     H171093   0.689   4.831   1.273
22997WAT     H271094   0.807   4.821   1.368
22998WAT      O71095   0.934   3.450   1.738
22998WAT     H171096   0.927   3.510   1.813
22998WAT     H271097   1.028   3.440   1.723
22999WAT      O71098   1.197   3.416   1.702
22999WAT     H171099   1.259   3.448   1.635
22999WAT     H271100   1.252   3.368   1.764
23000WAT      O71101   1.839   5.006   1.442
23000WAT     H171102   1.790   5.046   1.370
23000WAT     H271103   1.778   4.944   1.482
23001WAT      O71104   0.250   3.284   1.713
23001WAT     H171105   0.304   3.266   1.637
23001WAT     H271106   0.256   3.205   1.767
23002WAT      O71107   0.327   4.943   1.514
23002WAT     H171108   0.267   4.930   1.588
23002WAT     H271109   0.326   4.860   1.467
23003WAT      O71110   1.271   3.272   1.334
23003WAT     H171111   1.184   3.306   1.314
23003WAT     H271112   1.261   3.225   1.417
23004WAT      O71113   1.362   3.493   1.473
23004WAT     H171114   1.329   3.412   1.435
23004WAT     H271115   1.457   3.489   1.460
23005WAT      O71116   1.607   5.070   1.170
23005WAT     H171117   1.562   5.145   1.133
23005WAT     H271118   1.545   4.998   1.164
23006WAT      O71119   0.290   4.680   1.409
23006WAT     H171120   0.217   4.618   1.402
23006WAT     H271121   0.296   4.719   1.322
23007WAT      O71122   0.650   4.901   1.088
23007WAT     H171123   0.702   4.840   1.035
23007WAT     H271124   0.715   4.951   1.137
23008WAT      O71125   0.924   4.990   1.170
23008WAT     H171126   0.953   4.965   1.083
23008WAT     H271127   0.976   4.935   1.229
23009WAT      O71128   1.046   3.364   1.228
23009WAT     H171129   0.968   3.412   1.256
23009WAT     H271130   1.017   3.274   1.217
23010WAT      O71131   1.501   3.434   1.033
23010WAT     H171132   1.545   3.429   0.948
23010WAT     H271133   1.474   3.526   1.040
23011WAT      O71134   1.688   3.398   0.834
23011WAT     H171135   1.682   3.303   0.819
23011WAT     H271136   1.766   3.408   0.888
23012WAT      O71137   0.181   3.395   0.480
23012WAT     H171138   0.256   3.406   0.423
23012WAT     H271139   0.134   3.478   0.476
23013WAT      O71140   0.835   3.606   0.779
23013WAT     H171141   0.753   3.569   0.745
23013WAT     H271142   0.885   3.530   0.810
23014WAT      O71143   1.285   3.272   0.903
23014WAT     H171144   1.345   3.330   0.951
23014WAT     H271145   1.211   3.329   0.881
23015WAT      O71146   1.599   3.313   0.431
23015WAT     H171147   1.619   3.403   0.457
23015WAT     H271148   1.521   3.290   0.480
23016WAT      O71149   0.279   4.881   0.474
23016WAT     H171150   0.226   4.919   0.404
23016WAT     H271151   0.271   4.943   0.547
23017WAT      O71152   0.418   3.447   0.334
23017WAT     H171153   0.471   3.369   0.321
23017WAT     H271154   0.481   3.515   0.358
23018WAT      O71155   0.637   3.421   0.640
23018WAT     H171156   0.574   3.351   0.656
23018WAT     H271157   0.583   3.497   0.618
23019WAT      O71158   0.931   5.082   1.907
23019WAT     H171159   1.024   5.059   1.911
23019WAT     H271160   0.930   5.165   1.859
23020WAT      O71161   1.755   5.037   0.607
23020WAT     H171162   1.772   4.968   0.542
23020WAT     H271163   1.685   5.089   0.567
23021WAT      O71164   0.650   3.349   1.883
23021WAT     H171165   0.622   3.399   1.807
23021WAT     H271166   0.688   3.269   1.847
23022WAT      O71167   0.539   5.076   0.362
23022WAT     H171168   0.612   5.047   0.307
23022WAT     H271169   0.565   5.052   0.451
23023WAT      O71170   0.455   4.687   0.362
23023WAT     H171171   0.392   4.734   0.417
23023WAT     H271172   0.466   4.603   0.406
23024WAT      O71173   1.310   3.290   1.941
23024WAT     H171174   1.299   3.322   2.031
23024WAT     H271175   1.392   3.331   1.911
23025WAT      O71176   1.588   5.005   1.889
23025WAT     H171177   1.667   4.956   1.869
23025WAT     H271178   1.617   5.073   1.950
23026WAT      O71179   1.200   2.215   6.487
23026WAT     H171180   1.192   2.123   6.460
23026WAT     H271181   1.159   2.265   6.417
23027WAT      O71182   1.014   2.393   6.675
23027WAT     H171183   0.936   2.345   6.704
23027WAT     H271184   1.079   2.325   6.658
23028WAT      O71185   0.415   2.424   6.763
23028WAT     H171186   0.332   2.398   6.803
23028WAT     H271187   0.476   2.431   6.837
23029WAT      O71188   1.416   2.833   6.553
23029WAT     H171189   1.370   2.756   6.586
23029WAT     H271190   1.497   2.836   6.604
23030WAT      O71191   0.413   2.827   6.783
23030WAT     H171192   0.444   2.738   6.765
23030WAT     H271193   0.488   2.883   6.760
23031WAT      O71194   0.256   1.920   6.141
23031WAT     H171195   0.167   1.954   6.131
23031WAT     H271196   0.285   1.900   6.052
23032WAT      O71197   1.038   3.062   6.515
23032WAT     H171198   0.976   3.107   6.458
23032WAT     H271199   1.124   3.077   6.475
23033WAT      O71200   0.958   2.660   6.676
23033WAT     H171201   0.951   2.566   6.660
23033WAT     H271202   1.034   2.669   6.733
23034WAT      O71203   0.177   1.721   6.909
23034WAT     H171204   0.159   1.631   6.937
23034WAT     H271205   0.137   1.776   6.976
23035WAT      O71206   1.061   1.941   6.699
23035WAT     H171207   1.098   1.854   6.687
23035WAT     H271208   1.051   1.975   6.610
23036WAT      O71209   0.474   1.778   6.245
23036WAT     H171210   0.485   1.868   6.276
23036WAT     H271211   0.383   1.773   6.216
23037WAT      O71212   1.439   1.690   6.392
23037WAT     H171213   1.521   1.641   6.396
23037WAT     H271214   1.442   1.749   6.467
23038WAT      O71215   0.239   1.970   6.769
23038WAT     H171216   0.307   1.997   6.831
23038WAT     H271217   0.207   1.886   6.803
23039WAT      O71218   0.658   2.075   6.678
23039WAT     H171219   0.709   2.125   6.742
23039WAT     H271220   0.711   1.997   6.661
23040WAT      O71221   1.868   1.892   7.048
23040WAT     H171222   1.798   1.931   6.997
23040WAT     H271223   1.895   1.962   7.109
23041WAT      O71224   0.486   1.539   7.105
23041WAT     H171225   0.486   1.591   7.024
23041WAT     H271226   0.403   1.491   7.102
23042WAT      O71227   1.125   2.550   6.255
23042WAT     H171228   1.063   2.597   6.198
23042WAT     H271229   1.176   2.620   6.296
23043WAT      O71230   0.611   2.503   6.922
23043WAT     H171231   0.578   2.566   6.987
23043WAT     H271232   0.629   2.556   6.845
23044WAT      O71233   1.463   1.884   6.669
23044WAT     H171234   1.392   1.913   6.727
23044WAT     H271235   1.499   1.965   6.633
23045WAT      O71236   0.454   1.710   6.905
23045WAT     H171237   0.489   1.795   6.876
23045WAT     H271238   0.361   1.725   6.917
23046WAT      O71239   0.533   2.700   7.104
23046WAT     H171240   0.594   2.767   7.076
23046WAT     H271241   0.446   2.741   7.095
23047WAT      O71242   1.624   2.846   6.896
23047WAT     H171243   1.556   2.913   6.895
23047WAT     H271244   1.678   2.866   6.819
23048WAT      O71245   1.770   1.829   6.708
23048WAT     H171246   1.675   1.832   6.721
23048WAT     H271247   1.802   1.910   6.747
23049WAT      O71248   0.823   1.459   6.538
23049WAT     H171249   0.853   1.403   6.466
23049WAT     H271250   0.730   1.472   6.520
23050WAT      O71251   1.378   3.031   6.767
23050WAT     H171252   1.379   2.990   6.680
23050WAT     H271253   1.323   3.108   6.757
23051WAT      O71254   1.507   2.703   6.276
23051WAT     H171255   1.496   2.609   6.288
23051WAT     H271256   1.507   2.739   6.365
23052WAT      O71257   1.318   2.521   6.900
23052WAT     H171258   1.359   2.500   6.816
23052WAT     H271259   1.390   2.547   6.957
23053WAT      O71260   1.062   2.265   6.212
23053WAT     H171261   0.969   2.259   6.234
23053WAT     H271262   1.077   2.359   6.200
23054WAT      O71263   1.060   1.893   5.911
23054WAT     H171264   0.966   1.909   5.920
23054WAT     H271265   1.092   1.965   5.857
23055WAT      O71266   1.712   2.361   6.909
23055WAT     H171267   1.630   2.368   6.861
23055WAT     H271268   1.772   2.419   6.862
23056WAT      O71269   1.465   2.422   6.262
23056WAT     H171270   1.403   2.388   6.197
23056WAT     H271271   1.463   2.357   6.333
23057WAT      O71272   1.409   2.040   7.004
23057WAT     H171273   1.367   2.122   7.029
23057WAT     H271274   1.336   1.981   6.984
23058WAT      O71275   0.622   2.318   6.490
23058WAT     H171276   0.582   2.247   6.440
23058WAT     H271277   0.631   2.284   6.579
23059WAT      O71278   0.669   2.687   6.706
23059WAT     H171279   0.639   2.626   6.638
23059WAT     H271280   0.764   2.691   6.695
23060WAT      O71281   0.493   1.996   6.868
23060WAT     H171282   0.549   2.007   6.790
23060WAT     H271283   0.545   2.033   6.939
23061WAT      O71284   1.478   3.044   7.072
23061WAT     H171285   1.430   3.125   7.053
23061WAT     H271286   1.409   2.979   7.088
23062WAT      O71287   0.578   2.661   7.371
23062WAT     H171288   0.488   2.683   7.396
23062WAT     H271289   0.581   2.673   7.276
23063WAT      O71290   1.282   2.346   5.963
23063WAT     H171291   1.326   2.262   5.948
23063WAT     H271292   1.353   2.409   5.971
23064WAT      O71293   0.461   2.348   7.229
23064WAT     H171294   0.447   2.435   7.266
23064WAT     H271295   0.373   2.313   7.214
23065WAT      O71296   1.093   2.840   6.359
23065WAT     H171297   1.137   2.914   6.318
23065WAT     H271298   1.087   2.864   6.452
23066WAT      O71299   0.641   2.942   7.450
23066WAT     H171300   0.638   2.982   7.363
23066WAT     H271301   0.624   2.849   7.433
23067WAT      O71302   1.640   1.471   5.794
23067WAT     H171303   1.609   1.480   5.884
23067WAT     H271304   1.716   1.529   5.789
23068WAT      O71305   0.292   2.208   6.240
23068WAT     H171306   0.280   2.280   6.179
23068WAT     H271307   0.261   2.131   6.192
23069WAT      O71308   0.180   2.695   6.462
23069WAT     H171309   0.140   2.709   6.376
23069WAT     H271310   0.270   2.666   6.441
23070WAT      O71311   1.776   2.739   7.295
23070WAT     H171312   1.789   2.715   7.203
23070WAT     H271313   1.780   2.656   7.342
23071WAT      O71314   1.162   3.110   7.152
23071WAT     H171315   1.214   3.101   7.232
23071WAT     H271316   1.078   3.144   7.181
23072WAT      O71317   1.360   3.138   6.095
23072WAT     H171318   1.344   3.109   6.185
23072WAT     H271319   1.343   3.061   6.041
23073WAT      O71320   0.608   3.116   6.273
23073WAT     H171321   0.590   3.025   6.251
23073WAT     H271322   0.522   3.152   6.297
23074WAT      O71323   1.330   2.889   5.951
23074WAT     H171324   1.261   2.889   5.885
23074WAT     H271325   1.404   2.847   5.908
23075WAT      O71326   1.287   3.052   6.358
23075WAT     H171327   1.332   2.974   6.390
23075WAT     H271328   1.321   3.123   6.413
23076WAT      O71329   1.761   1.945   7.392
23076WAT     H171330   1.700   1.995   7.339
23076WAT     H271331   1.729   1.855   7.386
23077WAT      O71332   0.539   1.542   6.578
23077WAT     H171333   0.494   1.620   6.545
23077WAT     H271334   0.595   1.574   6.649
23078WAT      O71335   0.967   1.829   7.138
23078WAT     H171336   0.921   1.849   7.220
23078WAT     H271337   0.927   1.747   7.108
23079WAT      O71338   1.468   1.951   7.251
23079WAT     H171339   1.382   1.921   7.283
23079WAT     H271340   1.452   1.975   7.160
23080WAT      O71341   1.177   2.101   7.461
23080WAT     H171342   1.210   2.017   7.427
23080WAT     H271343   1.256   2.153   7.476
23081WAT      O71344   0.850   1.504   6.066
23081WAT     H171345   0.788   1.504   6.139
23081WAT     H271346   0.842   1.417   6.026
23082WAT      O71347   0.743   1.596   6.764
23082WAT     H171348   0.772   1.687   6.756
23082WAT     H271349   0.797   1.548   6.702
23083WAT      O71350   0.518   2.054   6.351
23083WAT     H171351   0.495   2.033   6.441
23083WAT     H271352   0.440   2.098   6.316
23084WAT      O71353   1.241   2.055   6.211
23084WAT     H171354   1.181   2.127   6.192
23084WAT     H271355   1.296   2.049   6.132
23085WAT      O71356   0.762   2.144   7.417
23085WAT     H171357   0.752   2.050   7.402
23085WAT     H271358   0.846   2.166   7.378
23086WAT      O71359   1.102   1.919   6.414
23086WAT     H171360   1.141   1.950   6.332
23086WAT     H271361   1.138   1.831   6.425
23087WAT      O71362   0.275   1.785   7.233
23087WAT     H171363   0.236   1.870   7.253
23087WAT     H271364   0.206   1.722   7.252
23088WAT      O71365   1.160   2.178   6.823
23088WAT     H171366   1.087   2.228   6.858
23088WAT     H271367   1.120   2.096   6.793
23089WAT      O71368   0.804   1.845   6.664
23089WAT     H171369   0.804   1.801   6.579
23089WAT     H271370   0.893   1.877   6.675
23090WAT      O71371   0.389   1.833   6.560
23090WAT     H171372   0.355   1.881   6.635
23090WAT     H271373   0.313   1.788   6.524
23091WAT      O71374   0.810   1.945   5.963
23091WAT     H171375   0.822   1.941   6.058
23091WAT     H271376   0.772   2.031   5.947
23092WAT      O71377   1.206   1.723   6.764
23092WAT     H171378   1.208   1.768   6.849
23092WAT     H271379   1.182   1.633   6.786
23093WAT      O71380   0.711   2.176   5.903
23093WAT     H171381   0.654   2.131   5.840
23093WAT     H271382   0.782   2.212   5.849
23094WAT      O71383   1.549   1.464   7.348
23094WAT     H171384   1.582   1.391   7.401
23094WAT     H271385   1.553   1.432   7.258
23095WAT      O71386   0.219   2.566   7.290
23095WAT     H171387   0.181   2.502   7.350
23095WAT     H271388   0.250   2.637   7.347
23096WAT      O71389   0.834   2.251   6.838
23096WAT     H171390   0.871   2.204   6.913
23096WAT     H271391   0.815   2.339   6.873
23097WAT      O71392   0.613   2.155   7.070
23097WAT     H171393   0.583   2.243   7.093
23097WAT     H271394   0.708   2.161   7.074
23098WAT      O71395   0.466   2.576   6.130
23098WAT     H171396   0.388   2.522   6.114
23098WAT     H271397   0.539   2.524   6.096
23099WAT      O71398   1.542   2.476   6.709
23099WAT     H171399   1.614   2.525   6.670
23099WAT     H271400   1.521   2.408   6.645
23100WAT      O71401   1.088   1.615   6.124
23100WAT     H171402   1.006   1.565   6.116
23100WAT     H271403   1.068   1.699   6.082
23101WAT      O71404   1.080   2.483   7.298
23101WAT     H171405   1.073   2.391   7.272
23101WAT     H271406   1.017   2.492   7.369
23102WAT      O71407   1.359   2.052   5.953
23102WAT     H171408   1.448   2.083   5.936
23102WAT     H271409   1.356   1.965   5.914
23103WAT      O71410   0.470   2.543   6.494
23103WAT     H171411   0.522   2.462   6.488
23103WAT     H271412   0.425   2.536   6.578
23104WAT      O71413   0.959   2.669   6.021
23104WAT     H171414   0.993   2.744   5.971
23104WAT     H271415   0.876   2.701   6.057
23105WAT      O71416   0.219   2.239   7.185
23105WAT     H171417   0.183   2.306   7.244
23105WAT     H271418   0.189   2.156   7.222
23106WAT      O71419   0.539   2.285   7.473
23106WAT     H171420   0.509   2.300   7.384
23106WAT     H271421   0.616   2.229   7.464
23107WAT      O71422   1.073   2.765   7.273
23107WAT     H171423   1.074   2.672   7.251
23107WAT     H271424   1.002   2.773   7.337
23108WAT      O71425   1.586   2.183   5.900
23108WAT     H171426   1.578   2.226   5.815
23108WAT     H271427   1.658   2.229   5.943
23109WAT      O71428   1.694   2.429   7.208
23109WAT     H171429   1.622   2.488   7.188
23109WAT     H271430   1.747   2.428   7.128
23110WAT      O71431   1.689   2.869   6.173
23110WAT     H171432   1.625   2.803   6.200
23110WAT     H271433   1.651   2.909   6.095
23111WAT      O71434   1.247   2.601   6.557
23111WAT     H171435   1.282   2.542   6.491
23111WAT     H271436   1.159   2.569   6.575
23112WAT      O71437   0.856   2.677   6.298
23112WAT     H171438   0.924   2.732   6.336
23112WAT     H271439   0.777   2.732   6.302
23113WAT      O71440   0.786   2.378   6.259
23113WAT     H171441   0.832   2.459   6.282
23113WAT     H271442   0.751   2.346   6.343
23114WAT      O71443   1.016   2.929   6.982
23114WAT     H171444   1.081   2.950   7.050
23114WAT     H271445   1.053   2.853   6.937
23115WAT      O71446   0.376   1.412   6.307
23115WAT     H171447   0.363   1.411   6.402
23115WAT     H271448   0.294   1.446   6.272
23116WAT      O71449   1.144   2.729   6.854
23116WAT     H171450   1.208   2.659   6.865
23116WAT     H271451   1.196   2.807   6.836
23117WAT      O71452   1.528   2.758   5.827
23117WAT     H171453   1.506   2.686   5.886
23117WAT     H271454   1.489   2.733   5.743
23118WAT      O71455   1.321   2.809   7.174
23118WAT     H171456   1.355   2.868   7.242
23118WAT     H271457   1.229   2.796   7.197
23119WAT      O71458   1.486   2.550   5.993
23119WAT     H171459   1.458   2.596   6.071
23119WAT     H271460   1.566   2.503   6.019
23120WAT      O71461   0.708   2.899   5.986
23120WAT     H171462   0.707   2.972   5.924
23120WAT     H271463   0.616   2.874   5.995
23121WAT      O71464   0.268   2.421   6.060
23121WAT     H171465   0.207   2.495   6.061
23121WAT     H271466   0.316   2.430   5.978
23122WAT      O71467   1.225   1.837   7.028
23122WAT     H171468   1.262   1.755   7.061
23122WAT     H271469   1.139   1.843   7.069
23123WAT      O71470   1.562   1.733   6.109
23123WAT     H171471   1.499   1.743   6.037
23123WAT     H271472   1.513   1.755   6.188
23124WAT      O71473   1.007   2.905   5.852
23124WAT     H171474   1.017   2.885   5.759
23124WAT     H271475   0.917   2.880   5.872
23125WAT      O71476   0.759   1.961   6.250
23125WAT     H171477   0.688   2.008   6.294
23125WAT     H271478   0.787   1.895   6.314
23126WAT      O71479   0.921   2.103   7.050
23126WAT     H171480   0.971   2.150   7.117
23126WAT     H271481   0.936   2.010   7.071
23127WAT      O71482   1.162   1.633   6.394
23127WAT     H171483   1.150   1.635   6.299
23127WAT     H271484   1.257   1.638   6.406
23128WAT      O71485   0.871   3.157   6.321
23128WAT     H171486   0.896   3.153   6.229
23128WAT     H271487   0.776   3.144   6.321
23129WAT      O71488   0.579   1.792   5.988
23129WAT     H171489   0.664   1.835   5.981
23129WAT     H271490   0.543   1.823   6.070
23130WAT      O71491   1.642   1.724   7.134
23130WAT     H171492   1.592   1.799   7.168
23130WAT     H271493   1.724   1.763   7.103
23131WAT      O71494   1.471   2.249   6.479
23131WAT     H171495   1.377   2.250   6.496
23131WAT     H271496   1.503   2.170   6.524
23132WAT      O71497   0.469   2.417   5.835
23132WAT     H171498   0.546   2.406   5.891
23132WAT     H271499   0.477   2.347   5.770
23133WAT      O71500   0.339   2.160   5.903
23133WAT     H171501   0.347   2.066   5.915
23133WAT     H271502   0.428   2.193   5.914
23134WAT      O71503   1.672   2.966   6.647
23134WAT     H171504   1.684   3.048   6.694
23134WAT     H271505   1.758   2.945   6.612
23135WAT      O71506   0.419   3.175   6.614
23135WAT     H171507   0.492   3.120   6.641
23135WAT     H271508   0.457   3.262   6.600
23136WAT      O71509   0.730   3.093   5.796
23136WAT     H171510   0.809   3.121   5.751
23136WAT     H271511   0.678   3.049   5.728
23137WAT      O71512   1.346   3.077   7.388
23137WAT     H171513   1.441   3.069   7.383
23137WAT     H271514   1.331   3.144   7.456
23138WAT      O71515   1.635   3.015   5.938
23138WAT     H171516   1.607   2.974   5.857
23138WAT     H271517   1.615   3.108   5.926
23139WAT      O71518   0.782   2.615   5.782
23139WAT     H171519   0.771   2.553   5.855
23139WAT     H271520   0.765   2.562   5.704
23140WAT      O71521   0.797   2.483   7.380
23140WAT     H171522   0.720   2.540   7.372
23140WAT     H271523   0.815   2.454   7.291
23141WAT      O71524   1.106   2.521   5.843
23141WAT     H171525   1.051   2.565   5.907
23141WAT     H271526   1.168   2.470   5.895
23142WAT      O71527   1.511   2.656   7.436
23142WAT     H171528   1.585   2.690   7.386
23142WAT     H271529   1.435   2.673   7.381
23143WAT      O71530   0.672   2.417   6.032
23143WAT     H171531   0.715   2.400   6.117
23143WAT     H271532   0.685   2.336   5.983
23144WAT      O71533   0.489   2.015   7.313
23144WAT     H171534   0.436   1.966   7.250
23144WAT     H271535   0.556   2.057   7.260
23145WAT      O71536   0.924   2.319   5.757
23145WAT     H171537   0.976   2.248   5.721
23145WAT     H271538   0.988   2.383   5.787
23146WAT      O71539   1.378   2.461   7.290
23146WAT     H171540   1.420   2.477   7.375
23146WAT     H271541   1.285   2.474   7.306
23147WAT      O71542   1.426   2.195   7.490
23147WAT     H171543   1.484   2.120   7.481
23147WAT     H271544   1.443   2.248   7.412
23148WAT      O71545   0.537   1.711   7.321
23148WAT     H171546   0.528   1.649   7.249
23148WAT     H271547   0.479   1.784   7.298
23149WAT      O71548   0.814   1.567   7.024
23149WAT     H171549   0.769   1.569   6.940
23149WAT     H271550   0.751   1.527   7.084
23150WAT      O71551   0.855   2.457   7.087
23150WAT     H171552   0.896   2.541   7.069
23150WAT     H271553   0.763   2.470   7.064
23151WAT      O71554   1.088   2.230   7.225
23151WAT     H171555   1.100   2.170   7.299
23151WAT     H271556   1.174   2.233   7.183
23152WAT      O71557   1.322   2.285   7.083
23152WAT     H171558   1.269   2.337   7.022
23152WAT     H271559   1.356   2.348   7.146
23153WAT      O71560   0.562   2.024   5.727
23153WAT     H171561   0.542   1.938   5.763
23153WAT     H271562   0.545   2.015   5.633
23154WAT      O71563   0.640   3.087   7.198
23154WAT     H171564   0.586   3.160   7.166
23154WAT     H271565   0.665   3.039   7.119
23155WAT      O71566   0.765   1.884   7.351
23155WAT     H171567   0.824   1.853   7.419
23155WAT     H271568   0.683   1.837   7.366
23156WAT      O71569   1.247   1.846   7.374
23156WAT     H171570   1.178   1.779   7.368
23156WAT     H271571   1.319   1.801   7.419
23157WAT      O71572   1.310   1.505   5.980
23157WAT     H171573   1.338   1.421   6.016
23157WAT     H271574   1.233   1.528   6.031
23158WAT      O71575   0.442   1.734   5.726
23158WAT     H171576   0.472   1.735   5.635
23158WAT     H271577   0.516   1.699   5.776
23159WAT      O71578   0.925   3.211   7.224
23159WAT     H171579   0.918   3.301   7.255
23159WAT     H271580   0.835   3.179   7.221
23160WAT      O71581   0.764   1.628   5.824
23160WAT     H171582   0.729   1.561   5.766
23160WAT     H271583   0.784   1.582   5.906
23161WAT      O71584   0.980   3.127   5.986
23161WAT     H171585   1.070   3.161   5.988
23161WAT     H271586   0.983   3.055   5.924
23162WAT      O71587   0.344   2.664   5.809
23162WAT     H171588   0.388   2.719   5.875
23162WAT     H271589   0.393   2.582   5.810
23163WAT      O71590   0.525   2.776   6.320
23163WAT     H171591   0.495   2.764   6.410
23163WAT     H271592   0.515   2.691   6.280
23164WAT      O71593   1.678   2.980   7.257
23164WAT     H171594   1.618   2.986   7.183
23164WAT     H271595   1.691   2.886   7.270
23165WAT      O71596   1.802   2.754   5.791
23165WAT     H171597   1.719   2.761   5.838
23165WAT     H271598   1.820   2.843   5.760
23166WAT      O71599   1.748   2.429   6.041
23166WAT     H171600   1.824   2.486   6.052
23166WAT     H271601   1.749   2.372   6.118
23167WAT      O71602   1.848   2.514   6.525
23167WAT     H171603   1.885   2.436   6.485
23167WAT     H271604   1.912   2.583   6.508
23168WAT      O71605   1.547   2.653   7.067
23168WAT     H171606   1.465   2.696   7.093
23168WAT     H271607   1.587   2.714   7.005
23169WAT      O71608   1.753   2.458   5.757
23169WAT     H171609   1.780   2.549   5.744
23169WAT     H271610   1.734   2.452   5.850
23170WAT      O71611   1.393   1.761   5.886
23170WAT     H171612   1.434   1.742   5.802
23170WAT     H271613   1.362   1.675   5.917
23171WAT      O71614   1.743   2.252   6.256
23171WAT     H171615   1.705   2.175   6.213
23171WAT     H271616   1.670   2.290   6.305
23172WAT      O71617   0.201   2.320   6.918
23172WAT     H171618   0.238   2.311   7.006
23172WAT     H271619   0.145   2.243   6.908
23173WAT      O71620   1.682   2.167   7.219
23173WAT     H171621   1.658   2.144   7.129
23173WAT     H271622   1.708   2.259   7.215
23174WAT      O71623   1.670   2.074   6.586
23174WAT     H171624   1.722   2.025   6.523
23174WAT     H271625   1.729   2.088   6.661
23175WAT      O71626   1.688   2.083   6.938
23175WAT     H171627   1.593   2.079   6.950
23175WAT     H271628   1.706   2.174   6.915
23176WAT      O71629   0.273   1.908   5.849
23176WAT     H171630   0.344   1.866   5.801
23176WAT     H271631   0.202   1.915   5.786
23177WAT      O71632   0.238   1.513   5.753
23177WAT     H171633   0.310   1.567   5.785
23177WAT     H271634   0.265   1.486   5.666
23178WAT      O71635   1.619   2.000   6.180
23178WAT     H171636   1.669   1.977   6.258
23178WAT     H271637   1.599   1.916   6.138
23179WAT      O71638   0.207   1.438   6.743
23179WAT     H171639   0.272   1.383   6.699
23179WAT     H271640   0.249   1.464   6.826
23180WAT      O71641   1.762   1.864   6.433
23180WAT     H171642   1.751   1.848   6.527
23180WAT     H271643   1.838   1.811   6.409
23181WAT      O71644   1.597   1.458   7.079
23181WAT     H171645   1.660   1.519   7.116
23181WAT     H271646   1.611   1.461   6.985
23182WAT      O71647   1.851   1.647   5.757
23182WAT     H171648   1.943   1.634   5.737
23182WAT     H271649   1.849   1.655   5.853
23183WAT      O71650   1.858   1.724   6.020
23183WAT     H171651   1.779   1.717   6.073
23183WAT     H271652   1.879   1.818   6.019
23184WAT      O71653   1.552   3.128   6.419
23184WAT     H171654   1.612   3.096   6.352
23184WAT     H271655   1.578   3.081   6.499
23185WAT      O71656   0.182   1.454   7.018
23185WAT     H171657   0.147   1.500   7.094
23185WAT     H271658   0.149   1.364   7.026
23186WAT      O71659   0.713   2.927   6.994
23186WAT     H171660   0.689   2.953   6.906
23186WAT     H271661   0.807   2.944   7.000
23187WAT      O71662   0.934   1.573   7.370
23187WAT     H171663   0.927   1.632   7.445
23187WAT     H271664   1.028   1.562   7.355
23188WAT      O71665   1.197   1.539   7.334
23188WAT     H171666   1.259   1.571   7.268
23188WAT     H271667   1.252   1.490   7.396
23189WAT      O71668   1.839   3.129   7.074
23189WAT     H171669   1.790   3.168   7.003
23189WAT     H271670   1.778   3.066   7.114
23190WAT      O71671   0.250   1.407   7.345
23190WAT     H171672   0.304   1.389   7.269
23190WAT     H271673   0.256   1.328   7.399
23191WAT      O71674   0.327   3.066   7.146
23191WAT     H171675   0.267   3.053   7.220
23191WAT     H271676   0.326   2.982   7.100
23192WAT      O71677   1.271   1.395   6.967
23192WAT     H171678   1.184   1.428   6.946
23192WAT     H271679   1.261   1.348   7.049
23193WAT      O71680   1.362   1.616   7.105
23193WAT     H171681   1.329   1.534   7.067
23193WAT     H271682   1.457   1.611   7.093
23194WAT      O71683   1.607   3.193   6.802
23194WAT     H171684   1.562   3.268   6.765
23194WAT     H271685   1.545   3.121   6.796
23195WAT      O71686   0.290   2.802   7.041
23195WAT     H171687   0.217   2.740   7.035
23195WAT     H271688   0.296   2.842   6.954
23196WAT      O71689   0.650   3.024   6.720
23196WAT     H171690   0.702   2.963   6.667
23196WAT     H271691   0.715   3.074   6.769
23197WAT      O71692   0.924   3.113   6.803
23197WAT     H171693   0.953   3.087   6.715
23197WAT     H271694   0.976   3.058   6.862
23198WAT      O71695   1.046   1.487   6.860
23198WAT     H171696   0.968   1.534   6.888
23198WAT     H271697   1.017   1.396   6.850
23199WAT      O71698   1.501   1.557   6.665
23199WAT     H171699   1.545   1.551   6.580
23199WAT     H271700   1.474   1.649   6.672
23200WAT      O71701   1.688   1.520   6.466
23200WAT     H171702   1.682   1.426   6.451
23200WAT     H271703   1.766   1.531   6.521
23201WAT      O71704   0.181   1.517   6.113
23201WAT     H171705   0.256   1.528   6.055
23201WAT     H271706   0.134   1.601   6.108
23202WAT      O71707   0.835   1.729   6.412
23202WAT     H171708   0.753   1.691   6.378
23202WAT     H271709   0.885   1.653   6.442
23203WAT      O71710   1.285   1.395   6.535
23203WAT     H171711   1.345   1.452   6.583
23203WAT     H271712   1.211   1.451   6.513
23204WAT      O71713   1.599   1.435   6.063
23204WAT     H171714   1.619   1.525   6.090
23204WAT     H271715   1.521   1.412   6.112
23205WAT      O71716   0.279   3.003   6.107
23205WAT     H171717   0.226   3.041   6.036
23205WAT     H271718   0.271   3.066   6.179
23206WAT      O71719   0.418   1.570   5.967
23206WAT     H171720   0.471   1.491   5.954
23206WAT     H271721   0.481   1.638   5.990
23207WAT      O71722   0.637   1.544   6.272
23207WAT     H171723   0.574   1.473   6.289
23207WAT     H271724   0.583   1.620   6.250
23208WAT      O71725   1.755   3.159   6.239
23208WAT     H171726   1.772   3.091   6.175
23208WAT     H271727   1.685   3.212   6.200
23209WAT      O71728   0.539   3.198   5.994
23209WAT     H171729   0.612   3.170   5.940
23209WAT     H271730   0.565   3.174   6.083
23210WAT      O71731   0.455   2.810   5.995
23210WAT     H171732   0.392   2.857   6.050
23210WAT     H271733   0.466   2.725   6.038
23211WAT      O71734   1.200   2.215   4.610
23211WAT     H171735   1.192   2.123   4.583
23211WAT     H271736   1.159   2.265   4.539
23212WAT      O71737   1.014   2.393   4.798
23212WAT     H171738   0.936   2.345   4.827
23212WAT     H271739   1.079   2.325   4.780
23213WAT      O71740   0.415   2.424   4.886
23213WAT     H171741   0.332   2.398   4.926
23213WAT     H271742   0.476   2.431   4.959
23214WAT      O71743   1.416   2.833   4.676
23214WAT     H171744   1.370   2.756   4.709
23214WAT     H271745   1.497   2.836   4.726
23215WAT      O71746   0.413   2.827   4.905
23215WAT     H171747   0.444   2.738   4.887
23215WAT     H271748   0.488   2.883   4.882
23216WAT      O71749   0.256   1.920   4.264
23216WAT     H171750   0.167   1.954   4.254
23216WAT     H271751   0.285   1.900   4.175
23217WAT      O71752   1.038   3.062   4.638
23217WAT     H171753   0.976   3.107   4.581
23217WAT     H271754   1.124   3.077   4.598
23218WAT      O71755   0.958   2.660   4.799
23218WAT     H171756   0.951   2.566   4.782
23218WAT     H271757   1.034   2.669   4.856
23219WAT      O71758   0.177   1.721   5.031
23219WAT     H171759   0.159   1.631   5.059
23219WAT     H271760   0.137   1.776   5.099
23220WAT      O71761   1.061   1.941   4.821
23220WAT     H171762   1.098   1.854   4.810
23220WAT     H271763   1.051   1.975   4.732
23221WAT      O71764   0.474   1.778   4.367
23221WAT     H171765   0.485   1.868   4.398
23221WAT     H271766   0.383   1.773   4.338
23222WAT      O71767   1.439   1.690   4.515
23222WAT     H171768   1.521   1.641   4.519
23222WAT     H271769   1.442   1.749   4.590
23223WAT      O71770   0.239   1.970   4.892
23223WAT     H171771   0.307   1.997   4.954
23223WAT     H271772   0.207   1.886   4.925
23224WAT      O71773   0.658   2.075   4.801
23224WAT     H171774   0.709   2.125   4.865
23224WAT     H271775   0.711   1.997   4.783
23225WAT      O71776   1.868   1.892   5.171
23225WAT     H171777   1.798   1.931   5.119
23225WAT     H271778   1.895   1.962   5.231
23226WAT      O71779   0.486   1.539   5.227
23226WAT     H171780   0.486   1.591   5.147
23226WAT     H271781   0.403   1.491   5.225
23227WAT      O71782   1.125   2.550   4.377
23227WAT     H171783   1.063   2.597   4.321
23227WAT     H271784   1.176   2.620   4.419
23228WAT      O71785   0.611   2.503   5.045
23228WAT     H171786   0.578   2.566   5.109
23228WAT     H271787   0.629   2.556   4.967
23229WAT      O71788   1.463   1.884   4.792
23229WAT     H171789   1.392   1.913   4.850
23229WAT     H271790   1.499   1.965   4.756
23230WAT      O71791   0.454   1.710   5.028
23230WAT     H171792   0.489   1.795   4.999
23230WAT     H271793   0.361   1.725   5.040
23231WAT      O71794   0.533   2.700   5.227
23231WAT     H171795   0.594   2.767   5.198
23231WAT     H271796   0.446   2.741   5.217
23232WAT      O71797   1.624   2.846   5.018
23232WAT     H171798   1.556   2.913   5.017
23232WAT     H271799   1.678   2.866   4.942
23233WAT      O71800   1.770   1.829   4.831
23233WAT     H171801   1.675   1.832   4.844
23233WAT     H271802   1.802   1.910   4.869
23234WAT      O71803   0.823   1.459   4.660
23234WAT     H171804   0.853   1.403   4.589
23234WAT     H271805   0.730   1.472   4.642
23235WAT      O71806   1.378   3.031   4.890
23235WAT     H171807   1.379   2.990   4.803
23235WAT     H271808   1.323   3.108   4.879
23236WAT      O71809   1.507   2.703   4.398
23236WAT     H171810   1.496   2.609   4.411
23236WAT     H271811   1.507   2.739   4.487
23237WAT      O71812   1.318   2.521   5.022
23237WAT     H171813   1.359   2.500   4.939
23237WAT     H271814   1.390   2.547   5.079
23238WAT      O71815   1.062   2.265   4.334
23238WAT     H171816   0.969   2.259   4.357
23238WAT     H271817   1.077   2.359   4.323
23239WAT      O71818   1.060   1.893   4.034
23239WAT     H171819   0.966   1.909   4.042
23239WAT     H271820   1.092   1.965   3.979
23240WAT      O71821   1.712   2.361   5.032
23240WAT     H171822   1.630   2.368   4.984
23240WAT     H271823   1.772   2.419   4.985
23241WAT      O71824   1.465   2.422   4.384
23241WAT     H171825   1.403   2.388   4.320
23241WAT     H271826   1.463   2.357   4.455
23242WAT      O71827   1.409   2.040   5.126
23242WAT     H171828   1.367   2.122   5.151
23242WAT     H271829   1.336   1.981   5.107
23243WAT      O71830   0.622   2.318   4.612
23243WAT     H171831   0.582   2.247   4.563
23243WAT     H271832   0.631   2.284   4.701
23244WAT      O71833   0.669   2.687   4.829
23244WAT     H171834   0.639   2.626   4.761
23244WAT     H271835   0.764   2.691   4.818
23245WAT      O71836   0.493   1.996   4.990
23245WAT     H171837   0.549   2.007   4.913
23245WAT     H271838   0.545   2.033   5.062
23246WAT      O71839   1.478   3.044   5.195
23246WAT     H171840   1.430   3.125   5.176
23246WAT     H271841   1.409   2.979   5.210
23247WAT      O71842   0.578   2.661   5.494
23247WAT     H171843   0.488   2.683   5.518
23247WAT     H271844   0.581   2.673   5.399
23248WAT      O71845   1.282   2.346   4.085
23248WAT     H171846   1.326   2.262   4.071
23248WAT     H271847   1.353   2.409   4.094
23249WAT      O71848   0.461   2.348   5.351
23249WAT     H171849   0.447   2.435   5.388
23249WAT     H271850   0.373   2.313   5.337
23250WAT      O71851   1.093   2.840   4.482
23250WAT     H171852   1.137   2.914   4.441
23250WAT     H271853   1.087   2.864   4.574
23251WAT      O71854   0.641   2.942   5.572
23251WAT     H171855   0.638   2.982   5.485
23251WAT     H271856   0.624   2.849   5.556
23252WAT      O71857   1.640   1.471   3.917
23252WAT     H171858   1.609   1.480   4.007
23252WAT     H271859   1.716   1.529   3.912
23253WAT      O71860   0.292   2.208   4.362
23253WAT     H171861   0.280   2.280   4.301
23253WAT     H271862   0.261   2.131   4.315
23254WAT      O71863   1.836   3.020   5.702
23254WAT     H171864   1.883   3.068   5.770
23254WAT     H271865   1.898   3.013   5.629
23255WAT      O71866   0.180   2.695   4.584
23255WAT     H171867   0.140   2.709   4.499
23255WAT     H271868   0.270   2.666   4.564
23256WAT      O71869   1.776   2.739   5.418
23256WAT     H171870   1.789   2.715   5.326
23256WAT     H271871   1.780   2.656   5.465
23257WAT      O71872   1.162   3.110   5.275
23257WAT     H171873   1.214   3.101   5.355
23257WAT     H271874   1.078   3.144   5.304
23258WAT      O71875   1.360   3.138   4.218
23258WAT     H171876   1.344   3.109   4.307
23258WAT     H271877   1.343   3.061   4.164
23259WAT      O71878   0.608   3.116   4.395
23259WAT     H171879   0.590   3.025   4.374
23259WAT     H271880   0.522   3.152   4.419
23260WAT      O71881   1.330   2.889   4.074
23260WAT     H171882   1.261   2.889   4.008
23260WAT     H271883   1.404   2.847   4.031
23261WAT      O71884   1.287   3.052   4.481
23261WAT     H171885   1.332   2.974   4.512
23261WAT     H271886   1.321   3.123   4.535
23262WAT      O71887   1.761   1.945   5.514
23262WAT     H171888   1.700   1.995   5.461
23262WAT     H271889   1.729   1.855   5.509
23263WAT      O71890   0.539   1.542   4.701
23263WAT     H171891   0.494   1.620   4.667
23263WAT     H271892   0.595   1.574   4.771
23264WAT      O71893   0.967   1.829   5.261
23264WAT     H171894   0.921   1.849   5.342
23264WAT     H271895   0.927   1.747   5.231
23265WAT      O71896   1.468   1.951   5.374
23265WAT     H171897   1.382   1.921   5.406
23265WAT     H271898   1.452   1.975   5.283
23266WAT      O71899   1.177   2.101   5.584
23266WAT     H171900   1.210   2.017   5.550
23266WAT     H271901   1.256   2.153   5.599
23267WAT      O71902   0.850   1.504   4.189
23267WAT     H171903   0.788   1.504   4.261
23267WAT     H271904   0.842   1.417   4.149
23268WAT      O71905   0.743   1.596   4.886
23268WAT     H171906   0.772   1.687   4.878
23268WAT     H271907   0.797   1.548   4.825
23269WAT      O71908   0.518   2.054   4.473
23269WAT     H171909   0.495   2.033   4.564
23269WAT     H271910   0.440   2.098   4.439
23270WAT      O71911   1.241   2.055   4.333
23270WAT     H171912   1.181   2.127   4.315
23270WAT     H271913   1.296   2.049   4.255
23271WAT      O71914   0.762   2.144   5.540
23271WAT     H171915   0.752   2.050   5.525
23271WAT     H271916   0.846   2.166   5.500
23272WAT      O71917   1.102   1.919   4.536
23272WAT     H171918   1.141   1.950   4.455
23272WAT     H271919   1.138   1.831   4.548
23273WAT      O71920   0.275   1.785   5.355
23273WAT     H171921   0.236   1.870   5.376
23273WAT     H271922   0.206   1.722   5.374
23274WAT      O71923   0.932   1.794   5.662
23274WAT     H171924   0.863   1.774   5.726
23274WAT     H271925   1.007   1.822   5.716
23275WAT      O71926   1.160   2.178   4.946
23275WAT     H171927   1.087   2.228   4.981
23275WAT     H271928   1.120   2.096   4.916
23276WAT      O71929   0.804   1.845   4.786
23276WAT     H171930   0.804   1.801   4.701
23276WAT     H271931   0.893   1.877   4.797
23277WAT      O71932   0.389   1.833   4.682
23277WAT     H171933   0.355   1.881   4.758
23277WAT     H271934   0.313   1.788   4.646
23278WAT      O71935   0.810   1.945   4.085
23278WAT     H171936   0.822   1.941   4.180
23278WAT     H271937   0.772   2.031   4.070
23279WAT      O71938   1.206   1.723   4.887
23279WAT     H171939   1.208   1.768   4.971
23279WAT     H271940   1.182   1.633   4.908
23280WAT      O71941   0.711   2.176   4.025
23280WAT     H171942   0.654   2.131   3.963
23280WAT     H271943   0.782   2.212   3.972
23281WAT      O71944   1.549   1.464   5.471
23281WAT     H171945   1.582   1.391   5.524
23281WAT     H271946   1.553   1.432   5.381
23282WAT      O71947   0.219   2.566   5.413
23282WAT     H171948   0.181   2.502   5.473
23282WAT     H271949   0.250   2.637   5.470
23283WAT      O71950   0.834   2.251   4.961
23283WAT     H171951   0.871   2.204   5.036
23283WAT     H271952   0.815   2.339   4.995
23284WAT      O71953   0.613   2.155   5.193
23284WAT     H171954   0.583   2.243   5.215
23284WAT     H271955   0.708   2.161   5.196
23285WAT      O71956   0.466   2.576   4.253
23285WAT     H171957   0.388   2.522   4.237
23285WAT     H271958   0.539   2.524   4.219
23286WAT      O71959   1.542   2.476   4.832
23286WAT     H171960   1.614   2.525   4.793
23286WAT     H271961   1.521   2.408   4.767
23287WAT      O71962   1.088   1.615   4.246
23287WAT     H171963   1.006   1.565   4.239
23287WAT     H271964   1.068   1.699   4.204
23288WAT      O71965   1.080   2.483   5.420
23288WAT     H171966   1.073   2.391   5.395
23288WAT     H271967   1.017   2.492   5.492
23289WAT      O71968   1.359   2.052   4.076
23289WAT     H171969   1.448   2.083   4.058
23289WAT     H271970   1.356   1.965   4.037
23290WAT      O71971   0.470   2.543   4.616
23290WAT     H171972   0.522   2.462   4.611
23290WAT     H271973   0.425   2.536   4.700
23291WAT      O71974   0.959   2.669   4.144
23291WAT     H171975   0.993   2.744   4.094
23291WAT     H271976   0.876   2.701   4.180
23292WAT      O71977   0.219   2.239   5.308
23292WAT     H171978   0.183   2.306   5.366
23292WAT     H271979   0.189   2.156   5.345
23293WAT      O71980   0.539   2.285   5.596
23293WAT     H171981   0.509   2.300   5.506
23293WAT     H271982   0.616   2.229   5.587
23294WAT      O71983   1.073   2.765   5.396
23294WAT     H171984   1.074   2.672   5.374
23294WAT     H271985   1.002   2.773   5.459
23295WAT      O71986   1.586   2.183   4.022
23295WAT     H171987   1.578   2.226   3.937
23295WAT     H271988   1.658   2.229   4.066
23296WAT      O71989   1.694   2.429   5.330
23296WAT     H171990   1.622   2.488   5.310
23296WAT     H271991   1.747   2.428   5.250
23297WAT      O71992   1.689   2.869   4.295
23297WAT     H171993   1.625   2.803   4.323
23297WAT     H271994   1.651   2.909   4.218
23298WAT      O71995   1.247   2.601   4.680
23298WAT     H171996   1.282   2.542   4.614
23298WAT     H271997   1.159   2.569   4.697
23299WAT      O71998   0.856   2.677   4.421
23299WAT     H171999   0.924   2.732   4.459
23299WAT     H272000   0.777   2.732   4.424
23300WAT      O72001   0.786   2.378   4.382
23300WAT     H172002   0.832   2.459   4.405
23300WAT     H272003   0.751   2.346   4.465
23301WAT      O72004   1.016   2.929   5.105
23301WAT     H172005   1.081   2.950   5.173
23301WAT     H272006   1.053   2.853   5.060
23302WAT      O72007   0.376   1.412   4.429
23302WAT     H172008   0.363   1.411   4.524
23302WAT     H272009   0.294   1.446   4.394
23303WAT      O72010   1.144   2.729   4.977
23303WAT     H172011   1.208   2.659   4.988
23303WAT     H272012   1.196   2.807   4.959
23304WAT      O72013   1.528   2.758   3.949
23304WAT     H172014   1.506   2.686   4.008
23304WAT     H272015   1.489   2.733   3.865
23305WAT      O72016   1.321   2.809   5.297
23305WAT     H172017   1.355   2.868   5.365
23305WAT     H272018   1.229   2.796   5.320
23306WAT      O72019   1.486   2.550   4.115
23306WAT     H172020   1.458   2.596   4.194
23306WAT     H272021   1.566   2.503   4.142
23307WAT      O72022   0.904   2.814   5.614
23307WAT     H172023   0.872   2.742   5.668
23307WAT     H272024   0.837   2.882   5.621
23308WAT      O72025   0.708   2.899   4.108
23308WAT     H172026   0.707   2.972   4.047
23308WAT     H272027   0.616   2.874   4.118
23309WAT      O72028   0.268   2.421   4.183
23309WAT     H172029   0.207   2.495   4.184
23309WAT     H272030   0.316   2.430   4.100
23310WAT      O72031   1.225   1.837   5.150
23310WAT     H172032   1.262   1.755   5.183
23310WAT     H272033   1.139   1.843   5.192
23311WAT      O72034   1.562   1.733   4.231
23311WAT     H172035   1.499   1.743   4.160
23311WAT     H272036   1.513   1.755   4.310
23312WAT      O72037   1.007   2.905   3.975
23312WAT     H172038   1.017   2.885   3.882
23312WAT     H272039   0.917   2.880   3.995
23313WAT      O72040   0.759   1.961   4.373
23313WAT     H172041   0.688   2.008   4.417
23313WAT     H272042   0.787   1.895   4.436
23314WAT      O72043   0.921   2.103   5.173
23314WAT     H172044   0.971   2.150   5.239
23314WAT     H272045   0.936   2.010   5.193
23315WAT      O72046   1.162   1.633   4.517
23315WAT     H172047   1.150   1.635   4.422
23315WAT     H272048   1.257   1.638   4.529
23316WAT      O72049   0.871   3.157   4.444
23316WAT     H172050   0.896   3.153   4.352
23316WAT     H272051   0.776   3.144   4.443
23317WAT      O72052   0.579   1.792   4.110
23317WAT     H172053   0.664   1.835   4.104
23317WAT     H272054   0.543   1.823   4.193
23318WAT      O72055   1.642   1.724   5.257
23318WAT     H172056   1.592   1.799   5.291
23318WAT     H272057   1.724   1.763   5.225
23319WAT      O72058   1.471   2.249   4.602
23319WAT     H172059   1.377   2.250   4.619
23319WAT     H272060   1.503   2.170   4.646
23320WAT      O72061   0.469   2.417   3.958
23320WAT     H172062   0.546   2.406   4.014
23320WAT     H272063   0.477   2.347   3.892
23321WAT      O72064   0.339   2.160   4.026
23321WAT     H172065   0.347   2.066   4.037
23321WAT     H272066   0.428   2.193   4.037
23322WAT      O72067   1.672   2.966   4.769
23322WAT     H172068   1.684   3.048   4.816
23322WAT     H272069   1.758   2.945   4.734
23323WAT      O72070   0.419   3.175   4.736
23323WAT     H172071   0.492   3.120   4.763
23323WAT     H272072   0.457   3.262   4.722
23324WAT      O72073   0.319   3.094   5.655
23324WAT     H172074   0.400   3.126   5.696
23324WAT     H272075   0.268   3.058   5.727
23325WAT      O72076   0.730   3.093   3.919
23325WAT     H172077   0.809   3.121   3.873
23325WAT     H272078   0.678   3.049   3.851
23326WAT      O72079   1.203   2.704   5.650
23326WAT     H172080   1.142   2.707   5.576
23326WAT     H272081   1.173   2.631   5.704
23327WAT      O72082   1.346   3.077   5.511
23327WAT     H172083   1.441   3.069   5.506
23327WAT     H272084   1.331   3.144   5.578
23328WAT      O72085   1.635   3.015   4.061
23328WAT     H172086   1.607   2.974   3.979
23328WAT     H272087   1.615   3.108   4.049
23329WAT      O72088   0.782   2.615   3.905
23329WAT     H172089   0.771   2.553   3.978
23329WAT     H272090   0.765   2.562   3.827
23330WAT      O72091   0.797   2.483   5.503
23330WAT     H172092   0.720   2.540   5.494
23330WAT     H272093   0.815   2.454   5.414
23331WAT      O72094   1.106   2.521   3.965
23331WAT     H172095   1.051   2.565   4.030
23331WAT     H272096   1.168   2.470   4.018
23332WAT      O72097   1.511   2.656   5.559
23332WAT     H172098   1.585   2.690   5.508
23332WAT     H272099   1.435   2.673   5.503
23333WAT      O72100   0.295   2.157   5.639
23333WAT     H172101   0.299   2.127   5.730
23333WAT     H272102   0.380   2.197   5.623
23334WAT      O72103   0.672   2.417   4.155
23334WAT     H172104   0.715   2.400   4.239
23334WAT     H272105   0.685   2.336   4.106
23335WAT      O72106   0.489   2.015   5.436
23335WAT     H172107   0.436   1.966   5.373
23335WAT     H272108   0.556   2.057   5.382
23336WAT      O72109   0.924   2.319   3.880
23336WAT     H172110   0.976   2.248   3.843
23336WAT     H272111   0.988   2.383   3.910
23337WAT      O72112   1.378   2.461   5.412
23337WAT     H172113   1.420   2.477   5.497
23337WAT     H272114   1.285   2.474   5.428
23338WAT      O72115   1.426   2.195   5.613
23338WAT     H172116   1.484   2.120   5.604
23338WAT     H272117   1.443   2.248   5.535
23339WAT      O72118   0.537   1.711   5.444
23339WAT     H172119   0.528   1.649   5.371
23339WAT     H272120   0.479   1.784   5.421
23340WAT      O72121   0.814   1.567   5.147
23340WAT     H172122   0.769   1.569   5.062
23340WAT     H272123   0.751   1.527   5.207
23341WAT      O72124   0.855   2.457   5.209
23341WAT     H172125   0.896   2.541   5.192
23341WAT     H272126   0.763   2.470   5.186
23342WAT      O72127   1.088   2.230   5.348
23342WAT     H172128   1.100   2.170   5.421
23342WAT     H272129   1.174   2.233   5.306
23343WAT      O72130   1.322   2.285   5.205
23343WAT     H172131   1.269   2.337   5.145
23343WAT     H272132   1.356   2.348   5.268
23344WAT      O72133   0.562   2.024   3.850
23344WAT     H172134   0.542   1.938   3.886
23344WAT     H272135   0.545   2.015   3.756
23345WAT      O72136   0.640   3.087   5.321
23345WAT     H172137   0.586   3.160   5.289
23345WAT     H272138   0.665   3.039   5.242
23346WAT      O72139   0.765   1.884   5.473
23346WAT     H172140   0.824   1.853   5.542
23346WAT     H272141   0.683   1.837   5.489
23347WAT      O72142   1.247   1.846   5.497
23347WAT     H172143   1.178   1.779   5.490
23347WAT     H272144   1.319   1.801   5.541
23348WAT      O72145   1.310   1.505   4.102
23348WAT     H172146   1.338   1.421   4.138
23348WAT     H272147   1.233   1.528   4.154
23349WAT      O72148   0.442   1.734   3.848
23349WAT     H172149   0.472   1.735   3.758
23349WAT     H272150   0.516   1.699   3.898
23350WAT      O72151   0.925   3.211   5.347
23350WAT     H172152   0.918   3.301   5.377
23350WAT     H272153   0.835   3.179   5.344
23351WAT      O72154   0.764   1.628   3.947
23351WAT     H172155   0.729   1.561   3.889
23351WAT     H272156   0.784   1.582   4.028
23352WAT      O72157   0.980   3.127   4.109
23352WAT     H172158   1.070   3.161   4.111
23352WAT     H272159   0.983   3.055   4.046
23353WAT      O72160   0.344   2.664   3.932
23353WAT     H172161   0.388   2.719   3.997
23353WAT     H272162   0.393   2.582   3.933
23354WAT      O72163   0.525   2.776   4.443
23354WAT     H172164   0.495   2.764   4.533
23354WAT     H272165   0.515   2.691   4.402
23355WAT      O72166   1.678   2.980   5.379
23355WAT     H172167   1.618   2.986   5.305
23355WAT     H272168   1.691   2.886   5.392
23356WAT      O72169   1.802   2.754   3.913
23356WAT     H172170   1.719   2.761   3.960
23356WAT     H272171   1.820   2.843   3.883
23357WAT      O72172   1.748   2.429   4.164
23357WAT     H172173   1.824   2.486   4.174
23357WAT     H272174   1.749   2.372   4.241
23358WAT      O72175   1.848   2.514   4.648
23358WAT     H172176   1.885   2.436   4.607
23358WAT     H272177   1.912   2.583   4.630
23359WAT      O72178   1.547   2.653   5.189
23359WAT     H172179   1.465   2.696   5.216
23359WAT     H272180   1.587   2.714   5.128
23360WAT      O72181   1.753   2.458   3.879
23360WAT     H172182   1.780   2.549   3.866
23360WAT     H272183   1.734   2.452   3.973
23361WAT      O72184   1.393   1.761   4.009
23361WAT     H172185   1.434   1.742   3.925
23361WAT     H272186   1.362   1.675   4.040
23362WAT      O72187   1.743   2.252   4.379
23362WAT     H172188   1.705   2.175   4.335
23362WAT     H272189   1.670   2.290   4.427
23363WAT      O72190   0.201   2.320   5.041
23363WAT     H172191   0.238   2.311   5.129
23363WAT     H272192   0.145   2.243   5.031
23364WAT      O72193   1.682   2.167   5.342
23364WAT     H172194   1.658   2.144   5.252
23364WAT     H272195   1.708   2.259   5.337
23365WAT      O72196   1.525   1.689   5.620
23365WAT     H172197   1.613   1.690   5.658
23365WAT     H272198   1.527   1.615   5.559
23366WAT      O72199   1.670   2.074   4.709
23366WAT     H172200   1.722   2.025   4.646
23366WAT     H272201   1.729   2.088   4.783
23367WAT      O72202   1.688   2.083   5.061
23367WAT     H172203   1.593   2.079   5.072
23367WAT     H272204   1.706   2.174   5.037
23368WAT      O72205   0.273   1.908   3.972
23368WAT     H172206   0.344   1.866   3.923
23368WAT     H272207   0.202   1.915   3.909
23369WAT      O72208   0.238   1.513   3.876
23369WAT     H172209   0.310   1.567   3.908
23369WAT     H272210   0.265   1.486   3.788
23370WAT      O72211   1.619   2.000   4.303
23370WAT     H172212   1.669   1.977   4.381
23370WAT     H272213   1.599   1.916   4.261
23371WAT      O72214   0.207   1.438   4.866
23371WAT     H172215   0.272   1.383   4.822
23371WAT     H272216   0.249   1.464   4.948
23372WAT      O72217   1.762   1.864   4.556
23372WAT     H172218   1.751   1.848   4.650
23372WAT     H272219   1.838   1.811   4.532
23373WAT      O72220   1.597   1.458   5.202
23373WAT     H172221   1.660   1.519   5.238
23373WAT     H272222   1.611   1.461   5.107
23374WAT      O72223   1.851   1.647   3.880
23374WAT     H172224   1.943   1.634   3.859
23374WAT     H272225   1.849   1.655   3.975
23375WAT      O72226   1.858   1.724   4.143
23375WAT     H172227   1.779   1.717   4.195
23375WAT     H272228   1.879   1.818   4.141
23376WAT      O72229   1.552   3.128   4.542
23376WAT     H172230   1.612   3.096   4.474
23376WAT     H272231   1.578   3.081   4.621
23377WAT      O72232   0.182   1.454   5.140
23377WAT     H172233   0.147   1.500   5.217
23377WAT     H272234   0.149   1.364   5.149
23378WAT      O72235   0.343   2.771   5.557
23378WAT     H172236   0.339   2.734   5.645
23378WAT     H272237   0.356   2.865   5.571
23379WAT      O72238   0.713   2.927   5.117
23379WAT     H172239   0.689   2.953   5.028
23379WAT     H272240   0.807   2.944   5.122
23380WAT      O72241   0.934   1.573   5.493
23380WAT     H172242   0.927   1.632   5.567
23380WAT     H272243   1.028   1.562   5.478
23381WAT      O72244   1.197   1.539   5.456
23381WAT     H172245   1.259   1.571   5.390
23381WAT     H272246   1.252   1.490   5.518
23382WAT      O72247   1.839   3.129   5.197
23382WAT     H172248   1.790   3.168   5.125
23382WAT     H272249   1.778   3.066   5.236
23383WAT      O72250   0.250   1.407   5.468
23383WAT     H172251   0.304   1.389   5.391
23383WAT     H272252   0.256   1.328   5.521
23384WAT      O72253   0.327   3.066   5.269
23384WAT     H172254   0.267   3.053   5.343
23384WAT     H272255   0.326   2.982   5.222
23385WAT      O72256   1.271   1.395   5.089
23385WAT     H172257   1.184   1.428   5.069
23385WAT     H272258   1.261   1.348   5.172
23386WAT      O72259   1.362   1.616   5.228
23386WAT     H172260   1.329   1.534   5.190
23386WAT     H272261   1.457   1.611   5.215
23387WAT      O72262   1.607   3.193   4.925
23387WAT     H172263   1.562   3.268   4.887
23387WAT     H272264   1.545   3.121   4.919
23388WAT      O72265   0.290   2.802   5.164
23388WAT     H172266   0.217   2.740   5.157
23388WAT     H272267   0.296   2.842   5.077
23389WAT      O72268   0.650   3.024   4.842
23389WAT     H172269   0.702   2.963   4.790
23389WAT     H272270   0.715   3.074   4.892
23390WAT      O72271   0.924   3.113   4.925
23390WAT     H172272   0.953   3.087   4.837
23390WAT     H272273   0.976   3.058   4.984
23391WAT      O72274   1.046   1.487   4.983
23391WAT     H172275   0.968   1.534   5.011
23391WAT     H272276   1.017   1.396   4.972
23392WAT      O72277   1.501   1.557   4.788
23392WAT     H172278   1.545   1.551   4.703
23392WAT     H272279   1.474   1.649   4.795
23393WAT      O72280   1.688   1.520   4.589
23393WAT     H172281   1.682   1.426   4.574
23393WAT     H272282   1.766   1.531   4.643
23394WAT      O72283   0.181   1.517   4.235
23394WAT     H172284   0.256   1.528   4.178
23394WAT     H272285   0.134   1.601   4.231
23395WAT      O72286   0.835   1.729   4.534
23395WAT     H172287   0.753   1.691   4.500
23395WAT     H272288   0.885   1.653   4.564
23396WAT      O72289   1.285   1.395   4.658
23396WAT     H172290   1.345   1.452   4.706
23396WAT     H272291   1.211   1.451   4.636
23397WAT      O72292   1.599   1.435   4.185
23397WAT     H172293   1.619   1.525   4.212
23397WAT     H272294   1.521   1.412   4.235
23398WAT      O72295   0.279   3.003   4.229
23398WAT     H172296   0.226   3.041   4.159
23398WAT     H272297   0.271   3.066   4.301
23399WAT      O72298   0.418   1.570   4.089
23399WAT     H172299   0.471   1.491   4.076
23399WAT     H272300   0.481   1.638   4.113
23400WAT      O72301   0.637   1.544   4.395
23400WAT     H172302   0.574   1.473   4.411
23400WAT     H272303   0.583   1.620   4.373
23401WAT      O72304   0.931   3.205   5.662
23401WAT     H172305   1.024   3.181   5.666
23401WAT     H272306   0.930   3.288   5.614
23402WAT      O72307   1.755   3.159   4.362
23402WAT     H172308   1.772   3.091   4.297
23402WAT     H272309   1.685   3.212   4.322
23403WAT      O72310   0.650   1.471   5.638
23403WAT     H172311   0.622   1.522   5.562
23403WAT     H272312   0.688   1.392   5.602
23404WAT      O72313   0.539   3.198   4.117
23404WAT     H172314   0.612   3.170   4.062
23404WAT     H272315   0.565   3.174   4.206
23405WAT      O72316   0.455   2.810   4.117
23405WAT     H172317   0.392   2.857   4.172
23405WAT     H272318   0.466   2.725   4.161
23406WAT      O72319   1.310   1.413   5.696
23406WAT     H172320   1.299   1.445   5.786
23406WAT     H272321   1.392   1.453   5.666
23407WAT      O72322   1.588   3.128   5.644
23407WAT     H172323   1.667   3.078   5.623
23407WAT     H272324   1.617   3.196   5.705
23408WAT      O72325   1.200   2.215   2.732
23408WAT     H172326   1.192   2.123   2.705
23408WAT     H272327   1.159   2.265   2.662
23409WAT      O72328   1.014   2.393   2.920
23409WAT     H172329   0.936   2.345   2.949
23409WAT     H272330   1.079   2.325   2.903
23410WAT      O72331   0.415   2.424   3.008
23410WAT     H172332   0.332   2.398   3.048
23410WAT     H272333   0.476   2.431   3.082
23411WAT      O72334   1.416   2.833   2.798
23411WAT     H172335   1.370   2.756   2.831
23411WAT     H272336   1.497   2.836   2.849
23412WAT      O72337   0.413   2.827   3.028
23412WAT     H172338   0.444   2.738   3.010
23412WAT     H272339   0.488   2.883   3.005
23413WAT      O72340   0.256   1.920   2.387
23413WAT     H172341   0.167   1.954   2.376
23413WAT     H272342   0.285   1.900   2.297
23414WAT      O72343   1.038   3.062   2.760
23414WAT     H172344   0.976   3.107   2.703
23414WAT     H272345   1.124   3.077   2.720
23415WAT      O72346   0.958   2.660   2.921
23415WAT     H172347   0.951   2.566   2.905
23415WAT     H272348   1.034   2.669   2.978
23416WAT      O72349   0.177   1.721   3.154
23416WAT     H172350   0.159   1.631   3.182
23416WAT     H272351   0.137   1.776   3.221
23417WAT      O72352   1.061   1.941   2.944
23417WAT     H172353   1.098   1.854   2.933
23417WAT     H272354   1.051   1.975   2.855
23418WAT      O72355   0.474   1.778   2.490
23418WAT     H172356   0.485   1.868   2.521
23418WAT     H272357   0.383   1.773   2.461
23419WAT      O72358   1.439   1.690   2.637
23419WAT     H172359   1.521   1.641   2.641
23419WAT     H272360   1.442   1.749   2.712
23420WAT      O72361   0.239   1.970   3.015
23420WAT     H172362   0.307   1.997   3.076
23420WAT     H272363   0.207   1.886   3.048
23421WAT      O72364   0.658   2.075   2.923
23421WAT     H172365   0.709   2.125   2.987
23421WAT     H272366   0.711   1.997   2.906
23422WAT      O72367   1.868   1.892   3.294
23422WAT     H172368   1.798   1.931   3.242
23422WAT     H272369   1.895   1.962   3.354
23423WAT      O72370   0.486   1.539   3.350
23423WAT     H172371   0.486   1.591   3.269
23423WAT     H272372   0.403   1.491   3.348
23424WAT      O72373   1.125   2.550   2.500
23424WAT     H172374   1.063   2.597   2.443
23424WAT     H272375   1.176   2.620   2.541
23425WAT      O72376   0.611   2.503   3.168
23425WAT     H172377   0.578   2.566   3.232
23425WAT     H272378   0.629   2.556   3.090
23426WAT      O72379   1.463   1.884   2.914
23426WAT     H172380   1.392   1.913   2.972
23426WAT     H272381   1.499   1.965   2.878
23427WAT      O72382   0.454   1.710   3.151
23427WAT     H172383   0.489   1.795   3.121
23427WAT     H272384   0.361   1.725   3.162
23428WAT      O72385   0.533   2.700   3.349
23428WAT     H172386   0.594   2.767   3.321
23428WAT     H272387   0.446   2.741   3.340
23429WAT      O72388   1.624   2.846   3.141
23429WAT     H172389   1.556   2.913   3.140
23429WAT     H272390   1.678   2.866   3.064
23430WAT      O72391   1.770   1.829   2.953
23430WAT     H172392   1.675   1.832   2.967
23430WAT     H272393   1.802   1.910   2.992
23431WAT      O72394   0.823   1.459   2.783
23431WAT     H172395   0.853   1.403   2.711
23431WAT     H272396   0.730   1.472   2.765
23432WAT      O72397   1.378   3.031   3.012
23432WAT     H172398   1.379   2.990   2.925
23432WAT     H272399   1.323   3.108   3.002
23433WAT      O72400   1.507   2.703   2.521
23433WAT     H172401   1.496   2.609   2.534
23433WAT     H272402   1.507   2.739   2.610
23434WAT      O72403   1.318   2.521   3.145
23434WAT     H172404   1.359   2.500   3.061
23434WAT     H272405   1.390   2.547   3.202
23435WAT      O72406   1.062   2.265   2.457
23435WAT     H172407   0.969   2.259   2.480
23435WAT     H272408   1.077   2.359   2.445
23436WAT      O72409   1.060   1.893   2.156
23436WAT     H172410   0.966   1.909   2.165
23436WAT     H272411   1.092   1.965   2.102
23437WAT      O72412   1.712   2.361   3.154
23437WAT     H172413   1.630   2.368   3.107
23437WAT     H272414   1.772   2.419   3.107
23438WAT      O72415   1.465   2.422   2.507
23438WAT     H172416   1.403   2.388   2.442
23438WAT     H272417   1.463   2.357   2.578
23439WAT      O72418   1.409   2.040   3.249
23439WAT     H172419   1.367   2.122   3.274
23439WAT     H272420   1.336   1.981   3.229
23440WAT      O72421   0.622   2.318   2.735
23440WAT     H172422   0.582   2.247   2.685
23440WAT     H272423   0.631   2.284   2.824
23441WAT      O72424   0.669   2.687   2.951
23441WAT     H172425   0.639   2.626   2.883
23441WAT     H272426   0.764   2.691   2.940
23442WAT      O72427   0.493   1.996   3.113
23442WAT     H172428   0.549   2.007   3.035
23442WAT     H272429   0.545   2.033   3.184
23443WAT      O72430   1.478   3.044   3.317
23443WAT     H172431   1.430   3.125   3.298
23443WAT     H272432   1.409   2.979   3.333
23444WAT      O72433   0.578   2.661   3.616
23444WAT     H172434   0.488   2.683   3.641
23444WAT     H272435   0.581   2.673   3.521
23445WAT      O72436   1.282   2.346   2.208
23445WAT     H172437   1.326   2.262   2.193
23445WAT     H272438   1.353   2.409   2.216
23446WAT      O72439   0.461   2.348   3.474
23446WAT     H172440   0.447   2.435   3.511
23446WAT     H272441   0.373   2.313   3.459
23447WAT      O72442   1.093   2.840   2.605
23447WAT     H172443   1.137   2.914   2.563
23447WAT     H272444   1.087   2.864   2.697
23448WAT      O72445   0.641   2.942   3.695
23448WAT     H172446   0.638   2.982   3.608
23448WAT     H272447   0.624   2.849   3.678
23449WAT      O72448   1.640   1.471   2.039
23449WAT     H172449   1.609   1.480   2.129
23449WAT     H272450   1.716   1.529   2.034
23450WAT      O72451   0.292   2.208   2.485
23450WAT     H172452   0.280   2.280   2.424
23450WAT     H272453   0.261   2.131   2.437
23451WAT      O72454   1.836   3.020   3.824
23451WAT     H172455   1.883   3.068   3.892
23451WAT     H272456   1.898   3.013   3.752
23452WAT      O72457   0.180   2.695   2.707
23452WAT     H172458   0.140   2.709   2.621
23452WAT     H272459   0.270   2.666   2.686
23453WAT      O72460   1.776   2.739   3.540
23453WAT     H172461   1.789   2.715   3.449
23453WAT     H272462   1.780   2.656   3.588
23454WAT      O72463   1.162   3.110   3.397
23454WAT     H172464   1.214   3.101   3.478
23454WAT     H272465   1.078   3.144   3.427
23455WAT      O72466   1.360   3.138   2.340
23455WAT     H172467   1.344   3.109   2.430
23455WAT     H272468   1.343   3.061   2.287
23456WAT      O72469   0.608   3.116   2.518
23456WAT     H172470   0.590   3.025   2.497
23456WAT     H272471   0.522   3.152   2.542
23457WAT      O72472   1.330   2.889   2.196
23457WAT     H172473   1.261   2.889   2.130
23457WAT     H272474   1.404   2.847   2.153
23458WAT      O72475   1.287   3.052   2.604
23458WAT     H172476   1.332   2.974   2.635
23458WAT     H272477   1.321   3.123   2.658
23459WAT      O72478   1.761   1.945   3.637
23459WAT     H172479   1.700   1.995   3.584
23459WAT     H272480   1.729   1.855   3.631
23460WAT      O72481   0.539   1.542   2.823
23460WAT     H172482   0.494   1.620   2.790
23460WAT     H272483   0.595   1.574   2.894
23461WAT      O72484   0.967   1.829   3.383
23461WAT     H172485   0.921   1.849   3.465
23461WAT     H272486   0.927   1.747   3.353
23462WAT      O72487   1.468   1.951   3.496
23462WAT     H172488   1.382   1.921   3.529
23462WAT     H272489   1.452   1.975   3.405
23463WAT      O72490   1.177   2.101   3.706
23463WAT     H172491   1.210   2.017   3.672
23463WAT     H272492   1.256   2.153   3.721
23464WAT      O72493   0.850   1.504   2.311
23464WAT     H172494   0.788   1.504   2.384
23464WAT     H272495   0.842   1.417   2.272
23465WAT      O72496   0.743   1.596   3.009
23465WAT     H172497   0.772   1.687   3.001
23465WAT     H272498   0.797   1.548   2.948
23466WAT      O72499   0.518   2.054   2.596
23466WAT     H172500   0.495   2.033   2.686
23466WAT     H272501   0.440   2.098   2.561
23467WAT      O72502   1.241   2.055   2.456
23467WAT     H172503   1.181   2.127   2.437
23467WAT     H272504   1.296   2.049   2.378
23468WAT      O72505   0.762   2.144   3.663
23468WAT     H172506   0.752   2.050   3.648
23468WAT     H272507   0.846   2.166   3.623
23469WAT      O72508   1.102   1.919   2.659
23469WAT     H172509   1.141   1.950   2.578
23469WAT     H272510   1.138   1.831   2.670
23470WAT      O72511   0.275   1.785   3.478
23470WAT     H172512   0.236   1.870   3.499
23470WAT     H272513   0.206   1.722   3.497
23471WAT      O72514   0.932   1.794   3.785
23471WAT     H172515   0.863   1.774   3.848
23471WAT     H272516   1.007   1.822   3.838
23472WAT      O72517   1.160   2.178   3.068
23472WAT     H172518   1.087   2.228   3.103
23472WAT     H272519   1.120   2.096   3.038
23473WAT      O72520   0.804   1.845   2.909
23473WAT     H172521   0.804   1.801   2.824
23473WAT     H272522   0.893   1.877   2.920
23474WAT      O72523   0.389   1.833   2.805
23474WAT     H172524   0.355   1.881   2.881
23474WAT     H272525   0.313   1.788   2.769
23475WAT      O72526   0.810   1.945   2.208
23475WAT     H172527   0.822   1.941   2.303
23475WAT     H272528   0.772   2.031   2.192
23476WAT      O72529   1.206   1.723   3.010
23476WAT     H172530   1.208   1.768   3.094
23476WAT     H272531   1.182   1.633   3.031
23477WAT      O72532   0.711   2.176   2.148
23477WAT     H172533   0.654   2.131   2.085
23477WAT     H272534   0.782   2.212   2.094
23478WAT      O72535   1.549   1.464   3.593
23478WAT     H172536   1.582   1.391   3.646
23478WAT     H272537   1.553   1.432   3.503
23479WAT      O72538   0.219   2.566   3.535
23479WAT     H172539   0.181   2.502   3.595
23479WAT     H272540   0.250   2.637   3.592
23480WAT      O72541   0.834   2.251   3.084
23480WAT     H172542   0.871   2.204   3.158
23480WAT     H272543   0.815   2.339   3.118
23481WAT      O72544   0.613   2.155   3.315
23481WAT     H172545   0.583   2.243   3.338
23481WAT     H272546   0.708   2.161   3.319
23482WAT      O72547   0.466   2.576   2.375
23482WAT     H172548   0.388   2.522   2.359
23482WAT     H272549   0.539   2.524   2.341
23483WAT      O72550   1.542   2.476   2.954
23483WAT     H172551   1.614   2.525   2.915
23483WAT     H272552   1.521   2.408   2.890
23484WAT      O72553   1.088   1.615   2.369
23484WAT     H172554   1.006   1.565   2.361
23484WAT     H272555   1.068   1.699   2.327
23485WAT      O72556   1.080   2.483   3.543
23485WAT     H172557   1.073   2.391   3.518
23485WAT     H272558   1.017   2.492   3.614
23486WAT      O72559   1.359   2.052   2.198
23486WAT     H172560   1.448   2.083   2.181
23486WAT     H272561   1.356   1.965   2.159
23487WAT      O72562   0.470   2.543   2.739
23487WAT     H172563   0.522   2.462   2.733
23487WAT     H272564   0.425   2.536   2.823
23488WAT      O72565   0.959   2.669   2.266
23488WAT     H172566   0.993   2.744   2.217
23488WAT     H272567   0.876   2.701   2.302
23489WAT      O72568   0.219   2.239   3.430
23489WAT     H172569   0.183   2.306   3.489
23489WAT     H272570   0.189   2.156   3.467
23490WAT      O72571   0.539   2.285   3.719
23490WAT     H172572   0.509   2.300   3.629
23490WAT     H272573   0.616   2.229   3.709
23491WAT      O72574   1.073   2.765   3.518
23491WAT     H172575   1.074   2.672   3.496
23491WAT     H272576   1.002   2.773   3.582
23492WAT      O72577   1.586   2.183   2.145
23492WAT     H172578   1.578   2.226   2.060
23492WAT     H272579   1.658   2.229   2.188
23493WAT      O72580   1.694   2.429   3.453
23493WAT     H172581   1.622   2.488   3.433
23493WAT     H272582   1.747   2.428   3.373
23494WAT      O72583   1.689   2.869   2.418
23494WAT     H172584   1.625   2.803   2.445
23494WAT     H272585   1.651   2.909   2.340
23495WAT      O72586   1.247   2.601   2.803
23495WAT     H172587   1.282   2.542   2.737
23495WAT     H272588   1.159   2.569   2.820
23496WAT      O72589   0.856   2.677   2.543
23496WAT     H172590   0.924   2.732   2.581
23496WAT     H272591   0.777   2.732   2.547
23497WAT      O72592   0.786   2.378   2.505
23497WAT     H172593   0.832   2.459   2.527
23497WAT     H272594   0.751   2.346   2.588
23498WAT      O72595   1.016   2.929   3.227
23498WAT     H172596   1.081   2.950   3.295
23498WAT     H272597   1.053   2.853   3.182
23499WAT      O72598   0.376   1.412   2.552
23499WAT     H172599   0.363   1.411   2.647
23499WAT     H272600   0.294   1.446   2.517
23500WAT      O72601   1.144   2.729   3.099
23500WAT     H172602   1.208   2.659   3.111
23500WAT     H272603   1.196   2.807   3.081
23501WAT      O72604   1.528   2.758   2.072
23501WAT     H172605   1.506   2.686   2.131
23501WAT     H272606   1.489   2.733   1.988
23502WAT      O72607   1.321   2.809   3.420
23502WAT     H172608   1.355   2.868   3.487
23502WAT     H272609   1.229   2.796   3.443
23503WAT      O72610   1.486   2.550   2.238
23503WAT     H172611   1.458   2.596   2.317
23503WAT     H272612   1.566   2.503   2.265
23504WAT      O72613   0.904   2.814   3.736
23504WAT     H172614   0.872   2.742   3.791
23504WAT     H272615   0.837   2.882   3.744
23505WAT      O72616   0.708   2.899   2.231
23505WAT     H172617   0.707   2.972   2.169
23505WAT     H272618   0.616   2.874   2.240
23506WAT      O72619   0.268   2.421   2.305
23506WAT     H172620   0.207   2.495   2.306
23506WAT     H272621   0.316   2.430   2.223
23507WAT      O72622   1.225   1.837   3.273
23507WAT     H172623   1.262   1.755   3.306
23507WAT     H272624   1.139   1.843   3.314
23508WAT      O72625   1.562   1.733   2.354
23508WAT     H172626   1.499   1.743   2.282
23508WAT     H272627   1.513   1.755   2.433
23509WAT      O72628   1.007   2.905   2.097
23509WAT     H172629   1.017   2.885   2.004
23509WAT     H272630   0.917   2.880   2.118
23510WAT      O72631   0.759   1.961   2.495
23510WAT     H172632   0.688   2.008   2.539
23510WAT     H272633   0.787   1.895   2.559
23511WAT      O72634   0.921   2.103   3.295
23511WAT     H172635   0.971   2.150   3.362
23511WAT     H272636   0.936   2.010   3.316
23512WAT      O72637   1.162   1.633   2.639
23512WAT     H172638   1.150   1.635   2.544
23512WAT     H272639   1.257   1.638   2.651
23513WAT      O72640   0.871   3.157   2.567
23513WAT     H172641   0.896   3.153   2.474
23513WAT     H272642   0.776   3.144   2.566
23514WAT      O72643   0.579   1.792   2.233
23514WAT     H172644   0.664   1.835   2.226
23514WAT     H272645   0.543   1.823   2.316
23515WAT      O72646   1.642   1.724   3.380
23515WAT     H172647   1.592   1.799   3.413
23515WAT     H272648   1.724   1.763   3.348
23516WAT      O72649   1.471   2.249   2.724
23516WAT     H172650   1.377   2.250   2.742
23516WAT     H272651   1.503   2.170   2.769
23517WAT      O72652   0.469   2.417   2.080
23517WAT     H172653   0.546   2.406   2.136
23517WAT     H272654   0.477   2.347   2.015
23518WAT      O72655   0.339   2.160   2.149
23518WAT     H172656   0.347   2.066   2.160
23518WAT     H272657   0.428   2.193   2.159
23519WAT      O72658   1.672   2.966   2.892
23519WAT     H172659   1.684   3.048   2.939
23519WAT     H272660   1.758   2.945   2.857
23520WAT      O72661   0.419   3.175   2.859
23520WAT     H172662   0.492   3.120   2.886
23520WAT     H272663   0.457   3.262   2.845
23521WAT      O72664   0.319   3.094   3.778
23521WAT     H172665   0.400   3.126   3.819
23521WAT     H272666   0.268   3.058   3.850
23522WAT      O72667   0.730   3.093   2.041
23522WAT     H172668   0.809   3.121   1.996
23522WAT     H272669   0.678   3.049   1.973
23523WAT      O72670   1.203   2.704   3.772
23523WAT     H172671   1.142   2.707   3.698
23523WAT     H272672   1.173   2.631   3.826
23524WAT      O72673   1.346   3.077   3.634
23524WAT     H172674   1.441   3.069   3.629
23524WAT     H272675   1.331   3.144   3.701
23525WAT      O72676   1.635   3.015   2.183
23525WAT     H172677   1.607   2.974   2.102
23525WAT     H272678   1.615   3.108   2.171
23526WAT      O72679   0.782   2.615   2.028
23526WAT     H172680   0.771   2.553   2.100
23526WAT     H272681   0.765   2.562   1.949
23527WAT      O72682   0.797   2.483   3.625
23527WAT     H172683   0.720   2.540   3.617
23527WAT     H272684   0.815   2.454   3.536
23528WAT      O72685   1.106   2.521   2.088
23528WAT     H172686   1.051   2.565   2.152
23528WAT     H272687   1.168   2.470   2.140
23529WAT      O72688   1.511   2.656   3.681
23529WAT     H172689   1.585   2.690   3.631
23529WAT     H272690   1.435   2.673   3.626
23530WAT      O72691   0.295   2.157   3.762
23530WAT     H172692   0.299   2.127   3.852
23530WAT     H272693   0.380   2.197   3.746
23531WAT      O72694   0.672   2.417   2.278
23531WAT     H172695   0.715   2.400   2.362
23531WAT     H272696   0.685   2.336   2.228
23532WAT      O72697   0.489   2.015   3.558
23532WAT     H172698   0.436   1.966   3.496
23532WAT     H272699   0.556   2.057   3.505
23533WAT      O72700   0.924   2.319   2.002
23533WAT     H172701   0.976   2.248   1.966
23533WAT     H272702   0.988   2.383   2.032
23534WAT      O72703   1.378   2.461   3.535
23534WAT     H172704   1.420   2.477   3.620
23534WAT     H272705   1.285   2.474   3.551
23535WAT      O72706   1.426   2.195   3.735
23535WAT     H172707   1.484   2.120   3.726
23535WAT     H272708   1.443   2.248   3.657
23536WAT      O72709   0.537   1.711   3.566
23536WAT     H172710   0.528   1.649   3.494
23536WAT     H272711   0.479   1.784   3.544
23537WAT      O72712   0.814   1.567   3.270
23537WAT     H172713   0.769   1.569   3.185
23537WAT     H272714   0.751   1.527   3.329
23538WAT      O72715   0.855   2.457   3.332
23538WAT     H172716   0.896   2.541   3.314
23538WAT     H272717   0.763   2.470   3.309
23539WAT      O72718   1.088   2.230   3.470
23539WAT     H172719   1.100   2.170   3.544
23539WAT     H272720   1.174   2.233   3.428
23540WAT      O72721   1.322   2.285   3.328
23540WAT     H172722   1.269   2.337   3.267
23540WAT     H272723   1.356   2.348   3.391
23541WAT      O72724   0.562   2.024   1.972
23541WAT     H172725   0.542   1.938   2.008
23541WAT     H272726   0.545   2.015   1.878
23542WAT      O72727   0.640   3.087   3.443
23542WAT     H172728   0.586   3.160   3.411
23542WAT     H272729   0.665   3.039   3.364
23543WAT      O72730   0.765   1.884   3.596
23543WAT     H172731   0.824   1.853   3.665
23543WAT     H272732   0.683   1.837   3.611
23544WAT      O72733   1.247   1.846   3.619
23544WAT     H172734   1.178   1.779   3.613
23544WAT     H272735   1.319   1.801   3.664
23545WAT      O72736   1.310   1.505   2.225
23545WAT     H172737   1.338   1.421   2.261
23545WAT     H272738   1.233   1.528   2.276
23546WAT      O72739   0.442   1.734   1.971
23546WAT     H172740   0.472   1.735   1.880
23546WAT     H272741   0.516   1.699   2.021
23547WAT      O72742   0.925   3.211   3.469
23547WAT     H172743   0.918   3.301   3.500
23547WAT     H272744   0.835   3.179   3.466
23548WAT      O72745   0.764   1.628   2.070
23548WAT     H172746   0.729   1.561   2.012
23548WAT     H272747   0.784   1.582   2.151
23549WAT      O72748   0.980   3.127   2.231
23549WAT     H172749   1.070   3.161   2.234
23549WAT     H272750   0.983   3.055   2.169
23550WAT      O72751   0.344   2.664   2.054
23550WAT     H172752   0.388   2.719   2.120
23550WAT     H272753   0.393   2.582   2.055
23551WAT      O72754   0.525   2.776   2.565
23551WAT     H172755   0.495   2.764   2.656
23551WAT     H272756   0.515   2.691   2.525
23552WAT      O72757   1.678   2.980   3.502
23552WAT     H172758   1.618   2.986   3.428
23552WAT     H272759   1.691   2.886   3.515
23553WAT      O72760   1.802   2.754   2.036
23553WAT     H172761   1.719   2.761   2.083
23553WAT     H272762   1.820   2.843   2.005
23554WAT      O72763   1.748   2.429   2.286
23554WAT     H172764   1.824   2.486   2.297
23554WAT     H272765   1.749   2.372   2.363
23555WAT      O72766   1.848   2.514   2.771
23555WAT     H172767   1.885   2.436   2.730
23555WAT     H272768   1.912   2.583   2.753
23556WAT      O72769   1.547   2.653   3.312
23556WAT     H172770   1.465   2.696   3.338
23556WAT     H272771   1.587   2.714   3.251
23557WAT      O72772   1.753   2.458   2.002
23557WAT     H172773   1.780   2.549   1.989
23557WAT     H272774   1.734   2.452   2.095
23558WAT      O72775   1.393   1.761   2.131
23558WAT     H172776   1.434   1.742   2.047
23558WAT     H272777   1.362   1.675   2.162
23559WAT      O72778   1.743   2.252   2.501
23559WAT     H172779   1.705   2.175   2.458
23559WAT     H272780   1.670   2.290   2.550
23560WAT      O72781   0.201   2.320   3.163
23560WAT     H172782   0.238   2.311   3.251
23560WAT     H272783   0.145   2.243   3.153
23561WAT      O72784   1.682   2.167   3.465
23561WAT     H172785   1.658   2.144   3.374
23561WAT     H272786   1.708   2.259   3.460
23562WAT      O72787   1.525   1.689   3.742
23562WAT     H172788   1.613   1.690   3.781
23562WAT     H272789   1.527   1.615   3.681
23563WAT      O72790   1.670   2.074   2.831
23563WAT     H172791   1.722   2.025   2.768
23563WAT     H272792   1.729   2.088   2.906
23564WAT      O72793   1.688   2.083   3.183
23564WAT     H172794   1.593   2.079   3.195
23564WAT     H272795   1.706   2.174   3.160
23565WAT      O72796   0.273   1.908   2.094
23565WAT     H172797   0.344   1.866   2.046
23565WAT     H272798   0.202   1.915   2.031
23566WAT      O72799   0.238   1.513   1.998
23566WAT     H172800   0.310   1.567   2.030
23566WAT     H272801   0.265   1.486   1.911
23567WAT      O72802   1.619   2.000   2.425
23567WAT     H172803   1.669   1.977   2.504
23567WAT     H272804   1.599   1.916   2.383
23568WAT      O72805   0.207   1.438   2.989
23568WAT     H172806   0.272   1.383   2.945
23568WAT     H272807   0.249   1.464   3.071
23569WAT      O72808   1.762   1.864   2.678
23569WAT     H172809   1.751   1.848   2.772
23569WAT     H272810   1.838   1.811   2.654
23570WAT      O72811   1.597   1.458   3.324
23570WAT     H172812   1.660   1.519   3.361
23570WAT     H272813   1.611   1.461   3.230
23571WAT      O72814   1.851   1.647   2.003
23571WAT     H172815   1.943   1.634   1.982
23571WAT     H272816   1.849   1.655   2.098
23572WAT      O72817   1.858   1.724   2.265
23572WAT     H172818   1.779   1.717   2.318
23572WAT     H272819   1.879   1.818   2.264
23573WAT      O72820   1.552   3.128   2.665
23573WAT     H172821   1.612   3.096   2.597
23573WAT     H272822   1.578   3.081   2.744
23574WAT      O72823   0.182   1.454   3.263
23574WAT     H172824   0.147   1.500   3.339
23574WAT     H272825   0.149   1.364   3.271
23575WAT      O72826   0.343   2.771   3.679
23575WAT     H172827   0.339   2.734   3.768
23575WAT     H272828   0.356   2.865   3.693
23576WAT      O72829   0.713   2.927   3.240
23576WAT     H172830   0.689   2.953   3.151
23576WAT     H272831   0.807   2.944   3.245
23577WAT      O72832   0.934   1.573   3.615
23577WAT     H172833   0.927   1.632   3.690
23577WAT     H272834   1.028   1.562   3.601
23578WAT      O72835   1.197   1.539   3.579
23578WAT     H172836   1.259   1.571   3.513
23578WAT     H272837   1.252   1.490   3.641
23579WAT      O72838   1.839   3.129   3.320
23579WAT     H172839   1.790   3.168   3.248
23579WAT     H272840   1.778   3.066   3.359
23580WAT      O72841   0.250   1.407   3.590
23580WAT     H172842   0.304   1.389   3.514
23580WAT     H272843   0.256   1.328   3.644
23581WAT      O72844   0.327   3.066   3.391
23581WAT     H172845   0.267   3.053   3.465
23581WAT     H272846   0.326   2.982   3.345
23582WAT      O72847   1.271   1.395   3.212
23582WAT     H172848   1.184   1.428   3.191
23582WAT     H272849   1.261   1.348   3.294
23583WAT      O72850   1.362   1.616   3.350
23583WAT     H172851   1.329   1.534   3.312
23583WAT     H272852   1.457   1.611   3.338
23584WAT      O72853   1.607   3.193   3.047
23584WAT     H172854   1.562   3.268   3.010
23584WAT     H272855   1.545   3.121   3.042
23585WAT      O72856   0.290   2.802   3.286
23585WAT     H172857   0.217   2.740   3.280
23585WAT     H272858   0.296   2.842   3.199
23586WAT      O72859   0.650   3.024   2.965
23586WAT     H172860   0.702   2.963   2.912
23586WAT     H272861   0.715   3.074   3.014
23587WAT      O72862   0.924   3.113   3.048
23587WAT     H172863   0.953   3.087   2.960
23587WAT     H272864   0.976   3.058   3.107
23588WAT      O72865   1.046   1.487   3.106
23588WAT     H172866   0.968   1.534   3.134
23588WAT     H272867   1.017   1.396   3.095
23589WAT      O72868   1.501   1.557   2.910
23589WAT     H172869   1.545   1.551   2.825
23589WAT     H272870   1.474   1.649   2.917
23590WAT      O72871   1.688   1.520   2.711
23590WAT     H172872   1.682   1.426   2.697
23590WAT     H272873   1.766   1.531   2.766
23591WAT      O72874   0.181   1.517   2.358
23591WAT     H172875   0.256   1.528   2.300
23591WAT     H272876   0.134   1.601   2.353
23592WAT      O72877   0.835   1.729   2.657
23592WAT     H172878   0.753   1.691   2.623
23592WAT     H272879   0.885   1.653   2.687
23593WAT      O72880   1.285   1.395   2.781
23593WAT     H172881   1.345   1.452   2.828
23593WAT     H272882   1.211   1.451   2.758
23594WAT      O72883   1.599   1.435   2.308
23594WAT     H172884   1.619   1.525   2.335
23594WAT     H272885   1.521   1.412   2.357
23595WAT      O72886   0.279   3.003   2.352
23595WAT     H172887   0.226   3.041   2.282
23595WAT     H272888   0.271   3.066   2.424
23596WAT      O72889   0.418   1.570   2.212
23596WAT     H172890   0.471   1.491   2.199
23596WAT     H272891   0.481   1.638   2.235
23597WAT      O72892   0.637   1.544   2.517
23597WAT     H172893   0.574   1.473   2.534
23597WAT     H272894   0.583   1.620   2.496
23598WAT      O72895   0.931   3.205   3.784
23598WAT     H172896   1.024   3.181   3.789
23598WAT     H272897   0.930   3.288   3.736
23599WAT      O72898   1.755   3.159   2.484
23599WAT     H172899   1.772   3.091   2.420
23599WAT     H272900   1.685   3.212   2.445
23600WAT      O72901   0.650   1.471   3.761
23600WAT     H172902   0.622   1.522   3.684
23600WAT     H272903   0.688   1.392   3.724
23601WAT      O72904   0.539   3.198   2.239
23601WAT     H172905   0.612   3.170   2.185
23601WAT     H272906   0.565   3.174   2.328
23602WAT      O72907   0.455   2.810   2.240
23602WAT     H172908   0.392   2.857   2.295
23602WAT     H272909   0.466   2.725   2.283
23603WAT      O72910   1.310   1.413   3.819
23603WAT     H172911   1.299   1.445   3.908
23603WAT     H272912   1.392   1.453   3.789
23604WAT      O72913   1.588   3.128   3.767
23604WAT     H172914   1.667   3.078   3.746
23604WAT     H272915   1.617   3.196   3.827
23605WAT      O72916   1.200   2.215   0.855
23605WAT     H172917   1.192   2.123   0.828
23605WAT     H272918   1.159   2.265   0.784
23606WAT      O72919   1.014   2.393   1.043
23606WAT     H172920   0.936   2.345   1.072
23606WAT     H272921   1.079   2.325   1.026
23607WAT      O72922   0.415   2.424   1.131
23607WAT     H172923   0.332   2.398   1.171
23607WAT     H272924   0.476   2.431   1.204
23608WAT      O72925   1.416   2.833   0.921
23608WAT     H172926   1.370   2.756   0.954
23608WAT     H272927   1.497   2.836   0.972
23609WAT      O72928   0.413   2.827   1.150
23609WAT     H172929   0.444   2.738   1.132
23609WAT     H272930   0.488   2.883   1.128
23610WAT      O72931   0.256   1.920   0.509
23610WAT     H172932   0.167   1.954   0.499
23610WAT     H272933   0.285   1.900   0.420
23611WAT      O72934   1.038   3.062   0.883
23611WAT     H172935   0.976   3.107   0.826
23611WAT     H272936   1.124   3.077   0.843
23612WAT      O72937   0.958   2.660   1.044
23612WAT     H172938   0.951   2.566   1.028
23612WAT     H272939   1.034   2.669   1.101
23613WAT      O72940   0.177   1.721   1.276
23613WAT     H172941   0.159   1.631   1.304
23613WAT     H272942   0.137   1.776   1.344
23614WAT      O72943   1.061   1.941   1.066
23614WAT     H172944   1.098   1.854   1.055
23614WAT     H272945   1.051   1.975   0.977
23615WAT      O72946   0.474   1.778   0.613
23615WAT     H172947   0.485   1.868   0.643
23615WAT     H272948   0.383   1.773   0.584
23616WAT      O72949   1.439   1.690   0.760
23616WAT     H172950   1.521   1.641   0.764
23616WAT     H272951   1.442   1.749   0.835
23617WAT      O72952   0.239   1.970   1.137
23617WAT     H172953   0.307   1.997   1.199
23617WAT     H272954   0.207   1.886   1.170
23618WAT      O72955   0.658   2.075   1.046
23618WAT     H172956   0.709   2.125   1.110
23618WAT     H272957   0.711   1.997   1.028
23619WAT      O72958   1.868   1.892   1.416
23619WAT     H172959   1.798   1.931   1.364
23619WAT     H272960   1.895   1.962   1.476
23620WAT      O72961   0.486   1.539   1.472
23620WAT     H172962   0.486   1.591   1.392
23620WAT     H272963   0.403   1.491   1.470
23621WAT      O72964   1.125   2.550   0.622
23621WAT     H172965   1.063   2.597   0.566
23621WAT     H272966   1.176   2.620   0.664
23622WAT      O72967   0.611   2.503   1.290
23622WAT     H172968   0.578   2.566   1.354
23622WAT     H272969   0.629   2.556   1.212
23623WAT      O72970   1.463   1.884   1.037
23623WAT     H172971   1.392   1.913   1.095
23623WAT     H272972   1.499   1.965   1.001
23624WAT      O72973   0.454   1.710   1.273
23624WAT     H172974   0.489   1.795   1.244
23624WAT     H272975   0.361   1.725   1.285
23625WAT      O72976   0.533   2.700   1.472
23625WAT     H172977   0.594   2.767   1.444
23625WAT     H272978   0.446   2.741   1.463
23626WAT      O72979   1.624   2.846   1.263
23626WAT     H172980   1.556   2.913   1.262
23626WAT     H272981   1.678   2.866   1.187
23627WAT      O72982   1.770   1.829   1.076
23627WAT     H172983   1.675   1.832   1.089
23627WAT     H272984   1.802   1.910   1.115
23628WAT      O72985   0.823   1.459   0.906
23628WAT     H172986   0.853   1.403   0.834
23628WAT     H272987   0.730   1.472   0.887
23629WAT      O72988   1.378   3.031   1.135
23629WAT     H172989   1.379   2.990   1.048
23629WAT     H272990   1.323   3.108   1.124
23630WAT      O72991   1.507   2.703   0.644
23630WAT     H172992   1.496   2.609   0.656
23630WAT     H272993   1.507   2.739   0.732
23631WAT      O72994   1.318   2.521   1.267
23631WAT     H172995   1.359   2.500   1.184
23631WAT     H272996   1.390   2.547   1.325
23632WAT      O72997   1.062   2.265   0.579
23632WAT     H172998   0.969   2.259   0.602
23632WAT     H272999   1.077   2.359   0.568
23633WAT      O73000   1.060   1.893   0.279
23633WAT     H173001   0.966   1.909   0.287
23633WAT     H273002   1.092   1.965   0.224
23634WAT      O73003   1.712   2.361   1.277
23634WAT     H173004   1.630   2.368   1.229
23634WAT     H273005   1.772   2.419   1.230
23635WAT      O73006   1.465   2.422   0.630
23635WAT     H173007   1.403   2.388   0.565
23635WAT     H273008   1.463   2.357   0.700
23636WAT      O73009   1.409   2.040   1.371
23636WAT     H173010   1.367   2.122   1.397
23636WAT     H273011   1.336   1.981   1.352
23637WAT      O73012   0.622   2.318   0.857
23637WAT     H173013   0.582   2.247   0.808
23637WAT     H273014   0.631   2.284   0.946
23638WAT      O73015   0.669   2.687   1.074
23638WAT     H173016   0.639   2.626   1.006
23638WAT     H273017   0.764   2.691   1.063
23639WAT      O73018   0.493   1.996   1.235
23639WAT     H173019   0.549   2.007   1.158
23639WAT     H273020   0.545   2.033   1.307
23640WAT      O73021   1.478   3.044   1.440
23640WAT     H173022   1.430   3.125   1.421
23640WAT     H273023   1.409   2.979   1.455
23641WAT      O73024   0.578   2.661   1.739
23641WAT     H173025   0.488   2.683   1.764
23641WAT     H273026   0.581   2.673   1.644
23642WAT      O73027   1.282   2.346   0.330
23642WAT     H173028   1.326   2.262   0.316
23642WAT     H273029   1.353   2.409   0.339
23643WAT      O73030   0.461   2.348   1.596
23643WAT     H173031   0.447   2.435   1.633
23643WAT     H273032   0.373   2.313   1.582
23644WAT      O73033   1.093   2.840   0.727
23644WAT     H173034   1.137   2.914   0.686
23644WAT     H273035   1.087   2.864   0.819
23645WAT      O73036   0.641   2.942   1.817
23645WAT     H173037   0.638   2.982   1.731
23645WAT     H273038   0.624   2.849   1.801
23646WAT      O73039   0.292   2.208   0.607
23646WAT     H173040   0.280   2.280   0.546
23646WAT     H273041   0.261   2.131   0.560
23647WAT      O73042   1.836   3.020   1.947
23647WAT     H173043   1.883   3.068   2.015
23647WAT     H273044   1.898   3.013   1.874
23648WAT      O73045   0.180   2.695   0.829
23648WAT     H173046   0.140   2.709   0.744
23648WAT     H273047   0.270   2.666   0.809
23649WAT      O73048   1.776   2.739   1.663
23649WAT     H173049   1.789   2.715   1.571
23649WAT     H273050   1.780   2.656   1.710
23650WAT      O73051   1.162   3.110   1.520
23650WAT     H173052   1.214   3.101   1.600
23650WAT     H273053   1.078   3.144   1.549
23651WAT      O73054   1.360   3.138   0.463
23651WAT     H173055   1.344   3.109   0.553
23651WAT     H273056   1.343   3.061   0.409
23652WAT      O73057   0.608   3.116   0.640
23652WAT     H173058   0.590   3.025   0.619
23652WAT     H273059   0.522   3.152   0.664
23653WAT      O73060   1.330   2.889   0.319
23653WAT     H173061   1.261   2.889   0.253
23653WAT     H273062   1.404   2.847   0.276
23654WAT      O73063   1.287   3.052   0.726
23654WAT     H173064   1.332   2.974   0.758
23654WAT     H273065   1.321   3.123   0.781
23655WAT      O73066   1.761   1.945   1.759
23655WAT     H173067   1.700   1.995   1.707
23655WAT     H273068   1.729   1.855   1.754
23656WAT      O73069   0.539   1.542   0.946
23656WAT     H173070   0.494   1.620   0.913
23656WAT     H273071   0.595   1.574   1.016
23657WAT      O73072   0.967   1.829   1.506
23657WAT     H173073   0.921   1.849   1.587
23657WAT     H273074   0.927   1.747   1.476
23658WAT      O73075   1.468   1.951   1.619
23658WAT     H173076   1.382   1.921   1.651
23658WAT     H273077   1.452   1.975   1.528
23659WAT      O73078   1.177   2.101   1.829
23659WAT     H173079   1.210   2.017   1.795
23659WAT     H273080   1.256   2.153   1.844
23660WAT      O73081   0.850   1.504   0.434
23660WAT     H173082   0.788   1.504   0.506
23660WAT     H273083   0.842   1.417   0.394
23661WAT      O73084   0.743   1.596   1.132
23661WAT     H173085   0.772   1.687   1.124
23661WAT     H273086   0.797   1.548   1.070
23662WAT      O73087   0.518   2.054   0.719
23662WAT     H173088   0.495   2.033   0.809
23662WAT     H273089   0.440   2.098   0.684
23663WAT      O73090   1.241   2.055   0.578
23663WAT     H173091   1.181   2.127   0.560
23663WAT     H273092   1.296   2.049   0.500
23664WAT      O73093   0.762   2.144   1.785
23664WAT     H173094   0.752   2.050   1.770
23664WAT     H273095   0.846   2.166   1.746
23665WAT      O73096   1.102   1.919   0.781
23665WAT     H173097   1.141   1.950   0.700
23665WAT     H273098   1.138   1.831   0.793
23666WAT      O73099   0.275   1.785   1.600
23666WAT     H173100   0.236   1.870   1.621
23666WAT     H273101   0.206   1.722   1.620
23667WAT      O73102   0.932   1.794   1.907
23667WAT     H173103   0.863   1.774   1.971
23667WAT     H273104   1.007   1.822   1.961
23668WAT      O73105   1.160   2.178   1.191
23668WAT     H173106   1.087   2.228   1.226
23668WAT     H273107   1.120   2.096   1.161
23669WAT      O73108   0.804   1.845   1.031
23669WAT     H173109   0.804   1.801   0.947
23669WAT     H273110   0.893   1.877   1.042
23670WAT      O73111   0.389   1.833   0.927
23670WAT     H173112   0.355   1.881   1.003
23670WAT     H273113   0.313   1.788   0.891
23671WAT      O73114   0.810   1.945   0.331
23671WAT     H173115   0.822   1.941   0.425
23671WAT     H273116   0.772   2.031   0.315
23672WAT      O73117   1.206   1.723   1.132
23672WAT     H173118   1.208   1.768   1.217
23672WAT     H273119   1.182   1.633   1.154
23673WAT      O73120   0.711   2.176   0.270
23673WAT     H173121   0.654   2.131   0.208
23673WAT     H273122   0.782   2.212   0.217
23674WAT      O73123   1.549   1.464   1.716
23674WAT     H173124   1.582   1.391   1.769
23674WAT     H273125   1.553   1.432   1.626
23675WAT      O73126   0.219   2.566   1.658
23675WAT     H173127   0.181   2.502   1.718
23675WAT     H273128   0.250   2.637   1.715
23676WAT      O73129   0.834   2.251   1.206
23676WAT     H173130   0.871   2.204   1.281
23676WAT     H273131   0.815   2.339   1.240
23677WAT      O73132   0.613   2.155   1.438
23677WAT     H173133   0.583   2.243   1.460
23677WAT     H273134   0.708   2.161   1.442
23678WAT      O73135   0.466   2.576   0.498
23678WAT     H173136   0.388   2.522   0.482
23678WAT     H273137   0.539   2.524   0.464
23679WAT      O73138   1.542   2.476   1.077
23679WAT     H173139   1.614   2.525   1.038
23679WAT     H273140   1.521   2.408   1.012
23680WAT      O73141   1.088   1.615   0.491
23680WAT     H173142   1.006   1.565   0.484
23680WAT     H273143   1.068   1.699   0.450
23681WAT      O73144   1.080   2.483   1.666
23681WAT     H173145   1.073   2.391   1.640
23681WAT     H273146   1.017   2.492   1.737
23682WAT      O73147   1.359   2.052   0.321
23682WAT     H173148   1.448   2.083   0.303
23682WAT     H273149   1.356   1.965   0.282
23683WAT      O73150   0.470   2.543   0.861
23683WAT     H173151   0.522   2.462   0.856
23683WAT     H273152   0.425   2.536   0.946
23684WAT      O73153   0.959   2.669   0.389
23684WAT     H173154   0.993   2.744   0.339
23684WAT     H273155   0.876   2.701   0.425
23685WAT      O73156   0.219   2.239   1.553
23685WAT     H173157   0.183   2.306   1.611
23685WAT     H273158   0.189   2.156   1.590
23686WAT      O73159   0.539   2.285   1.841
23686WAT     H173160   0.509   2.300   1.751
23686WAT     H273161   0.616   2.229   1.832
23687WAT      O73162   1.073   2.765   1.641
23687WAT     H173163   1.074   2.672   1.619
23687WAT     H273164   1.002   2.773   1.705
23688WAT      O73165   1.586   2.183   0.268
23688WAT     H173166   1.578   2.226   0.183
23688WAT     H273167   1.658   2.229   0.311
23689WAT      O73168   1.694   2.429   1.575
23689WAT     H173169   1.622   2.488   1.556
23689WAT     H273170   1.747   2.428   1.495
23690WAT      O73171   1.689   2.869   0.540
23690WAT     H173172   1.625   2.803   0.568
23690WAT     H273173   1.651   2.909   0.463
23691WAT      O73174   1.247   2.601   0.925
23691WAT     H173175   1.282   2.542   0.859
23691WAT     H273176   1.159   2.569   0.942
23692WAT      O73177   0.856   2.677   0.666
23692WAT     H173178   0.924   2.732   0.704
23692WAT     H273179   0.777   2.732   0.669
23693WAT      O73180   0.786   2.378   0.627
23693WAT     H173181   0.832   2.459   0.650
23693WAT     H273182   0.751   2.346   0.710
23694WAT      O73183   1.016   2.929   1.350
23694WAT     H173184   1.081   2.950   1.418
23694WAT     H273185   1.053   2.853   1.305
23695WAT      O73186   0.376   1.412   0.674
23695WAT     H173187   0.363   1.411   0.769
23695WAT     H273188   0.294   1.446   0.639
23696WAT      O73189   1.144   2.729   1.222
23696WAT     H173190   1.208   2.659   1.233
23696WAT     H273191   1.196   2.807   1.204
23697WAT      O73192   1.321   2.809   1.542
23697WAT     H173193   1.355   2.868   1.610
23697WAT     H273194   1.229   2.796   1.565
23698WAT      O73195   1.486   2.550   0.360
23698WAT     H173196   1.458   2.596   0.439
23698WAT     H273197   1.566   2.503   0.387
23699WAT      O73198   0.904   2.814   1.859
23699WAT     H173199   0.872   2.742   1.914
23699WAT     H273200   0.837   2.882   1.866
23700WAT      O73201   0.708   2.899   0.353
23700WAT     H173202   0.707   2.972   0.292
23700WAT     H273203   0.616   2.874   0.363
23701WAT      O73204   0.268   2.421   0.428
23701WAT     H173205   0.207   2.495   0.429
23701WAT     H273206   0.316   2.430   0.345
23702WAT      O73207   1.225   1.837   1.395
23702WAT     H173208   1.262   1.755   1.428
23702WAT     H273209   1.139   1.843   1.437
23703WAT      O73210   1.562   1.733   0.476
23703WAT     H173211   1.499   1.743   0.405
23703WAT     H273212   1.513   1.755   0.555
23704WAT      O73213   0.759   1.961   0.618
23704WAT     H173214   0.688   2.008   0.662
23704WAT     H273215   0.787   1.895   0.681
23705WAT      O73216   0.921   2.103   1.418
23705WAT     H173217   0.971   2.150   1.484
23705WAT     H273218   0.936   2.010   1.439
23706WAT      O73219   1.162   1.633   0.762
23706WAT     H173220   1.150   1.635   0.667
23706WAT     H273221   1.257   1.638   0.774
23707WAT      O73222   0.871   3.157   0.689
23707WAT     H173223   0.896   3.153   0.597
23707WAT     H273224   0.776   3.144   0.688
23708WAT      O73225   0.579   1.792   0.355
23708WAT     H173226   0.664   1.835   0.349
23708WAT     H273227   0.543   1.823   0.438
23709WAT      O73228   1.642   1.724   1.502
23709WAT     H173229   1.592   1.799   1.536
23709WAT     H273230   1.724   1.763   1.470
23710WAT      O73231   1.471   2.249   0.847
23710WAT     H173232   1.377   2.250   0.864
23710WAT     H273233   1.503   2.170   0.891
23711WAT      O73234   0.339   2.160   0.271
23711WAT     H173235   0.347   2.066   0.282
23711WAT     H273236   0.428   2.193   0.282
23712WAT      O73237   1.672   2.966   1.014
23712WAT     H173238   1.684   3.048   1.061
23712WAT     H273239   1.758   2.945   0.979
23713WAT      O73240   0.419   3.175   0.981
23713WAT     H173241   0.492   3.120   1.009
23713WAT     H273242   0.457   3.262   0.967
23714WAT      O73243   0.319   3.094   1.900
23714WAT     H173244   0.400   3.126   1.942
23714WAT     H273245   0.268   3.058   1.972
23715WAT      O73246   1.203   2.704   1.895
23715WAT     H173247   1.142   2.707   1.821
23715WAT     H273248   1.173   2.631   1.949
23716WAT      O73249   1.346   3.077   1.756
23716WAT     H173250   1.441   3.069   1.751
23716WAT     H273251   1.331   3.144   1.823
23717WAT      O73252   1.635   3.015   0.306
23717WAT     H173253   1.607   2.974   0.225
23717WAT     H273254   1.615   3.108   0.294
23718WAT      O73255   0.797   2.483   1.748
23718WAT     H173256   0.720   2.540   1.740
23718WAT     H273257   0.815   2.454   1.659
23719WAT      O73258   1.106   2.521   0.211
23719WAT     H173259   1.051   2.565   0.275
23719WAT     H273260   1.168   2.470   0.263
23720WAT      O73261   1.511   2.656   1.804
23720WAT     H173262   1.585   2.690   1.753
23720WAT     H273263   1.435   2.673   1.748
23721WAT      O73264   0.295   2.157   1.884
23721WAT     H173265   0.299   2.127   1.975
23721WAT     H273266   0.380   2.197   1.868
23722WAT      O73267   0.672   2.417   0.400
23722WAT     H173268   0.715   2.400   0.484
23722WAT     H273269   0.685   2.336   0.351
23723WAT      O73270   0.489   2.015   1.681
23723WAT     H173271   0.436   1.966   1.618
23723WAT     H273272   0.556   2.057   1.627
23724WAT      O73273   1.378   2.461   1.657
23724WAT     H173274   1.420   2.477   1.742
23724WAT     H273275   1.285   2.474   1.674
23725WAT      O73276   1.426   2.195   1.858
23725WAT     H173277   1.484   2.120   1.849
23725WAT     H273278   1.443   2.248   1.780
23726WAT      O73279   0.537   1.711   1.689
23726WAT     H173280   0.528   1.649   1.616
23726WAT     H273281   0.479   1.784   1.666
23727WAT      O73282   0.814   1.567   1.392
23727WAT     H173283   0.769   1.569   1.308
23727WAT     H273284   0.751   1.527   1.452
23728WAT      O73285   0.855   2.457   1.454
23728WAT     H173286   0.896   2.541   1.437
23728WAT     H273287   0.763   2.470   1.431
23729WAT      O73288   1.088   2.230   1.593
23729WAT     H173289   1.100   2.170   1.667
23729WAT     H273290   1.174   2.233   1.551
23730WAT      O73291   1.322   2.285   1.450
23730WAT     H173292   1.269   2.337   1.390
23730WAT     H273293   1.356   2.348   1.513
23731WAT      O73294   0.640   3.087   1.566
23731WAT     H173295   0.586   3.160   1.534
23731WAT     H273296   0.665   3.039   1.487
23732WAT      O73297   0.765   1.884   1.718
23732WAT     H173298   0.824   1.853   1.787
23732WAT     H273299   0.683   1.837   1.734
23733WAT      O73300   1.247   1.846   1.742
23733WAT     H173301   1.178   1.779   1.735
23733WAT     H273302   1.319   1.801   1.786
23734WAT      O73303   1.310   1.505   0.348
23734WAT     H173304   1.338   1.421   0.383
23734WAT     H273305   1.233   1.528   0.399
23735WAT      O73306   0.925   3.211   1.592
23735WAT     H173307   0.918   3.301   1.622
23735WAT     H273308   0.835   3.179   1.589
23736WAT      O73309   0.980   3.127   0.354
23736WAT     H173310   1.070   3.161   0.356
23736WAT     H273311   0.983   3.055   0.291
23737WAT      O73312   0.344   2.664   0.177
23737WAT     H173313   0.388   2.719   0.242
23737WAT     H273314   0.393   2.582   0.178
23738WAT      O73315   0.525   2.776   0.688
23738WAT     H173316   0.495   2.764   0.778
23738WAT     H273317   0.515   2.691   0.647
23739WAT      O73318   1.678   2.980   1.625
23739WAT     H173319   1.618   2.986   1.550
23739WAT     H273320   1.691   2.886   1.638
23740WAT      O73321   1.748   2.429   0.409
23740WAT     H173322   1.824   2.486   0.419
23740WAT     H273323   1.749   2.372   0.486
23741WAT      O73324   1.848   2.514   0.893
23741WAT     H173325   1.885   2.436   0.852
23741WAT     H273326   1.912   2.583   0.875
23742WAT      O73327   1.547   2.653   1.434
23742WAT     H173328   1.465   2.696   1.461
23742WAT     H273329   1.587   2.714   1.373
23743WAT      O73330   1.393   1.761   0.254
23743WAT     H173331   1.434   1.742   0.170
23743WAT     H273332   1.362   1.675   0.285
23744WAT      O73333   1.743   2.252   0.624
23744WAT     H173334   1.705   2.175   0.580
23744WAT     H273335   1.670   2.290   0.672
23745WAT      O73336   0.201   2.320   1.286
23745WAT     H173337   0.238   2.311   1.374
23745WAT     H273338   0.145   2.243   1.276
23746WAT      O73339   1.682   2.167   1.587
23746WAT     H173340   1.658   2.144   1.497
23746WAT     H273341   1.708   2.259   1.583
23747WAT      O73342   1.525   1.689   1.865
23747WAT     H173343   1.613   1.690   1.903
23747WAT     H273344   1.527   1.615   1.804
23748WAT      O73345   1.670   2.074   0.954
23748WAT     H173346   1.722   2.025   0.891
23748WAT     H273347   1.729   2.088   1.028
23749WAT      O73348   1.688   2.083   1.306
23749WAT     H173349   1.593   2.079   1.317
23749WAT     H273350   1.706   2.174   1.282
23750WAT      O73351   1.619   2.000   0.548
23750WAT     H173352   1.669   1.977   0.626
23750WAT     H273353   1.599   1.916   0.506
23751WAT      O73354   0.207   1.438   1.111
23751WAT     H173355   0.272   1.383   1.067
23751WAT     H273356   0.249   1.464   1.193
23752WAT      O73357   1.762   1.864   0.801
23752WAT     H173358   1.751   1.848   0.895
23752WAT     H273359   1.838   1.811   0.777
23753WAT      O73360   1.597   1.458   1.447
23753WAT     H173361   1.660   1.519   1.483
23753WAT     H273362   1.611   1.461   1.352
23754WAT      O73363   1.858   1.724   0.388
23754WAT     H173364   1.779   1.717   0.441
23754WAT     H273365   1.879   1.818   0.387
23755WAT      O73366   1.552   3.128   0.787
23755WAT     H173367   1.612   3.096   0.719
23755WAT     H273368   1.578   3.081   0.866
23756WAT      O73369   0.182   1.454   1.385
23756WAT     H173370   0.147   1.500   1.462
23756WAT     H273371   0.149   1.364   1.394
23757WAT      O73372   0.343   2.771   1.802
23757WAT     H173373   0.339   2.734   1.890
23757WAT     H273374   0.356   2.865   1.816
23758WAT      O73375   0.713   2.927   1.362
23758WAT     H173376   0.689   2.953   1.273
23758WAT     H273377   0.807   2.944   1.368
23759WAT      O73378   0.934   1.573   1.738
23759WAT     H173379   0.927   1.632   1.813
23759WAT     H273380   1.028   1.562   1.723
23760WAT      O73381   1.197   1.539   1.702
23760WAT     H173382   1.259   1.571   1.635
23760WAT     H273383   1.252   1.490   1.764
23761WAT      O73384   1.839   3.129   1.442
23761WAT     H173385   1.790   3.168   1.370
23761WAT     H273386   1.778   3.066   1.482
23762WAT      O73387   0.250   1.407   1.713
23762WAT     H173388   0.304   1.389   1.637
23762WAT     H273389   0.256   1.328   1.767
23763WAT      O73390   0.327   3.066   1.514
23763WAT     H173391   0.267   3.053   1.588
23763WAT     H273392   0.326   2.982   1.467
23764WAT      O73393   1.271   1.395   1.334
23764WAT     H173394   1.184   1.428   1.314
23764WAT     H273395   1.261   1.348   1.417
23765WAT      O73396   1.362   1.616   1.473
23765WAT     H173397   1.329   1.534   1.435
23765WAT     H273398   1.457   1.611   1.460
23766WAT      O73399   1.607   3.193   1.170
23766WAT     H173400   1.562   3.268   1.133
23766WAT     H273401   1.545   3.121   1.164
23767WAT      O73402   0.290   2.802   1.409
23767WAT     H173403   0.217   2.740   1.402
23767WAT     H273404   0.296   2.842   1.322
23768WAT      O73405   0.650   3.024   1.088
23768WAT     H173406   0.702   2.963   1.035
23768WAT     H273407   0.715   3.074   1.137
23769WAT      O73408   0.924   3.113   1.170
23769WAT     H173409   0.953   3.087   1.083
23769WAT     H273410   0.976   3.058   1.229
23770WAT      O73411   1.046   1.487   1.228
23770WAT     H173412   0.968   1.534   1.256
23770WAT     H273413   1.017   1.396   1.217
23771WAT      O73414   1.501   1.557   1.033
23771WAT     H173415   1.545   1.551   0.948
23771WAT     H273416   1.474   1.649   1.040
23772WAT      O73417   1.688   1.520   0.834
23772WAT     H173418   1.682   1.426   0.819
23772WAT     H273419   1.766   1.531   0.888
23773WAT      O73420   0.181   1.517   0.480
23773WAT     H173421   0.256   1.528   0.423
23773WAT     H273422   0.134   1.601   0.476
23774WAT      O73423   0.835   1.729   0.779
23774WAT     H173424   0.753   1.691   0.745
23774WAT     H273425   0.885   1.653   0.810
23775WAT      O73426   1.285   1.395   0.903
23775WAT     H173427   1.345   1.452   0.951
23775WAT     H273428   1.211   1.451   0.881
23776WAT      O73429   1.599   1.435   0.431
23776WAT     H173430   1.619   1.525   0.457
23776WAT     H273431   1.521   1.412   0.480
23777WAT      O73432   0.279   3.003   0.474
23777WAT     H173433   0.226   3.041   0.404
23777WAT     H273434   0.271   3.066   0.547
23778WAT      O73435   0.418   1.570   0.334
23778WAT     H173436   0.471   1.491   0.321
23778WAT     H273437   0.481   1.638   0.358
23779WAT      O73438   0.637   1.544   0.640
23779WAT     H173439   0.574   1.473   0.656
23779WAT     H273440   0.583   1.620   0.618
23780WAT      O73441   0.931   3.205   1.907
23780WAT     H173442   1.024   3.181   1.911
23780WAT     H273443   0.930   3.288   1.859
23781WAT      O73444   1.755   3.159   0.607
23781WAT     H173445   1.772   3.091   0.542
23781WAT     H273446   1.685   3.212   0.567
23782WAT      O73447   0.650   1.471   1.883
23782WAT     H173448   0.622   1.522   1.807
23782WAT     H273449   0.688   1.392   1.847
23783WAT      O73450   0.539   3.198   0.362
23783WAT     H173451   0.612   3.170   0.307
23783WAT     H273452   0.565   3.174   0.451
23784WAT      O73453   0.455   2.810   0.362
23784WAT     H173454   0.392   2.857   0.417
23784WAT     H273455   0.466   2.725   0.406
23785WAT      O73456   1.310   1.413   1.941
23785WAT     H173457   1.299   1.445   2.031
23785WAT     H273458   1.392   1.453   1.911
23786WAT      O73459   1.588   3.128   1.889
23786WAT     H173460   1.667   3.078   1.869
23786WAT     H273461   1.617   3.196   1.950
23787WAT      O73462   1.200   0.337   6.487
23787WAT     H173463   1.192   0.246   6.460
23787WAT     H273464   1.159   0.387   6.417
23788WAT      O73465   1.014   0.515   6.675
23788WAT     H173466   0.936   0.467   6.704
23788WAT     H273467   1.079   0.447   6.658
23789WAT      O73468   0.415   0.546   6.763
23789WAT     H173469   0.332   0.521   6.803
23789WAT     H273470   0.476   0.554   6.837
23790WAT      O73471   1.416   0.956   6.553
23790WAT     H173472   1.370   0.879   6.586
23790WAT     H273473   1.497   0.959   6.604
23791WAT      O73474   0.413   0.950   6.783
23791WAT     H173475   0.444   0.861   6.765
23791WAT     H273476   0.488   1.006   6.760
23792WAT      O73477   1.038   1.184   6.515
23792WAT     H173478   0.976   1.230   6.458
23792WAT     H273479   1.124   1.200   6.475
23793WAT      O73480   0.958   0.783   6.676
23793WAT     H173481   0.951   0.689   6.660
23793WAT     H273482   1.034   0.792   6.733
23794WAT      O73483   1.125   0.673   6.255
23794WAT     H173484   1.063   0.719   6.198
23794WAT     H273485   1.176   0.742   6.296
23795WAT      O73486   0.611   0.626   6.922
23795WAT     H173487   0.578   0.688   6.987
23795WAT     H273488   0.629   0.678   6.845
23796WAT      O73489   0.533   0.822   7.104
23796WAT     H173490   0.594   0.890   7.076
23796WAT     H273491   0.446   0.863   7.095
23797WAT      O73492   1.624   0.969   6.896
23797WAT     H173493   1.556   1.036   6.895
23797WAT     H273494   1.678   0.989   6.819
23798WAT      O73495   1.378   1.153   6.767
23798WAT     H173496   1.379   1.113   6.680
23798WAT     H273497   1.323   1.231   6.757
23799WAT      O73498   1.507   0.825   6.276
23799WAT     H173499   1.496   0.731   6.288
23799WAT     H273500   1.507   0.862   6.365
23800WAT      O73501   1.318   0.644   6.900
23800WAT     H173502   1.359   0.622   6.816
23800WAT     H273503   1.390   0.669   6.957
23801WAT      O73504   1.062   0.388   6.212
23801WAT     H173505   0.969   0.381   6.234
23801WAT     H273506   1.077   0.482   6.200
23802WAT      O73507   1.712   0.483   6.909
23802WAT     H173508   1.630   0.490   6.861
23802WAT     H273509   1.772   0.542   6.862
23803WAT      O73510   1.465   0.544   6.262
23803WAT     H173511   1.403   0.510   6.197
23803WAT     H273512   1.463   0.480   6.333
23804WAT      O73513   0.622   0.441   6.490
23804WAT     H173514   0.582   0.369   6.440
23804WAT     H273515   0.631   0.406   6.579
23805WAT      O73516   0.669   0.809   6.706
23805WAT     H173517   0.639   0.749   6.638
23805WAT     H273518   0.764   0.813   6.695
23806WAT      O73519   1.478   1.167   7.072
23806WAT     H173520   1.430   1.247   7.053
23806WAT     H273521   1.409   1.101   7.088
23807WAT      O73522   0.578   0.783   7.371
23807WAT     H173523   0.488   0.806   7.396
23807WAT     H273524   0.581   0.796   7.276
23808WAT      O73525   1.282   0.468   5.963
23808WAT     H173526   1.326   0.384   5.948
23808WAT     H273527   1.353   0.531   5.971
23809WAT      O73528   0.461   0.470   7.229
23809WAT     H173529   0.447   0.558   7.266
23809WAT     H273530   0.373   0.436   7.214
23810WAT      O73531   1.093   0.962   6.359
23810WAT     H173532   1.137   1.036   6.318
23810WAT     H273533   1.087   0.986   6.452
23811WAT      O73534   0.641   1.065   7.450
23811WAT     H173535   0.638   1.105   7.363
23811WAT     H273536   0.624   0.972   7.433
23812WAT      O73537   0.292   0.330   6.240
23812WAT     H173538   0.280   0.403   6.179
23812WAT     H273539   0.261   0.253   6.192
23813WAT      O73540   0.180   0.817   6.462
23813WAT     H173541   0.140   0.831   6.376
23813WAT     H273542   0.270   0.789   6.441
23814WAT      O73543   1.776   0.862   7.295
23814WAT     H173544   1.789   0.838   7.203
23814WAT     H273545   1.780   0.779   7.342
23815WAT      O73546   1.162   1.232   7.152
23815WAT     H173547   1.214   1.223   7.232
23815WAT     H273548   1.078   1.267   7.181
23816WAT      O73549   1.360   1.261   6.095
23816WAT     H173550   1.344   1.232   6.185
23816WAT     H273551   1.343   1.183   6.041
23817WAT      O73552   0.608   1.239   6.273
23817WAT     H173553   0.590   1.147   6.251
23817WAT     H273554   0.522   1.275   6.297
23818WAT      O73555   1.330   1.012   5.951
23818WAT     H173556   1.261   1.011   5.885
23818WAT     H273557   1.404   0.969   5.908
23819WAT      O73558   1.287   1.174   6.358
23819WAT     H173559   1.332   1.096   6.390
23819WAT     H273560   1.321   1.245   6.413
23820WAT      O73561   1.177   0.223   7.461
23820WAT     H173562   1.210   0.140   7.427
23820WAT     H273563   1.256   0.276   7.476
23821WAT      O73564   0.518   0.177   6.351
23821WAT     H173565   0.495   0.155   6.441
23821WAT     H273566   0.440   0.220   6.316
23822WAT      O73567   1.241   0.177   6.211
23822WAT     H173568   1.181   0.250   6.192
23822WAT     H273569   1.296   0.171   6.132
23823WAT      O73570   0.762   0.267   7.417
23823WAT     H173571   0.752   0.173   7.402
23823WAT     H273572   0.846   0.289   7.378
23824WAT      O73573   1.160   0.300   6.823
23824WAT     H173574   1.087   0.351   6.858
23824WAT     H273575   1.120   0.218   6.793
23825WAT      O73576   0.711   0.299   5.903
23825WAT     H173577   0.654   0.254   5.840
23825WAT     H273578   0.782   0.335   5.849
23826WAT      O73579   0.219   0.689   7.290
23826WAT     H173580   0.181   0.625   7.350
23826WAT     H273581   0.250   0.759   7.347
23827WAT      O73582   0.834   0.374   6.838
23827WAT     H173583   0.871   0.326   6.913
23827WAT     H273584   0.815   0.461   6.873
23828WAT      O73585   0.613   0.278   7.070
23828WAT     H173586   0.583   0.366   7.093
23828WAT     H273587   0.708   0.284   7.074
23829WAT      O73588   0.466   0.698   6.130
23829WAT     H173589   0.388   0.644   6.114
23829WAT     H273590   0.539   0.646   6.096
23830WAT      O73591   1.542   0.598   6.709
23830WAT     H173592   1.614   0.648   6.670
23830WAT     H273593   1.521   0.530   6.645
23831WAT      O73594   1.080   0.605   7.298
23831WAT     H173595   1.073   0.513   7.272
23831WAT     H273596   1.017   0.615   7.369
23832WAT      O73597   0.470   0.665   6.494
23832WAT     H173598   0.522   0.585   6.488
23832WAT     H273599   0.425   0.659   6.578
23833WAT      O73600   0.959   0.792   6.021
23833WAT     H173601   0.993   0.866   5.971
23833WAT     H273602   0.876   0.823   6.057
23834WAT      O73603   0.219   0.362   7.185
23834WAT     H173604   0.183   0.428   7.244
23834WAT     H273605   0.189   0.279   7.222
23835WAT      O73606   0.539   0.408   7.473
23835WAT     H173607   0.509   0.422   7.384
23835WAT     H273608   0.616   0.352   7.464
23836WAT      O73609   1.073   0.887   7.273
23836WAT     H173610   1.074   0.794   7.251
23836WAT     H273611   1.002   0.896   7.337
23837WAT      O73612   1.586   0.306   5.900
23837WAT     H173613   1.578   0.349   5.815
23837WAT     H273614   1.658   0.352   5.943
23838WAT      O73615   1.694   0.551   7.208
23838WAT     H173616   1.622   0.611   7.188
23838WAT     H273617   1.747   0.551   7.128
23839WAT      O73618   1.689   0.991   6.173
23839WAT     H173619   1.625   0.926   6.200
23839WAT     H273620   1.651   1.032   6.095
23840WAT      O73621   1.247   0.724   6.557
23840WAT     H173622   1.282   0.664   6.491
23840WAT     H273623   1.159   0.691   6.575
23841WAT      O73624   0.856   0.800   6.298
23841WAT     H173625   0.924   0.855   6.336
23841WAT     H273626   0.777   0.854   6.302
23842WAT      O73627   0.786   0.500   6.259
23842WAT     H173628   0.832   0.582   6.282
23842WAT     H273629   0.751   0.469   6.343
23843WAT      O73630   1.016   1.052   6.982
23843WAT     H173631   1.081   1.072   7.050
23843WAT     H273632   1.053   0.975   6.937
23844WAT      O73633   1.144   0.852   6.854
23844WAT     H173634   1.208   0.782   6.865
23844WAT     H273635   1.196   0.930   6.836
23845WAT      O73636   1.528   0.880   5.827
23845WAT     H173637   1.506   0.809   5.886
23845WAT     H273638   1.489   0.855   5.743
23846WAT      O73639   1.321   0.932   7.174
23846WAT     H173640   1.355   0.990   7.242
23846WAT     H273641   1.229   0.919   7.197
23847WAT      O73642   1.486   0.672   5.993
23847WAT     H173643   1.458   0.718   6.071
23847WAT     H273644   1.566   0.626   6.019
23848WAT      O73645   0.708   1.021   5.986
23848WAT     H173646   0.707   1.095   5.924
23848WAT     H273647   0.616   0.997   5.995
23849WAT      O73648   0.268   0.543   6.060
23849WAT     H173649   0.207   0.617   6.061
23849WAT     H273650   0.316   0.552   5.978
23850WAT      O73651   1.007   1.028   5.852
23850WAT     H173652   1.017   1.007   5.759
23850WAT     H273653   0.917   1.002   5.872
23851WAT      O73654   0.921   0.225   7.050
23851WAT     H173655   0.971   0.273   7.117
23851WAT     H273656   0.936   0.133   7.071
23852WAT      O73657   0.871   1.279   6.321
23852WAT     H173658   0.896   1.276   6.229
23852WAT     H273659   0.776   1.267   6.321
23853WAT      O73660   1.471   0.371   6.479
23853WAT     H173661   1.377   0.373   6.496
23853WAT     H273662   1.503   0.293   6.524
23854WAT      O73663   0.469   0.540   5.835
23854WAT     H173664   0.546   0.528   5.891
23854WAT     H273665   0.477   0.470   5.770
23855WAT      O73666   0.339   0.283   5.903
23855WAT     H173667   0.347   0.188   5.915
23855WAT     H273668   0.428   0.316   5.914
23856WAT      O73669   1.672   1.088   6.647
23856WAT     H173670   1.684   1.171   6.694
23856WAT     H273671   1.758   1.067   6.612
23857WAT      O73672   0.419   1.298   6.614
23857WAT     H173673   0.492   1.243   6.641
23857WAT     H273674   0.457   1.384   6.600
23858WAT      O73675   0.730   1.215   5.796
23858WAT     H173676   0.809   1.244   5.751
23858WAT     H273677   0.678   1.172   5.728
23859WAT      O73678   1.346   1.200   7.388
23859WAT     H173679   1.441   1.191   7.383
23859WAT     H273680   1.331   1.266   7.456
23860WAT      O73681   1.635   1.138   5.938
23860WAT     H173682   1.607   1.096   5.857
23860WAT     H273683   1.615   1.231   5.926
23861WAT      O73684   0.782   0.737   5.782
23861WAT     H173685   0.771   0.676   5.855
23861WAT     H273686   0.765   0.685   5.704
23862WAT      O73687   0.797   0.606   7.380
23862WAT     H173688   0.720   0.663   7.372
23862WAT     H273689   0.815   0.576   7.291
23863WAT      O73690   1.106   0.643   5.843
23863WAT     H173691   1.051   0.688   5.907
23863WAT     H273692   1.168   0.593   5.895
23864WAT      O73693   1.511   0.779   7.436
23864WAT     H173694   1.585   0.813   7.386
23864WAT     H273695   1.435   0.796   7.381
23865WAT      O73696   0.672   0.539   6.032
23865WAT     H173697   0.715   0.523   6.117
23865WAT     H273698   0.685   0.458   5.983
23866WAT      O73699   0.924   0.442   5.757
23866WAT     H173700   0.976   0.370   5.721
23866WAT     H273701   0.988   0.505   5.787
23867WAT      O73702   1.378   0.584   7.290
23867WAT     H173703   1.420   0.599   7.375
23867WAT     H273704   1.285   0.596   7.306
23868WAT      O73705   1.426   0.318   7.490
23868WAT     H173706   1.484   0.242   7.481
23868WAT     H273707   1.443   0.371   7.412
23869WAT      O73708   0.855   0.579   7.087
23869WAT     H173709   0.896   0.663   7.069
23869WAT     H273710   0.763   0.593   7.064
23870WAT      O73711   1.088   0.352   7.225
23870WAT     H173712   1.100   0.293   7.299
23870WAT     H273713   1.174   0.356   7.183
23871WAT      O73714   1.322   0.408   7.083
23871WAT     H173715   1.269   0.460   7.022
23871WAT     H273716   1.356   0.471   7.146
23872WAT      O73717   0.640   1.210   7.198
23872WAT     H173718   0.586   1.282   7.166
23872WAT     H273719   0.665   1.162   7.119
23873WAT      O73720   0.925   1.333   7.224
23873WAT     H173721   0.918   1.423   7.255
23873WAT     H273722   0.835   1.301   7.221
23874WAT      O73723   0.980   1.250   5.986
23874WAT     H173724   1.070   1.284   5.988
23874WAT     H273725   0.983   1.178   5.924
23875WAT      O73726   0.344   0.787   5.809
23875WAT     H173727   0.388   0.841   5.875
23875WAT     H273728   0.393   0.704   5.810
23876WAT      O73729   0.525   0.899   6.320
23876WAT     H173730   0.495   0.887   6.410
23876WAT     H273731   0.515   0.813   6.280
23877WAT      O73732   1.678   1.103   7.257
23877WAT     H173733   1.618   1.109   7.183
23877WAT     H273734   1.691   1.009   7.270
23878WAT      O73735   1.802   0.877   5.791
23878WAT     H173736   1.719   0.884   5.838
23878WAT     H273737   1.820   0.966   5.760
23879WAT      O73738   1.748   0.551   6.041
23879WAT     H173739   1.824   0.608   6.052
23879WAT     H273740   1.749   0.495   6.118
23880WAT      O73741   1.848   0.637   6.525
23880WAT     H173742   1.885   0.559   6.485
23880WAT     H273743   1.912   0.706   6.508
23881WAT      O73744   1.547   0.775   7.067
23881WAT     H173745   1.465   0.818   7.093
23881WAT     H273746   1.587   0.836   7.005
23882WAT      O73747   1.753   0.581   5.757
23882WAT     H173748   1.780   0.672   5.744
23882WAT     H273749   1.734   0.574   5.850
23883WAT      O73750   1.743   0.374   6.256
23883WAT     H173751   1.705   0.298   6.213
23883WAT     H273752   1.670   0.413   6.305
23884WAT      O73753   0.201   0.442   6.918
23884WAT     H173754   0.238   0.434   7.006
23884WAT     H273755   0.145   0.366   6.908
23885WAT      O73756   1.682   0.289   7.219
23885WAT     H173757   1.658   0.266   7.129
23885WAT     H273758   1.708   0.381   7.215
23886WAT      O73759   1.670   0.197   6.586
23886WAT     H173760   1.722   0.148   6.523
23886WAT     H273761   1.729   0.211   6.661
23887WAT      O73762   1.688   0.205   6.938
23887WAT     H173763   1.593   0.202   6.950
23887WAT     H273764   1.706   0.296   6.915
23888WAT      O73765   1.552   1.250   6.419
23888WAT     H173766   1.612   1.218   6.352
23888WAT     H273767   1.578   1.203   6.499
23889WAT      O73768   0.713   1.049   6.994
23889WAT     H173769   0.689   1.076   6.906
23889WAT     H273770   0.807   1.066   7.000
23890WAT      O73771   1.839   1.251   7.074
23890WAT     H173772   1.790   1.291   7.003
23890WAT     H273773   1.778   1.189   7.114
23891WAT      O73774   0.327   1.188   7.146
23891WAT     H173775   0.267   1.175   7.220
23891WAT     H273776   0.326   1.105   7.100
23892WAT      O73777   1.607   1.315   6.802
23892WAT     H173778   1.562   1.391   6.765
23892WAT     H273779   1.545   1.243   6.796
23893WAT      O73780   0.290   0.925   7.041
23893WAT     H173781   0.217   0.863   7.035
23893WAT     H273782   0.296   0.964   6.954
23894WAT      O73783   0.650   1.146   6.720
23894WAT     H173784   0.702   1.085   6.667
23894WAT     H273785   0.715   1.197   6.769
23895WAT      O73786   0.924   1.235   6.803
23895WAT     H173787   0.953   1.210   6.715
23895WAT     H273788   0.976   1.180   6.862
23896WAT      O73789   0.279   1.126   6.107
23896WAT     H173790   0.226   1.164   6.036
23896WAT     H273791   0.271   1.188   6.179
23897WAT      O73792   1.755   1.282   6.239
23897WAT     H173793   1.772   1.213   6.175
23897WAT     H273794   1.685   1.334   6.200
23898WAT      O73795   0.539   1.321   5.994
23898WAT     H173796   0.612   1.292   5.940
23898WAT     H273797   0.565   1.297   6.083
23899WAT      O73798   0.455   0.932   5.995
23899WAT     H173799   0.392   0.979   6.050
23899WAT     H273800   0.466   0.848   6.038
23900WAT      O73801   1.200   0.337   4.610
23900WAT     H173802   1.192   0.246   4.583
23900WAT     H273803   1.159   0.387   4.539
23901WAT      O73804   1.014   0.515   4.798
23901WAT     H173805   0.936   0.467   4.827
23901WAT     H273806   1.079   0.447   4.780
23902WAT      O73807   0.415   0.546   4.886
23902WAT     H173808   0.332   0.521   4.926
23902WAT     H273809   0.476   0.554   4.959
23903WAT      O73810   1.416   0.956   4.676
23903WAT     H173811   1.370   0.879   4.709
23903WAT     H273812   1.497   0.959   4.726
23904WAT      O73813   0.413   0.950   4.905
23904WAT     H173814   0.444   0.861   4.887
23904WAT     H273815   0.488   1.006   4.882
23905WAT      O73816   1.038   1.184   4.638
23905WAT     H173817   0.976   1.230   4.581
23905WAT     H273818   1.124   1.200   4.598
23906WAT      O73819   0.958   0.783   4.799
23906WAT     H173820   0.951   0.689   4.782
23906WAT     H273821   1.034   0.792   4.856
23907WAT      O73822   1.125   0.673   4.377
23907WAT     H173823   1.063   0.719   4.321
23907WAT     H273824   1.176   0.742   4.419
23908WAT      O73825   0.611   0.626   5.045
23908WAT     H173826   0.578   0.688   5.109
23908WAT     H273827   0.629   0.678   4.967
23909WAT      O73828   0.533   0.822   5.227
23909WAT     H173829   0.594   0.890   5.198
23909WAT     H273830   0.446   0.863   5.217
23910WAT      O73831   1.624   0.969   5.018
23910WAT     H173832   1.556   1.036   5.017
23910WAT     H273833   1.678   0.989   4.942
23911WAT      O73834   1.378   1.153   4.890
23911WAT     H173835   1.379   1.113   4.803
23911WAT     H273836   1.323   1.231   4.879
23912WAT      O73837   1.507   0.825   4.398
23912WAT     H173838   1.496   0.731   4.411
23912WAT     H273839   1.507   0.862   4.487
23913WAT      O73840   1.318   0.644   5.022
23913WAT     H173841   1.359   0.622   4.939
23913WAT     H273842   1.390   0.669   5.079
23914WAT      O73843   1.062   0.388   4.334
23914WAT     H173844   0.969   0.381   4.357
23914WAT     H273845   1.077   0.482   4.323
23915WAT      O73846   1.712   0.483   5.032
23915WAT     H173847   1.630   0.490   4.984
23915WAT     H273848   1.772   0.542   4.985
23916WAT      O73849   1.465   0.544   4.384
23916WAT     H173850   1.403   0.510   4.320
23916WAT     H273851   1.463   0.480   4.455
23917WAT      O73852   0.622   0.441   4.612
23917WAT     H173853   0.582   0.369   4.563
23917WAT     H273854   0.631   0.406   4.701
23918WAT      O73855   0.669   0.809   4.829
23918WAT     H173856   0.639   0.749   4.761
23918WAT     H273857   0.764   0.813   4.818
23919WAT      O73858   1.478   1.167   5.195
23919WAT     H173859   1.430   1.247   5.176
23919WAT     H273860   1.409   1.101   5.210
23920WAT      O73861   0.578   0.783   5.494
23920WAT     H173862   0.488   0.806   5.518
23920WAT     H273863   0.581   0.796   5.399
23921WAT      O73864   1.282   0.468   4.085
23921WAT     H173865   1.326   0.384   4.071
23921WAT     H273866   1.353   0.531   4.094
23922WAT      O73867   0.461   0.470   5.351
23922WAT     H173868   0.447   0.558   5.388
23922WAT     H273869   0.373   0.436   5.337
23923WAT      O73870   1.093   0.962   4.482
23923WAT     H173871   1.137   1.036   4.441
23923WAT     H273872   1.087   0.986   4.574
23924WAT      O73873   0.641   1.065   5.572
23924WAT     H173874   0.638   1.105   5.485
23924WAT     H273875   0.624   0.972   5.556
23925WAT      O73876   0.292   0.330   4.362
23925WAT     H173877   0.280   0.403   4.301
23925WAT     H273878   0.261   0.253   4.315
23926WAT      O73879   1.836   1.143   5.702
23926WAT     H173880   1.883   1.191   5.770
23926WAT     H273881   1.898   1.136   5.629
23927WAT      O73882   0.180   0.817   4.584
23927WAT     H173883   0.140   0.831   4.499
23927WAT     H273884   0.270   0.789   4.564
23928WAT      O73885   1.776   0.862   5.418
23928WAT     H173886   1.789   0.838   5.326
23928WAT     H273887   1.780   0.779   5.465
23929WAT      O73888   1.162   1.232   5.275
23929WAT     H173889   1.214   1.223   5.355
23929WAT     H273890   1.078   1.267   5.304
23930WAT      O73891   1.360   1.261   4.218
23930WAT     H173892   1.344   1.232   4.307
23930WAT     H273893   1.343   1.183   4.164
23931WAT      O73894   0.608   1.239   4.395
23931WAT     H173895   0.590   1.147   4.374
23931WAT     H273896   0.522   1.275   4.419
23932WAT      O73897   1.330   1.012   4.074
23932WAT     H173898   1.261   1.011   4.008
23932WAT     H273899   1.404   0.969   4.031
23933WAT      O73900   1.287   1.174   4.481
23933WAT     H173901   1.332   1.096   4.512
23933WAT     H273902   1.321   1.245   4.535
23934WAT      O73903   1.177   0.223   5.584
23934WAT     H173904   1.210   0.140   5.550
23934WAT     H273905   1.256   0.276   5.599
23935WAT      O73906   0.518   0.177   4.473
23935WAT     H173907   0.495   0.155   4.564
23935WAT     H273908   0.440   0.220   4.439
23936WAT      O73909   1.241   0.177   4.333
23936WAT     H173910   1.181   0.250   4.315
23936WAT     H273911   1.296   0.171   4.255
23937WAT      O73912   0.762   0.267   5.540
23937WAT     H173913   0.752   0.173   5.525
23937WAT     H273914   0.846   0.289   5.500
23938WAT      O73915   1.160   0.300   4.946
23938WAT     H173916   1.087   0.351   4.981
23938WAT     H273917   1.120   0.218   4.916
23939WAT      O73918   0.711   0.299   4.025
23939WAT     H173919   0.654   0.254   3.963
23939WAT     H273920   0.782   0.335   3.972
23940WAT      O73921   0.219   0.689   5.413
23940WAT     H173922   0.181   0.625   5.473
23940WAT     H273923   0.250   0.759   5.470
23941WAT      O73924   0.834   0.374   4.961
23941WAT     H173925   0.871   0.326   5.036
23941WAT     H273926   0.815   0.461   4.995
23942WAT      O73927   0.613   0.278   5.193
23942WAT     H173928   0.583   0.366   5.215
23942WAT     H273929   0.708   0.284   5.196
23943WAT      O73930   0.466   0.698   4.253
23943WAT     H173931   0.388   0.644   4.237
23943WAT     H273932   0.539   0.646   4.219
23944WAT      O73933   1.542   0.598   4.832
23944WAT     H173934   1.614   0.648   4.793
23944WAT     H273935   1.521   0.530   4.767
23945WAT      O73936   1.080   0.605   5.420
23945WAT     H173937   1.073   0.513   5.395
23945WAT     H273938   1.017   0.615   5.492
23946WAT      O73939   0.470   0.665   4.616
23946WAT     H173940   0.522   0.585   4.611
23946WAT     H273941   0.425   0.659   4.700
23947WAT      O73942   0.959   0.792   4.144
23947WAT     H173943   0.993   0.866   4.094
23947WAT     H273944   0.876   0.823   4.180
23948WAT      O73945   0.219   0.362   5.308
23948WAT     H173946   0.183   0.428   5.366
23948WAT     H273947   0.189   0.279   5.345
23949WAT      O73948   0.539   0.408   5.596
23949WAT     H173949   0.509   0.422   5.506
23949WAT     H273950   0.616   0.352   5.587
23950WAT      O73951   1.073   0.887   5.396
23950WAT     H173952   1.074   0.794   5.374
23950WAT     H273953   1.002   0.896   5.459
23951WAT      O73954   1.586   0.306   4.022
23951WAT     H173955   1.578   0.349   3.937
23951WAT     H273956   1.658   0.352   4.066
23952WAT      O73957   1.694   0.551   5.330
23952WAT     H173958   1.622   0.611   5.310
23952WAT     H273959   1.747   0.551   5.250
23953WAT      O73960   1.689   0.991   4.295
23953WAT     H173961   1.625   0.926   4.323
23953WAT     H273962   1.651   1.032   4.218
23954WAT      O73963   1.247   0.724   4.680
23954WAT     H173964   1.282   0.664   4.614
23954WAT     H273965   1.159   0.691   4.697
23955WAT      O73966   0.856   0.800   4.421
23955WAT     H173967   0.924   0.855   4.459
23955WAT     H273968   0.777   0.854   4.424
23956WAT      O73969   0.786   0.500   4.382
23956WAT     H173970   0.832   0.582   4.405
23956WAT     H273971   0.751   0.469   4.465
23957WAT      O73972   1.016   1.052   5.105
23957WAT     H173973   1.081   1.072   5.173
23957WAT     H273974   1.053   0.975   5.060
23958WAT      O73975   1.144   0.852   4.977
23958WAT     H173976   1.208   0.782   4.988
23958WAT     H273977   1.196   0.930   4.959
23959WAT      O73978   1.528   0.880   3.949
23959WAT     H173979   1.506   0.809   4.008
23959WAT     H273980   1.489   0.855   3.865
23960WAT      O73981   1.321   0.932   5.297
23960WAT     H173982   1.355   0.990   5.365
23960WAT     H273983   1.229   0.919   5.320
23961WAT      O73984   1.486   0.672   4.115
23961WAT     H173985   1.458   0.718   4.194
23961WAT     H273986   1.566   0.626   4.142
23962WAT      O73987   0.904   0.937   5.614
23962WAT     H173988   0.872   0.865   5.668
23962WAT     H273989   0.837   1.004   5.621
23963WAT      O73990   0.708   1.021   4.108
23963WAT     H173991   0.707   1.095   4.047
23963WAT     H273992   0.616   0.997   4.118
23964WAT      O73993   0.268   0.543   4.183
23964WAT     H173994   0.207   0.617   4.184
23964WAT     H273995   0.316   0.552   4.100
23965WAT      O73996   1.007   1.028   3.975
23965WAT     H173997   1.017   1.007   3.882
23965WAT     H273998   0.917   1.002   3.995
23966WAT      O73999   0.921   0.225   5.173
23966WAT     H174000   0.971   0.273   5.239
23966WAT     H274001   0.936   0.133   5.193
23967WAT      O74002   0.871   1.279   4.444
23967WAT     H174003   0.896   1.276   4.352
23967WAT     H274004   0.776   1.267   4.443
23968WAT      O74005   1.471   0.371   4.602
23968WAT     H174006   1.377   0.373   4.619
23968WAT     H274007   1.503   0.293   4.646
23969WAT      O74008   0.469   0.540   3.958
23969WAT     H174009   0.546   0.528   4.014
23969WAT     H274010   0.477   0.470   3.892
23970WAT      O74011   0.339   0.283   4.026
23970WAT     H174012   0.347   0.188   4.037
23970WAT     H274013   0.428   0.316   4.037
23971WAT      O74014   1.672   1.088   4.769
23971WAT     H174015   1.684   1.171   4.816
23971WAT     H274016   1.758   1.067   4.734
23972WAT      O74017   0.419   1.298   4.736
23972WAT     H174018   0.492   1.243   4.763
23972WAT     H274019   0.457   1.384   4.722
23973WAT      O74020   0.319   1.216   5.655
23973WAT     H174021   0.400   1.248   5.696
23973WAT     H274022   0.268   1.180   5.727
23974WAT      O74023   0.730   1.215   3.919
23974WAT     H174024   0.809   1.244   3.873
23974WAT     H274025   0.678   1.172   3.851
23975WAT      O74026   1.203   0.827   5.650
23975WAT     H174027   1.142   0.829   5.576
23975WAT     H274028   1.173   0.754   5.704
23976WAT      O74029   1.346   1.200   5.511
23976WAT     H174030   1.441   1.191   5.506
23976WAT     H274031   1.331   1.266   5.578
23977WAT      O74032   1.635   1.138   4.061
23977WAT     H174033   1.607   1.096   3.979
23977WAT     H274034   1.615   1.231   4.049
23978WAT      O74035   0.782   0.737   3.905
23978WAT     H174036   0.771   0.676   3.978
23978WAT     H274037   0.765   0.685   3.827
23979WAT      O74038   0.797   0.606   5.503
23979WAT     H174039   0.720   0.663   5.494
23979WAT     H274040   0.815   0.576   5.414
23980WAT      O74041   1.106   0.643   3.965
23980WAT     H174042   1.051   0.688   4.030
23980WAT     H274043   1.168   0.593   4.018
23981WAT      O74044   1.511   0.779   5.559
23981WAT     H174045   1.585   0.813   5.508
23981WAT     H274046   1.435   0.796   5.503
23982WAT      O74047   0.295   0.279   5.639
23982WAT     H174048   0.299   0.249   5.730
23982WAT     H274049   0.380   0.319   5.623
23983WAT      O74050   0.672   0.539   4.155
23983WAT     H174051   0.715   0.523   4.239
23983WAT     H274052   0.685   0.458   4.106
23984WAT      O74053   0.924   0.442   3.880
23984WAT     H174054   0.976   0.370   3.843
23984WAT     H274055   0.988   0.505   3.910
23985WAT      O74056   1.378   0.584   5.412
23985WAT     H174057   1.420   0.599   5.497
23985WAT     H274058   1.285   0.596   5.428
23986WAT      O74059   1.426   0.318   5.613
23986WAT     H174060   1.484   0.242   5.604
23986WAT     H274061   1.443   0.371   5.535
23987WAT      O74062   0.855   0.579   5.209
23987WAT     H174063   0.896   0.663   5.192
23987WAT     H274064   0.763   0.593   5.186
23988WAT      O74065   1.088   0.352   5.348
23988WAT     H174066   1.100   0.293   5.421
23988WAT     H274067   1.174   0.356   5.306
23989WAT      O74068   1.322   0.408   5.205
23989WAT     H174069   1.269   0.460   5.145
23989WAT     H274070   1.356   0.471   5.268
23990WAT      O74071   0.640   1.210   5.321
23990WAT     H174072   0.586   1.282   5.289
23990WAT     H274073   0.665   1.162   5.242
23991WAT      O74074   0.925   1.333   5.347
23991WAT     H174075   0.918   1.423   5.377
23991WAT     H274076   0.835   1.301   5.344
23992WAT      O74077   0.980   1.250   4.109
23992WAT     H174078   1.070   1.284   4.111
23992WAT     H274079   0.983   1.178   4.046
23993WAT      O74080   0.344   0.787   3.932
23993WAT     H174081   0.388   0.841   3.997
23993WAT     H274082   0.393   0.704   3.933
23994WAT      O74083   0.525   0.899   4.443
23994WAT     H174084   0.495   0.887   4.533
23994WAT     H274085   0.515   0.813   4.402
23995WAT      O74086   1.678   1.103   5.379
23995WAT     H174087   1.618   1.109   5.305
23995WAT     H274088   1.691   1.009   5.392
23996WAT      O74089   1.802   0.877   3.913
23996WAT     H174090   1.719   0.884   3.960
23996WAT     H274091   1.820   0.966   3.883
23997WAT      O74092   1.748   0.551   4.164
23997WAT     H174093   1.824   0.608   4.174
23997WAT     H274094   1.749   0.495   4.241
23998WAT      O74095   1.848   0.637   4.648
23998WAT     H174096   1.885   0.559   4.607
23998WAT     H274097   1.912   0.706   4.630
23999WAT      O74098   1.547   0.775   5.189
23999WAT     H174099   1.465   0.818   5.216
23999WAT     H274100   1.587   0.836   5.128
24000WAT      O74101   1.753   0.581   3.879
24000WAT     H174102   1.780   0.672   3.866
24000WAT     H274103   1.734   0.574   3.973
24001WAT      O74104   1.743   0.374   4.379
24001WAT     H174105   1.705   0.298   4.335
24001WAT     H274106   1.670   0.413   4.427
24002WAT      O74107   0.201   0.442   5.041
24002WAT     H174108   0.238   0.434   5.129
24002WAT     H274109   0.145   0.366   5.031
24003WAT      O74110   1.682   0.289   5.342
24003WAT     H174111   1.658   0.266   5.252
24003WAT     H274112   1.708   0.381   5.337
24004WAT      O74113   1.670   0.197   4.709
24004WAT     H174114   1.722   0.148   4.646
24004WAT     H274115   1.729   0.211   4.783
24005WAT      O74116   1.688   0.205   5.061
24005WAT     H174117   1.593   0.202   5.072
24005WAT     H274118   1.706   0.296   5.037
24006WAT      O74119   1.552   1.250   4.542
24006WAT     H174120   1.612   1.218   4.474
24006WAT     H274121   1.578   1.203   4.621
24007WAT      O74122   0.343   0.894   5.557
24007WAT     H174123   0.339   0.857   5.645
24007WAT     H274124   0.356   0.987   5.571
24008WAT      O74125   0.713   1.049   5.117
24008WAT     H174126   0.689   1.076   5.028
24008WAT     H274127   0.807   1.066   5.122
24009WAT      O74128   1.839   1.251   5.197
24009WAT     H174129   1.790   1.291   5.125
24009WAT     H274130   1.778   1.189   5.236
24010WAT      O74131   0.327   1.188   5.269
24010WAT     H174132   0.267   1.175   5.343
24010WAT     H274133   0.326   1.105   5.222
24011WAT      O74134   1.607   1.315   4.925
24011WAT     H174135   1.562   1.391   4.887
24011WAT     H274136   1.545   1.243   4.919
24012WAT      O74137   0.290   0.925   5.164
24012WAT     H174138   0.217   0.863   5.157
24012WAT     H274139   0.296   0.964   5.077
24013WAT      O74140   0.650   1.146   4.842
24013WAT     H174141   0.702   1.085   4.790
24013WAT     H274142   0.715   1.197   4.892
24014WAT      O74143   0.924   1.235   4.925
24014WAT     H174144   0.953   1.210   4.837
24014WAT     H274145   0.976   1.180   4.984
24015WAT      O74146   0.279   1.126   4.229
24015WAT     H174147   0.226   1.164   4.159
24015WAT     H274148   0.271   1.188   4.301
24016WAT      O74149   0.931   1.328   5.662
24016WAT     H174150   1.024   1.304   5.666
24016WAT     H274151   0.930   1.410   5.614
24017WAT      O74152   1.755   1.282   4.362
24017WAT     H174153   1.772   1.213   4.297
24017WAT     H274154   1.685   1.334   4.322
24018WAT      O74155   0.539   1.321   4.117
24018WAT     H174156   0.612   1.292   4.062
24018WAT     H274157   0.565   1.297   4.206
24019WAT      O74158   0.455   0.932   4.117
24019WAT     H174159   0.392   0.979   4.172
24019WAT     H274160   0.466   0.848   4.161
24020WAT      O74161   1.588   1.250   5.644
24020WAT     H174162   1.667   1.201   5.623
24020WAT     H274163   1.617   1.318   5.705
24021WAT      O74164   1.200   0.337   2.732
24021WAT     H174165   1.192   0.246   2.705
24021WAT     H274166   1.159   0.387   2.662
24022WAT      O74167   1.014   0.515   2.920
24022WAT     H174168   0.936   0.467   2.949
24022WAT     H274169   1.079   0.447   2.903
24023WAT      O74170   0.415   0.546   3.008
24023WAT     H174171   0.332   0.521   3.048
24023WAT     H274172   0.476   0.554   3.082
24024WAT      O74173   1.416   0.956   2.798
24024WAT     H174174   1.370   0.879   2.831
24024WAT     H274175   1.497   0.959   2.849
24025WAT      O74176   0.413   0.950   3.028
24025WAT     H174177   0.444   0.861   3.010
24025WAT     H274178   0.488   1.006   3.005
24026WAT      O74179   1.038   1.184   2.760
24026WAT     H174180   0.976   1.230   2.703
24026WAT     H274181   1.124   1.200   2.720
24027WAT      O74182   0.958   0.783   2.921
24027WAT     H174183   0.951   0.689   2.905
24027WAT     H274184   1.034   0.792   2.978
24028WAT      O74185   1.125   0.673   2.500
24028WAT     H174186   1.063   0.719   2.443
24028WAT     H274187   1.176   0.742   2.541
24029WAT      O74188   0.611   0.626   3.168
24029WAT     H174189   0.578   0.688   3.232
24029WAT     H274190   0.629   0.678   3.090
24030WAT      O74191   0.533   0.822   3.349
24030WAT     H174192   0.594   0.890   3.321
24030WAT     H274193   0.446   0.863   3.340
24031WAT      O74194   1.624   0.969   3.141
24031WAT     H174195   1.556   1.036   3.140
24031WAT     H274196   1.678   0.989   3.064
24032WAT      O74197   1.378   1.153   3.012
24032WAT     H174198   1.379   1.113   2.925
24032WAT     H274199   1.323   1.231   3.002
24033WAT      O74200   1.507   0.825   2.521
24033WAT     H174201   1.496   0.731   2.534
24033WAT     H274202   1.507   0.862   2.610
24034WAT      O74203   1.318   0.644   3.145
24034WAT     H174204   1.359   0.622   3.061
24034WAT     H274205   1.390   0.669   3.202
24035WAT      O74206   1.062   0.388   2.457
24035WAT     H174207   0.969   0.381   2.480
24035WAT     H274208   1.077   0.482   2.445
24036WAT      O74209   1.712   0.483   3.154
24036WAT     H174210   1.630   0.490   3.107
24036WAT     H274211   1.772   0.542   3.107
24037WAT      O74212   1.465   0.544   2.507
24037WAT     H174213   1.403   0.510   2.442
24037WAT     H274214   1.463   0.480   2.578
24038WAT      O74215   0.622   0.441   2.735
24038WAT     H174216   0.582   0.369   2.685
24038WAT     H274217   0.631   0.406   2.824
24039WAT      O74218   0.669   0.809   2.951
24039WAT     H174219   0.639   0.749   2.883
24039WAT     H274220   0.764   0.813   2.940
24040WAT      O74221   1.478   1.167   3.317
24040WAT     H174222   1.430   1.247   3.298
24040WAT     H274223   1.409   1.101   3.333
24041WAT      O74224   0.578   0.783   3.616
24041WAT     H174225   0.488   0.806   3.641
24041WAT     H274226   0.581   0.796   3.521
24042WAT      O74227   1.282   0.468   2.208
24042WAT     H174228   1.326   0.384   2.193
24042WAT     H274229   1.353   0.531   2.216
24043WAT      O74230   0.461   0.470   3.474
24043WAT     H174231   0.447   0.558   3.511
24043WAT     H274232   0.373   0.436   3.459
24044WAT      O74233   1.093   0.962   2.605
24044WAT     H174234   1.137   1.036   2.563
24044WAT     H274235   1.087   0.986   2.697
24045WAT      O74236   0.641   1.065   3.695
24045WAT     H174237   0.638   1.105   3.608
24045WAT     H274238   0.624   0.972   3.678
24046WAT      O74239   0.292   0.330   2.485
24046WAT     H174240   0.280   0.403   2.424
24046WAT     H274241   0.261   0.253   2.437
24047WAT      O74242   1.836   1.143   3.824
24047WAT     H174243   1.883   1.191   3.892
24047WAT     H274244   1.898   1.136   3.752
24048WAT      O74245   0.180   0.817   2.707
24048WAT     H174246   0.140   0.831   2.621
24048WAT     H274247   0.270   0.789   2.686
24049WAT      O74248   1.776   0.862   3.540
24049WAT     H174249   1.789   0.838   3.449
24049WAT     H274250   1.780   0.779   3.588
24050WAT      O74251   1.162   1.232   3.397
24050WAT     H174252   1.214   1.223   3.478
24050WAT     H274253   1.078   1.267   3.427
24051WAT      O74254   1.360   1.261   2.340
24051WAT     H174255   1.344   1.232   2.430
24051WAT     H274256   1.343   1.183   2.287
24052WAT      O74257   0.608   1.239   2.518
24052WAT     H174258   0.590   1.147   2.497
24052WAT     H274259   0.522   1.275   2.542
24053WAT      O74260   1.330   1.012   2.196
24053WAT     H174261   1.261   1.011   2.130
24053WAT     H274262   1.404   0.969   2.153
24054WAT      O74263   1.287   1.174   2.604
24054WAT     H174264   1.332   1.096   2.635
24054WAT     H274265   1.321   1.245   2.658
24055WAT      O74266   1.177   0.223   3.706
24055WAT     H174267   1.210   0.140   3.672
24055WAT     H274268   1.256   0.276   3.721
24056WAT      O74269   0.518   0.177   2.596
24056WAT     H174270   0.495   0.155   2.686
24056WAT     H274271   0.440   0.220   2.561
24057WAT      O74272   1.241   0.177   2.456
24057WAT     H174273   1.181   0.250   2.437
24057WAT     H274274   1.296   0.171   2.378
24058WAT      O74275   0.762   0.267   3.663
24058WAT     H174276   0.752   0.173   3.648
24058WAT     H274277   0.846   0.289   3.623
24059WAT      O74278   1.160   0.300   3.068
24059WAT     H174279   1.087   0.351   3.103
24059WAT     H274280   1.120   0.218   3.038
24060WAT      O74281   0.711   0.299   2.148
24060WAT     H174282   0.654   0.254   2.085
24060WAT     H274283   0.782   0.335   2.094
24061WAT      O74284   0.219   0.689   3.535
24061WAT     H174285   0.181   0.625   3.595
24061WAT     H274286   0.250   0.759   3.592
24062WAT      O74287   0.834   0.374   3.084
24062WAT     H174288   0.871   0.326   3.158
24062WAT     H274289   0.815   0.461   3.118
24063WAT      O74290   0.613   0.278   3.315
24063WAT     H174291   0.583   0.366   3.338
24063WAT     H274292   0.708   0.284   3.319
24064WAT      O74293   0.466   0.698   2.375
24064WAT     H174294   0.388   0.644   2.359
24064WAT     H274295   0.539   0.646   2.341
24065WAT      O74296   1.542   0.598   2.954
24065WAT     H174297   1.614   0.648   2.915
24065WAT     H274298   1.521   0.530   2.890
24066WAT      O74299   1.080   0.605   3.543
24066WAT     H174300   1.073   0.513   3.518
24066WAT     H274301   1.017   0.615   3.614
24067WAT      O74302   0.470   0.665   2.739
24067WAT     H174303   0.522   0.585   2.733
24067WAT     H274304   0.425   0.659   2.823
24068WAT      O74305   0.959   0.792   2.266
24068WAT     H174306   0.993   0.866   2.217
24068WAT     H274307   0.876   0.823   2.302
24069WAT      O74308   0.219   0.362   3.430
24069WAT     H174309   0.183   0.428   3.489
24069WAT     H274310   0.189   0.279   3.467
24070WAT      O74311   0.539   0.408   3.719
24070WAT     H174312   0.509   0.422   3.629
24070WAT     H274313   0.616   0.352   3.709
24071WAT      O74314   1.073   0.887   3.518
24071WAT     H174315   1.074   0.794   3.496
24071WAT     H274316   1.002   0.896   3.582
24072WAT      O74317   1.586   0.306   2.145
24072WAT     H174318   1.578   0.349   2.060
24072WAT     H274319   1.658   0.352   2.188
24073WAT      O74320   1.694   0.551   3.453
24073WAT     H174321   1.622   0.611   3.433
24073WAT     H274322   1.747   0.551   3.373
24074WAT      O74323   1.689   0.991   2.418
24074WAT     H174324   1.625   0.926   2.445
24074WAT     H274325   1.651   1.032   2.340
24075WAT      O74326   1.247   0.724   2.803
24075WAT     H174327   1.282   0.664   2.737
24075WAT     H274328   1.159   0.691   2.820
24076WAT      O74329   0.856   0.800   2.543
24076WAT     H174330   0.924   0.855   2.581
24076WAT     H274331   0.777   0.854   2.547
24077WAT      O74332   0.786   0.500   2.505
24077WAT     H174333   0.832   0.582   2.527
24077WAT     H274334   0.751   0.469   2.588
24078WAT      O74335   1.016   1.052   3.227
24078WAT     H174336   1.081   1.072   3.295
24078WAT     H274337   1.053   0.975   3.182
24079WAT      O74338   1.144   0.852   3.099
24079WAT     H174339   1.208   0.782   3.111
24079WAT     H274340   1.196   0.930   3.081
24080WAT      O74341   1.528   0.880   2.072
24080WAT     H174342   1.506   0.809   2.131
24080WAT     H274343   1.489   0.855   1.988
24081WAT      O74344   1.321   0.932   3.420
24081WAT     H174345   1.355   0.990   3.487
24081WAT     H274346   1.229   0.919   3.443
24082WAT      O74347   1.486   0.672   2.238
24082WAT     H174348   1.458   0.718   2.317
24082WAT     H274349   1.566   0.626   2.265
24083WAT      O74350   0.904   0.937   3.736
24083WAT     H174351   0.872   0.865   3.791
24083WAT     H274352   0.837   1.004   3.744
24084WAT      O74353   0.708   1.021   2.231
24084WAT     H174354   0.707   1.095   2.169
24084WAT     H274355   0.616   0.997   2.240
24085WAT      O74356   0.268   0.543   2.305
24085WAT     H174357   0.207   0.617   2.306
24085WAT     H274358   0.316   0.552   2.223
24086WAT      O74359   1.007   1.028   2.097
24086WAT     H174360   1.017   1.007   2.004
24086WAT     H274361   0.917   1.002   2.118
24087WAT      O74362   0.921   0.225   3.295
24087WAT     H174363   0.971   0.273   3.362
24087WAT     H274364   0.936   0.133   3.316
24088WAT      O74365   0.871   1.279   2.567
24088WAT     H174366   0.896   1.276   2.474
24088WAT     H274367   0.776   1.267   2.566
24089WAT      O74368   1.471   0.371   2.724
24089WAT     H174369   1.377   0.373   2.742
24089WAT     H274370   1.503   0.293   2.769
24090WAT      O74371   0.469   0.540   2.080
24090WAT     H174372   0.546   0.528   2.136
24090WAT     H274373   0.477   0.470   2.015
24091WAT      O74374   0.339   0.283   2.149
24091WAT     H174375   0.347   0.188   2.160
24091WAT     H274376   0.428   0.316   2.159
24092WAT      O74377   1.672   1.088   2.892
24092WAT     H174378   1.684   1.171   2.939
24092WAT     H274379   1.758   1.067   2.857
24093WAT      O74380   0.419   1.298   2.859
24093WAT     H174381   0.492   1.243   2.886
24093WAT     H274382   0.457   1.384   2.845
24094WAT      O74383   0.319   1.216   3.778
24094WAT     H174384   0.400   1.248   3.819
24094WAT     H274385   0.268   1.180   3.850
24095WAT      O74386   0.730   1.215   2.041
24095WAT     H174387   0.809   1.244   1.996
24095WAT     H274388   0.678   1.172   1.973
24096WAT      O74389   1.203   0.827   3.772
24096WAT     H174390   1.142   0.829   3.698
24096WAT     H274391   1.173   0.754   3.826
24097WAT      O74392   1.346   1.200   3.634
24097WAT     H174393   1.441   1.191   3.629
24097WAT     H274394   1.331   1.266   3.701
24098WAT      O74395   1.635   1.138   2.183
24098WAT     H174396   1.607   1.096   2.102
24098WAT     H274397   1.615   1.231   2.171
24099WAT      O74398   0.782   0.737   2.028
24099WAT     H174399   0.771   0.676   2.100
24099WAT     H274400   0.765   0.685   1.949
24100WAT      O74401   0.797   0.606   3.625
24100WAT     H174402   0.720   0.663   3.617
24100WAT     H274403   0.815   0.576   3.536
24101WAT      O74404   1.106   0.643   2.088
24101WAT     H174405   1.051   0.688   2.152
24101WAT     H274406   1.168   0.593   2.140
24102WAT      O74407   1.511   0.779   3.681
24102WAT     H174408   1.585   0.813   3.631
24102WAT     H274409   1.435   0.796   3.626
24103WAT      O74410   0.295   0.279   3.762
24103WAT     H174411   0.299   0.249   3.852
24103WAT     H274412   0.380   0.319   3.746
24104WAT      O74413   0.672   0.539   2.278
24104WAT     H174414   0.715   0.523   2.362
24104WAT     H274415   0.685   0.458   2.228
24105WAT      O74416   0.924   0.442   2.002
24105WAT     H174417   0.976   0.370   1.966
24105WAT     H274418   0.988   0.505   2.032
24106WAT      O74419   1.378   0.584   3.535
24106WAT     H174420   1.420   0.599   3.620
24106WAT     H274421   1.285   0.596   3.551
24107WAT      O74422   1.426   0.318   3.735
24107WAT     H174423   1.484   0.242   3.726
24107WAT     H274424   1.443   0.371   3.657
24108WAT      O74425   0.855   0.579   3.332
24108WAT     H174426   0.896   0.663   3.314
24108WAT     H274427   0.763   0.593   3.309
24109WAT      O74428   1.088   0.352   3.470
24109WAT     H174429   1.100   0.293   3.544
24109WAT     H274430   1.174   0.356   3.428
24110WAT      O74431   1.322   0.408   3.328
24110WAT     H174432   1.269   0.460   3.267
24110WAT     H274433   1.356   0.471   3.391
24111WAT      O74434   0.640   1.210   3.443
24111WAT     H174435   0.586   1.282   3.411
24111WAT     H274436   0.665   1.162   3.364
24112WAT      O74437   0.925   1.333   3.469
24112WAT     H174438   0.918   1.423   3.500
24112WAT     H274439   0.835   1.301   3.466
24113WAT      O74440   0.980   1.250   2.231
24113WAT     H174441   1.070   1.284   2.234
24113WAT     H274442   0.983   1.178   2.169
24114WAT      O74443   0.344   0.787   2.054
24114WAT     H174444   0.388   0.841   2.120
24114WAT     H274445   0.393   0.704   2.055
24115WAT      O74446   0.525   0.899   2.565
24115WAT     H174447   0.495   0.887   2.656
24115WAT     H274448   0.515   0.813   2.525
24116WAT      O74449   1.678   1.103   3.502
24116WAT     H174450   1.618   1.109   3.428
24116WAT     H274451   1.691   1.009   3.515
24117WAT      O74452   1.802   0.877   2.036
24117WAT     H174453   1.719   0.884   2.083
24117WAT     H274454   1.820   0.966   2.005
24118WAT      O74455   1.748   0.551   2.286
24118WAT     H174456   1.824   0.608   2.297
24118WAT     H274457   1.749   0.495   2.363
24119WAT      O74458   1.848   0.637   2.771
24119WAT     H174459   1.885   0.559   2.730
24119WAT     H274460   1.912   0.706   2.753
24120WAT      O74461   1.547   0.775   3.312
24120WAT     H174462   1.465   0.818   3.338
24120WAT     H274463   1.587   0.836   3.251
24121WAT      O74464   1.753   0.581   2.002
24121WAT     H174465   1.780   0.672   1.989
24121WAT     H274466   1.734   0.574   2.095
24122WAT      O74467   1.743   0.374   2.501
24122WAT     H174468   1.705   0.298   2.458
24122WAT     H274469   1.670   0.413   2.550
24123WAT      O74470   0.201   0.442   3.163
24123WAT     H174471   0.238   0.434   3.251
24123WAT     H274472   0.145   0.366   3.153
24124WAT      O74473   1.682   0.289   3.465
24124WAT     H174474   1.658   0.266   3.374
24124WAT     H274475   1.708   0.381   3.460
24125WAT      O74476   1.670   0.197   2.831
24125WAT     H174477   1.722   0.148   2.768
24125WAT     H274478   1.729   0.211   2.906
24126WAT      O74479   1.688   0.205   3.183
24126WAT     H174480   1.593   0.202   3.195
24126WAT     H274481   1.706   0.296   3.160
24127WAT      O74482   1.552   1.250   2.665
24127WAT     H174483   1.612   1.218   2.597
24127WAT     H274484   1.578   1.203   2.744
24128WAT      O74485   0.343   0.894   3.679
24128WAT     H174486   0.339   0.857   3.768
24128WAT     H274487   0.356   0.987   3.693
24129WAT      O74488   0.713   1.049   3.240
24129WAT     H174489   0.689   1.076   3.151
24129WAT     H274490   0.807   1.066   3.245
24130WAT      O74491   1.839   1.251   3.320
24130WAT     H174492   1.790   1.291   3.248
24130WAT     H274493   1.778   1.189   3.359
24131WAT      O74494   0.327   1.188   3.391
24131WAT     H174495   0.267   1.175   3.465
24131WAT     H274496   0.326   1.105   3.345
24132WAT      O74497   1.607   1.315   3.047
24132WAT     H174498   1.562   1.391   3.010
24132WAT     H274499   1.545   1.243   3.042
24133WAT      O74500   0.290   0.925   3.286
24133WAT     H174501   0.217   0.863   3.280
24133WAT     H274502   0.296   0.964   3.199
24134WAT      O74503   0.650   1.146   2.965
24134WAT     H174504   0.702   1.085   2.912
24134WAT     H274505   0.715   1.197   3.014
24135WAT      O74506   0.924   1.235   3.048
24135WAT     H174507   0.953   1.210   2.960
24135WAT     H274508   0.976   1.180   3.107
24136WAT      O74509   0.279   1.126   2.352
24136WAT     H174510   0.226   1.164   2.282
24136WAT     H274511   0.271   1.188   2.424
24137WAT      O74512   0.931   1.328   3.784
24137WAT     H174513   1.024   1.304   3.789
24137WAT     H274514   0.930   1.410   3.736
24138WAT      O74515   1.755   1.282   2.484
24138WAT     H174516   1.772   1.213   2.420
24138WAT     H274517   1.685   1.334   2.445
24139WAT      O74518   0.539   1.321   2.239
24139WAT     H174519   0.612   1.292   2.185
24139WAT     H274520   0.565   1.297   2.328
24140WAT      O74521   0.455   0.932   2.240
24140WAT     H174522   0.392   0.979   2.295
24140WAT     H274523   0.466   0.848   2.283
24141WAT      O74524   1.588   1.250   3.767
24141WAT     H174525   1.667   1.201   3.746
24141WAT     H274526   1.617   1.318   3.827
24142WAT      O74527   1.200   0.337   0.855
24142WAT     H174528   1.192   0.246   0.828
24142WAT     H274529   1.159   0.387   0.784
24143WAT      O74530   1.014   0.515   1.043
24143WAT     H174531   0.936   0.467   1.072
24143WAT     H274532   1.079   0.447   1.026
24144WAT      O74533   0.415   0.546   1.131
24144WAT     H174534   0.332   0.521   1.171
24144WAT     H274535   0.476   0.554   1.204
24145WAT      O74536   1.416   0.956   0.921
24145WAT     H174537   1.370   0.879   0.954
24145WAT     H274538   1.497   0.959   0.972
24146WAT      O74539   0.413   0.950   1.150
24146WAT     H174540   0.444   0.861   1.132
24146WAT     H274541   0.488   1.006   1.128
24147WAT      O74542   1.038   1.184   0.883
24147WAT     H174543   0.976   1.230   0.826
24147WAT     H274544   1.124   1.200   0.843
24148WAT      O74545   0.958   0.783   1.044
24148WAT     H174546   0.951   0.689   1.028
24148WAT     H274547   1.034   0.792   1.101
24149WAT      O74548   1.125   0.673   0.622
24149WAT     H174549   1.063   0.719   0.566
24149WAT     H274550   1.176   0.742   0.664
24150WAT      O74551   0.611   0.626   1.290
24150WAT     H174552   0.578   0.688   1.354
24150WAT     H274553   0.629   0.678   1.212
24151WAT      O74554   0.533   0.822   1.472
24151WAT     H174555   0.594   0.890   1.444
24151WAT     H274556   0.446   0.863   1.463
24152WAT      O74557   1.624   0.969   1.263
24152WAT     H174558   1.556   1.036   1.262
24152WAT     H274559   1.678   0.989   1.187
24153WAT      O74560   1.378   1.153   1.135
24153WAT     H174561   1.379   1.113   1.048
24153WAT     H274562   1.323   1.231   1.124
24154WAT      O74563   1.507   0.825   0.644
24154WAT     H174564   1.496   0.731   0.656
24154WAT     H274565   1.507   0.862   0.732
24155WAT      O74566   1.318   0.644   1.267
24155WAT     H174567   1.359   0.622   1.184
24155WAT     H274568   1.390   0.669   1.325
24156WAT      O74569   1.062   0.388   0.579
24156WAT     H174570   0.969   0.381   0.602
24156WAT     H274571   1.077   0.482   0.568
24157WAT      O74572   1.712   0.483   1.277
24157WAT     H174573   1.630   0.490   1.229
24157WAT     H274574   1.772   0.542   1.230
24158WAT      O74575   1.465   0.544   0.630
24158WAT     H174576   1.403   0.510   0.565
24158WAT     H274577   1.463   0.480   0.700
24159WAT      O74578   0.622   0.441   0.857
24159WAT     H174579   0.582   0.369   0.808
24159WAT     H274580   0.631   0.406   0.946
24160WAT      O74581   0.669   0.809   1.074
24160WAT     H174582   0.639   0.749   1.006
24160WAT     H274583   0.764   0.813   1.063
24161WAT      O74584   1.478   1.167   1.440
24161WAT     H174585   1.430   1.247   1.421
24161WAT     H274586   1.409   1.101   1.455
24162WAT      O74587   0.578   0.783   1.739
24162WAT     H174588   0.488   0.806   1.764
24162WAT     H274589   0.581   0.796   1.644
24163WAT      O74590   1.282   0.468   0.330
24163WAT     H174591   1.326   0.384   0.316
24163WAT     H274592   1.353   0.531   0.339
24164WAT      O74593   0.461   0.470   1.596
24164WAT     H174594   0.447   0.558   1.633
24164WAT     H274595   0.373   0.436   1.582
24165WAT      O74596   1.093   0.962   0.727
24165WAT     H174597   1.137   1.036   0.686
24165WAT     H274598   1.087   0.986   0.819
24166WAT      O74599   0.641   1.065   1.817
24166WAT     H174600   0.638   1.105   1.731
24166WAT     H274601   0.624   0.972   1.801
24167WAT      O74602   0.292   0.330   0.607
24167WAT     H174603   0.280   0.403   0.546
24167WAT     H274604   0.261   0.253   0.560
24168WAT      O74605   1.836   1.143   1.947
24168WAT     H174606   1.883   1.191   2.015
24168WAT     H274607   1.898   1.136   1.874
24169WAT      O74608   0.180   0.817   0.829
24169WAT     H174609   0.140   0.831   0.744
24169WAT     H274610   0.270   0.789   0.809
24170WAT      O74611   1.776   0.862   1.663
24170WAT     H174612   1.789   0.838   1.571
24170WAT     H274613   1.780   0.779   1.710
24171WAT      O74614   1.162   1.232   1.520
24171WAT     H174615   1.214   1.223   1.600
24171WAT     H274616   1.078   1.267   1.549
24172WAT      O74617   1.360   1.261   0.463
24172WAT     H174618   1.344   1.232   0.553
24172WAT     H274619   1.343   1.183   0.409
24173WAT      O74620   0.608   1.239   0.640
24173WAT     H174621   0.590   1.147   0.619
24173WAT     H274622   0.522   1.275   0.664
24174WAT      O74623   1.330   1.012   0.319
24174WAT     H174624   1.261   1.011   0.253
24174WAT     H274625   1.404   0.969   0.276
24175WAT      O74626   1.287   1.174   0.726
24175WAT     H174627   1.332   1.096   0.758
24175WAT     H274628   1.321   1.245   0.781
24176WAT      O74629   1.177   0.223   1.829
24176WAT     H174630   1.210   0.140   1.795
24176WAT     H274631   1.256   0.276   1.844
24177WAT      O74632   0.518   0.177   0.719
24177WAT     H174633   0.495   0.155   0.809
24177WAT     H274634   0.440   0.220   0.684
24178WAT      O74635   1.241   0.177   0.578
24178WAT     H174636   1.181   0.250   0.560
24178WAT     H274637   1.296   0.171   0.500
24179WAT      O74638   0.762   0.267   1.785
24179WAT     H174639   0.752   0.173   1.770
24179WAT     H274640   0.846   0.289   1.746
24180WAT      O74641   1.160   0.300   1.191
24180WAT     H174642   1.087   0.351   1.226
24180WAT     H274643   1.120   0.218   1.161
24181WAT      O74644   0.711   0.299   0.270
24181WAT     H174645   0.654   0.254   0.208
24181WAT     H274646   0.782   0.335   0.217
24182WAT      O74647   0.219   0.689   1.658
24182WAT     H174648   0.181   0.625   1.718
24182WAT     H274649   0.250   0.759   1.715
24183WAT      O74650   0.834   0.374   1.206
24183WAT     H174651   0.871   0.326   1.281
24183WAT     H274652   0.815   0.461   1.240
24184WAT      O74653   0.613   0.278   1.438
24184WAT     H174654   0.583   0.366   1.460
24184WAT     H274655   0.708   0.284   1.442
24185WAT      O74656   0.466   0.698   0.498
24185WAT     H174657   0.388   0.644   0.482
24185WAT     H274658   0.539   0.646   0.464
24186WAT      O74659   1.542   0.598   1.077
24186WAT     H174660   1.614   0.648   1.038
24186WAT     H274661   1.521   0.530   1.012
24187WAT      O74662   1.080   0.605   1.666
24187WAT     H174663   1.073   0.513   1.640
24187WAT     H274664   1.017   0.615   1.737
24188WAT      O74665   0.470   0.665   0.861
24188WAT     H174666   0.522   0.585   0.856
24188WAT     H274667   0.425   0.659   0.946
24189WAT      O74668   0.959   0.792   0.389
24189WAT     H174669   0.993   0.866   0.339
24189WAT     H274670   0.876   0.823   0.425
24190WAT      O74671   0.219   0.362   1.553
24190WAT     H174672   0.183   0.428   1.611
24190WAT     H274673   0.189   0.279   1.590
24191WAT      O74674   0.539   0.408   1.841
24191WAT     H174675   0.509   0.422   1.751
24191WAT     H274676   0.616   0.352   1.832
24192WAT      O74677   1.073   0.887   1.641
24192WAT     H174678   1.074   0.794   1.619
24192WAT     H274679   1.002   0.896   1.705
24193WAT      O74680   1.586   0.306   0.268
24193WAT     H174681   1.578   0.349   0.183
24193WAT     H274682   1.658   0.352   0.311
24194WAT      O74683   1.694   0.551   1.575
24194WAT     H174684   1.622   0.611   1.556
24194WAT     H274685   1.747   0.551   1.495
24195WAT      O74686   1.689   0.991   0.540
24195WAT     H174687   1.625   0.926   0.568
24195WAT     H274688   1.651   1.032   0.463
24196WAT      O74689   1.247   0.724   0.925
24196WAT     H174690   1.282   0.664   0.859
24196WAT     H274691   1.159   0.691   0.942
24197WAT      O74692   0.856   0.800   0.666
24197WAT     H174693   0.924   0.855   0.704
24197WAT     H274694   0.777   0.854   0.669
24198WAT      O74695   0.786   0.500   0.627
24198WAT     H174696   0.832   0.582   0.650
24198WAT     H274697   0.751   0.469   0.710
24199WAT      O74698   1.016   1.052   1.350
24199WAT     H174699   1.081   1.072   1.418
24199WAT     H274700   1.053   0.975   1.305
24200WAT      O74701   1.144   0.852   1.222
24200WAT     H174702   1.208   0.782   1.233
24200WAT     H274703   1.196   0.930   1.204
24201WAT      O74704   1.321   0.932   1.542
24201WAT     H174705   1.355   0.990   1.610
24201WAT     H274706   1.229   0.919   1.565
24202WAT      O74707   1.486   0.672   0.360
24202WAT     H174708   1.458   0.718   0.439
24202WAT     H274709   1.566   0.626   0.387
24203WAT      O74710   0.904   0.937   1.859
24203WAT     H174711   0.872   0.865   1.914
24203WAT     H274712   0.837   1.004   1.866
24204WAT      O74713   0.708   1.021   0.353
24204WAT     H174714   0.707   1.095   0.292
24204WAT     H274715   0.616   0.997   0.363
24205WAT      O74716   0.268   0.543   0.428
24205WAT     H174717   0.207   0.617   0.429
24205WAT     H274718   0.316   0.552   0.345
24206WAT      O74719   0.921   0.225   1.418
24206WAT     H174720   0.971   0.273   1.484
24206WAT     H274721   0.936   0.133   1.439
24207WAT      O74722   0.871   1.279   0.689
24207WAT     H174723   0.896   1.276   0.597
24207WAT     H274724   0.776   1.267   0.688
24208WAT      O74725   1.471   0.371   0.847
24208WAT     H174726   1.377   0.373   0.864
24208WAT     H274727   1.503   0.293   0.891
24209WAT      O74728   0.339   0.283   0.271
24209WAT     H174729   0.347   0.188   0.282
24209WAT     H274730   0.428   0.316   0.282
24210WAT      O74731   1.672   1.088   1.014
24210WAT     H174732   1.684   1.171   1.061
24210WAT     H274733   1.758   1.067   0.979
24211WAT      O74734   0.419   1.298   0.981
24211WAT     H174735   0.492   1.243   1.009
24211WAT     H274736   0.457   1.384   0.967
24212WAT      O74737   0.319   1.216   1.900
24212WAT     H174738   0.400   1.248   1.942
24212WAT     H274739   0.268   1.180   1.972
24213WAT      O74740   1.203   0.827   1.895
24213WAT     H174741   1.142   0.829   1.821
24213WAT     H274742   1.173   0.754   1.949
24214WAT      O74743   1.346   1.200   1.756
24214WAT     H174744   1.441   1.191   1.751
24214WAT     H274745   1.331   1.266   1.823
24215WAT      O74746   1.635   1.138   0.306
24215WAT     H174747   1.607   1.096   0.225
24215WAT     H274748   1.615   1.231   0.294
24216WAT      O74749   0.797   0.606   1.748
24216WAT     H174750   0.720   0.663   1.740
24216WAT     H274751   0.815   0.576   1.659
24217WAT      O74752   1.106   0.643   0.211
24217WAT     H174753   1.051   0.688   0.275
24217WAT     H274754   1.168   0.593   0.263
24218WAT      O74755   1.511   0.779   1.804
24218WAT     H174756   1.585   0.813   1.753
24218WAT     H274757   1.435   0.796   1.748
24219WAT      O74758   0.295   0.279   1.884
24219WAT     H174759   0.299   0.249   1.975
24219WAT     H274760   0.380   0.319   1.868
24220WAT      O74761   0.672   0.539   0.400
24220WAT     H174762   0.715   0.523   0.484
24220WAT     H274763   0.685   0.458   0.351
24221WAT      O74764   1.378   0.584   1.657
24221WAT     H174765   1.420   0.599   1.742
24221WAT     H274766   1.285   0.596   1.674
24222WAT      O74767   1.426   0.318   1.858
24222WAT     H174768   1.484   0.242   1.849
24222WAT     H274769   1.443   0.371   1.780
24223WAT      O74770   0.855   0.579   1.454
24223WAT     H174771   0.896   0.663   1.437
24223WAT     H274772   0.763   0.593   1.431
24224WAT      O74773   1.088   0.352   1.593
24224WAT     H174774   1.100   0.293   1.667
24224WAT     H274775   1.174   0.356   1.551
24225WAT      O74776   1.322   0.408   1.450
24225WAT     H174777   1.269   0.460   1.390
24225WAT     H274778   1.356   0.471   1.513
24226WAT      O74779   0.640   1.210   1.566
24226WAT     H174780   0.586   1.282   1.534
24226WAT     H274781   0.665   1.162   1.487
24227WAT      O74782   0.925   1.333   1.592
24227WAT     H174783   0.918   1.423   1.622
24227WAT     H274784   0.835   1.301   1.589
24228WAT      O74785   0.980   1.250   0.354
24228WAT     H174786   1.070   1.284   0.356
24228WAT     H274787   0.983   1.178   0.291
24229WAT      O74788   0.344   0.787   0.177
24229WAT     H174789   0.388   0.841   0.242
24229WAT     H274790   0.393   0.704   0.178
24230WAT      O74791   0.525   0.899   0.688
24230WAT     H174792   0.495   0.887   0.778
24230WAT     H274793   0.515   0.813   0.647
24231WAT      O74794   1.678   1.103   1.625
24231WAT     H174795   1.618   1.109   1.550
24231WAT     H274796   1.691   1.009   1.638
24232WAT      O74797   1.748   0.551   0.409
24232WAT     H174798   1.824   0.608   0.419
24232WAT     H274799   1.749   0.495   0.486
24233WAT      O74800   1.848   0.637   0.893
24233WAT     H174801   1.885   0.559   0.852
24233WAT     H274802   1.912   0.706   0.875
24234WAT      O74803   1.547   0.775   1.434
24234WAT     H174804   1.465   0.818   1.461
24234WAT     H274805   1.587   0.836   1.373
24235WAT      O74806   1.743   0.374   0.624
24235WAT     H174807   1.705   0.298   0.580
24235WAT     H274808   1.670   0.413   0.672
24236WAT      O74809   0.201   0.442   1.286
24236WAT     H174810   0.238   0.434   1.374
24236WAT     H274811   0.145   0.366   1.276
24237WAT      O74812   1.682   0.289   1.587
24237WAT     H174813   1.658   0.266   1.497
24237WAT     H274814   1.708   0.381   1.583
24238WAT      O74815   1.670   0.197   0.954
24238WAT     H174816   1.722   0.148   0.891
24238WAT     H274817   1.729   0.211   1.028
24239WAT      O74818   1.688   0.205   1.306
24239WAT     H174819   1.593   0.202   1.317
24239WAT     H274820   1.706   0.296   1.282
24240WAT      O74821   1.552   1.250   0.787
24240WAT     H174822   1.612   1.218   0.719
24240WAT     H274823   1.578   1.203   0.866
24241WAT      O74824   0.343   0.894   1.802
24241WAT     H174825   0.339   0.857   1.890
24241WAT     H274826   0.356   0.987   1.816
24242WAT      O74827   0.713   1.049   1.362
24242WAT     H174828   0.689   1.076   1.273
24242WAT     H274829   0.807   1.066   1.368
24243WAT      O74830   1.839   1.251   1.442
24243WAT     H174831   1.790   1.291   1.370
24243WAT     H274832   1.778   1.189   1.482
24244WAT      O74833   0.327   1.188   1.514
24244WAT     H174834   0.267   1.175   1.588
24244WAT     H274835   0.326   1.105   1.467
24245WAT      O74836   1.607   1.315   1.170
24245WAT     H174837   1.562   1.391   1.133
24245WAT     H274838   1.545   1.243   1.164
24246WAT      O74839   0.290   0.925   1.409
24246WAT     H174840   0.217   0.863   1.402
24246WAT     H274841   0.296   0.964   1.322
24247WAT      O74842   0.650   1.146   1.088
24247WAT     H174843   0.702   1.085   1.035
24247WAT     H274844   0.715   1.197   1.137
24248WAT      O74845   0.924   1.235   1.170
24248WAT     H174846   0.953   1.210   1.083
24248WAT     H274847   0.976   1.180   1.229
24249WAT      O74848   0.279   1.126   0.474
24249WAT     H174849   0.226   1.164   0.404
24249WAT     H274850   0.271   1.188   0.547
24250WAT      O74851   0.931   1.328   1.907
24250WAT     H174852   1.024   1.304   1.911
24250WAT     H274853   0.930   1.410   1.859
24251WAT      O74854   1.755   1.282   0.607
24251WAT     H174855   1.772   1.213   0.542
24251WAT     H274856   1.685   1.334   0.567
24252WAT      O74857   0.539   1.321   0.362
24252WAT     H174858   0.612   1.292   0.307
24252WAT     H274859   0.565   1.297   0.451
24253WAT      O74860   0.455   0.932   0.362
24253WAT     H174861   0.392   0.979   0.417
24253WAT     H274862   0.466   0.848   0.406
24254WAT      O74863   1.588   1.250   1.889
24254WAT     H174864   1.667   1.201   1.869
24254WAT     H274865   1.617   1.318   1.950
  11.25326  10.26242   7.66682
