default_name
 74865
  49.7100557  55.0812153  24.8584899  50.3930557  56.2972153  24.8594899
  51.7960557  56.3292153  24.8534899  52.5000557  57.5412153  24.8494899
  53.8970557  57.5552153  24.8474899  54.6270557  56.3582153  24.8494899
  56.0300557  56.3552153  24.8514899  56.7380557  55.1542153  24.8524899
  56.0540557  53.9392153  24.8504899  54.6520557  53.9092153  24.8484899
  53.9480557  52.6972153  24.8474899  52.5510557  52.6822153  24.8464899
  51.8220557  53.8792153  24.8494899  50.4190557  53.8812153  24.8514899
  52.5160557  55.1122153  24.8504899  53.9330557  55.1262153  24.8494899
  48.6230557  55.0702153  24.8634899  49.8210557  57.2222153  24.8664899
  51.9660557  58.4882153  24.8484899  54.4120557  58.5132153  24.8444899
  56.5820557  57.2922153  24.8534899  57.8250557  55.1652153  24.8554899
  56.6250557  53.0132153  24.8504899  54.4820557  51.7502153  24.8464899
  52.0360557  51.7242153  24.8454899  49.8670557  52.9432153  24.8494899
  57.3070557  41.6512153  45.3644899  58.0810557  40.8942153  45.2584899
  56.3980557  41.3442153  45.8824899  57.9200557  48.2802153  46.2534899
  57.6650557  47.0882153  46.3134899  56.6160557  46.3492153  45.4974899
  55.6560557  46.8732153  45.5684899  56.5010557  44.9482153  46.1374899
  56.3650557  43.9462153  44.9544899  57.4520557  42.8922153  44.8784899
  56.3320557  44.8082153  43.6674899  57.0290557  46.1332153  44.0244899
  56.7140557  47.3772153  43.2024899  55.6050557  44.9042153  46.7724899
  58.2490557  46.1612153  47.1694899  59.0380557  46.6032153  48.3414899
  60.5780557  46.5432153  48.2004899  61.1790557  47.0412153  46.8564899
  61.0800557  46.0352153  45.6874899  61.7120557  44.8172153  46.1104899
  61.0320557  43.5872153  45.7824899  61.4150557  42.5582153  46.8784899
  60.7410557  42.8912153  48.1004899  61.0740557  41.0982153  46.4734899
  61.7010557  40.0472153  47.4174899  61.1110557  40.1282153  48.7164899
  61.5920557  40.8352153  45.1544899  61.0440557  41.6602153  44.1184899
  61.5840557  41.2502153  42.8764899  61.4690557  43.1202153  44.3714899
  60.8880557  43.9532153  43.3564899  57.7260557  44.8692153  47.0644899
  58.1330557  43.8962153  47.6784899  55.3990557  43.4332153  45.0464899
  58.3580557  43.1792153  44.3464899  55.2890557  44.9992153  43.3824899
  56.8260557  44.2912153  42.8364899  58.1140557  45.9622153  43.9974899
  56.8760557  48.2962153  43.7684899  58.7410557  46.0002153  49.2104899
  58.7560557  47.6382153  48.5684899  61.0040557  47.1472153  49.0104899
  60.9120557  45.5202153  48.3994899  60.7100557  47.9882153  46.5684899
  62.2420557  47.2612153  47.0174899  61.5870557  46.4482153  44.8104899
  60.0340557  45.8702153  45.4114899  59.9440557  43.7152153  45.7994899
  62.5040557  42.6162153  47.0264899  59.8080557  43.1342153  47.8974899
  59.9850557  40.9622153  46.4784899  61.5410557  39.0482153  46.9934899
  62.7850557  40.2112153  47.4734899  61.0240557  41.0832153  48.9234899
  59.9520557  41.5712153  44.0984899  61.3770557  41.9992153  42.2884899
  62.5680557  43.1442153  44.3254899  61.5740557  44.6262153  43.1074899
  53.5650557  49.9572153  39.4984899  53.6960557  48.8232153  39.9354899
  54.4610557  47.6702153  39.2774899  53.8770557  47.2972153  38.4274899
  54.5190557  46.5782153  40.3834899  55.9930557  46.5122153  40.8414899
  56.2890557  47.5322153  41.9344899  56.7580557  46.8932153  39.5594899
  55.9250557  48.0122153  38.8884899  56.1350557  48.1622153  37.3864899
  54.1930557  45.6102153  39.9844899  53.1740557  48.3502153  41.1374899
  52.1000557  49.0592153  41.8614899  52.5610557  50.2792153  42.6914899
  53.8080557  50.0882153  43.5924899  53.7860557  48.9072153  44.5824899
  52.4900557  48.8202153  45.1914899  52.3570557  47.8562153  46.2624899
  52.0520557  46.4342153  45.7094899  53.2140557  45.8792153  45.0854899
  51.5890557  45.4822153  46.8524899  51.1110557  44.1022153  46.3494899
  52.2220557  43.3422153  45.8674899  50.4830557  46.0872153  47.5524899
  50.8010557  47.3242153  48.2064899  49.6530557  47.8032153  48.8784899
  51.1830557  48.3592153  47.1294899  51.5520557  49.5932153  47.7514899
  53.5410557  47.0452153  41.4574899  53.1380557  46.3912153  42.4064899
  56.2600557  45.4952153  41.1354899  56.1430557  48.5572153  41.6064899
  56.8070557  46.0192153  38.8984899  57.7840557  47.2042153  39.7894899
  56.1820557  48.9662153  39.3614899  55.2280557  48.0852153  36.7874899
  51.6010557  48.3522153  42.5364899  51.3480557  49.3882153  41.1314899
  52.7770557  51.0962153  41.9934899  51.7180557  50.6182153  43.3064899
  54.6860557  49.9682153  42.9534899  53.9660557  51.0122153  44.1604899
  54.5640557  49.0652153  45.3414899  54.0300557  47.9902153  44.0444899
  53.2610557  47.8232153  46.8864899  51.2270557  46.5122153  44.9864899
  53.1830557  46.1252153  44.1274899  52.4200557  45.3212153  47.5544899
  50.6230557  43.5682153  47.1764899  50.3610557  44.2402153  45.5574899
  52.7710557  43.9622153  45.3474899  51.6250557  47.1822153  48.9184899
  49.8590557  48.7512153  48.9974899  50.3040557  48.4952153  46.4804899
  51.9020557  50.1612153  47.0374899  62.0160557  46.6042153  34.7444899
  61.0740557  46.6442153  35.5204899  60.8960557  47.6172153  36.6844899
  61.7020557  47.4662153  37.4084899  59.5360557  47.2562153  37.3254899
  58.6730557  48.5502153  37.3714899  57.2970557  48.3912153  36.7434899
  59.4950557  49.6842153  36.7074899  60.8300557  49.0822153  36.2114899
  62.0920557  49.8442153  36.5864899  59.6980557  46.8672153  38.3394899
  59.9440557  45.8422153  35.4734899  59.8530557  44.6572153  34.5944899
  59.6620557  44.9662153  33.0894899  58.6990557  46.1262153  32.7234899
  57.2730557  46.0542153  33.3104899  56.7670557  44.7192153  33.1534899
  55.3740557  44.5242153  33.4894899  55.1830557  44.2982153  35.0154899
  55.3960557  45.5202153  35.7284899  53.7490557  43.7772153  35.3274899
  53.5530557  43.3712153  36.8054899  53.6360557  44.5322153  37.6374899
  53.4780557  42.6132153  34.5214899  53.4990557  42.8532153  33.1064899
  53.1930557  41.6542153  32.4234899  54.9270557  43.2732153  32.7064899
  54.9780557  43.5522153  31.3034899  59.0020557  46.1052153  36.4634899
  57.9630557  45.4872153  36.6374899  58.5530557  48.8302153  38.4224899
  57.2800557  48.4752153  35.6574899  59.6630557  50.5022153  37.4174899
  58.9510557  50.1242153  35.8624899  60.7700557  49.0742153  35.1134899
  62.7260557  50.0592153  35.7254899  59.0090557  44.0392153  34.9234899
  60.7570557  44.0512153  34.7264899  60.6440557  45.2082153  32.6654899
  59.3360557  44.0492153  32.5834899  59.1510557  47.0782153  33.0294899
  58.6180557  46.1692153  31.6304899  56.6350557  46.7762153  32.7874899
  57.3060557  46.3412153  34.3644899  54.7630557  45.3782153  33.1654899
  55.9020557  43.5312153  35.3454899  56.3520557  45.5502153  35.9824899
  53.0180557  44.5622153  35.0864899  52.5710557  42.8912153  36.9214899
  54.3190557  42.6362153  37.0854899  54.3030557  45.1072153  37.2044899
  52.7760557  43.6352153  32.8384899  53.5780557  41.8172153  31.5394899
  55.6000557  42.4412153  32.9664899  55.8600557  43.9462153  31.1464899
  66.0440557  50.6892153  40.7154899  65.0340557  50.0542153  40.4714899
  63.6110557  50.4282153  40.8794899  63.5340557  50.3622153  41.9654899
  62.7210557  49.3412153  40.2224899  61.8620557  50.0702153  39.1634899
  62.5380557  50.2212153  37.8004899  61.7020557  51.4572153  39.8144899
  63.1020557  51.8002153  40.3824899  63.2680557  52.8902153  41.4444899
  62.0730557  48.8832153  40.9814899  64.9740557  48.8232153  39.8204899
  66.1790557  48.0132153  39.5424899  66.9570557  48.4202153  38.2694899
  66.1240557  48.7552153  37.0034899  65.1360557  47.6802153  36.4924899
  65.7610557  46.3882153  36.5534899  65.0500557  45.3502153  35.8424899
  64.2140557  44.4702153  36.8094899  63.1500557  45.2202153  37.4024899
  63.6200557  43.2682153  36.0184899  62.8110557  42.2822153  36.8874899
  61.5800557  42.8912153  37.2874899  64.7040557  42.5322153  35.4114899
  65.4570557  43.2782153  34.4414899  66.4870557  42.4652153  33.9174899
  66.1160557  44.4822153  35.1444899  66.8250557  45.2772153  34.1904899
  63.6930557  48.2972153  39.6944899  63.4070557  47.1802153  39.3004899
  60.8920557  49.5662153  39.0764899  63.5000557  50.7292153  37.8284899
  60.9870557  51.3362153  40.6344899  61.3300557  52.2132153  39.1104899
  63.7330557  52.1042153  39.5364899  64.3210557  53.0492153  41.6844899
  65.8810557  46.9612153  39.4414899  66.8520557  48.0732153  40.4074899
  67.5580557  49.3052153  38.5124899  67.6760557  47.6262153  38.0324899
  65.5680557  49.6842153  37.1754899  66.8270557  48.9782153  36.1934899
  64.8600557  47.9292153  35.4594899  64.2160557  47.6952153  37.0804899
  64.3880557  45.7702153  35.0714899  64.8800557  44.0692153  37.5884899
  63.5310557  45.8842153  38.0224899  62.9590557  43.6512153  35.2304899
  62.6070557  41.3732153  36.3054899  63.4060557  41.9912153  37.7624899
  61.8190557  43.7932153  37.5904899  64.7980557  43.6212153  33.6314899
  67.1100557  43.1262153  33.5594899  66.8010557  44.0862153  35.9094899
  67.0380557  46.1112153  34.6544899  60.5570557  54.0902153  46.5374899
  60.5470557  53.4972153  45.4734899  59.7420557  53.8842153  44.2354899
  58.6750557  53.7392153  44.4534899  60.1850557  52.8762153  43.1474899
  60.8670557  53.6942153  42.0224899  62.3830557  53.6552153  42.1184899
  60.3100557  55.1172153  42.2034899  60.0320557  55.3112153  43.7104899
  58.8730557  56.2432153  44.0234899  59.3110557  52.3602153  42.7554899
  61.2480557  52.3322153  45.1784899  61.8650557  51.5042153  46.2364899
  63.2200557  52.0292153  46.7674899  64.2510557  52.5002153  45.7094899
  64.6010557  51.4992153  44.5894899  64.7500557  50.1832153  45.1464899
  65.2690557  49.1982153  44.2284899  64.2850557  48.0052153  44.1554899
  63.0750557  48.4122153  43.5074899  64.9190557  46.8172153  43.3754899
  64.0590557  45.5352153  43.4124899  62.8430557  45.7462153  42.6874899
  66.1950557  46.4932153  43.9654899  67.1640557  47.5522153  43.9334899
  68.3640557  47.1012153  44.5274899  66.6320557  48.7292153  44.7744899
  67.5700557  49.8102153  44.7354899  61.0600557  51.8592153  43.8814899
  61.4570557  50.7922153  43.4394899  60.5340557  53.3622153  41.0394899
  62.7870557  54.3602153  42.8454899  59.3680557  55.1742153  41.6424899
  60.9800557  55.8862153  41.8014899  60.9440557  55.6802153  44.2014899
  58.4620557  56.1222153  45.0274899  62.0150557  50.4882153  45.8494899
  61.1600557  51.4262153  47.0734899  63.0200557  52.8742153  47.4364899
  63.6730557  51.2502153  47.3934899  63.8930557  53.4282153  45.2464899
  65.1770557  52.7652153  46.2344899  65.5240557  51.8262153  44.0944899
  63.8050557  51.5072153  43.8404899  65.4210557  49.6142153  43.2214899
  64.0760557  47.6662153  45.1814899  62.7560557  49.2452153  43.9194899
  65.0680557  47.1032153  42.3254899  64.6280557  44.7062153  42.9694899
  63.8510557  45.2732153  44.4594899  62.6470557  46.7062153  42.7774899
  67.3530557  47.8722153  42.8994899  68.8070557  47.9392153  44.7674899
  66.4950557  48.3662153  45.8044899  67.1480557  50.5612153  45.1954899
  57.3120557  61.8892153  41.0184899  57.4970557  61.0752153  41.9044899
  56.4700557  60.0872153  42.4574899  55.5670557  60.6182153  42.7854899
  57.1810557  59.4062153  43.6614899  57.0260557  57.8702153  43.4954899
  58.2990557  57.1122153  43.1754899  56.0340557  57.6862153  42.3344899
  56.1330557  58.9502153  41.4694899  54.8960557  59.1472153  40.6134899
  56.7230557  59.7432153  44.5994899  58.6900557  60.8702153  42.5894899
  59.8600557  61.7642153  42.4244899  60.6970557  61.5652153  41.1344899
  60.8100557  60.1312153  40.5514899  61.2520557  59.0142153  41.5194899
  62.3740557  59.4562153  42.2994899  62.6920557  58.5942153  43.4164899
  63.1680557  59.4712153  44.6034899  62.1010557  60.3082153  45.0624899
  63.7040557  58.5872153  45.7734899  64.4080557  59.4092153  46.8774899
  63.4650557  60.2442153  47.5534899  64.6790557  57.6452153  45.2674899
  64.2010557  56.7662153  44.2404899  65.2330557  55.8832153  43.8484899
  63.8360557  57.6332153  43.0214899  63.4750557  56.8012153  41.9154899
  58.6160557  59.9322153  43.6194899  59.5240557  59.6212153  44.3764899
  56.5890557  57.4512153  44.4124899  58.6800557  57.2582153  42.1664899
  55.0250557  57.5682153  42.7484899  56.2600557  56.8002153  41.7304899
  56.9960557  58.8162153  40.8004899  55.0950557  59.2262153  39.5444899
  60.5280557  61.6212153  43.2824899  59.5130557  62.8052153  42.4674899
  60.2590557  62.1982153  40.3524899  61.7030557  61.9642153  41.3114899
  59.8420557  59.8482153  40.1204899  61.5150557  60.1602153  39.7144899
  61.4970557  58.1172153  40.9384899  60.4130557  58.7572153  42.1704899
  61.8150557  58.0152153  43.7394899  64.0000557  60.1002153  44.2524899
  61.2390557  59.9212153  44.7854899  62.8690557  58.0382153  46.2304899
  64.8780557  58.7192153  47.5914899  65.2060557  60.0142153  46.4274899
  62.8760557  60.6132153  46.8624899  63.3310557  56.1962153  44.5954899
  65.0440557  55.7622153  42.8974899  64.7230557  58.2372153  42.7734899
  63.3040557  57.4102153  41.1694899  50.4410557  56.5502153  43.2774899
  51.0040557  56.7222153  42.2094899  50.6090557  57.7342153  41.1374899
  49.6810557  57.3862153  40.6704899  51.7560557  57.6822153  40.1024899
  52.4260557  59.0802153  40.1344899  53.6290557  59.1012153  41.0574899
  51.3080557  60.0222153  40.6324899  50.4830557  59.1912153  41.6394899
  49.0220557  59.5892153  41.7754899  51.3430557  57.4842153  39.1044899
  52.0780557  55.9792153  41.7274899  52.1280557  54.5202153  41.9994899
  52.6860557  54.1042153  43.3794899  54.0960557  54.6242153  43.7244899
  55.1690557  54.4622153  42.6354899  55.2650557  53.0982153  42.2114899
  56.3780557  52.8502153  41.3214899  55.9900557  53.0792153  39.8304899
  55.9080557  54.4852153  39.5584899  57.0550557  52.4762153  38.8564899
  56.5380557  52.3572153  37.4074899  56.5520557  53.6412153  36.7814899
  57.4740557  51.1562153  39.2664899  57.9740557  51.0762153  40.6024899
  58.4420557  49.7692153  40.8694899  56.7910557  51.3872153  41.5324899
  57.1450557  51.1692153  42.9024899  52.6110557  56.4822153  40.5354899
  53.5310557  55.9822153  39.9054899  52.7340557  59.3652153  39.1184899
  53.4120557  58.9942153  42.1194899  50.6780557  60.3032153  39.7784899
  51.7060557  60.9432153  41.0784899  50.9690557  59.2492153  42.6194899
  48.3630557  58.7722153  42.0774899  52.7250557  54.0282153  41.2204899
  51.1080557  54.1252153  41.9074899  51.9930557  54.4412153  44.1604899
  52.6920557  53.0122153  43.4344899  54.0210557  55.6902153  43.9484899
  54.4400557  54.1382153  44.6454899  56.1280557  54.8082153  43.0434899
  54.9060557  55.1032153  41.7914899  57.2350557  53.4912153  41.5744899
  55.0270557  52.5802153  39.6384899  55.0100557  54.8212153  39.7814899
  57.9370557  53.1312153  38.8484899  57.1830557  51.6652153  36.8504899
  55.5250557  51.9312153  37.4094899  56.1690557  54.2752153  37.4204899
  58.7850557  51.7992153  40.7434899  58.3380557  49.6962153  41.8404899
  55.9470557  50.7502153  41.2304899  56.4110557  51.5492153  43.4294899
  46.8060557  64.5882153  44.6174899  46.8310557  63.4312153  44.2344899
  46.0450557  62.8492153  43.0634899  44.9700557  62.9632153  43.2594899
  46.4240557  61.3452153  43.0264899  46.9830557  61.0412153  41.6084899
  48.4830557  60.7982153  41.5434899  46.5610557  62.2482153  40.7454899
  46.4470557  63.4502153  41.6994899  45.4760557  64.5022153  41.1974899
  45.5310557  60.7362153  43.2194899  47.5750557  62.4012153  44.7954899
  48.2770557  62.5632153  46.0864899  49.6190557  63.3332153  46.0134899
  50.5530557  63.0122153  44.8164899  50.8540557  61.5222153  44.5544899
  51.0350557  60.8432153  45.8094899  51.2080557  59.4142153  45.7114899
  50.4790557  58.7372153  46.9004899  49.0620557  58.9052153  46.7804899
  50.8310557  57.2192153  46.9744899  50.2980557  56.5332153  48.2534899
  48.8710557  56.4652153  48.2204899  52.2680557  57.0562153  46.9784899
  52.9300557  57.5822153  45.8214899  54.3220557  57.3762153  45.9334899
  52.7180557  59.1062153  45.8054899  53.4510557  59.6982153  44.7274899
  47.3900557  61.1552153  44.1964899  47.8580557  60.0952153  44.5824899
  46.4810557  60.1422153  41.2194899  49.1030557  61.6452153  41.2514899
  45.5790557  62.0382153  40.3094899  47.2550557  62.4472153  39.9184899
  47.4460557  63.8972153  41.7954899  45.9120557  65.4912153  41.0534899
  48.4720557  61.5702153  46.5074899  47.6080557  63.0782153  46.7884899
  49.3950557  64.4062153  45.9814899  50.1640557  63.1672153  46.9514899
  50.1240557  63.4422153  43.9034899  51.5030557  63.5352153  44.9784899
  51.7410557  61.4412153  43.9154899  50.0210557  61.0822153  44.0004899
  50.7930557  59.0082153  44.7804899  50.8270557  59.2082153  47.8314899
  48.8480557  59.3242153  45.9144899  50.4060557  56.7022153  46.1014899
  50.7190557  55.5212153  48.3204899  50.6380557  57.0922153  49.1354899
  48.5630557  57.3202153  47.8524899  52.5360557  57.1212153  44.9054899
  54.6540557  58.1962153  45.5204899  53.0790557  59.4922153  46.7714899
  53.2130557  60.6472153  44.7564899  39.8030557  63.2262153  37.8704899
  40.9060557  63.6392153  38.1904899  41.1960557  64.8292153  39.0934899
  40.6360557  65.6982153  38.7474899  42.7150557  65.0892153  38.9564899
  43.2460557  65.3602153  40.3924899  44.1790557  64.2872153  40.9174899
  41.9810557  65.4732153  41.2704899  40.9220557  64.5822153  40.5904899
  39.4420557  64.7592153  40.9264899  42.8810557  65.9622153  38.3094899
  42.1270557  63.1312153  37.7654899  42.2180557  62.2352153  36.5904899
  41.7980557  60.7652153  36.8364899  42.2350557  60.1252153  38.1784899
  43.7160557  60.2962153  38.5684899  44.5460557  60.0302153  37.4244899
  45.9570557  60.2432153  37.6434899  46.5740557  60.8752153  36.3714899
  46.0810557  62.2082153  36.1874899  48.1300557  60.9102153  36.4624899
  48.8030557  61.3302153  35.1364899  48.6030557  62.7262153  34.9094899
  48.6340557  59.5982153  36.8044899  48.1530557  59.0732153  38.0484899
  48.7140557  57.7982153  38.2734899  46.6300557  58.8832153  37.9284899
  46.1270557  58.2912153  39.1334899  43.2370557  63.8482153  38.2194899
  44.4050557  63.5602153  37.9984899  43.7700557  66.3272153  40.3994899
  43.7350557  63.3022153  41.0534899  41.6560557  66.5202153  41.2524899
  42.1730557  65.1792153  42.3104899  41.1880557  63.5372153  40.8084899
  38.8180557  64.0822153  40.3404899  43.2530557  62.2352153  36.2284899
  41.6010557  62.6512153  35.7844899  40.7040557  60.7072153  36.7794899
  42.1740557  60.1562153  36.0054899  41.6170557  60.5392153  38.9854899
  42.0040557  59.0542153  38.1374899  43.9470557  59.6212153  39.4004899
  43.8740557  61.3172153  38.9254899  46.1370557  60.9212153  38.4824899
  46.2950557  60.2532153  35.5084899  45.4450557  62.4372153  36.9014899
  48.4300557  61.6262153  37.2384899  49.8790557  61.1142153  35.1954899
  48.3900557  60.7382153  34.3094899  47.6550557  62.9072153  35.0884899
  48.3980557  59.7502153  38.8784899  47.9870557  57.3582153  38.7584899
  46.4500557  58.2222153  37.0654899  45.1740557  58.1362153  38.9804899
  35.9790557  69.5722153  41.6604899  37.0890557  69.0712153  41.6144899
  37.9690557  68.7082153  42.8094899  38.2310557  69.6222153  43.3604899
  39.2440557  68.0692153  42.1944899  39.3320557  66.6202153  42.7514899
  38.7890557  65.5782153  41.7814899  38.4780557  66.6682153  44.0354899
  37.3280557  67.6532153  43.7374899  36.6550557  68.2812153  44.9474899
  40.1280557  68.6482153  42.4904899  37.7800557  68.7202153  40.4624899
  37.2810557  69.0672153  39.1134899  36.1460557  68.1522153  38.5924899
  36.3800557  66.6232153  38.7034899  37.6400557  66.0772153  38.0014899
  37.6890557  66.5882153  36.6634899  38.7800557  66.0842153  35.8624899
  39.8580557  67.1852153  35.6944899  40.5160557  67.4302153  36.9424899
  40.9070557  66.7602153  34.6244899  41.9300557  67.8682153  34.2904899
  42.7930557  68.0912153  35.4094899  40.2190557  66.4302153  33.4004899
  39.3060557  65.3272153  33.5024899  38.7100557  65.0962153  32.2424899
  38.1870557  65.7072153  34.4904899  37.2860557  64.6062153  34.6464899
  39.0530557  68.1972153  40.6794899  39.8800557  67.9472153  39.8164899
  40.3560557  66.3832153  43.0504899  37.7040557  65.4872153  41.8094899
  39.1010557  67.0592153  44.8514899  38.1110557  65.6772153  44.3364899
  36.5590557  67.1172153  43.1634899  35.9250557  69.0552153  44.7014899
  38.1150557  69.0292153  38.4024899  36.9200557  70.1042153  39.1314899
  35.2310557  68.3912153  39.1494899  35.9370557  68.4132153  37.5474899
  36.4170557  66.3392153  39.7614899  35.5050557  66.1122153  38.2834899
  37.6000557  64.9792153  37.9984899  38.5280557  66.3742153  38.5624899
  39.2310557  65.1842153  36.3044899  39.3640557  68.1012153  35.3364899
  39.8460557  67.6702153  37.6154899  41.4580557  65.8802153  34.9814899
  42.5210557  67.5592153  33.4184899  41.3980557  68.7892153  34.0214899
  42.2160557  68.0932153  36.2024899  39.8310557  64.4252153  33.8424899
  37.9020557  64.6032153  32.4804899  37.6640557  66.5852153  34.0794899
  36.7130557  64.8302153  35.4064899  36.8760557  67.9732153  46.2364899
  37.5770557  67.2032153  46.5524899  36.3340557  68.4862153  47.0314899
  28.0510557  60.7602153  42.5524899  28.3480557  61.6252153  43.1454899
  28.0280557  60.8912153  41.4704899  29.8620557  55.1372153  44.6014899
  29.5770557  56.0112153  43.7984899  28.2460557  56.1722153  43.0704899
  28.0280557  55.2562153  42.5054899  28.4520557  57.3502153  42.0844899
  27.3010557  58.3552153  42.3484899  27.7370557  59.5882153  43.1234899
  26.2590557  57.5562153  43.1624899  27.0750557  56.5532153  44.0084899
  26.3770557  55.3012153  44.5224899  28.4100557  56.9822153  41.0514899
  30.4040557  57.0432153  43.3774899  31.8130557  57.1452153  43.8124899
  32.0310557  57.6552153  45.2614899  31.0760557  58.7622153  45.7854899
  30.8920557  60.0062153  44.8924899  32.1640557  60.4212153  44.3704899
  32.0930557  61.3672153  43.2774899  33.2620557  61.0532153  42.3084899
  33.0300557  59.8012153  41.6534899  33.4490557  62.1782153  41.2474899
  34.7370557  62.0142153  40.4084899  34.6470557  60.8562153  39.5774899
  33.5490557  63.4492153  41.9214899  32.3940557  63.8142153  42.6864899
  32.6000557  65.0922153  43.2574899  32.2310557  62.8032153  43.8384899
  31.0830557  63.1602153  44.6184899  29.8730557  57.8482153  42.3664899
  30.4590557  58.7462153  41.7834899  26.8610557  58.6702153  41.3904899
  27.7690557  59.4872153  44.2084899  25.5860557  57.0192153  42.4824899
  25.6620557  58.2402153  43.7764899  27.4940557  57.0902153  44.8714899
  27.0350557  54.4322153  44.5364899  32.3360557  57.8272153  43.1344899
  32.2890557  56.1652153  43.6964899  31.9390557  56.7982153  45.9384899
  33.0680557  57.9992153  45.3534899  30.0870557  58.3232153  45.9634899
  31.4420557  59.0902153  46.7644899  30.4180557  60.8032153  45.4754899
  30.2130557  59.7562153  44.0754899  31.1440557  61.2822153  42.7274899
  34.1880557  60.9962153  42.8974899  32.0700557  59.5812153  41.7134899
  32.5890557  62.1902153  40.5634899  34.8760557  62.9102153  39.7884899
  35.6010557  61.9412153  41.0824899  34.2180557  60.1602153  40.1194899
  31.4980557  63.8262153  42.0484899  31.9450557  65.1052153  43.9814899
  33.1490557  62.8522153  44.4434899  31.0480557  62.5282153  45.3604899
  21.2860557  52.4922153  45.9894899  21.7810557  53.3952153  45.3354899
  21.9120557  54.8572153  45.7634899  20.9110557  55.2942153  45.8724899
  22.6440557  55.5442153  44.5794899  23.9750557  56.0982153  45.1424899
  25.1250557  55.1102153  44.9814899  23.6700557  56.2912153  46.6344899
  22.7830557  55.0852153  47.0304899  21.9490557  55.2562153  48.2964899
  22.0290557  56.3552153  44.1734899  22.3190557  53.2762153  44.0554899
  22.1550557  52.0552153  43.2354899  23.0550557  50.8552153  43.6224899
  24.5160557  51.1572153  44.0494899  25.3680557  52.0142153  43.0894899
  25.1870557  51.5612153  41.7384899  26.0960557  52.1262153  40.7624899
  25.6260557  53.5252153  40.2684899  25.7520557  54.4952153  41.3104899
  26.4690557  53.9812153  39.0414899  25.9820557  55.3072153  38.4134899
  26.2400557  56.3942153  39.3084899  26.3920557  52.9652153  38.0204899
  26.9420557  51.6952153  38.4024899  26.8220557  50.7922153  37.3214899
  26.1180557  51.1362153  39.5794899  26.6750557  49.8922153  40.0194899
  22.8040557  54.4642153  43.5154899  23.2630557  54.6172153  42.3944899
  24.1870557  57.0632153  44.6874899  24.8810557  54.1062153  45.3224899
  23.1090557  57.2252153  46.7634899  24.5990557  56.3722153  47.2064899
  23.4240557  54.2042153  47.1624899  20.8910557  55.0222153  48.1724899
  22.3640557  52.3092153  42.1884899  21.1030557  51.7422153  43.2824899
  22.5740557  50.3302153  44.4564899  23.0630557  50.1462153  42.7864899
  24.5050557  51.6442153  45.0324899  25.0290557  50.2002153  44.1994899
  26.4210557  51.9382153  43.3884899  25.0710557  53.0582153  43.1914899
  27.1140557  52.2042153  41.1694899  24.5760557  53.4442153  39.9464899
  24.8870557  54.5102153  41.7874899  27.5150557  54.1122153  39.3464899
  26.5080557  55.4692153  37.4634899  24.9090557  55.2342153  38.1904899
  25.9640557  56.0772153  40.1934899  27.9970557  51.8042153  38.6864899
  26.8860557  49.9242153  37.7654899  25.0850557  50.9972153  39.2234899
  26.2000557  49.6712153  40.8464899  22.9860557  59.1342153  53.2434899
  23.1760557  58.7432153  52.1034899  24.2440557  57.7532153  51.6484899
  25.2350557  58.1962153  51.8034899  23.9900557  57.5162153  50.1384899
  23.7880557  55.9832153  49.9384899  22.3700557  55.6272153  49.5224899
  24.1700557  55.3032153  51.2734899  24.0880557  56.3942153  52.3584899
  25.0410557  56.2512153  53.5294899  24.8520557  57.8682153  49.5534899
  22.4010557  59.0482153  50.9974899  21.3260557  60.0612153  51.0494899
  20.0800557  59.6472153  51.8724899  19.6000557  58.1782153  51.7284899
  19.2930557  57.6972153  50.2954899  18.4800557  58.6822153  49.6444899
  17.9810557  58.3282153  48.3364899  19.0160557  58.6822153  47.2294899
  20.1000557  57.7462153  47.2554899  18.3610557  58.6542153  45.8144899
  19.2770557  59.2182153  44.7054899  20.4380557  58.3962153  44.5644899
  17.1640557  59.4592153  45.8174899  16.1460557  59.0122153  46.7214899
  15.0160557  59.8532153  46.6054899  16.6880557  59.1482153  48.1554899
  15.7060557  58.6962153  49.0944899  22.7880557  58.4182153  49.8174899
  22.2670557  58.5852153  48.7254899  24.4970557  55.6142153  49.1884899
  21.6380557  55.6812153  50.3284899  25.1810557  54.8902153  51.1994899
  23.5080557  54.4582153  51.5084899  23.0630557  56.3472153  52.7554899
  24.5330557  56.2522153  54.4954899  21.0020557  60.2832153  50.0254899
  21.7400557  60.9892153  51.4644899  20.3020557  59.8182153  52.9334899
  19.2550557  60.3282153  51.6284899  20.3500557  57.5082153  52.1684899
  18.6940557  58.0542153  52.3334899  18.7720557  56.7322153  50.3444899
  20.2300557  57.5442153  49.7544899  17.7280557  57.2592153  48.2774899
  19.3810557  59.7052153  47.4124899  20.7790557  58.0682153  47.8944899
  18.1010557  57.6182153  45.5564899  18.7190557  59.2532153  43.7604899
  19.5620557  60.2482153  44.9594899  20.6540557  58.0942153  45.4724899
  15.8670557  57.9712153  46.5074899  14.5630557  59.7102153  47.4594899
  16.9230557  60.2112153  48.3174899  16.1550557  58.6832153  49.9634899
  30.1640557  57.0342153  55.6504899  29.5550557  57.3162153  54.6344899
  29.5840557  56.5412153  53.3144899  30.5680557  56.6682153  52.8414899
  28.4870557  57.2202153  52.4554899  27.3390557  56.1882153  52.3294899
  26.3860557  56.1962153  53.5224899  28.1150557  54.8582153  52.3294899
  29.1870557  55.0482153  53.4294899  30.3720557  54.1082153  53.3684899
  28.8880557  57.4792153  51.4664899  28.7140557  58.4152153  54.4604899
  28.6660557  59.5382153  55.4204899  27.7730557  59.3072153  56.6634899
  26.3500557  58.7352153  56.4264899  25.4420557  59.4702153  55.4124899
  25.6080557  60.8892153  55.5654899  24.6460557  61.6992153  54.8514899
  25.2230557  62.1842153  53.4934899  25.3340557  61.0932153  52.5734899
  24.3060557  63.2802153  52.8744899  24.8890557  63.9232153  51.5954899
  24.8950557  62.9722153  50.5294899  24.1150557  64.3392153  53.8344899
  23.4550557  63.9302153  55.0424899  23.3070557  65.0482153  55.8944899
  24.3500557  62.9062153  55.7634899  23.7040557  62.4502153  56.9574899
  28.1170557  58.4902153  53.2064899  27.4600557  59.4162153  52.7644899
  26.8040557  56.3512153  51.3884899  26.8760557  56.1362153  54.4914899
  28.6010557  54.7162153  51.3564899  27.4640557  53.9942153  52.5094899
  28.7200557  54.9052153  54.4134899  31.1940557  54.3812153  54.0324899
  28.3050557  60.4322153  54.8964899  29.6880557  59.7542153  55.7554899
  28.3000557  58.6202153  57.3374899  27.6920557  60.2552153  57.2094899
  26.4310557  57.6852153  56.1244899  25.8340557  58.7222153  57.3944899
  24.4010557  59.1782153  55.6044899  25.6810557  59.1552153  54.3934899
  23.7070557  61.1522153  54.6754899  26.2100557  62.6332153  53.6764899
  26.0800557  60.5192153  52.8634899  23.3340557  62.8362153  52.6234899
  24.2780557  64.7932153  51.3214899  25.9060557  64.2852153  51.8004899
  25.1420557  62.1152153  50.9374899  22.4720557  63.4952153  54.8154899
  23.1940557  64.6272153  56.7684899  25.3010557  63.4052153  56.0004899
  24.2220557  61.6762153  57.2574899  28.8830557  48.4242153  52.1534899
  29.5540557  49.2462153  52.7534899  30.9800557  49.6702153  52.4074899
  31.6440557  48.8032153  52.5124899  31.3400557  50.7432153  53.4664899
  31.6450557  52.0502153  52.6944899  30.4520557  52.9852153  52.6394899
  32.0190557  51.5692153  51.2844899  31.1350557  50.3322153  51.0164899
  31.6780557  49.3712153  49.9724899  32.2130557  50.4212153  54.0424899
  29.1720557  49.9242153  53.9084899  28.0530557  49.4462153  54.7524899
  26.6350557  49.8712153  54.3014899  26.4380557  51.3442153  53.8574899
  26.9890557  52.4382153  54.7944899  26.7350557  52.0972153  56.1664899
  27.3700557  52.9742153  57.1254899  27.8490557  52.1272153  58.3324899
  28.8950557  51.2342153  57.9324899  28.3420557  53.0362153  59.4984899
  28.6190557  52.2562153  60.8034899  29.7370557  51.3812153  60.6334899
  27.3280557  54.0192153  59.8074899  26.9680557  54.8852153  58.7204899
  25.9840557  55.7992153  59.1584899  26.3380557  54.0142153  57.6164899
  25.8770557  54.8382153  56.5424899  30.1380557  50.7982153  54.4074899
  30.0690557  51.4402153  55.4434899  32.4980557  52.5662153  53.1584899
  29.6340557  52.6682153  51.9934899  33.0800557  51.2852153  51.2854899
  31.8700557  52.3492153  50.5304899  30.1420557  50.6732153  50.6914899
  31.1680557  48.4072153  49.9484899  28.2060557  49.8032153  55.7754899
  28.0940557  48.3492153  54.7934899  26.3340557  49.2292153  53.4644899
  25.9360557  49.6482153  55.1174899  26.8930557  51.4772153  52.8684899
  25.3620557  51.5152153  53.7194899  26.5270557  53.3962153  54.5314899
  28.0650557  52.5392153  54.6184899  28.2390557  53.4912153  56.6914899
  26.9920557  51.5442153  58.7024899  29.2030557  51.4742153  57.0274899
  29.2670557  53.5482153  59.1984899  28.8220557  52.9702153  61.6124899
  27.7220557  51.6862153  61.0824899  29.6550557  51.0022153  59.7324899
  27.8490557  55.4232153  58.3444899  25.5250557  56.0182153  58.3244899
  25.4960557  53.4732153  58.0754899  25.4780557  54.2192153  55.9004899
  35.0960557  51.0882153  44.5704899  34.2570557  50.5762153  45.2904899
  34.3690557  49.2242153  45.9934899  34.6040557  48.4342153  45.2694899
  32.9730557  48.9902153  46.6364899  33.2040557  48.5922153  48.1214899
  32.6920557  49.6102153  49.1224899  34.7280557  48.4132153  48.2784899
  35.3810557  49.2432153  47.1594899  36.7850557  48.7912153  46.7974899
  32.4470557  48.1892153  46.1004899  33.0300557  51.1312153  45.6384899
  32.5470557  52.4052153  45.0604899  33.2350557  53.6782153  45.6104899
  33.4520557  53.7612153  47.1434899  32.1930557  53.6252153  48.0234899
  31.1830557  54.5202153  47.5434899  29.9250557  54.5172153  48.2564899
  29.0050557  53.3772153  47.7334899  29.4060557  52.1282153  48.3114899
  27.5070557  53.6042153  48.1064899  26.5490557  52.6602153  47.3514899
  26.6180557  51.3452153  47.8994899  27.1000557  54.9542153  47.8034899
  27.8500557  55.9562153  48.4954899  27.3180557  57.2332153  48.2064899
  29.3010557  55.9022153  47.9904899  30.0780557  56.9042153  48.6544899
  32.2120557  50.3012153  46.3994899  31.0740557  50.5622153  46.7604899
  32.7110557  47.6292153  48.3144899  33.2110557  50.5672153  49.1134899
  34.9820557  47.3532153  48.1724899  35.0800557  48.7442153  49.2634899
  35.4440557  50.2762153  47.5324899  37.5240557  49.5932153  46.7954899
  31.4690557  52.4942153  45.2454899  32.6820557  52.3692153  43.9714899
  34.2160557  53.7672153  45.1304899  32.6580557  54.5482153  45.2804899
  34.1740557  52.9932153  47.4454899  33.9250557  54.7252153  47.3674899
  32.4610557  53.8752153  49.0574899  31.8500557  52.5872153  48.0014899
  30.0810557  54.3982153  49.3384899  29.0870557  53.3512153  46.6344899
  30.0490557  51.6822153  47.7084899  27.3780557  53.4302153  49.1834899
  25.5250557  53.0432153  47.4444899  26.8070557  52.6512153  46.2844899
  27.5630557  51.1512153  48.0664899  27.8200557  55.7742153  49.5734899
  28.0990557  57.8102153  48.3204899  29.2820557  56.0692153  46.9034899
  31.0050557  56.7292153  48.3854899  38.2440557  43.3702153  48.8374899
  38.5400557  44.5362153  48.6374899  39.3390557  45.0672153  47.4554899
  40.3720557  44.7122153  47.5544899  39.3120557  46.6042153  47.5994899
  38.6360557  47.1532153  46.3164899  37.1830557  47.5292153  46.5554899
  38.8050557  46.0162153  45.2754899  38.7470557  44.6992153  46.0794899
  39.5040557  43.5022153  45.5224899  40.3370557  46.9872153  47.6724899
  38.2720557  45.6012153  49.4884899  38.4000557  45.3862153  50.9504899
  37.1790557  44.7712153  51.6734899  35.8090557  45.4312153  51.3954899
  35.8010557  46.9692153  51.3444899  36.5180557  47.5002153  52.4724899
  36.7090557  48.9312153  52.4434899  38.1340557  49.2672153  52.9564899
  39.1250557  48.8012153  52.0344899  38.3050557  50.8012153  53.1814899
  39.6220557  51.1652153  53.9024899  40.7390557  50.9162153  53.0474899
  37.2250557  51.2952153  54.0044899  35.9090557  51.0902153  53.4714899
  34.9570557  51.6242153  54.3664899  35.6700557  49.5712153  53.3884899
  34.3430557  49.2962153  52.9354899  38.6110557  46.8472153  48.9414899
  38.4730557  47.9292153  49.4924899  39.1840557  48.0432153  45.9744899
  36.4750557  46.7022153  46.5684899  39.7930557  46.1172153  44.8044899
  38.0460557  46.0562153  44.4844899  37.6930557  44.4372153  46.2254899
  39.7110557  42.7392153  46.2764899  38.6360557  46.3412153  51.4314899
  39.2650557  44.7342153  51.1244899  37.1080557  43.7072153  51.4104899
  37.3730557  44.8042153  52.7524899  35.4320557  45.0582153  50.4384899
  35.0950557  45.0932153  52.1564899  34.7640557  47.3232153  51.3154899
  36.2820557  47.2802153  50.4124899  36.5900557  49.3382153  51.4294899
  38.2740557  48.7692153  53.9264899  38.7000557  48.5692153  51.1754899
  38.2910557  51.3172153  52.2114899  39.5960557  52.2262153  54.1834899
  39.7050557  50.5812153  54.8284899  40.5700557  50.0532153  52.6134899
  35.8100557  51.5622153  52.4844899  34.2390557  50.9692153  54.3064899
  35.8280557  49.1572153  54.3974899  34.3200557  48.3262153  52.8054899
  38.5050557  40.0272153  40.5634899  38.8490557  40.2902153  41.7024899
  40.2830557  40.4412153  42.2004899  40.8050557  39.4842153  42.0694899
  40.1560557  40.7722153  43.7094899  40.8810557  42.1262153  43.9534899
  39.9810557  43.3122153  44.2804899  41.7370557  42.3602153  42.6904899
  41.0470557  41.6082153  41.5364899  42.0220557  41.1422153  40.4704899
  40.6350557  39.9802153  44.2984899  38.0020557  40.4812153  42.7864899
  36.5700557  40.1152153  42.7254899  35.6510557  41.1392153  42.0154899
  35.9350557  42.6432153  42.2704899  36.0930557  43.0782153  43.7414899
  35.1040557  42.4172153  44.5504899  35.2840557  42.5782153  45.9734899
  34.8600557  41.2752153  46.6994899  35.7410557  40.2032153  46.3484899
  34.8530557  41.4792153  48.2474899  34.2320557  40.2892153  49.0124899
  35.0530557  39.1282153  48.8804899  34.0650557  42.6482153  48.5794899
  34.5270557  43.8692153  47.9874899  33.6890557  44.9402153  48.3714899
  34.3850557  43.7332153  46.4644899  34.7050557  44.9752153  45.8254899
  38.6540557  40.7292153  43.9954899  38.1260557  40.8112153  45.0934899
  41.5650557  41.9962153  44.8044899  39.8130557  44.0402153  43.4884899
  42.7290557  41.9262153  42.8614899  41.8780557  43.4232153  42.4614899
  40.3130557  42.2912153  41.0834899  41.8190557  41.5262153  39.4704899
  36.1980557  39.9762153  43.7464899  36.4760557  39.1462153  42.2204899
  35.7240557  40.9692153  40.9334899  34.6110557  40.9172153  42.2854899
  36.8440557  42.9312153  41.7274899  35.1190557  43.2242153  41.8214899
  36.0050557  44.1702153  43.8014899  37.1000557  42.8242153  44.0804899
  36.3340557  42.7752153  46.2284899  33.8360557  41.0242153  46.3874899
  36.5710557  40.5762153  45.9684899  35.8840557  41.6222153  48.6014899
  34.1320557  40.5592153  50.0724899  33.2230557  40.0942153  48.6244899
  35.3730557  39.1192153  47.9534899  35.5690557  44.0692153  48.2734899
  33.7150557  45.4762153  47.5554899  33.3400557  43.4562153  46.2574899
  34.6510557  44.7882153  44.8674899  48.1850557  38.8362153  41.6404899
  47.2480557  39.4872153  41.2134899  46.3240557  39.0942153  40.0694899
  46.9180557  38.8262153  39.1954899  45.4790557  40.3562153  39.7674899
  44.0140557  39.8692153  39.5824899  43.0660557  40.3212153  40.6784899
  44.1140557  38.3282153  39.5314899  45.3320557  37.9652153  40.4044899
  45.9900557  36.5902153  40.2794899  45.8480557  40.8312153  38.8484899
  46.8530557  40.7452153  41.6544899  47.7710557  41.5932153  42.4464899
  47.9220557  41.2082153  43.9374899  46.6350557  40.7682153  44.6814899
  45.4000557  41.6702153  44.4954899  45.7950557  43.0482153  44.6174899
  44.7650557  44.0002153  44.2794899  45.4100557  45.2142153  43.5634899
  45.9460557  44.8222153  42.2944899  44.3710557  46.3612153  43.3694899
  45.0060557  47.6712153  42.8524899  45.3920557  47.5232153  41.4844899
  43.7330557  46.6642153  44.6304899  43.0420557  45.5642153  45.2384899
  42.4770557  45.9742153  46.4634899  44.0790557  44.4802153  45.5764899
  43.4380557  43.4032153  46.2714899  45.7830557  41.2952153  40.9404899
  45.2470557  42.3682153  41.1784899  43.6400557  40.2322153  38.6144899
  43.2770557  39.9312153  41.6734899  44.3040557  38.0422153  38.4894899
  43.1910557  37.8392153  39.8704899  45.0280557  38.0892153  41.4534899
  46.8430557  36.4972153  40.9534899  47.4200557  42.6302153  42.3974899
  48.7620557  41.5742153  41.9724899  48.6470557  40.3882153  44.0094899
  48.3730557  42.0552153  44.4684899  46.3710557  39.7522153  44.3604899
  46.8620557  40.6992153  45.7514899  44.6410557  41.3992153  45.2384899
  44.9690557  41.4822153  43.5074899  44.0200557  43.5632153  43.6064899
  46.2200557  45.5982153  44.2014899  45.5810557  43.9472153  42.0314899
  43.6090557  46.0432153  42.6444899  44.2750557  48.4852153  42.9464899
  45.8730557  47.9302153  43.4744899  45.8700557  46.6702153  41.4184899
  42.2640557  45.1712153  44.5704899  42.5660557  45.1472153  46.9784899
  44.8470557  44.9482153  46.2134899  44.1510557  42.7722153  46.4984899
  47.5580557  33.2262153  35.6014899  46.8990557  34.1402153  36.0664899
  45.4210557  34.0912153  36.4414899  44.8210557  33.9062153  35.5404899
  45.1010557  35.4982153  37.0184899  44.6220557  35.2862153  38.4814899
  45.7250557  35.5132153  39.5074899  44.1570557  33.8142153  38.5044899
  45.1080557  33.0602153  37.5504899  44.5890557  31.7482153  36.9864899
  44.3110557  35.9722153  36.4214899  47.3650557  35.4172153  36.3524899
  48.7210557  35.8642153  35.9604899  49.8570557  35.3522153  36.8784899
  49.6500557  35.5322153  38.4044899  49.4120557  36.9752153  38.8914899
  50.4230557  37.8302153  38.3384899  50.3700557  39.1992153  38.7914899
  49.8010557  40.1042153  37.6684899  48.4160557  39.8142153  37.4524899
  49.9710557  41.6042153  38.0454899  49.5570557  42.5752153  36.9174899
  48.1430557  42.5232153  36.7204899  51.3610557  41.8572153  38.3394899
  51.8830557  41.1202153  39.4564899  53.2410557  41.4612153  39.6464899
  51.8150557  39.6152153  39.1264899  52.2840557  38.8542153  40.2444899
  46.4000557  36.2942153  36.8434899  46.5510557  37.4902153  37.0344899
  43.7500557  35.9092153  38.6964899  46.3840557  34.6542153  39.6304899
  43.1310557  33.7692153  38.1184899  44.1580557  33.3862153  39.5154899
  46.0420557  32.8502153  38.0914899  45.2330557  31.3012153  36.2274899
  48.7460557  36.9592153  35.9494899  48.9140557  35.5252153  34.9344899
  49.9970557  34.2822153  36.6844899  50.7930557  35.8382153  36.5794899
  48.8080557  34.9092153  38.7314899  50.5350557  35.1372153  38.9184899
  49.4460557  36.9932153  39.9894899  48.4170557  37.3052153  38.5854899
  49.7610557  39.3062153  39.7004899  50.3780557  39.9202153  36.7504899
  48.3180557  38.8632153  37.2424899  49.3630557  41.8322153  38.9324899
  49.8600557  43.5952153  37.1924899  50.0890557  42.3112153  35.9944899
  47.8990557  41.5742153  36.7484899  51.3080557  41.3412153  40.3644899
  53.5770557  40.7012153  40.1604899  52.4470557  39.4402153  38.2414899
  52.0460557  37.9252153  40.0564899  43.4530557  31.1212153  37.3354899
  42.7720557  31.5022153  38.0944899  43.1730557  30.1762153  36.8684899
  18.9970557  82.3092153  30.3044899  18.7580557  83.3722153  30.3204899
  18.1550557  81.6202153  30.2314899  24.1260557  80.7172153  27.2414899
  22.9900557  80.5882153  27.6644899  22.5750557  79.7852153  28.8934899
  22.8810557  78.7382153  28.7674899  21.0270557  79.8792153  28.9424899
  20.6560557  80.4072153  30.3544899  20.2630557  81.8722153  30.3624899
  21.9310557  80.1772153  31.1964899  23.1070557  80.3732153  30.2194899
  24.4230557  79.7322153  30.6244899  20.5900557  78.8852153  28.7814899
  21.8390557  81.1322153  27.1074899  21.8420557  81.7512153  25.7644899
  22.4780557  83.1622153  25.6714899  22.3590557  84.0902153  26.9084899
  20.9530557  84.2732153  27.5204899  19.9760557  84.3372153  26.4794899
  18.6000557  84.1852153  26.8944899  17.8380557  83.7412153  25.6184899
  18.1720557  82.3792153  25.3204899  16.2980557  83.8922153  25.7554899
  15.5470557  83.6892153  24.4204899  15.6700557  82.3352153  23.9814899
  16.0040557  85.2282153  26.2034899  16.5180557  85.5302153  27.5064899
  16.0960557  86.8262153  27.8834899  18.0610557  85.5262153  27.4634899
  18.5180557  85.7482153  28.8094899  20.6540557  80.7702153  27.7534899
  19.5250557  81.0492153  27.3834899  19.8230557  79.8202153  30.7634899
  21.0810557  82.5832153  30.4374899  21.9370557  79.1422153  31.5574899
  21.9920557  80.8482153  32.0654899  23.2690557  81.4492153  30.0734899
  25.1350557  79.6412153  29.8034899  20.8070557  81.8302153  25.4134899
  22.3610557  81.0792153  25.0684899  23.5480557  83.0362153  25.4634899
  22.0620557  83.6722153  24.7944899  23.0290557  83.7232153  27.6934899
  22.7410557  85.0802153  26.6264899  20.9500557  85.1942153  28.1074899
  20.7390557  83.4332153  28.1894899  18.4940557  83.4052153  27.6614899
  18.1590557  84.3922153  24.7924899  18.6290557  81.9962153  26.1044899
  15.9170557  83.1632153  26.4844899  14.4880557  83.9442153  24.5624899
  15.9550557  84.3782153  23.6684899  16.5890557  82.0622153  24.1924899
  16.1550557  84.7922153  28.2344899  16.7180557  87.0402153  28.6044899
  18.3750557  86.3412153  26.7934899  19.4880557  85.8932153  28.8134899
  28.1070557  80.5272153  36.0034899  27.6600557  80.4132153  34.8754899
  27.5890557  79.1322153  34.0554899  28.5620557  78.6242153  34.0634899
  27.2200557  79.5822153  32.6194899  26.1050557  78.6192153  32.1174899
  24.7700557  79.2892153  31.8464899  25.9890557  77.5252153  33.2004899
  26.4580557  78.1882153  34.5114899  26.9180557  77.2462153  35.6074899
  28.1040557  79.5202153  31.9714899  27.1570557  81.4372153  34.0864899
  27.2470557  82.8532153  34.5064899  26.2060557  83.3002153  35.5604899
  24.7790557  82.7072153  35.4344899  24.1030557  82.8062153  34.0504899
  24.3980557  84.0892153  33.4714899  24.0080557  84.2502153  32.0904899
  25.0500557  85.1722153  31.4034899  26.3120557  84.5022153  31.3024899
  24.5790557  85.6162153  29.9864899  25.4750557  86.7092153  29.3614899
  26.7550557  86.1662153  29.0324899  23.2430557  86.1612153  30.0694899
  22.2620557  85.2492153  30.5764899  20.9870557  85.8632153  30.5544899
  22.6130557  84.9152153  32.0374899  21.6060557  84.0552153  32.5754899
  26.8580557  81.0642153  32.7744899  26.4700557  81.8132153  31.8904899
  26.4460557  78.1462153  31.1864899  24.0960557  79.3782153  32.6974899
  26.6650557  76.7002153  32.9424899  24.9740557  77.1152153  33.2794899
  25.6330557  78.8042153  34.8984899  27.4480557  77.7402153  36.4244899
  27.1340557  83.4912153  33.6234899  28.2490557  83.0392153  34.9074899
  26.5870557  83.0302153  36.5524899  26.1460557  84.3952153  35.5494899
  24.8110557  81.6522153  35.7304899  24.1360557  83.2042153  36.1704899
  23.0250557  82.6502153  34.1714899  24.4730557  81.9992153  33.4104899
  23.9820557  83.2852153  31.5654899  25.1610557  86.0762153  32.0184899
  26.1940557  83.5532153  31.5414899  24.5780557  84.7482153  29.3134899
  24.9890557  87.0972153  28.4564899  25.5770557  87.5442153  30.0664899
  27.0150557  85.5932153  29.7854899  22.2520557  84.3372153  29.9694899
  20.5300557  85.4102153  31.2924899  22.6560557  85.8652153  32.5944899
  21.8350557  83.8992153  33.5134899  24.7330557  71.3272153  37.9624899
  25.0090557  72.5132153  37.8864899  26.3740557  73.1472153  38.1574899
  26.6380557  73.0002153  39.2104899  26.1880557  74.6582153  37.8494899
  27.2470557  75.0492153  36.7814899  26.7300557  75.9172153  35.6504899
  27.8950557  73.7412153  36.2714899  27.4630557  72.5922153  37.2114899
  28.6100557  71.9132153  37.9464899  26.3250557  75.2532153  38.7624899
  24.1540557  73.5242153  37.4694899  22.7130557  73.2922153  37.2414899
  22.3790557  72.5582153  35.9204899  23.1620557  72.9892153  34.6504899
  23.0930557  74.4822153  34.2564899  21.7440557  74.9432153  34.4044899
  21.4780557  76.2782153  33.9204899  21.7230557  77.3362153  35.0344899
  23.1270557  77.5032153  35.2584899  21.1190557  78.7132153  34.6284899
  21.1650557  79.7682153  35.7534899  22.5070557  80.2312153  35.9184899
  19.7390557  78.5512153  34.2434899  19.5330557  77.6932153  33.1144899
  18.1550557  77.6422153  32.8104899  19.9970557  76.2752153  33.4904899
  19.8360557  75.4012153  32.3684899  24.7220557  74.7932153  37.4304899
  24.1370557  75.8302153  37.1584899  28.0280557  75.6212153  37.2964899
  26.1850557  75.3962153  34.8664899  28.9870557  73.8362153  36.2244899
  27.5490557  73.5162153  35.2544899  27.0000557  71.8212153  36.5764899
  28.7020557  70.8522153  37.7084899  22.1970557  74.2602153  37.2404899
  22.3140557  72.7162153  38.0864899  22.5670557  71.4892153  36.0744899
  21.3010557  72.6472153  35.7344899  24.2160557  72.7072153  34.7634899
  22.7840557  72.3982153  33.8074899  23.4290557  74.5882153  33.2164899
  23.7770557  75.0582153  34.8814899  22.0960557  76.5172153  33.0434899
  21.2190557  76.9992153  35.9534899  23.4190557  76.8262153  35.9184899
  21.6850557  79.1102153  33.7804899  20.5080557  80.6062153  35.4854899
  20.7820557  79.3322153  36.6864899  23.0610557  79.4282153  36.0004899
  20.0940557  78.0582153  32.2454899  18.0680557  76.7872153  32.3454899
  19.3850557  75.9412153  34.3424899  20.2170557  74.5422153  32.6414899
  32.4130557  72.1552153  42.2954899  31.3710557  72.6652153  41.9174899
  31.2390557  73.9732153  41.1274899  31.5340557  74.8042153  41.7744899
  29.7270557  74.0652153  40.8194899  29.5800557  73.8812153  39.2954899
  29.4830557  72.4372153  38.8264899  30.8820557  74.4882153  38.7664899
  31.9840557  74.0522153  39.7654899  33.2600557  74.8972153  39.8584899
  29.3420557  75.0462153  41.1314899  30.0810557  72.1902153  42.1744899
  29.7870557  71.1092153  43.1454899  29.9210557  69.6562153  42.6264899
  29.5870557  69.3652153  41.1394899  28.1740557  69.7272153  40.6224899
  27.1730557  69.1672153  41.4834899  25.8320557  69.2152153  40.9394899
  25.0140557  70.3842153  41.5504899  25.5300557  71.6442153  41.1114899
  23.5230557  70.2662153  41.1134899  22.6030557  71.3352153  41.7414899
  22.8790557  72.6122153  41.1594899  23.0220557  68.9692153  41.5014899
  23.6860557  67.8692153  40.8604899  23.1110557  66.6532153  41.2964899
  25.1660557  67.8712153  41.2924899  25.8680557  66.8082153  40.6394899
  29.0650557  72.9782153  41.6474899  27.8670557  72.8422153  41.8244899
  28.7190557  74.4592153  38.9684899  30.2460557  71.7792153  39.2394899
  30.7350557  75.5702153  38.7914899  31.1020557  74.1802153  37.7354899
  32.2850557  73.0312153  39.4974899  33.9510557  74.4892153  40.5974899
  28.7590557  71.2452153  43.5044899  30.4360557  71.2332153  44.0194899
  30.9610557  69.3472153  42.7864899  29.3160557  69.0012153  43.2674899
  30.3290557  69.8682153  40.5104899  29.7380557  68.2932153  40.9684899
  28.0730557  69.3212153  39.6084899  28.0550557  70.8092153  40.5454899
  25.8390557  69.3232153  39.8434899  25.0570557  70.3112153  42.6464899
  26.4030557  71.8082153  41.5394899  23.4600557  70.3642153  40.0204899
  21.5560557  71.0582153  41.5594899  22.7580557  71.3592153  42.8274899
  23.8580557  72.6642153  41.1024899  23.6020557  67.9572153  39.7684899
  23.8170557  66.0102153  41.0944899  25.1940557  67.7432153  42.3854899
  26.8150557  66.9682153  40.8284899  33.5180557  81.0242153  39.9934899
  32.9790557  79.9562153  39.7604899  32.8450557  79.2872153  38.3964899
  32.2560557  79.9322153  37.7474899  32.0630557  77.9732153  38.6544899
  32.9470557  76.8122153  38.1214899  33.6570557  76.0212153  39.2144899
  33.9310557  77.5072153  37.1634899  34.1850557  78.9232153  37.7234899
  34.6320557  80.0462153  36.7794899  31.1100557  78.0092153  38.1104899
  32.3690557  79.1262153  40.6914899  32.2200557  79.5062153  42.1134899
  33.5200557  79.4252153  42.9524899  34.5020557  78.2702153  42.6244899
  33.9510557  76.8372153  42.7694899  33.4790557  76.6422153  44.1094899
  33.1460557  75.2712153  44.4104899  31.7280557  75.2202153  45.0244899
  30.7720557  75.6462153  44.0504899  31.4250557  73.7752153  45.5084899
  30.0560557  73.6252153  46.2044899  29.0100557  73.6722153  45.2314899
  32.4460557  73.3782153  46.4474899  33.7690557  73.3152153  45.8904899
  34.6780557  72.9102153  46.8954899  34.1760557  74.7302153  45.4254899
  35.4790557  74.6952153  44.8304899  31.7700557  77.9872153  40.1574899
  31.0930557  77.1832153  40.7774899  32.3580557  76.1372153  37.4944899
  34.6300557  76.4322153  39.4824899  33.4120557  77.5722153  36.2044899
  34.8530557  76.9312153  37.0194899  34.9410557  78.8262153  38.5154899
  34.7860557  80.9792153  37.3224899  31.4720557  78.8482153  42.5734899
  31.8220557  80.5272153  42.1644899  34.0670557  80.3662153  42.8104899
  33.2530557  79.3912153  44.0164899  34.8760557  78.3982153  41.6014899
  35.3780557  78.3692153  43.2774899  34.7580557  76.1292153  42.5364899
  33.1440557  76.6652153  42.0534899  33.1680557  74.6322153  43.5154899
  31.7030557  75.8852153  45.9014899  31.0960557  76.4932153  43.6864899
  31.4500557  73.0942153  44.6504899  30.0300557  72.6622153  46.7334899
  29.9330557  74.4182153  46.9534899  29.1580557  74.4822153  44.7024899
  33.7950557  72.6102153  45.0474899  35.5380557  73.1802153  46.5204899
  34.1700557  75.3812153  46.3124899  35.6640557  75.6062153  44.5294899
  32.4850557  81.4942153  31.4244899  32.6120557  80.6832153  32.3244899
  33.5030557  79.4412153  32.3054899  33.1050557  78.7432153  31.5574899
  33.3700557  78.8372153  33.7264899  34.7600557  78.9732153  34.4154899
  34.8380557  80.0922153  35.4434899  35.7650557  79.1852153  33.2634899
  34.9930557  79.7572153  32.0584899  35.4750557  79.2112153  30.7254899
  33.0800557  77.7842153  33.6594899  31.9350557  80.7002153  33.5374899
  30.8210557  81.6422153  33.7984899  31.2630557  83.0752153  34.1894899
  32.3170557  83.1702153  35.3174899  31.9170557  82.5082153  36.6494899
  30.8580557  83.2592153  37.2674899  30.5870557  82.8712153  38.6354899
  29.4320557  81.8372153  38.7114899  29.8230557  80.5952153  38.1204899
  29.0130557  81.6022153  40.1904899  27.7780557  80.6832153  40.3414899
  28.1180557  79.3422153  39.9824899  28.6770557  82.8732153  40.7864899
  29.7590557  83.8182153  40.8334899  29.3080557  85.0122153  41.4394899
  30.1850557  84.1542153  39.3894899  31.2930557  85.0592153  39.4104899
  32.2140557  79.6132153  34.3614899  31.5720557  79.2752153  35.3434899
  35.0490557  78.0342153  34.8954899  35.1410557  81.0512153  35.0194899
  36.2010557  78.2132153  33.0024899  36.5980557  79.8392153  33.5524899
  35.1270557  80.8502153  32.0654899  35.7220557  79.9752153  29.9854899
  30.2110557  81.2412153  34.6124899  30.1870557  81.6942153  32.9054899
  31.6750557  83.5642153  33.2984899  30.3810557  83.6572153  34.4754899
  33.2480557  82.7082153  34.9694899  32.5520557  84.2252153  35.5014899
  32.7980557  82.4852153  37.3044899  31.5990557  81.4822153  36.4644899
  31.4840557  82.4572153  39.1204899  28.5630557  82.2532153  38.1804899
  29.3930557  80.5622153  37.2324899  29.8490557  81.1522153  40.7414899
  27.4320557  80.7162153  41.3844899  26.9630557  81.0612153  39.7104899
  28.7190557  79.4132153  39.2124899  30.6060557  83.4052153  41.3984899
  29.9700557  85.6612153  41.1304899  29.3210557  84.6062153  38.8804899
  31.6620557  85.0512153  38.5054899  38.5420557  73.3542153  29.5784899
  38.2400557  74.5322153  29.6604899  37.3660557  75.3062153  28.6824899
  37.7390557  75.1652153  27.6584899  37.5020557  76.7902153  29.0974899
  36.0730557  77.3992153  29.0704899  35.6000557  77.9082153  30.4174899
  35.1510557  76.2862153  28.5154899  35.8670557  74.9452153  28.7834899
  35.5250557  73.8052153  27.8354899  38.1550557  77.3142153  28.3874899
  38.6680557  75.4202153  30.6404899  39.8670557  75.1212153  31.4574899
  39.6630557  74.1392153  32.6364899  38.3740557  74.3052153  33.4774899
  38.0150557  75.7392153  33.9124899  39.1930557  76.4192153  34.3774899
  39.0310557  77.8412153  34.5824899  40.3640557  78.5472153  34.2274899
  40.6160557  78.4322153  32.8214899  40.3310557  80.0502153  34.6334899
  41.7040557  80.7472153  34.4994899  42.0630557  80.8652153  33.1214899
  39.9320557  80.1662153  36.0174899  38.6350557  79.6332153  36.3174899
  38.3490557  79.8342153  37.6864899  38.6670557  78.1152153  36.0614899
  37.3940557  77.5512153  36.3954899  38.2370557  76.7362153  30.4454899
  38.4950557  77.6852153  31.1704899  36.0660557  78.2382153  28.3594899
  35.3660557  77.1372153  31.1484899  35.0410557  76.4342153  27.4324899
  34.1470557  76.3102153  28.9594899  35.6590557  74.6332153  29.8154899
  36.2650557  73.0042153  27.8234899  40.2580557  76.0592153  31.8654899
  40.6460557  74.7212153  30.7964899  39.6730557  73.1172153  32.2384899
  40.5350557  74.2142153  33.2974899  37.5300557  73.8942153  32.9134899
  38.4670557  73.6822153  34.3754899  37.2480557  75.6862153  34.6924899
  37.5780557  76.2662153  33.0574899  38.2490557  78.2472153  33.9334899
  41.1730557  78.0602153  34.7914899  39.7810557  78.1842153  32.3644899
  39.6110557  80.5852153  34.0004899  41.6450557  81.7432153  34.9584899
  42.4600557  80.1722153  35.0504899  41.8440557  80.0052153  32.7044899
  37.8660557  80.1162153  35.6984899  37.6810557  79.1432153  37.8534899
  39.4600557  77.6912153  36.6974899  37.4640557  76.5952153  36.2034899
  29.7570557  71.8742153  25.8934899  30.8980557  71.7072153  26.2954899
  32.1380557  71.4692153  25.4354899  32.0480557  70.4862153  24.9624899
  33.3250557  71.4672153  26.4274899  34.2980557  72.6012153  25.9994899
  34.4660557  73.7242153  27.0104899  33.8000557  73.1432153  24.6384899
  32.3800557  72.5842153  24.3964899  32.1130557  72.1192153  22.9734899
  33.8330557  70.4952153  26.3854899  31.3030557  71.7202153  27.6214899
  30.3410557  71.5032153  28.7244899  29.4680557  72.7202153  29.1124899
  30.1100557  74.1282153  28.9944899  31.4950557  74.3152153  29.6434899
  31.5010557  73.7022153  30.9464899  32.8100557  73.5042153  31.5254899
  32.7920557  72.2072153  32.3774899  32.6450557  71.0632153  31.5314899
  34.0860557  72.0612153  33.2384899  33.9900557  70.9322153  34.2884899
  33.9820557  69.6572153  33.6464899  34.3400557  73.2892153  33.9614899
  34.4870557  74.4462153  33.1324899  34.7590557  75.5762153  33.9264899
  33.1370557  74.6982153  32.4424899  33.1770557  75.9232153  31.7084899
  32.6810557  71.5992153  27.8084899  33.2600557  71.5542153  28.8844899
  35.2820557  72.1372153  25.8384899  33.7000557  74.4982153  26.9934899
  34.4880557  72.8382153  23.8424899  33.7880557  74.2412153  24.6184899
  31.6790557  73.4022153  24.6194899  31.2590557  72.6152153  22.5104899
  30.8970557  71.1862153  29.6134899  29.6870557  70.6662153  28.4564899
  28.5770557  72.7122153  28.4734899  29.1050557  72.5722153  30.1364899
  30.1900557  74.3912153  27.9324899  29.4170557  74.8562153  29.4344899
  31.7170557  75.3862153  29.6974899  32.2550557  73.8622153  29.0004899
  33.5830557  73.4022153  30.7494899  31.9360557  72.2602153  33.0654899
  32.9300557  71.2912153  30.6154899  34.9380557  71.8452153  32.5784899
  34.8490557  71.0012153  34.9674899  33.0800557  71.0682153  34.8884899
  33.3900557  69.7322153  32.8674899  35.2850557  74.2952153  32.3924899
  34.3930557  76.2782153  33.3534899  32.3670557  74.7452153  33.2304899
  32.3560557  75.9182153  31.1774899  32.5590557  67.9432153  19.2994899
  32.7870557  68.1382153  20.4814899  34.1470557  68.4642153  21.1054899
  34.7480557  67.5462153  21.1144899  33.8000557  68.8472153  22.5624899
  33.9980557  70.3762153  22.6604899  32.7700557  71.1862153  22.2544899
  35.1230557  70.6522153  21.6444899  34.9020557  69.6662153  20.4654899
  36.1680557  69.2072153  19.7394899  34.4660557  68.3252153  23.2604899
  31.8550557  68.0672153  21.5154899  30.5230557  67.4452153  21.3484899
  29.4330557  68.3692153  20.7564899  29.3320557  69.8132153  21.3174899
  29.1800557  69.9812153  22.8464899  28.2460557  69.0102153  23.3424899
  27.8160557  69.2292153  24.7044899  28.5920557  68.3162153  25.6914899
  29.9630557  68.7172153  25.7834899  27.9400557  68.3962153  27.1024899
  28.5710557  67.4382153  28.1364899  29.8780557  67.8962153  28.4894899
  26.5420557  68.0572153  26.9974899  25.7750557  68.9572153  26.1824899
  24.4260557  68.5372153  26.1644899  26.3120557  68.8852153  24.7404899
  25.5960557  69.8022153  23.9074899  32.3730557  68.3622153  22.7704899
  31.8130557  68.2012153  23.8414899  34.3230557  70.6252153  23.6764899
  32.4270557  70.9952153  21.2394899  36.0880557  70.4632153  22.1204899
  35.1090557  71.7012153  21.3264899  34.2290557  70.1332153  19.7324899
  36.2150557  68.1312153  19.5704899  30.1770557  67.0882153  22.3264899
  30.6290557  66.5632153  20.7044899  29.6090557  68.4462153  19.6754899
  28.4620557  67.8712153  20.8664899  30.2030557  70.3872153  20.9864899
  28.4680557  70.2932153  20.8414899  28.8250557  71.0002153  23.0494899
  30.1490557  69.8782153  23.3404899  27.9410557  70.2802153  25.0064899
  28.5190557  67.2762153  25.3404899  30.4190557  68.4922153  24.9404899
  28.0350557  69.4222153  27.4824899  27.9320557  67.4022153  29.0284899
  28.6130557  66.4222153  27.7184899  30.3140557  68.1362153  27.6444899
  25.8490557  69.9812153  26.5714899  24.0900557  68.9552153  25.3484899
  26.1800557  67.8512153  24.3894899  26.1000557  69.8432153  23.0704899
  41.9650557  71.0082153  19.0014899  40.8820557  71.1452153  19.5444899
  39.7830557  72.1272153  19.1404899  40.1560557  73.1552153  19.2484899
  38.6220557  71.8702153  20.1404899  37.3870557  71.4452153  19.3004899
  37.1970557  69.9352153  19.2614899  37.6940557  71.9912153  17.8914899
  39.2250557  71.8752153  17.7214899  39.8560557  72.7932153  16.6874899
  38.4090557  72.7882153  20.7024899  40.4260557  70.4322153  20.6474899
  41.3060557  69.5252153  21.4174899  41.5860557  68.1542153  20.7534899
  40.3790557  67.4122153  20.1184899  39.1530557  67.1802153  21.0254899
  39.5950557  66.7172153  22.3124899  38.5600557  66.3282153  23.2454899
  38.0050557  67.5662153  24.0034899  37.1810557  68.3322153  23.1214899
  37.1610557  67.1572153  25.2494899  36.7940557  68.3532153  26.1624899
  36.0340557  69.3242153  25.4354899  37.9230557  66.2382153  26.0544899
  38.2760557  65.0112153  25.3984899  38.9800557  64.1882153  26.3054899
  39.2230557  65.3442153  24.2294899  39.5720557  64.1452153  23.5294899
  39.1660557  70.8122153  21.1024899  38.6180557  70.4052153  22.1144899
  36.4860557  71.9392153  19.6724899  37.9980557  69.4002153  18.7524899
  37.3930557  73.0462153  17.8564899  37.1470557  71.4562153  17.1034899
  39.4600557  70.8382153  17.4424899  40.9470557  72.7492153  16.6594899
  40.8500557  69.3412153  22.3994899  42.2600557  70.0352153  21.5974899
  42.3320557  68.3072153  19.9634899  42.0630557  67.5012153  21.4934899
  40.0540557  67.9582153  19.2254899  40.7320557  66.4362153  19.7614899
  38.4930557  66.4412153  20.5524899  38.5960557  68.1152153  21.1104899
  37.7370557  65.8082153  22.7344899  38.8590557  68.1652153  24.3584899
  37.7700557  68.9742153  22.6554899  36.2330557  66.6722153  24.9194899
  36.2200557  67.9842153  27.0244899  37.7170557  68.8032153  26.5534899
  36.3610557  69.2652153  24.5124899  37.3770557  64.4932153  25.0384899
  39.4490557  63.5702153  25.7114899  40.1170557  65.8232153  24.6564899
  40.0750557  64.4272153  22.7404899  39.2110557  73.6152153  15.8434899
  38.1280557  73.6992153  15.8064899  39.7650557  74.2332153  15.1364899
  91.0800557  36.2922153  23.8654899  91.6180557  36.7822153  24.6774899
  90.9000557  36.8832153  22.9684899  92.3350557  30.3052153  23.0284899
  92.0300557  31.4392153  22.6974899  90.6190557  31.9512153  22.4394899
  90.1580557  31.3522153  21.6534899  90.7920557  33.4132153  21.9544899
  89.8990557  34.2922153  22.8724899  90.6670557  35.0202153  23.9644899
  88.9030557  33.2852153  23.4824899  89.7170557  31.9902153  23.6914899
  88.9970557  30.6582153  23.9024899  90.4650557  33.4942153  20.9094899
  92.9060557  32.4942153  22.4644899  94.3730557  32.3032153  22.4374899
  95.0710557  32.1692153  23.8154899  94.4410557  32.9072153  25.0284899
  94.1460557  34.4112153  24.8554899  95.2710557  35.0562153  24.2404899
  95.0010557  36.3682153  23.6934899  95.9000557  36.5442153  22.4434899
  95.4630557  35.6622153  21.4024899  95.8940557  38.0152153  21.9314899
  96.9490557  38.2812153  20.8344899  96.6050557  37.5832153  19.6354899
  96.2010557  38.9002153  23.0294899  95.2700557  38.8502153  24.1184899
  95.6550557  39.7882153  25.1034899  95.3360557  37.4462153  24.7514899
  94.4240557  37.3852153  25.8554899  92.2990557  33.6692153  22.0154899
  92.8760557  34.6942153  21.6864899  89.3580557  35.0292153  22.2614899
  90.8610557  34.4562153  24.8754899  88.1060557  33.1172153  22.7484899
  88.4570557  33.6612153  24.4124899  90.3670557  32.1492153  24.5634899
  89.7060557  29.8342153  23.9944899  94.8220557  33.1562153  21.9154899
  94.5990557  31.4142153  21.8334899  95.1020557  31.1022153  24.0694899
  96.1170557  32.4802153  23.7054899  93.5060557  32.4042153  25.3034899
  95.1130557  32.7852153  25.8864899  93.9180557  34.8472153  25.8334899
  93.2570557  34.5262153  24.2324899  93.9500557  36.4712153  23.3874899
  96.9320557  36.2952153  22.7284899  94.5220557  35.4192153  21.5664899
  94.9020557  38.2612153  21.5284899  96.9970557  39.3602153  20.6384899
  97.9360557  37.9652153  21.1954899  96.2880557  36.6972153  19.9104899
  94.2530557  39.0702153  23.7644899  95.2020557  39.4472153  25.8984899
  96.3720557  37.2912153  25.0884899  94.5330557  36.4952153  26.2424899
  84.0040557  28.3302153  21.2234899  84.7640557  29.2402153  21.5084899
  84.5450557  30.2922153  22.5924899  83.6220557  30.8502153  22.3924899
  85.7820557  31.2302153  22.5014899  86.4570557  31.2282153  23.9034899
  87.6880557  30.3362153  23.9744899  85.3660557  30.6902153  24.8474899
  84.5500557  29.6862153  24.0124899  83.1650557  29.3762153  24.5534899
  85.4670557  32.2432153  22.2214899  85.9940557  29.5002153  20.9134899
  86.5220557  28.6872153  19.7974899  87.1770557  27.3512153  20.2284899
  88.2290557  27.4182153  21.3674899  89.4400557  28.3532153  21.1494899
  89.9070557  28.2142153  19.8014899  91.0730557  29.0002153  19.4754899
  90.6690557  30.1152153  18.4754899  89.9120557  31.1262153  19.1504899
  91.9210557  30.7682153  17.8174899  91.5700557  31.7272153  16.6574899
  90.8740557  32.8732153  17.1544899  92.7660557  29.7352153  17.2674899
  93.2730557  28.8022153  18.2314899  94.1090557  27.8662153  17.5824899
  92.0820557  28.0302153  18.8274899  92.5500557  27.0972153  19.8074899
  86.6210557  30.6602153  21.3554899  87.6230557  31.1602153  20.8694899
  86.6850557  32.2482153  24.2224899  87.4490557  29.2842153  24.1194899
  84.7240557  31.5212153  25.1634899  85.7910557  30.2282153  25.7464899
  85.1100557  28.7442153  23.9534899  82.4990557  28.8932153  23.8364899
  87.2620557  29.2772153  19.2444899  85.6990557  28.4702153  19.1044899
  86.3800557  26.6712153  20.5534899  87.6280557  26.8832153  19.3454899
  87.7290557  27.7082153  22.2974899  88.6080557  26.4022153  21.5354899
  90.2290557  28.0932153  21.8674899  89.1440557  29.3832153  21.3464899
  91.5370557  29.4472153  20.3684899  90.0700557  29.6552153  17.6754899
  89.1350557  30.7192153  19.5924899  92.4810557  31.3332153  18.5754899
  92.4970557  32.0382153  16.1574899  90.9590557  31.1942153  15.9174899
  90.2900557  32.5492153  17.8714899  93.8310557  29.3252153  19.0204899
  94.1050557  27.1182153  18.2104899  91.5800557  27.5072153  17.9994899
  91.7550557  26.7522153  20.2604899  81.6400557  28.3062153  31.0084899
  81.7940557  28.2202153  29.8034899  80.8790557  28.7922153  28.7284899
  79.8300557  28.5472153  28.9384899  81.3540557  28.1462153  27.3964899
  81.3640557  29.2812153  26.3264899  82.7470557  29.6192153  25.8064899
  80.7500557  30.5092153  27.0324899  81.0780557  30.3052153  28.5204899
  80.3350557  31.1742153  29.5184899  80.6720557  27.3372153  27.1064899
  82.8540557  27.6082153  29.1464899  83.9790557  26.9822153  29.8744899
  84.9430557  27.9792153  30.5624899  85.3020557  29.2672153  29.7764899
  85.9260557  29.0712153  28.3794899  87.0090557  28.1372153  28.4824899
  87.7990557  27.9612153  27.2844899  87.2300557  26.8002153  26.4224899
  86.0170557  27.2082153  25.7814899  88.2520557  26.3702153  25.3274899
  87.8260557  25.1052153  24.5514899  86.7430557  25.4082153  23.6684899
  89.5220557  26.0852153  25.9444899  90.1310557  27.2082153  26.5964899
  91.3780557  26.8112153  27.1304899  89.2270557  27.6332153  27.7694899
  89.7770557  28.7872153  28.4154899  82.7090557  27.5172153  27.7624899
  83.5030557  26.9852153  27.0014899  80.7230557  28.9892153  25.4824899
  83.4110557  30.0812153  26.5354899  79.6650557  30.5052153  26.8744899
  81.1560557  31.4572153  26.6534899  82.1480557  30.5242153  28.6424899
  80.7790557  31.1682153  30.5144899  84.5610557  26.3762153  29.1684899
  83.5720557  26.2962153  30.6274899  84.4860557  28.2902153  31.5104899
  85.8630557  27.4482153  30.8344899  84.4060557  29.8912153  29.6744899
  86.0030557  29.8512153  30.3844899  86.2890557  30.0422153  28.0204899
  85.1670557  28.7162153  27.6794899  87.8390557  28.8822153  26.6864899
  87.0520557  25.9332153  27.0754899  85.2550557  27.0922153  26.3974899
  88.3810557  27.1862153  24.6054899  88.6840557  24.7352153  23.9734899
  87.5430557  24.3162153  25.2604899  86.1000557  25.9362153  24.1824899
  90.2690557  28.0372153  25.8894899  91.5600557  27.5082153  27.7894899
  89.1730557  26.7832153  28.4654899  89.1200557  29.0582153  29.0864899
  74.9570557  34.0322153  27.8524899  76.0760557  34.1142153  28.3304899
  76.4600557  33.8212153  29.7784899  75.9190557  34.5032153  30.4364899
  77.9780557  34.1192153  29.8574899  78.6540557  32.8252153  30.3684899
  79.2580557  31.9422153  29.2894899  77.5130557  32.0812153  31.0764899
  76.2450557  32.3632153  30.2434899  74.8690557  32.1912153  30.8954899
  78.1490557  34.9452153  30.5624899  77.2200557  34.5512153  27.6664899
  77.1310557  35.3092153  26.3964899  76.9570557  34.4692153  25.1074899
  77.7680557  33.1532153  24.9874899  79.2770557  33.2262153  25.3024899
  79.8430557  34.4272153  24.7504899  81.1550557  34.7682153  25.2594899
  81.2750557  36.3162153  25.3104899  80.3990557  36.8502153  26.3074899
  82.7380557  36.7752153  25.6034899  82.9420557  38.2952153  25.4184899
  82.2880557  39.0122153  26.4674899  83.6510557  36.1092153  24.7004899
  83.6220557  34.6802153  24.7854899  84.5620557  34.1192153  23.8984899
  82.2370557  34.2102153  24.3084899  82.2150557  32.7782153  24.2444899
  78.3710557  34.5822153  28.4574899  79.4830557  34.9452153  28.1054899
  79.4320557  33.0862153  31.1014899  78.7770557  31.9742153  28.3154899
  77.4200557  32.5292153  32.0724899  77.7190557  31.0092153  31.1814899
  76.2850557  31.7172153  29.3564899  74.0670557  32.4792153  30.2164899
  78.0360557  35.9132153  26.2874899  76.2940557  36.0152153  26.4664899
  75.8950557  34.2122153  25.0114899  77.1880557  35.1112153  24.2484899
  77.3180557  32.4002153  25.6464899  77.6460557  32.7722153  23.9654899
  79.7650557  32.3332153  24.8984899  79.4070557  33.2062153  26.3884899
  81.3120557  34.3712153  26.2714899  80.9910557  36.7142153  24.3254899
  80.1690557  36.1442153  26.9554899  82.9990557  36.5182153  26.6384899
  84.0170557  38.5162153  25.4314899  82.5520557  38.6012153  24.4384899
  81.4040557  38.6042153  26.5824899  83.8210557  34.3462153  25.8134899
  84.0920557  33.2902153  23.6794899  82.0700557  34.6442153  23.3104899
  81.3080557  32.5442153  23.9624899  73.0640557  33.5862153  36.6144899
  73.9020557  33.3862153  35.7514899  74.7110557  32.1072153  35.5564899
  75.3030557  31.9252153  36.4564899  75.6510557  32.4002153  34.3554899
  75.3670557  31.3082153  33.2904899  74.5010557  31.7872153  32.1324899
  74.6880557  30.1882153  34.0884899  73.8710557  30.8582153  35.2064899
  73.5300557  30.0382153  36.4544899  76.6960557  32.3512153  34.6884899
  74.3120557  34.2942153  34.7814899  73.8750557  35.7082153  34.7904899
  72.4210557  35.9512153  34.3154899  71.9010557  35.0772153  33.1464899
  72.7250557  35.1022153  31.8424899  72.9960557  36.4632153  31.4714899
  73.6640557  36.5882153  30.1994899  74.9030557  37.5012153  30.3614899
  75.8620557  36.8792153  31.2204899  75.5340557  37.7692153  28.9654899
  76.7390557  38.7302153  28.9974899  77.8690557  38.0552153  29.5574899
  74.5320557  38.3272153  28.0894899  73.4060557  37.4662153  27.8494899
  72.4980557  38.1142153  26.9804899  72.6830557  37.2192153  29.1894899
  71.5570557  36.3582153  28.9884899  75.3280557  33.8402153  33.9444899
  75.8770557  34.4912153  33.0694899  76.3010557  30.8772153  32.9254899
  73.4350557  31.7782153  32.3564899  75.5070557  29.6072153  34.5194899
  74.0820557  29.5242153  33.4634899  72.9280557  31.2072153  34.7594899
  72.9660557  30.6322153  37.1764899  74.5460557  36.2852153  34.1434899
  73.9910557  36.1082153  35.8044899  71.7560557  35.7812153  35.1714899
  72.3100557  37.0122153  34.0584899  71.8210557  34.0372153  33.4854899
  70.8780557  35.3952153  32.9114899  72.1590557  34.5872153  31.0554899
  73.6620557  34.5552153  31.9814899  73.9850557  35.6112153  29.8094899
  74.5780557  38.4622153  30.7844899  75.3900557  36.4582153  31.9694899
  75.8790557  36.8192153  28.5464899  76.9680557  39.0542153  27.9734899
  76.4860557  39.6242153  29.5824899  77.5750557  37.6952153  30.4194899
  73.7360557  36.5142153  27.4104899  71.6680557  37.6302153  27.1564899
  72.3600557  38.1972153  29.5774899  71.1910557  36.1812153  29.8764899
  76.9730557  26.2472153  39.5464899  76.7950557  26.9112153  38.5384899
  76.3660557  26.3852153  37.1694899  77.2080557  25.8352153  36.7464899
  76.0870557  27.6462153  36.3194899  74.5550557  27.6782153  36.0334899
  73.8150557  28.7632153  36.8104899  74.0170557  26.2642153  36.3604899
  75.0840557  25.5312153  37.2024899  75.3490557  24.0992153  36.7644899
  76.6530557  27.5952153  35.3804899  76.9610557  28.2842153  38.4204899
  77.6950557  29.0772153  39.4324899  76.9140557  29.3662153  40.7364899
  75.4020557  29.6772153  40.5904899  75.0320557  30.8502153  39.6614899
  75.7520557  32.0232153  40.0634899  75.3430557  33.2122153  39.3584899
  76.5810557  33.8922153  38.7304899  77.1560557  33.0342153  37.7414899
  76.1590557  35.2482153  38.0974899  77.3350557  36.0522153  37.5064899
  77.7780557  35.4312153  36.2984899  75.5270557  36.0612153  39.1094899
  74.3220557  35.4982153  39.6564899  73.7950557  36.3802153  40.6284899
  74.6750557  34.1732153  40.3634899  73.4920557  33.5742153  40.9034899
  76.6470557  28.7962153  37.1644899  76.8440557  29.9422153  36.7914899
  74.3830557  27.8092153  34.9624899  73.4650557  28.4332153  37.7884899
  73.8240557  25.7192153  35.4294899  73.0580557  26.3062153  36.8934899
  74.7200557  25.5092153  38.2394899  75.1770557  23.3712153  37.5574899
  77.9840557  30.0362153  38.9854899  78.6250557  28.5522153  39.6804899
  77.0070557  28.4882153  41.3874899  77.4080557  30.1882153  41.2674899
  74.8850557  28.7772153  40.2364899  74.9970557  29.8852153  41.5884899
  73.9490557  31.0182153  39.7224899  75.2680557  30.5982153  38.6234899
  74.6200557  32.9842153  38.5614899  77.3100557  34.0972153  39.5284899
  77.2350557  32.1402153  38.1324899  75.4390557  35.0622153  37.2934899
  77.0000557  37.0772153  37.2994899  78.1490557  36.1092153  38.2404899
  77.9140557  34.4842153  36.5104899  73.5830557  35.3252153  38.8614899
  73.2100557  35.7932153  41.1434899  75.3950557  34.4052153  41.1614899
  73.7660557  32.7052153  41.2534899  78.3010557  20.6792153  33.7614899
  78.2590557  21.8892153  33.9064899  77.5490557  22.8912153  32.9904899
  78.1430557  23.0152153  32.0754899  77.5570557  24.2092153  33.7994899
  76.1010557  24.4092153  34.2924899  75.7890557  23.6392153  35.5744899
  75.2800557  23.8082153  33.1314899  76.0690557  22.5502153  32.6914899
  75.8810557  22.1332153  31.2454899  77.8680557  25.0442153  33.1574899
  78.8620557  22.6162153  34.9304899  79.9250557  22.0492153  35.7864899
  79.4290557  21.2242153  36.9974899  78.2870557  21.8362153  37.8524899
  78.5050557  23.2612153  38.4134899  79.8600557  23.3942153  38.8684899
  80.1320557  24.5862153  39.6394899  80.7390557  25.7052153  38.7484899
  79.7630557  26.2112153  37.8314899  81.2600557  26.8682153  39.6434899
  81.9700557  27.9902153  38.8534899  81.0120557  28.7362153  38.0984899
  82.2080557  26.3372153  40.5904899  81.6510557  25.3882153  41.5144899
  82.6620557  24.9462153  42.3974899  81.1500557  24.1662153  40.7194899
  80.5390557  23.2262153  41.6094899  78.6000557  23.9832153  34.8874899
  79.1520557  24.8482153  35.5444899  75.8880557  25.4782153  34.4034899
  75.9340557  22.5652153  35.4894899  75.2380557  24.5312153  32.3064899
  74.2510557  23.5702153  33.4274899  75.7860557  21.7082153  33.3354899
  76.7140557  21.5672153  30.8274899  80.5500557  22.8692153  36.1634899
  80.5710557  21.4142153  35.1664899  79.0860557  20.2512153  36.6294899
  80.2880557  21.0122153  37.6454899  77.3600557  21.8282153  37.2694899
  78.1110557  21.1642153  38.7004899  77.7980557  23.4252153  39.2384899
  78.2800557  24.0032153  37.6444899  79.2260557  24.9632153  40.1384899
  81.5980557  25.2892153  38.2034899  79.6360557  25.5442153  37.1164899
  80.4170557  27.3112153  40.1884899  82.4870557  28.6532153  39.5624899
  82.7310557  27.5502153  38.1954899  80.4330557  28.0732153  37.6694899
  80.8270557  25.8442153  42.0804899  82.2910557  24.1082153  42.7324899
  82.0230557  23.7172153  40.2214899  80.0880557  22.5732153  41.0364899
  70.4460557  20.2922153  29.0214899  71.6610557  20.2902153  29.1154899
  72.6400557  20.9652153  28.1544899  72.5300557  20.5282153  27.1534899
  74.0440557  20.6432153  28.7344899  74.7550557  21.9942153  29.0094899
  74.8160557  22.3942153  30.4714899  73.9590557  23.0282153  28.2014899
  72.5140557  22.5032153  28.1184899  71.7440557  23.0412153  26.9234899
  74.6160557  20.0482153  28.0124899  72.4040557  19.6572153  30.1074899
  71.7960557  18.6842153  31.0424899  71.0300557  19.2952153  32.2404899
  71.6600557  20.5292153  32.9384899  73.1400557  20.4142153  33.3614899
  73.3940557  19.1082153  33.9054899  74.7810557  18.8452153  34.2194899
  75.1090557  17.3742153  33.8584899  75.0100557  17.1702153  32.4434899
  76.5340557  16.9882153  34.3574899  76.8510557  15.4842153  34.2004899
  76.9300557  15.1332153  32.8184899  76.6430557  17.2942153  35.7664899
  76.4460557  18.6752153  36.1034899  76.5850557  18.8392153  37.5004899
  74.9980557  19.0492153  35.7354899  74.7160557  20.3972153  36.1294899
  73.7840557  19.7752153  29.9624899  74.6360557  19.2382153  30.6524899
  75.7800557  21.9422153  28.6184899  73.9550557  22.9372153  30.8594899
  74.4020557  23.0972153  27.2034899  73.9980557  24.0232153  28.6554899
  72.0020557  22.8272153  29.0364899  70.7360557  23.3832153  27.1604899
  72.5880557  18.0372153  31.4384899  71.1140557  18.0362153  30.4774899
  70.0330557  19.5882153  31.8904899  70.8670557  18.5052153  32.9834899
  71.5580557  21.4002153  32.2794899  71.0630557  20.7552153  33.8294899
  73.3670557  21.2042153  34.0874899  73.7730557  20.5922153  32.4884899
  75.4620557  19.4982153  33.6544899  74.3860557  16.7242153  34.3734899
  74.8940557  18.0382153  31.9934899  77.2870557  17.5652153  33.8014899
  77.8060557  15.2662153  34.6984899  76.0740557  14.8952153  34.7054899
  76.2120557  15.6282153  32.3684899  77.1660557  19.3092153  35.5684899
  76.0140557  19.6122153  37.6704899  74.3400557  18.3472153  36.2714899
  73.7720557  20.5362153  35.9144899  74.8340557  25.8702153  22.0884899
  73.9820557  25.7052153  22.9434899  72.6320557  25.0182153  22.7494899
  72.0690557  25.5262153  21.9544899  71.8990557  25.1762153  24.1074899
  71.4090557  23.7622153  24.5284899  72.2110557  23.1562153  25.6664899
  71.5380557  22.9112153  23.2484899  72.7370557  23.5012153  22.4764899
  72.7770557  23.1812153  20.9904899  71.0430557  25.8532153  23.9834899
  74.0570557  26.1402153  24.2614899  75.0240557  27.1892153  24.6714899
  76.4820557  26.7122153  24.8764899  76.6710557  25.4092153  25.6874899
  76.0390557  25.3852153  27.0914899  76.4950557  26.5102153  27.8514899
  75.9680557  26.5942153  29.1974899  74.6350557  27.4002153  29.2004899
  73.5530557  26.5552153  28.7934899  74.2770557  27.9462153  30.6124899
  73.1350557  28.9882153  30.5654899  71.8850557  28.3352153  30.3394899
  75.4250557  28.5682153  31.2214899  76.5350557  27.6862153  31.4204899
  77.5510557  28.3782153  32.1214899  77.0660557  27.2872153  30.0304899
  78.1720557  26.3882153  30.1714899  72.9220557  25.8632153  25.0214899
  72.7480557  26.2002153  26.1824899  70.3510557  23.8172153  24.8234899
  73.2140557  22.8242153  25.4044899  70.6220557  23.0292153  22.6524899
  71.6570557  21.8412153  23.4664899  73.6680557  23.1482153  22.9374899
  73.4310557  23.8332153  20.4084899  74.6790557  27.6432153  25.6094899
  75.0150557  27.9822153  23.9124899  76.9350557  26.5612153  23.8894899
  77.0520557  27.5212153  25.3504899  76.2480557  24.5772153  25.1104899
  77.7440557  25.2062153  25.7814899  76.3260557  24.4492153  27.5884899
  74.9520557  25.3992153  26.9894899  75.7890557  25.5962153  29.6244899
  74.7450557  28.2592153  28.5214899  73.4740557  26.5332153  27.8114899
  73.9480557  27.1122153  31.2474899  73.0950557  29.5272153  31.5174899
  73.3410557  29.7272153  29.7784899  72.0420557  27.6482153  29.6594899
  76.2260557  26.7982153  31.9864899  78.3780557  27.9292153  31.8504899
  77.3680557  28.2132153  29.5164899  78.3200557  25.9992153  29.2854899
  71.8280557  17.4112153  19.4254899  72.3830557  18.4812153  19.2434899
  71.9700557  19.5572153  18.2414899  72.0680557  19.1622153  17.2214899
  72.9780557  20.7172153  18.4614899  72.1480557  21.9632153  18.8684899
  72.0970557  22.2012153  20.3694899  70.7390557  21.6582153  18.3194899
  70.5570557  20.1332153  18.4884899  69.5070557  19.4822153  17.6024899
  73.5260557  20.9102153  17.5314899  73.5150557  18.9362153  19.9084899
  74.3410557  18.0432153  20.7494899  73.7940557  17.7952153  22.1754899
  73.2320557  19.0222153  22.9394899  74.1420557  20.2652153  23.0394899
  75.5080557  19.8592153  23.2084899  76.4350557  20.9352153  23.4584899
  77.6960557  20.7202153  22.5824899  77.4000557  21.1042153  21.2364899
  78.9160557  21.5632153  23.0744899  80.2490557  21.1112153  22.4404899
  80.2460557  21.3902153  21.0404899  79.0650557  21.4642153  24.5094899
  77.9180557  21.8872153  25.2544899  78.1910557  21.8312153  26.6394899
  76.8010557  20.8752153  24.9534899  75.6410557  21.1302153  25.7524899
  73.9580557  20.1962153  19.5124899  74.9720557  20.7532153  19.8974899
  72.5570557  22.8542153  18.3714899  71.4470557  21.5292153  20.9284899
  70.7170557  21.9222153  17.2544899  69.9530557  22.2312153  18.8294899
  70.2870557  19.9332153  19.5354899  69.4740557  18.3932153  17.6754899
  75.3470557  18.4702153  20.8344899  74.4460557  17.0782153  20.2364899
  72.9910557  17.0512153  22.1054899  74.5860557  17.3272153  22.7734899
  72.2840557  19.3262153  22.4794899  72.9800557  18.6972153  23.9554899
  73.8040557  20.8822153  23.8814899  74.0380557  20.8692153  22.1344899
  76.0070557  21.9192153  23.2154899  77.9730557  19.6562153  22.6274899
  76.5050557  20.7872153  20.9744899  78.7530557  22.6172153  22.8054899
  81.0790557  21.6432153  22.9264899  80.3950557  20.0382153  22.6204899
  79.3220557  21.2752153  20.7294899  77.6270557  22.9012153  24.9614899
  77.3550557  21.4692153  26.9864899  77.2060557  19.8722153  25.1644899
  74.9840557  20.4872153  25.4184899  68.6550557  20.1102153  16.7754899
  68.6240557  21.1922153  16.6634899  67.9370557  19.5442153  16.1824899
 105.8766750  97.2463880  64.8720720 105.7960800  96.3318490  64.6012430
 105.4631170  97.7430950  64.1660430 104.0084790  99.0242900  66.7529990
 103.2326890  98.5443340  67.0428560 104.6597720  98.3448550  66.5786150
  98.0250620  99.3362710  67.6305750  97.1935500  99.0811420  68.0302260
  98.6331600  99.4073480  68.3663670  96.4342570  94.2964600  61.4148140
  95.5459270  94.6380570  61.3128020  96.7183760  94.0964920  60.5228970
  94.3975580  96.8970250  67.2987840  94.9691690  96.1292450  67.2991480
  94.3977120  97.1959010  66.3894450  95.6400450  92.3054610  69.0856770
  95.4603290  91.4080360  69.3659530  95.2380530  92.8526480  69.7603720
 104.4798950  94.5070470  66.9869080 104.8563770  93.6342350  66.8742750
 104.3818460  94.8429170  66.0959520  98.6103960  92.8796100  62.4486520
  98.7170710  93.7799830  62.7555280  97.6996320  92.8314070  62.1581170
 108.2623070  92.0020910  63.9197420 109.0832690  91.5117480  63.9622900
 108.2957150  92.5918570  64.6729260  96.2587120  94.8015110  67.6939110
  96.9397230  95.0653480  68.3126510  95.9435170  93.9615980  68.0277120
 100.4511690  95.8482470  66.7811700 100.9589910  96.3463440  67.4216720
 100.9824930  95.0717670  66.6051060  98.7347790  90.4881030  71.0475120
  98.7366230  91.0053420  70.2421020  97.9052100  90.0111210  71.0245050
  99.9850640 100.1276210  69.2248620  99.6520020 100.7545130  69.8669690
 100.1617320 100.6538090  68.4450290 108.4984550  93.9421290  66.6924960
 107.7940120  94.2306180  67.2728070 108.8596710  94.7521400  66.3324520
  98.4163120  92.1990990  69.0545570  98.7579930  93.0433040  68.7599440
  97.4778930  92.3474730  69.1710910 102.0991010  89.6873260  65.3790160
 102.4065990  89.1320150  64.6625660 101.1691710  89.8217720  65.1963150
 107.0491510 100.3070390  68.9980230 107.4660300 100.0930500  68.1633690
 107.7731330 100.5643180  69.5688850 104.4871770  97.7522090  62.1150280
 103.5601050  97.6859470  62.3438750 104.6396590  98.6902220  62.0005520
 104.4740850  94.0239090  59.1117440 103.5344520  94.1853050  59.1969900
 104.7924110  94.7424770  58.5653430 108.5169060  99.3142390  62.6185530
 107.8981480  98.9761940  61.9711830 108.4993510  98.6702150  63.3264720
 107.9595620  95.4926930  70.0351340 107.5466800  96.3180640  70.2891330
 107.2271570  94.9071970  69.8427700 100.0928410  98.2786830  64.8970010
  99.6885410  97.5664080  64.4015910 100.1791530  97.9340070  65.7858050
  98.8057030  95.0530040  68.6769050  99.3571620  95.1625380  67.9022300
  99.3200540  95.4267640  69.3924280 106.6933760  98.5529200  59.6258280
 107.1327040  97.7151630  59.4796100 107.4062180  99.1858600  59.7122420
  98.4799760  98.5749400  72.2874390  98.3407530  99.4472200  72.6561790
  97.5981120  98.2322210  72.1422330 110.2750900  89.8072010  57.9399320
 109.9623560  89.8998840  58.8398390 111.0363370  90.3853040  57.8896750
  96.7933040  97.1731810  62.3976660  96.6730640  97.8993900  61.7857930
  96.4833930  96.4034720  61.9204570  94.4318410 100.3446950  68.2045300
  94.5098830 100.4795720  67.2601020  95.0460090  99.6362840  68.3973420
  99.2596700  90.5166880  65.7800330  98.8164850  91.2976420  65.4484850
  99.8181690  90.8396770  66.4871270 103.5466510  93.3835400  71.3835650
 103.0845880  93.5918420  72.1955590 103.1444620  92.5694750  71.0806320
 108.5471020  94.6044350  72.5132310 107.6964610  94.3050100  72.8341380
 108.3872810  94.8486360  71.6016130 105.6420730  96.1046100  74.6131100
 105.9674140  95.2709850  74.2733330 106.4301060  96.6274620  74.7609430
 102.3755520  90.1377580  60.6606160 101.7509700  90.1337450  61.3859470
 102.2885640  89.2708540  60.2642130 101.2972600  91.0614210  67.6389930
 101.5944930  91.9677040  67.5581950 101.8458160  90.5732990  67.0249500
  99.0510920  95.6400450  63.5081580  98.8251840  95.4237620  64.4128200
  98.2703450  96.0728910  63.1627550 106.2808680  95.6463820  62.1072230
 105.6817570  96.3699620  61.9235850 106.8288290  95.5840600  61.3248680
 101.4910130  96.5386030  74.1741850 101.3953730  95.5980760  74.0242250
 102.3342110  96.7601100  73.7789920 104.8873550  94.2827360  64.1375510
 105.2803120  94.5999560  63.3244200 105.2490400  93.4039240  64.2520030
  96.6220670  92.9499700  72.3275630  96.2284060  93.7974910  72.5348410
  95.9339070  92.3126070  72.5184270  93.9237720  90.8728160  66.3605710
  93.6350770  91.4431020  67.0730690  94.6683480  90.3932610  66.7236940
  94.1107950  94.8148280  57.5708430  94.0282620  95.7579040  57.7123420
  93.7591010  94.6723190  56.6920780 105.4728690  96.8733110  68.2326290
 104.7409810  97.3819920  68.5816390 105.0753030  96.0563090  67.9315070
 101.9106080  93.5487310  66.6378780 101.9142140  93.1077260  65.7883320
 102.8057200  93.8704640  66.7450600  97.7608460  93.4313800  65.5972990
  97.4208510  93.9089030  66.3540040  96.9985780  92.9778920  65.2374090
 101.9726230  94.5499390  59.6285540 102.0939050  94.5085870  60.5771360
 101.5874740  95.4123540  59.4732270 105.9354600  92.3266790  67.6449230
 105.9527340  92.7775440  68.4891080 105.6870180  91.4272430  67.8582670
 100.9847730  96.8600530  59.0268840 100.4164630  96.4118780  58.4004750
 101.6936730  97.2193310  58.4933990 109.3625350  89.7398970  73.4835610
 109.6871120  89.0088630  74.0093590 109.3981860  89.4212610  72.5816600
 102.2114050  97.6089090  68.3844190 102.5784180  97.1347660  69.1305530
 102.0219110  98.4830660  68.7252530  95.0754540  92.3532780  64.5137660
  94.7901460  91.9888450  65.3516280  95.0133400  91.6213240  63.9000800
 100.0013420  96.6497730  70.7028400  99.6970490  97.5289710  70.9278760
 100.9559880  96.7097520  70.7385840  98.5295210 100.8558720  61.2995250
  97.7557470 100.3156340  61.1393970  99.2589840 100.3365330  60.9613010
 109.2883190  99.8524080  67.0921640 110.0082310 100.3479370  66.7017750
 109.0865010  99.1741970  66.4475510 104.7493130  91.2462040  61.2351030
 103.9357740  90.7475210  61.1596340 104.5555080  92.0860290  60.8187380
 104.6701990  99.9233140  72.9790640 104.6039300  99.0028810  72.7248230
 104.0407130 100.0208580  73.6935280 107.4641520  95.6181690  59.5313190
 108.3521140  95.9298920  59.3564530 107.4346610  94.7453940  59.1393770
  98.5732610 100.5239100  64.9374060  99.0911280  99.7207360  64.8830950
  98.1216630 100.4618240  65.7790890  96.0577150  97.4900470  71.8499760
  95.6992090  98.1554320  72.4373100  95.7631710  96.6584020  72.2212380
  99.2590270  97.9484710  74.7339310  98.9590410  98.0941890  73.8367130
 100.0301510  97.3890000  74.6412700 109.7355790  96.9293530  58.9993050
 109.6519510  97.3607750  58.1489490 110.4549980  97.3891880  59.4319870
  94.5685200  97.4891730  58.4734360  95.4380050  97.7716530  58.7570280
  94.0775520  98.3027600  58.3583170 101.7320010  98.8764940  62.5942640
 102.1882790  99.6870190  62.8202830 101.3808220  98.5588080  63.4261130
  97.6331790  89.2202590  63.0665160  97.5046420  89.2120490  64.0150080
  96.8093810  89.5585680  62.7156170  94.6325720  90.9793710  72.5271860
  93.9184240  91.1790630  73.1324470  95.0520760  90.2033280  72.8986660
  96.5531710  99.3065200  60.6016420  95.9459660 100.0464100  60.6111720
  97.0281060  99.3964560  59.7754620 106.1264500  93.4716020  70.2773310
 106.4945320  92.6511230  70.6052880 105.2662700  93.5317910  70.6928960
 109.4926530  92.4272960  61.0860870 108.8639690  92.5318630  60.3719100
 108.9978450  92.6469740  61.8754750 101.4610560  94.7058910  62.5018750
 100.7526710  95.1745250  62.9432360 101.7455040  94.0480920  63.1363940
 103.0866490  96.1255610  70.5011280 103.5851740  96.6001430  71.1663130
 103.2289440  95.2019130  70.7081310 105.4925990  91.4309570  63.9414540
 105.3693770  91.4495700  62.9924050 106.4410550  91.4788510  64.0612940
  99.6645580  93.0143990  59.8769460 100.5136110  93.4514140  59.8109650
  99.2976850  93.3264250  60.7041520 110.2933350  92.3423570  71.3439670
 109.7906950  93.0828970  71.6833480 111.1090010  92.7307570  71.0276460
 108.5855360  97.5856750  64.7901030 107.6445500  97.6006980  64.9648720
 108.8999430  96.7992710  65.2361330  98.5637000  99.2676350  58.3504990
  99.3300270  99.1557710  58.9130420  98.6411690  98.5714320  57.6981760
  97.2583760  96.7001420  59.0337880  97.3387350  95.7528930  59.1455280
  98.1503510  97.0308300  59.1398540  94.7854560  98.5216340  74.2694050
  95.2893580  97.9423620  74.8410280  94.0461980  98.8056570  74.8070420
 101.8392500  99.9287330  73.8029570 101.0738170 100.4972330  73.7184240
 102.0208460  99.6363540  72.9097800 104.9280910 100.3050560  58.4282330
 104.3791010 100.7519860  59.0725070 105.5500170  99.7999810  58.9520000
 100.5956030  99.2641480  60.3247630 101.0172450  99.0981350  61.1679020
 100.7206870  98.4541710  59.8302770  98.7583450  95.2438030  73.1318610
  98.2279910  94.7528980  72.5041950  99.4271520  95.6722230  72.5976540
 103.1083670  98.2879090  57.5724730 103.6289330  97.5728110  57.2065880
 103.7552070  98.9264960  57.8725240 107.6561510  99.7107490  72.8959800
 108.0702530  99.8652570  73.7450220 106.7212510  99.8362710  73.0585580
 108.1283680  97.0503650  74.8998950 108.7104450  96.2955970  74.8119430
 108.3045450  97.5811090  74.1230430  99.2455750  92.2100400  73.2115900
  99.1512620  91.5921150  72.4866770  98.6653140  92.9366690  72.9845810
 102.0117190  90.7673640  70.2443290 101.5634490  90.7897900  69.3988840
 101.3782390  90.3692660  70.8413590 102.4176740  99.6627970  70.8655730
 102.8364850 100.5060700  70.6931970 101.4985370  99.8000010  70.6362510
 104.7540640  97.3944150  72.2493570 104.8736850  96.7985290  72.9888410
 105.6134640  97.4313840  71.8294870 107.0928540  97.9481340  70.8256080
 106.5663760  98.4723960  70.2221220 107.4359880  98.5808730  71.4565810
  99.4914930  95.3374710  57.2705790  99.2903990  94.4742070  57.6319130
  99.3206980  95.2508070  56.3327390 101.5209410  93.9365500  73.5069390
 102.1109100  93.6281350  74.1947210 100.7029650  93.4645250  73.6629290
 106.3402840  93.5531310  73.7402410 105.6518360  92.8912850  73.6752400
 107.0608860  93.1069580  74.1850870 106.9703240  90.1482940  59.7992670
 107.2505530  89.3050840  60.1552090 106.1968970  90.3806050  60.3131420
  98.2897730  92.4375330  57.2583670  98.5923630  92.4442760  56.3502820
  99.0292320  92.0873190  57.7551330 101.5082660  91.3809950  58.2439870
 101.1604660  90.7033940  57.6642320 101.7095430  90.9199460  59.0583260
  94.8488300  97.9097600  64.6404240  94.1937140  97.6409240  63.9963940
  95.6866250  97.8002080  64.1906220 107.7978740  92.7038890  58.8622730
 108.2163620  92.5169870  58.0219390 107.4914800  91.8517940  59.1725660
  95.8864230  98.2950170  69.1807580  96.2537270  98.2077570  70.0603600
  95.3175050  97.5316720  69.0814440 110.6868090  96.7634550  72.1938050
 110.4554180  96.5347300  71.2936000 110.9472640  97.6834100  72.1482940
  95.4380230  95.2059260  73.0866000  94.5436280  95.1726020  73.4259710
  95.9777780  95.4046050  73.8517250  94.0626380  95.1196530  60.5829570
  93.1590460  95.3826730  60.4081230  94.5467000  95.3907700  59.8029530
 110.5719430  95.8420520  65.8605770 111.0956910  95.3483170  65.2295940
 111.1578850  95.9770880  66.6053340 110.7509150  95.9260390  69.3825320
 109.8011860  95.8923930  69.4970310 110.9322160  96.8360500  69.1475090
  96.6053590  94.1762070  58.4923950  97.3145290  93.7545290  58.0071230
  95.8893530  94.2437300  57.8607300  96.2527750  90.2301400  57.5326600
  96.9755880  90.7710340  57.8507820  96.5252270  89.9564820  56.6568140
 110.0619400  95.0993870  61.7998180 110.5578520  94.8664740  62.5847060
 109.8635470  94.2605710  61.3835820  95.9419940  89.4807590  67.4349220
  96.5896130  88.9304970  66.9944380  96.3621780  89.7350740  68.2565030
 109.8372280  89.6748950  70.7918860 110.4744500  90.2883090  71.1578050
 109.9847170  89.7109610  69.8468090  95.6951940  89.6363260  70.1774540
  95.3466760  90.0927080  70.9432720  95.3639640  88.7420390  70.2596970
 103.2076760  90.8275140  73.6993960 103.1465650  91.4196970  74.4489370
 104.1477140  90.7201100  73.5544220 105.8451320  90.4845200  73.3386250
 106.4591730  90.8024490  72.6767330 106.3900880  89.9993790  73.9582110
  96.3672580  89.1639460  73.4525310  96.9155570  88.9827510  72.6891420
  96.4327890  88.3733570  73.9881620 106.5859360  89.0477340  69.6655540
 105.7119200  89.3812450  69.4628470 106.4770110  88.5750520  70.4907410
 107.4931340  91.2548210  71.0497260 107.1644700  90.4399970  70.6698990
 108.4413640  91.2118020  70.9262950 104.3334180  89.9647180  68.6048450
 103.5505970  90.4392680  68.8845210 104.0397110  89.0602010  68.4961630
 108.8855250  90.6670280  66.6497540 109.3263340  90.6115380  65.8019140
 108.6162840  91.5828290  66.7207720  95.6774590  90.2694660  61.1262170
  96.4353950  90.3823540  60.5526200  95.2151760  91.1063860  61.0805600
 102.2188400  92.3833930  64.1164480 101.4062910  92.0090820  63.7760360
 102.7230040  91.6279010  64.4185670 106.7213380  89.0476380  65.3547550
 107.3242750  89.6196590  65.8296070 105.9806370  89.6115820  65.1321450
 109.8647980  89.4497940  60.6287830 110.0598610  90.3481390  60.8955260
 109.0777850  89.2185020  61.1220780  98.0499740  90.7958710  59.6664140
  98.5792500  90.0088510  59.5372090  98.6828060  91.4749900  59.8999670
 100.2437580  90.5333850  62.7209530  99.6140320  89.8321160  62.8879660
  99.7042720  91.2937980  62.5042690 105.8766750  97.2463880  46.0977230
 105.7960800  96.3318490  45.8268940 105.4631170  97.7430950  45.3916940
 104.0084790  99.0242900  47.9786500 103.2326890  98.5443340  48.2685070
 104.6597720  98.3448550  47.8042660  98.0250620  99.3362710  48.8562260
  97.1935500  99.0811420  49.2558770  98.6331600  99.4073480  49.5920180
  96.4342570  94.2964600  42.6404650  95.5459270  94.6380570  42.5384530
  96.7183760  94.0964920  41.7485480  94.3975580  96.8970250  48.5244350
  94.9691690  96.1292450  48.5247990  94.3977120  97.1959010  47.6150960
  95.6400450  92.3054610  50.3113280  95.4603290  91.4080360  50.5916040
  95.2380530  92.8526480  50.9860230 104.4798950  94.5070470  48.2125590
 104.8563770  93.6342350  48.0999260 104.3818460  94.8429170  47.3216030
  98.6103960  92.8796100  43.6743030  98.7170710  93.7799830  43.9811790
  97.6996320  92.8314070  43.3837680 108.2623070  92.0020910  45.1453930
 109.0832690  91.5117480  45.1879410 108.2957150  92.5918570  45.8985770
  96.2587120  94.8015110  48.9195620  96.9397230  95.0653480  49.5383020
  95.9435170  93.9615980  49.2533630 100.4511690  95.8482470  48.0068210
 100.9589910  96.3463440  48.6473230 100.9824930  95.0717670  47.8307570
  98.7347790  90.4881030  52.2731630  98.7366230  91.0053420  51.4677530
  97.9052100  90.0111210  52.2501560  99.9850640 100.1276210  50.4505130
  99.6520020 100.7545130  51.0926200 100.1617320 100.6538090  49.6706800
 108.4984550  93.9421290  47.9181470 107.7940120  94.2306180  48.4984580
 108.8596710  94.7521400  47.5581030  98.4163120  92.1990990  50.2802080
  98.7579930  93.0433040  49.9855950  97.4778930  92.3474730  50.3967420
 102.0991010  89.6873260  46.6046670 102.4065990  89.1320150  45.8882170
 101.1691710  89.8217720  46.4219660 107.0491510 100.3070390  50.2236740
 107.4660300 100.0930500  49.3890200 107.7731330 100.5643180  50.7945360
 104.4871770  97.7522090  43.3406790 103.5601050  97.6859470  43.5695260
 104.6396590  98.6902220  43.2262030 104.4740850  94.0239090  40.3373950
 103.5344520  94.1853050  40.4226410 104.7924110  94.7424770  39.7909940
 108.5169060  99.3142390  43.8442040 107.8981480  98.9761940  43.1968340
 108.4993510  98.6702150  44.5521230 107.9595620  95.4926930  51.2607850
 107.5466800  96.3180640  51.5147840 107.2271570  94.9071970  51.0684210
 100.0928410  98.2786830  46.1226520  99.6885410  97.5664080  45.6272420
 100.1791530  97.9340070  47.0114560  98.8057030  95.0530040  49.9025560
  99.3571620  95.1625380  49.1278810  99.3200540  95.4267640  50.6180790
 106.6933760  98.5529200  40.8514790 107.1327040  97.7151630  40.7052610
 107.4062180  99.1858600  40.9378930  98.4799760  98.5749400  53.5130900
  98.3407530  99.4472200  53.8818300  97.5981120  98.2322210  53.3678840
 110.2750900  89.8072010  39.1655830 109.9623560  89.8998840  40.0654900
 111.0363370  90.3853040  39.1153260  96.7933040  97.1731810  43.6233170
  96.6730640  97.8993900  43.0114440  96.4833930  96.4034720  43.1461080
  94.4318410 100.3446950  49.4301810  94.5098830 100.4795720  48.4857530
  95.0460090  99.6362840  49.6229930  99.2596700  90.5166880  47.0056840
  98.8164850  91.2976420  46.6741360  99.8181690  90.8396770  47.7127780
 103.5466510  93.3835400  52.6092160 103.0845880  93.5918420  53.4212100
 103.1444620  92.5694750  52.3062830 108.5471020  94.6044350  53.7388820
 107.6964610  94.3050100  54.0597890 108.3872810  94.8486360  52.8272640
 105.6420730  96.1046100  55.8387610 105.9674140  95.2709850  55.4989840
 106.4301060  96.6274620  55.9865940 102.3755520  90.1377580  41.8862670
 101.7509700  90.1337450  42.6115980 102.2885640  89.2708540  41.4898640
 101.2972600  91.0614210  48.8646440 101.5944930  91.9677040  48.7838460
 101.8458160  90.5732990  48.2506010  99.0510920  95.6400450  44.7338090
  98.8251840  95.4237620  45.6384710  98.2703450  96.0728910  44.3884060
 106.2808680  95.6463820  43.3328740 105.6817570  96.3699620  43.1492360
 106.8288290  95.5840600  42.5505190 101.4910130  96.5386030  55.3998360
 101.3953730  95.5980760  55.2498760 102.3342110  96.7601100  55.0046430
 104.8873550  94.2827360  45.3632020 105.2803120  94.5999560  44.5500710
 105.2490400  93.4039240  45.4776540  96.6220670  92.9499700  53.5532140
  96.2284060  93.7974910  53.7604920  95.9339070  92.3126070  53.7440780
 103.1965720  93.0334670  56.6228880 102.5064040  92.8406870  57.2574970
 103.9398020  93.3169310  57.1553180  93.9237720  90.8728160  47.5862220
  93.6350770  91.4431020  48.2987200  94.6683480  90.3932610  47.9493450
  94.1107950  94.8148280  38.7964940  94.0282620  95.7579040  38.9379930
  93.7591010  94.6723190  37.9177290 105.4728690  96.8733110  49.4582800
 104.7409810  97.3819920  49.8072900 105.0753030  96.0563090  49.1571580
 101.9106080  93.5487310  47.8635290 101.9142140  93.1077260  47.0139830
 102.8057200  93.8704640  47.9707110  97.7608460  93.4313800  46.8229500
  97.4208510  93.9089030  47.5796550  96.9985780  92.9778920  46.4630600
 101.9726230  94.5499390  40.8542050 102.0939050  94.5085870  41.8027870
 101.5874740  95.4123540  40.6988780 105.9354600  92.3266790  48.8705740
 105.9527340  92.7775440  49.7147590 105.6870180  91.4272430  49.0839180
 100.9847730  96.8600530  40.2525350 100.4164630  96.4118780  39.6261260
 101.6936730  97.2193310  39.7190500 109.3625350  89.7398970  54.7092120
 109.6871120  89.0088630  55.2350100 109.3981860  89.4212610  53.8073110
 102.2114050  97.6089090  49.6100700 102.5784180  97.1347660  50.3562040
 102.0219110  98.4830660  49.9509040  95.0754540  92.3532780  45.7394170
  94.7901460  91.9888450  46.5772790  95.0133400  91.6213240  45.1257310
 100.0013420  96.6497730  51.9284910  99.6970490  97.5289710  52.1535270
 100.9559880  96.7097520  51.9642350  98.5295210 100.8558720  42.5251760
  97.7557470 100.3156340  42.3650480  99.2589840 100.3365330  42.1869520
 109.2883190  99.8524080  48.3178150 110.0082310 100.3479370  47.9274260
 109.0865010  99.1741970  47.6732020 104.7493130  91.2462040  42.4607540
 103.9357740  90.7475210  42.3852850 104.5555080  92.0860290  42.0443890
 104.6701990  99.9233140  54.2047150 104.6039300  99.0028810  53.9504740
 104.0407130 100.0208580  54.9191790 107.4641520  95.6181690  40.7569700
 108.3521140  95.9298920  40.5821040 107.4346610  94.7453940  40.3650280
  98.5732610 100.5239100  46.1630570  99.0911280  99.7207360  46.1087460
  98.1216630 100.4618240  47.0047400  96.0577150  97.4900470  53.0756270
  95.6992090  98.1554320  53.6629610  95.7631710  96.6584020  53.4468890
  99.2590270  97.9484710  55.9595820  98.9590410  98.0941890  55.0623640
 100.0301510  97.3890000  55.8669210 109.7355790  96.9293530  40.2249560
 109.6519510  97.3607750  39.3746000 110.4549980  97.3891880  40.6576380
  94.5685200  97.4891730  39.6990870  95.4380050  97.7716530  39.9826790
  94.0775520  98.3027600  39.5839680 101.7320010  98.8764940  43.8199150
 102.1882790  99.6870190  44.0459340 101.3808220  98.5588080  44.6517640
  97.6331790  89.2202590  44.2921670  97.5046420  89.2120490  45.2406590
  96.8093810  89.5585680  43.9412680  94.6325720  90.9793710  53.7528370
  93.9184240  91.1790630  54.3580980  95.0520760  90.2033280  54.1243170
  96.5531710  99.3065200  41.8272930  95.9459660 100.0464100  41.8368230
  97.0281060  99.3964560  41.0011130 106.1264500  93.4716020  51.5029820
 106.4945320  92.6511230  51.8309390 105.2662700  93.5317910  51.9185470
 109.4926530  92.4272960  42.3117380 108.8639690  92.5318630  41.5975610
 108.9978450  92.6469740  43.1011260 101.4610560  94.7058910  43.7275260
 100.7526710  95.1745250  44.1688870 101.7455040  94.0480920  44.3620450
 103.0866490  96.1255610  51.7267790 103.5851740  96.6001430  52.3919640
 103.2289440  95.2019130  51.9337820 105.4925990  91.4309570  45.1671050
 105.3693770  91.4495700  44.2180560 106.4410550  91.4788510  45.2869450
  99.6645580  93.0143990  41.1025970 100.5136110  93.4514140  41.0366160
  99.2976850  93.3264250  41.9298030 110.2933350  92.3423570  52.5696180
 109.7906950  93.0828970  52.9089990 111.1090010  92.7307570  52.2532970
 108.5855360  97.5856750  46.0157540 107.6445500  97.6006980  46.1905230
 108.8999430  96.7992710  46.4617840  98.5637000  99.2676350  39.5761500
  99.3300270  99.1557710  40.1386930  98.6411690  98.5714320  38.9238270
  97.2583760  96.7001420  40.2594390  97.3387350  95.7528930  40.3711790
  98.1503510  97.0308300  40.3655050  94.7854560  98.5216340  55.4950560
  95.2893580  97.9423620  56.0666790  94.0461980  98.8056570  56.0326930
 101.8392500  99.9287330  55.0286080 101.0738170 100.4972330  54.9440750
 102.0208460  99.6363540  54.1354310 104.9280910 100.3050560  39.6538840
 104.3791010 100.7519860  40.2981580 105.5500170  99.7999810  40.1776510
  96.8177640  96.6645930  56.3900630  96.8582980  96.3659800  57.2985860
  97.6723140  97.0653540  56.2308150 100.5956030  99.2641480  41.5504140
 101.0172450  99.0981350  42.3935530 100.7206870  98.4541710  41.0559280
  98.7583450  95.2438030  54.3575120  98.2279910  94.7528980  53.7298460
  99.4271520  95.6722230  53.8233050 103.1083670  98.2879090  38.7981240
 103.6289330  97.5728110  38.4322390 103.7552070  98.9264960  39.0981750
 107.6561510  99.7107490  54.1216310 108.0702530  99.8652570  54.9706730
 106.7212510  99.8362710  54.2842090 108.1283680  97.0503650  56.1255460
 108.7104450  96.2955970  56.0375940 108.3045450  97.5811090  55.3486940
  99.2455750  92.2100400  54.4372410  99.1512620  91.5921150  53.7123280
  98.6653140  92.9366690  54.2102320 102.0117190  90.7673640  51.4699800
 101.5634490  90.7897900  50.6245350 101.3782390  90.3692660  52.0670100
 102.4176740  99.6627970  52.0912240 102.8364850 100.5060700  51.9188480
 101.4985370  99.8000010  51.8619020 104.7540640  97.3944150  53.4750080
 104.8736850  96.7985290  54.2144920 105.6134640  97.4313840  53.0551380
 107.0928540  97.9481340  52.0512590 106.5663760  98.4723960  51.4477730
 107.4359880  98.5808730  52.6822320  99.4914930  95.3374710  38.4962300
  99.2903990  94.4742070  38.8575640  99.3206980  95.2508070  37.5583900
 101.5209410  93.9365500  54.7325900 102.1109100  93.6281350  55.4203720
 100.7029650  93.4645250  54.8885800 106.3402840  93.5531310  54.9658920
 105.6518360  92.8912850  54.9008910 107.0608860  93.1069580  55.4107380
 106.9703240  90.1482940  41.0249180 107.2505530  89.3050840  41.3808600
 106.1968970  90.3806050  41.5387930  98.2897730  92.4375330  38.4840180
  98.5923630  92.4442760  37.5759330  99.0292320  92.0873190  38.9807840
 101.5082660  91.3809950  39.4696380 101.1604660  90.7033940  38.8898830
 101.7095430  90.9199460  40.2839770  94.8488300  97.9097600  45.8660750
  94.1937140  97.6409240  45.2220450  95.6866250  97.8002080  45.4162730
 107.7978740  92.7038890  40.0879240 108.2163620  92.5169870  39.2475900
 107.4914800  91.8517940  40.3982170  95.8864230  98.2950170  50.4064090
  96.2537270  98.2077570  51.2860110  95.3175050  97.5316720  50.3070950
 110.6868090  96.7634550  53.4194560 110.4554180  96.5347300  52.5192510
 110.9472640  97.6834100  53.3739450  95.4380230  95.2059260  54.3122510
  94.5436280  95.1726020  54.6516220  95.9777780  95.4046050  55.0773760
 109.1256160  91.9890980  56.1974260 110.0026340  91.9974380  56.5808260
 109.1377000  91.2521820  55.5866610  94.0626380  95.1196530  41.8086080
  93.1590460  95.3826730  41.6337740  94.5467000  95.3907700  41.0286040
 110.5719430  95.8420520  47.0862280 111.0956910  95.3483170  46.4552450
 111.1578850  95.9770880  47.8309850 110.7509150  95.9260390  50.6081830
 109.8011860  95.8923930  50.7226820 110.9322160  96.8360500  50.3731600
  96.6053590  94.1762070  39.7180460  97.3145290  93.7545290  39.2327740
  95.8893530  94.2437300  39.0863810  96.2527750  90.2301400  38.7583110
  96.9755880  90.7710340  39.0764330  96.5252270  89.9564820  37.8824650
 110.0619400  95.0993870  43.0254690 110.5578520  94.8664740  43.8103570
 109.8635470  94.2605710  42.6092330  95.9419940  89.4807590  48.6605730
  96.5896130  88.9304970  48.2200890  96.3621780  89.7350740  49.4821540
 109.8372280  89.6748950  52.0175370 110.4744500  90.2883090  52.3834560
 109.9847170  89.7109610  51.0724600  95.6951940  89.6363260  51.4031050
  95.3466760  90.0927080  52.1689230  95.3639640  88.7420390  51.4853480
 103.2076760  90.8275140  54.9250470 103.1465650  91.4196970  55.6745880
 104.1477140  90.7201100  54.7800730 105.8451320  90.4845200  54.5642760
 106.4591730  90.8024490  53.9023840 106.3900880  89.9993790  55.1838620
  96.3672580  89.1639460  54.6781820  96.9155570  88.9827510  53.9147930
  96.4327890  88.3733570  55.2138130 106.5859360  89.0477340  50.8912050
 105.7119200  89.3812450  50.6884980 106.4770110  88.5750520  51.7163920
 107.4931340  91.2548210  52.2753770 107.1644700  90.4399970  51.8955500
 108.4413640  91.2118020  52.1519460 104.3334180  89.9647180  49.8304960
 103.5505970  90.4392680  50.1101720 104.0397110  89.0602010  49.7218140
 108.8855250  90.6670280  47.8754050 109.3263340  90.6115380  47.0275650
 108.6162840  91.5828290  47.9464230  95.6774590  90.2694660  42.3518680
  96.4353950  90.3823540  41.7782710  95.2151760  91.1063860  42.3062110
 102.2188400  92.3833930  45.3420990 101.4062910  92.0090820  45.0016870
 102.7230040  91.6279010  45.6442180 106.7213380  89.0476380  46.5804060
 107.3242750  89.6196590  47.0552580 105.9806370  89.6115820  46.3577960
 109.8647980  89.4497940  41.8544340 110.0598610  90.3481390  42.1211770
 109.0777850  89.2185020  42.3477290  98.0499740  90.7958710  40.8920650
  98.5792500  90.0088510  40.7628600  98.6828060  91.4749900  41.1256180
 100.2437580  90.5333850  43.9466040  99.6140320  89.8321160  44.1136170
  99.7042720  91.2937980  43.7299200 100.3693140  89.8117830  56.3818530
 100.0877410  90.3151430  55.6179350 100.7512840  89.0139580  56.0160660
 106.9708600  89.2271410  56.9599000 106.8574050  89.5466020  57.8550520
 107.7878340  89.6283920  56.6636280 105.8766750  97.2463880  27.3233740
 105.7960800  96.3318490  27.0525450 105.4631170  97.7430950  26.6173450
 104.0084790  99.0242900  29.2043010 103.2326890  98.5443340  29.4941580
 104.6597720  98.3448550  29.0299170  98.0250620  99.3362710  30.0818770
  97.1935500  99.0811420  30.4815280  98.6331600  99.4073480  30.8176690
  96.4342570  94.2964600  23.8661160  95.5459270  94.6380570  23.7641040
  96.7183760  94.0964920  22.9741990  94.3975580  96.8970250  29.7500860
  94.9691690  96.1292450  29.7504500  94.3977120  97.1959010  28.8407470
  95.6400450  92.3054610  31.5369790  95.4603290  91.4080360  31.8172550
  95.2380530  92.8526480  32.2116740 104.4798950  94.5070470  29.4382100
 104.8563770  93.6342350  29.3255770 104.3818460  94.8429170  28.5472540
  98.6103960  92.8796100  24.8999540  98.7170710  93.7799830  25.2068300
  97.6996320  92.8314070  24.6094190 108.2623070  92.0020910  26.3710440
 109.0832690  91.5117480  26.4135920 108.2957150  92.5918570  27.1242280
  96.2587120  94.8015110  30.1452130  96.9397230  95.0653480  30.7639530
  95.9435170  93.9615980  30.4790140 100.4511690  95.8482470  29.2324720
 100.9589910  96.3463440  29.8729740 100.9824930  95.0717670  29.0564080
  98.7347790  90.4881030  33.4988140  98.7366230  91.0053420  32.6934040
  97.9052100  90.0111210  33.4758070  99.9850640 100.1276210  31.6761640
  99.6520020 100.7545130  32.3182710 100.1617320 100.6538090  30.8963310
 108.4984550  93.9421290  29.1437980 107.7940120  94.2306180  29.7241090
 108.8596710  94.7521400  28.7837540  98.4163120  92.1990990  31.5058590
  98.7579930  93.0433040  31.2112460  97.4778930  92.3474730  31.6223930
 102.0991010  89.6873260  27.8303180 102.4065990  89.1320150  27.1138680
 101.1691710  89.8217720  27.6476170 107.0491510 100.3070390  31.4493250
 107.4660300 100.0930500  30.6146710 107.7731330 100.5643180  32.0201870
 104.4871770  97.7522090  24.5663300 103.5601050  97.6859470  24.7951770
 104.6396590  98.6902220  24.4518540 104.4740850  94.0239090  21.5630460
 103.5344520  94.1853050  21.6482920 104.7924110  94.7424770  21.0166450
 108.5169060  99.3142390  25.0698550 107.8981480  98.9761940  24.4224850
 108.4993510  98.6702150  25.7777740 107.9595620  95.4926930  32.4864360
 107.5466800  96.3180640  32.7404350 107.2271570  94.9071970  32.2940720
 100.0928410  98.2786830  27.3483030  99.6885410  97.5664080  26.8528930
 100.1791530  97.9340070  28.2371070  98.8057030  95.0530040  31.1282070
  99.3571620  95.1625380  30.3535320  99.3200540  95.4267640  31.8437300
 106.6933760  98.5529200  22.0771300 107.1327040  97.7151630  21.9309120
 107.4062180  99.1858600  22.1635440  98.4799760  98.5749400  34.7387410
  98.3407530  99.4472200  35.1074810  97.5981120  98.2322210  34.5935350
 110.2750900  89.8072010  20.3912340 109.9623560  89.8998840  21.2911410
 111.0363370  90.3853040  20.3409770  96.7933040  97.1731810  24.8489680
  96.6730640  97.8993900  24.2370950  96.4833930  96.4034720  24.3717590
  94.4318410 100.3446950  30.6558320  94.5098830 100.4795720  29.7114040
  95.0460090  99.6362840  30.8486440  99.2596700  90.5166880  28.2313350
  98.8164850  91.2976420  27.8997870  99.8181690  90.8396770  28.9384290
 103.5466510  93.3835400  33.8348670 103.0845880  93.5918420  34.6468610
 103.1444620  92.5694750  33.5319340 108.5471020  94.6044350  34.9645330
 107.6964610  94.3050100  35.2854400 108.3872810  94.8486360  34.0529150
 105.6420730  96.1046100  37.0644120 105.9674140  95.2709850  36.7246350
 106.4301060  96.6274620  37.2122450 102.3755520  90.1377580  23.1119180
 101.7509700  90.1337450  23.8372490 102.2885640  89.2708540  22.7155150
 101.2972600  91.0614210  30.0902950 101.5944930  91.9677040  30.0094970
 101.8458160  90.5732990  29.4762520  99.0510920  95.6400450  25.9594600
  98.8251840  95.4237620  26.8641220  98.2703450  96.0728910  25.6140570
 106.2808680  95.6463820  24.5585250 105.6817570  96.3699620  24.3748870
 106.8288290  95.5840600  23.7761700 101.4910130  96.5386030  36.6254870
 101.3953730  95.5980760  36.4755270 102.3342110  96.7601100  36.2302940
 104.8873550  94.2827360  26.5888530 105.2803120  94.5999560  25.7757220
 105.2490400  93.4039240  26.7033050  96.6220670  92.9499700  34.7788650
  96.2284060  93.7974910  34.9861430  95.9339070  92.3126070  34.9697290
 103.1965720  93.0334670  37.8485390 102.5064040  92.8406870  38.4831480
 103.9398020  93.3169310  38.3809690  93.9237720  90.8728160  28.8118730
  93.6350770  91.4431020  29.5243710  94.6683480  90.3932610  29.1749960
  94.1107950  94.8148280  20.0221450  94.0282620  95.7579040  20.1636440
  93.7591010  94.6723190  19.1433800 105.4728690  96.8733110  30.6839310
 104.7409810  97.3819920  31.0329410 105.0753030  96.0563090  30.3828090
 101.9106080  93.5487310  29.0891800 101.9142140  93.1077260  28.2396340
 102.8057200  93.8704640  29.1963620  97.7608460  93.4313800  28.0486010
  97.4208510  93.9089030  28.8053060  96.9985780  92.9778920  27.6887110
 101.9726230  94.5499390  22.0798560 102.0939050  94.5085870  23.0284380
 101.5874740  95.4123540  21.9245290 105.9354600  92.3266790  30.0962250
 105.9527340  92.7775440  30.9404100 105.6870180  91.4272430  30.3095690
 100.9847730  96.8600530  21.4781860 100.4164630  96.4118780  20.8517770
 101.6936730  97.2193310  20.9447010 109.3625350  89.7398970  35.9348630
 109.6871120  89.0088630  36.4606610 109.3981860  89.4212610  35.0329620
 102.2114050  97.6089090  30.8357210 102.5784180  97.1347660  31.5818550
 102.0219110  98.4830660  31.1765550  95.0754540  92.3532780  26.9650680
  94.7901460  91.9888450  27.8029300  95.0133400  91.6213240  26.3513820
 100.0013420  96.6497730  33.1541420  99.6970490  97.5289710  33.3791780
 100.9559880  96.7097520  33.1898860  98.5295210 100.8558720  23.7508270
  97.7557470 100.3156340  23.5906990  99.2589840 100.3365330  23.4126030
 109.2883190  99.8524080  29.5434660 110.0082310 100.3479370  29.1530770
 109.0865010  99.1741970  28.8988530 104.7493130  91.2462040  23.6864050
 103.9357740  90.7475210  23.6109360 104.5555080  92.0860290  23.2700400
 104.6701990  99.9233140  35.4303660 104.6039300  99.0028810  35.1761250
 104.0407130 100.0208580  36.1448300 107.4641520  95.6181690  21.9826210
 108.3521140  95.9298920  21.8077550 107.4346610  94.7453940  21.5906790
  98.5732610 100.5239100  27.3887080  99.0911280  99.7207360  27.3343970
  98.1216630 100.4618240  28.2303910  96.0577150  97.4900470  34.3012780
  95.6992090  98.1554320  34.8886120  95.7631710  96.6584020  34.6725400
  99.2590270  97.9484710  37.1852330  98.9590410  98.0941890  36.2880150
 100.0301510  97.3890000  37.0925720 109.7355790  96.9293530  21.4506070
 109.6519510  97.3607750  20.6002510 110.4549980  97.3891880  21.8832890
  94.5685200  97.4891730  20.9247380  95.4380050  97.7716530  21.2083300
  94.0775520  98.3027600  20.8096190 101.7320010  98.8764940  25.0455660
 102.1882790  99.6870190  25.2715850 101.3808220  98.5588080  25.8774150
  97.6331790  89.2202590  25.5178180  97.5046420  89.2120490  26.4663100
  96.8093810  89.5585680  25.1669190  94.6325720  90.9793710  34.9784880
  93.9184240  91.1790630  35.5837490  95.0520760  90.2033280  35.3499680
  96.5531710  99.3065200  23.0529440  95.9459660 100.0464100  23.0624740
  97.0281060  99.3964560  22.2267640 106.1264500  93.4716020  32.7286330
 106.4945320  92.6511230  33.0565900 105.2662700  93.5317910  33.1441980
 109.4926530  92.4272960  23.5373890 108.8639690  92.5318630  22.8232120
 108.9978450  92.6469740  24.3267770 101.4610560  94.7058910  24.9531770
 100.7526710  95.1745250  25.3945380 101.7455040  94.0480920  25.5876960
 103.0866490  96.1255610  32.9524300 103.5851740  96.6001430  33.6176150
 103.2289440  95.2019130  33.1594330 105.4925990  91.4309570  26.3927560
 105.3693770  91.4495700  25.4437070 106.4410550  91.4788510  26.5125960
  99.6645580  93.0143990  22.3282480 100.5136110  93.4514140  22.2622670
  99.2976850  93.3264250  23.1554540 110.2933350  92.3423570  33.7952690
 109.7906950  93.0828970  34.1346500 111.1090010  92.7307570  33.4789480
 108.5855360  97.5856750  27.2414050 107.6445500  97.6006980  27.4161740
 108.8999430  96.7992710  27.6874350  98.5637000  99.2676350  20.8018010
  99.3300270  99.1557710  21.3643440  98.6411690  98.5714320  20.1494780
  97.2583760  96.7001420  21.4850900  97.3387350  95.7528930  21.5968300
  98.1503510  97.0308300  21.5911560  94.7854560  98.5216340  36.7207070
  95.2893580  97.9423620  37.2923300  94.0461980  98.8056570  37.2583440
 101.8392500  99.9287330  36.2542590 101.0738170 100.4972330  36.1697260
 102.0208460  99.6363540  35.3610820 104.9280910 100.3050560  20.8795350
 104.3791010 100.7519860  21.5238090 105.5500170  99.7999810  21.4033020
  96.8177640  96.6645930  37.6157140  96.8582980  96.3659800  38.5242370
  97.6723140  97.0653540  37.4564660 100.5956030  99.2641480  22.7760650
 101.0172450  99.0981350  23.6192040 100.7206870  98.4541710  22.2815790
  98.7583450  95.2438030  35.5831630  98.2279910  94.7528980  34.9554970
  99.4271520  95.6722230  35.0489560 103.1083670  98.2879090  20.0237750
 103.6289330  97.5728110  19.6578900 103.7552070  98.9264960  20.3238260
 107.6561510  99.7107490  35.3472820 108.0702530  99.8652570  36.1963240
 106.7212510  99.8362710  35.5098600 108.1283680  97.0503650  37.3511970
 108.7104450  96.2955970  37.2632450 108.3045450  97.5811090  36.5743450
  99.2455750  92.2100400  35.6628920  99.1512620  91.5921150  34.9379790
  98.6653140  92.9366690  35.4358830 102.0117190  90.7673640  32.6956310
 101.5634490  90.7897900  31.8501860 101.3782390  90.3692660  33.2926610
 102.4176740  99.6627970  33.3168750 102.8364850 100.5060700  33.1444990
 101.4985370  99.8000010  33.0875530 104.7540640  97.3944150  34.7006590
 104.8736850  96.7985290  35.4401430 105.6134640  97.4313840  34.2807890
 107.0928540  97.9481340  33.2769100 106.5663760  98.4723960  32.6734240
 107.4359880  98.5808730  33.9078830  99.4914930  95.3374710  19.7218810
  99.2903990  94.4742070  20.0832150  99.3206980  95.2508070  18.7840410
 101.5209410  93.9365500  35.9582410 102.1109100  93.6281350  36.6460230
 100.7029650  93.4645250  36.1142310 106.3402840  93.5531310  36.1915430
 105.6518360  92.8912850  36.1265420 107.0608860  93.1069580  36.6363890
 106.9703240  90.1482940  22.2505690 107.2505530  89.3050840  22.6065110
 106.1968970  90.3806050  22.7644440  98.2897730  92.4375330  19.7096690
  98.5923630  92.4442760  18.8015840  99.0292320  92.0873190  20.2064350
 101.5082660  91.3809950  20.6952890 101.1604660  90.7033940  20.1155340
 101.7095430  90.9199460  21.5096280  94.8488300  97.9097600  27.0917260
  94.1937140  97.6409240  26.4476960  95.6866250  97.8002080  26.6419240
 107.7978740  92.7038890  21.3135750 108.2163620  92.5169870  20.4732410
 107.4914800  91.8517940  21.6238680  95.8864230  98.2950170  31.6320600
  96.2537270  98.2077570  32.5116620  95.3175050  97.5316720  31.5327460
 110.6868090  96.7634550  34.6451070 110.4554180  96.5347300  33.7449020
 110.9472640  97.6834100  34.5995960  95.4380230  95.2059260  35.5379020
  94.5436280  95.1726020  35.8772730  95.9777780  95.4046050  36.3030270
 109.1256160  91.9890980  37.4230770 110.0026340  91.9974380  37.8064770
 109.1377000  91.2521820  36.8123120  94.0626380  95.1196530  23.0342590
  93.1590460  95.3826730  22.8594250  94.5467000  95.3907700  22.2542550
 110.5719430  95.8420520  28.3118790 111.0956910  95.3483170  27.6808960
 111.1578850  95.9770880  29.0566360 110.7509150  95.9260390  31.8338340
 109.8011860  95.8923930  31.9483330 110.9322160  96.8360500  31.5988110
  96.6053590  94.1762070  20.9436970  97.3145290  93.7545290  20.4584250
  95.8893530  94.2437300  20.3120320  96.2527750  90.2301400  19.9839620
  96.9755880  90.7710340  20.3020840  96.5252270  89.9564820  19.1081160
 110.0619400  95.0993870  24.2511200 110.5578520  94.8664740  25.0360080
 109.8635470  94.2605710  23.8348840  95.9419940  89.4807590  29.8862240
  96.5896130  88.9304970  29.4457400  96.3621780  89.7350740  30.7078050
 109.8372280  89.6748950  33.2431880 110.4744500  90.2883090  33.6091070
 109.9847170  89.7109610  32.2981110  95.6951940  89.6363260  32.6287560
  95.3466760  90.0927080  33.3945740  95.3639640  88.7420390  32.7109990
 103.2076760  90.8275140  36.1506980 103.1465650  91.4196970  36.9002390
 104.1477140  90.7201100  36.0057240 105.8451320  90.4845200  35.7899270
 106.4591730  90.8024490  35.1280350 106.3900880  89.9993790  36.4095130
  96.3672580  89.1639460  35.9038330  96.9155570  88.9827510  35.1404440
  96.4327890  88.3733570  36.4394640 106.5859360  89.0477340  32.1168560
 105.7119200  89.3812450  31.9141490 106.4770110  88.5750520  32.9420430
 107.4931340  91.2548210  33.5010280 107.1644700  90.4399970  33.1212010
 108.4413640  91.2118020  33.3775970 104.3334180  89.9647180  31.0561470
 103.5505970  90.4392680  31.3358230 104.0397110  89.0602010  30.9474650
 108.8855250  90.6670280  29.1010560 109.3263340  90.6115380  28.2532160
 108.6162840  91.5828290  29.1720740  95.6774590  90.2694660  23.5775190
  96.4353950  90.3823540  23.0039220  95.2151760  91.1063860  23.5318620
 102.2188400  92.3833930  26.5677500 101.4062910  92.0090820  26.2273380
 102.7230040  91.6279010  26.8698690 106.7213380  89.0476380  27.8060570
 107.3242750  89.6196590  28.2809090 105.9806370  89.6115820  27.5834470
 109.8647980  89.4497940  23.0800850 110.0598610  90.3481390  23.3468280
 109.0777850  89.2185020  23.5733800  98.0499740  90.7958710  22.1177160
  98.5792500  90.0088510  21.9885110  98.6828060  91.4749900  22.3512690
 100.2437580  90.5333850  25.1722550  99.6140320  89.8321160  25.3392680
  99.7042720  91.2937980  24.9555710 100.3693140  89.8117830  37.6075040
 100.0877410  90.3151430  36.8435860 100.7512840  89.0139580  37.2417170
 106.9708600  89.2271410  38.1855510 106.8574050  89.5466020  39.0807030
 107.7878340  89.6283920  37.8892790 105.8766750  97.2463880   8.5490250
 105.7960800  96.3318490   8.2781960 105.4631170  97.7430950   7.8429960
 104.0084790  99.0242900  10.4299520 103.2326890  98.5443340  10.7198090
 104.6597720  98.3448550  10.2555680  98.0250620  99.3362710  11.3075280
  97.1935500  99.0811420  11.7071790  98.6331600  99.4073480  12.0433200
  96.4342570  94.2964600   5.0917670  95.5459270  94.6380570   4.9897550
  96.7183760  94.0964920   4.1998500  94.3975580  96.8970250  10.9757370
  94.9691690  96.1292450  10.9761010  94.3977120  97.1959010  10.0663980
  95.6400450  92.3054610  12.7626300  95.4603290  91.4080360  13.0429060
  95.2380530  92.8526480  13.4373250 104.4798950  94.5070470  10.6638610
 104.8563770  93.6342350  10.5512280 104.3818460  94.8429170   9.7729050
  98.6103960  92.8796100   6.1256050  98.7170710  93.7799830   6.4324810
  97.6996320  92.8314070   5.8350700 108.2623070  92.0020910   7.5966950
 109.0832690  91.5117480   7.6392430 108.2957150  92.5918570   8.3498790
  96.2587120  94.8015110  11.3708640  96.9397230  95.0653480  11.9896040
  95.9435170  93.9615980  11.7046650 100.4511690  95.8482470  10.4581230
 100.9589910  96.3463440  11.0986250 100.9824930  95.0717670  10.2820590
  98.7347790  90.4881030  14.7244650  98.7366230  91.0053420  13.9190550
  97.9052100  90.0111210  14.7014580  99.9850640 100.1276210  12.9018150
  99.6520020 100.7545130  13.5439220 100.1617320 100.6538090  12.1219820
 108.4984550  93.9421290  10.3694490 107.7940120  94.2306180  10.9497600
 108.8596710  94.7521400  10.0094050  98.4163120  92.1990990  12.7315100
  98.7579930  93.0433040  12.4368970  97.4778930  92.3474730  12.8480440
 102.0991010  89.6873260   9.0559690 102.4065990  89.1320150   8.3395190
 101.1691710  89.8217720   8.8732680 107.0491510 100.3070390  12.6749760
 107.4660300 100.0930500  11.8403220 107.7731330 100.5643180  13.2458380
 104.4871770  97.7522090   5.7919810 103.5601050  97.6859470   6.0208280
 104.6396590  98.6902220   5.6775050 104.4740850  94.0239090   2.7886970
 103.5344520  94.1853050   2.8739430 104.7924110  94.7424770   2.2422960
 108.5169060  99.3142390   6.2955060 107.8981480  98.9761940   5.6481360
 108.4993510  98.6702150   7.0034250 107.9595620  95.4926930  13.7120870
 107.5466800  96.3180640  13.9660860 107.2271570  94.9071970  13.5197230
 100.0928410  98.2786830   8.5739540  99.6885410  97.5664080   8.0785440
 100.1791530  97.9340070   9.4627580  98.8057030  95.0530040  12.3538580
  99.3571620  95.1625380  11.5791830  99.3200540  95.4267640  13.0693810
 106.6933760  98.5529200   3.3027810 107.1327040  97.7151630   3.1565630
 107.4062180  99.1858600   3.3891950  98.4799760  98.5749400  15.9643920
  98.3407530  99.4472200  16.3331320  97.5981120  98.2322210  15.8191860
  96.7933040  97.1731810   6.0746190  96.6730640  97.8993900   5.4627460
  96.4833930  96.4034720   5.5974100  94.4318410 100.3446950  11.8814830
  94.5098830 100.4795720  10.9370550  95.0460090  99.6362840  12.0742950
  99.2596700  90.5166880   9.4569860  98.8164850  91.2976420   9.1254380
  99.8181690  90.8396770  10.1640800 103.5466510  93.3835400  15.0605180
 103.0845880  93.5918420  15.8725120 103.1444620  92.5694750  14.7575850
 108.5471020  94.6044350  16.1901840 107.6964610  94.3050100  16.5110910
 108.3872810  94.8486360  15.2785660 105.6420730  96.1046100  18.2900630
 105.9674140  95.2709850  17.9502860 106.4301060  96.6274620  18.4378960
 102.3755520  90.1377580   4.3375690 101.7509700  90.1337450   5.0629000
 102.2885640  89.2708540   3.9411660 101.2972600  91.0614210  11.3159460
 101.5944930  91.9677040  11.2351480 101.8458160  90.5732990  10.7019030
  99.0510920  95.6400450   7.1851110  98.8251840  95.4237620   8.0897730
  98.2703450  96.0728910   6.8397080 106.2808680  95.6463820   5.7841760
 105.6817570  96.3699620   5.6005380 106.8288290  95.5840600   5.0018210
 101.4910130  96.5386030  17.8511380 101.3953730  95.5980760  17.7011780
 102.3342110  96.7601100  17.4559450 104.8873550  94.2827360   7.8145040
 105.2803120  94.5999560   7.0013730 105.2490400  93.4039240   7.9289560
  96.6220670  92.9499700  16.0045160  96.2284060  93.7974910  16.2117940
  95.9339070  92.3126070  16.1953800 103.1965720  93.0334670  19.0741900
 102.5064040  92.8406870  19.7087990 103.9398020  93.3169310  19.6066200
  93.9237720  90.8728160  10.0375240  93.6350770  91.4431020  10.7500220
  94.6683480  90.3932610  10.4006470 105.4728690  96.8733110  11.9095820
 104.7409810  97.3819920  12.2585920 105.0753030  96.0563090  11.6084600
 101.9106080  93.5487310  10.3148310 101.9142140  93.1077260   9.4652850
 102.8057200  93.8704640  10.4220130  97.7608460  93.4313800   9.2742520
  97.4208510  93.9089030  10.0309570  96.9985780  92.9778920   8.9143620
 101.9726230  94.5499390   3.3055070 102.0939050  94.5085870   4.2540890
 101.5874740  95.4123540   3.1501800 105.9354600  92.3266790  11.3218760
 105.9527340  92.7775440  12.1660610 105.6870180  91.4272430  11.5352200
 100.9847730  96.8600530   2.7038370 100.4164630  96.4118780   2.0774280
 101.6936730  97.2193310   2.1703520 109.3625350  89.7398970  17.1605140
 109.6871120  89.0088630  17.6863120 109.3981860  89.4212610  16.2586130
 102.2114050  97.6089090  12.0613720 102.5784180  97.1347660  12.8075060
 102.0219110  98.4830660  12.4022060  95.0754540  92.3532780   8.1907190
  94.7901460  91.9888450   9.0285810  95.0133400  91.6213240   7.5770330
 100.0013420  96.6497730  14.3797930  99.6970490  97.5289710  14.6048290
 100.9559880  96.7097520  14.4155370  98.5295210 100.8558720   4.9764780
  97.7557470 100.3156340   4.8163500  99.2589840 100.3365330   4.6382540
 109.2883190  99.8524080  10.7691170 110.0082310 100.3479370  10.3787280
 109.0865010  99.1741970  10.1245040 104.7493130  91.2462040   4.9120560
 103.9357740  90.7475210   4.8365870 104.5555080  92.0860290   4.4956910
 104.6701990  99.9233140  16.6560170 104.6039300  99.0028810  16.4017760
 104.0407130 100.0208580  17.3704810 107.4641520  95.6181690   3.2082720
 108.3521140  95.9298920   3.0334060 107.4346610  94.7453940   2.8163300
  98.5732610 100.5239100   8.6143590  99.0911280  99.7207360   8.5600480
  98.1216630 100.4618240   9.4560420  96.0577150  97.4900470  15.5269290
  95.6992090  98.1554320  16.1142630  95.7631710  96.6584020  15.8981910
  99.2590270  97.9484710  18.4108840  98.9590410  98.0941890  17.5136660
 100.0301510  97.3890000  18.3182230 109.7355790  96.9293530   2.6762580
 109.6519510  97.3607750   1.8259020 110.4549980  97.3891880   3.1089400
  94.5685200  97.4891730   2.1503890  95.4380050  97.7716530   2.4339810
  94.0775520  98.3027600   2.0352700 101.7320010  98.8764940   6.2712170
 102.1882790  99.6870190   6.4972360 101.3808220  98.5588080   7.1030660
  97.6331790  89.2202590   6.7434690  97.5046420  89.2120490   7.6919610
  96.8093810  89.5585680   6.3925700  94.6325720  90.9793710  16.2041390
  93.9184240  91.1790630  16.8094000  95.0520760  90.2033280  16.5756190
  96.5531710  99.3065200   4.2785950  95.9459660 100.0464100   4.2881250
  97.0281060  99.3964560   3.4524150 106.1264500  93.4716020  13.9542840
 106.4945320  92.6511230  14.2822410 105.2662700  93.5317910  14.3698490
 109.4926530  92.4272960   4.7630400 108.8639690  92.5318630   4.0488630
 108.9978450  92.6469740   5.5524280 101.4610560  94.7058910   6.1788280
 100.7526710  95.1745250   6.6201890 101.7455040  94.0480920   6.8133470
 103.0866490  96.1255610  14.1780810 103.5851740  96.6001430  14.8432660
 103.2289440  95.2019130  14.3850840 105.4925990  91.4309570   7.6184070
 105.3693770  91.4495700   6.6693580 106.4410550  91.4788510   7.7382470
  99.6645580  93.0143990   3.5538990 100.5136110  93.4514140   3.4879180
  99.2976850  93.3264250   4.3811050 110.2933350  92.3423570  15.0209200
 109.7906950  93.0828970  15.3603010 111.1090010  92.7307570  14.7045990
 108.5855360  97.5856750   8.4670560 107.6445500  97.6006980   8.6418250
 108.8999430  96.7992710   8.9130860  97.2583760  96.7001420   2.7107410
  97.3387350  95.7528930   2.8224810  98.1503510  97.0308300   2.8168070
  94.7854560  98.5216340  17.9463580  95.2893580  97.9423620  18.5179810
  94.0461980  98.8056570  18.4839950 101.8392500  99.9287330  17.4799100
 101.0738170 100.4972330  17.3953770 102.0208460  99.6363540  16.5867330
 104.9280910 100.3050560   2.1051860 104.3791010 100.7519860   2.7494600
 105.5500170  99.7999810   2.6289530  96.8177640  96.6645930  18.8413650
  96.8582980  96.3659800  19.7498880  97.6723140  97.0653540  18.6821170
 100.5956030  99.2641480   4.0017160 101.0172450  99.0981350   4.8448550
 100.7206870  98.4541710   3.5072300  98.7583450  95.2438030  16.8088140
  98.2279910  94.7528980  16.1811480  99.4271520  95.6722230  16.2746070
 107.6561510  99.7107490  16.5729330 108.0702530  99.8652570  17.4219750
 106.7212510  99.8362710  16.7355110 108.1283680  97.0503650  18.5768480
 108.7104450  96.2955970  18.4888960 108.3045450  97.5811090  17.7999960
  99.2455750  92.2100400  16.8885430  99.1512620  91.5921150  16.1636300
  98.6653140  92.9366690  16.6615340 102.0117190  90.7673640  13.9212820
 101.5634490  90.7897900  13.0758370 101.3782390  90.3692660  14.5183120
 102.4176740  99.6627970  14.5425260 102.8364850 100.5060700  14.3701500
 101.4985370  99.8000010  14.3132040 104.7540640  97.3944150  15.9263100
 104.8736850  96.7985290  16.6657940 105.6134640  97.4313840  15.5064400
 107.0928540  97.9481340  14.5025610 106.5663760  98.4723960  13.8990750
 107.4359880  98.5808730  15.1335340 101.5209410  93.9365500  17.1838920
 102.1109100  93.6281350  17.8716740 100.7029650  93.4645250  17.3398820
 106.3402840  93.5531310  17.4171940 105.6518360  92.8912850  17.3521930
 107.0608860  93.1069580  17.8620400 106.9703240  90.1482940   3.4762200
 107.2505530  89.3050840   3.8321620 106.1968970  90.3806050   3.9900950
  94.8488300  97.9097600   8.3173770  94.1937140  97.6409240   7.6733470
  95.6866250  97.8002080   7.8675750 107.7978740  92.7038890   2.5392260
 108.2163620  92.5169870   1.6988920 107.4914800  91.8517940   2.8495190
  95.8864230  98.2950170  12.8577110  96.2537270  98.2077570  13.7373130
  95.3175050  97.5316720  12.7583970 110.6868090  96.7634550  15.8707580
 110.4554180  96.5347300  14.9705530 110.9472640  97.6834100  15.8252470
  95.4380230  95.2059260  16.7635530  94.5436280  95.1726020  17.1029240
  95.9777780  95.4046050  17.5286780 109.1256160  91.9890980  18.6487280
 110.0026340  91.9974380  19.0321280 109.1377000  91.2521820  18.0379630
  94.0626380  95.1196530   4.2599100  93.1590460  95.3826730   4.0850760
  94.5467000  95.3907700   3.4799060 110.5719430  95.8420520   9.5375300
 111.0956910  95.3483170   8.9065470 111.1578850  95.9770880  10.2822870
 110.7509150  95.9260390  13.0594850 109.8011860  95.8923930  13.1739840
 110.9322160  96.8360500  12.8244620 110.0619400  95.0993870   5.4767710
 110.5578520  94.8664740   6.2616590 109.8635470  94.2605710   5.0605350
  95.9419940  89.4807590  11.1118750  96.5896130  88.9304970  10.6713910
  96.3621780  89.7350740  11.9334560 109.8372280  89.6748950  14.4688390
 110.4744500  90.2883090  14.8347580 109.9847170  89.7109610  13.5237620
  95.6951940  89.6363260  13.8544070  95.3466760  90.0927080  14.6202250
  95.3639640  88.7420390  13.9366500 103.2076760  90.8275140  17.3763490
 103.1465650  91.4196970  18.1258900 104.1477140  90.7201100  17.2313750
 105.8451320  90.4845200  17.0155780 106.4591730  90.8024490  16.3536860
 106.3900880  89.9993790  17.6351640  96.3672580  89.1639460  17.1294840
  96.9155570  88.9827510  16.3660950  96.4327890  88.3733570  17.6651150
 106.5859360  89.0477340  13.3425070 105.7119200  89.3812450  13.1398000
 106.4770110  88.5750520  14.1676940 107.4931340  91.2548210  14.7266790
 107.1644700  90.4399970  14.3468520 108.4413640  91.2118020  14.6032480
 104.3334180  89.9647180  12.2817980 103.5505970  90.4392680  12.5614740
 104.0397110  89.0602010  12.1731160 108.8855250  90.6670280  10.3267070
 109.3263340  90.6115380   9.4788670 108.6162840  91.5828290  10.3977250
  95.6774590  90.2694660   4.8031700  96.4353950  90.3823540   4.2295730
  95.2151760  91.1063860   4.7575130 102.2188400  92.3833930   7.7934010
 101.4062910  92.0090820   7.4529890 102.7230040  91.6279010   8.0955200
 106.7213380  89.0476380   9.0317080 107.3242750  89.6196590   9.5065600
 105.9806370  89.6115820   8.8090980 109.8647980  89.4497940   4.3057360
 110.0598610  90.3481390   4.5724790 109.0777850  89.2185020   4.7990310
  98.0499740  90.7958710   3.3433670  98.5792500  90.0088510   3.2141620
  98.6828060  91.4749900   3.5769200 100.2437580  90.5333850   6.3979060
  99.6140320  89.8321160   6.5649190  99.7042720  91.2937980   6.1812220
 100.3693140  89.8117830  18.8331550 100.0877410  90.3151430  18.0692370
 100.7512840  89.0139580  18.4673680 106.9708600  89.2271410  19.4112020
 106.8574050  89.5466020  20.3063540 107.7878340  89.6283920  19.1149300
 105.8766750  78.4720390  64.8720720 105.7960800  77.5575000  64.6012430
 105.4631170  78.9687460  64.1660430 104.0084790  80.2499410  66.7529990
 103.2326890  79.7699850  67.0428560 104.6597720  79.5705060  66.5786150
  98.0250620  80.5619220  67.6305750  97.1935500  80.3067930  68.0302260
  98.6331600  80.6329990  68.3663670 108.0292220  84.6559600  65.5329120
 107.5673750  83.8846840  65.8616290 108.8417770  84.6825670  66.0381570
  98.0051880  84.5959310  67.8263770  98.3079920  83.7057050  67.6473990
  98.7495470  85.1529530  67.5986020  96.4342570  75.5221110  61.4148140
  95.5459270  75.8637080  61.3128020  96.7183760  75.3221430  60.5228970
  94.3975580  78.1226760  67.2987840  94.9691690  77.3548960  67.2991480
  94.3977120  78.4215520  66.3894450 104.2555530  86.9417610  65.1533110
 103.6366970  87.3975110  64.5827550 105.1107310  87.0969070  64.7522810
 103.4493780  82.9256600  66.7600150 103.3802060  81.9846540  66.5989280
 104.2113640  83.0158010  67.3322720  95.6400450  73.5311120  69.0856770
  95.4603290  72.6336870  69.3659530  95.2380530  74.0782990  69.7603720
 104.4798950  75.7326980  66.9869080 104.8563770  74.8598860  66.8742750
 104.3818460  76.0685680  66.0959520  98.6103960  74.1052610  62.4486520
  98.7170710  75.0056340  62.7555280  97.6996320  74.0570580  62.1581170
 108.2623070  73.2277420  63.9197420 109.0832690  72.7373990  63.9622900
 108.2957150  73.8175080  64.6729260  96.2587120  76.0271620  67.6939110
  96.9397230  76.2909990  68.3126510  95.9435170  75.1872490  68.0277120
 100.4511690  77.0738980  66.7811700 100.9589910  77.5719950  67.4216720
 100.9824930  76.2974180  66.6051060  98.7347790  71.7137540  71.0475120
  98.7366230  72.2309930  70.2421020  97.9052100  71.2367720  71.0245050
 105.1218880  81.8256850  62.5465020 104.5036150  82.2906300  61.9827740
 105.6342130  82.5184330  62.9634530  99.9850640  81.3532720  69.2248620
  99.6520020  81.9801640  69.8669690 100.1617320  81.8794600  68.4450290
 108.4984550  75.1677800  66.6924960 107.7940120  75.4562690  67.2728070
 108.8596710  75.9777910  66.3324520  98.4163120  73.4247500  69.0545570
  98.7579930  74.2689550  68.7599440  97.4778930  73.5731240  69.1710910
  99.1969740  83.3213520  71.0397800  99.8143740  83.9964600  70.7582250
  98.3362860  83.7301500  70.9485300  94.4902080  82.5113380  59.9204650
  94.1130060  83.0000480  59.1889550  94.7475150  83.1838660  60.5511180
 110.1147330  84.7852930  68.9552440 109.4310850  85.4552040  68.9469110
 110.6541620  84.9833580  68.1897300 102.0991010  70.9129770  65.3790160
 102.4065990  70.3576660  64.6625660 101.1691710  71.0474230  65.1963150
 107.6506070  86.6297060  67.6697620 107.6633230  86.2259350  66.8019880
 107.0981290  87.4044350  67.5659050 108.9451490  83.3513280  62.7587790
 108.8347820  82.4087610  62.8837210 108.9419740  83.7128920  63.6450550
 107.0491510  81.5326900  68.9980230 107.4660300  81.3187010  68.1633690
 107.7731330  81.7899690  69.5688850 104.4871770  78.9778600  62.1150280
 103.5601050  78.9115980  62.3438750 104.6396590  79.9158730  62.0005520
 104.4740850  75.2495600  59.1117440 103.5344520  75.4109560  59.1969900
 104.7924110  75.9681280  58.5653430 108.5169060  80.5398900  62.6185530
 107.8981480  80.2018450  61.9711830 108.4993510  79.8958660  63.3264720
 107.9595620  76.7183440  70.0351340 107.5466800  77.5437150  70.2891330
 107.2271570  76.1328480  69.8427700 100.0928410  79.5043340  64.8970010
  99.6885410  78.7920590  64.4015910 100.1791530  79.1596580  65.7858050
 100.5610110  83.1910900  67.0609220 100.2638400  82.5856370  66.3817000
 101.5109930  83.2288210  66.9498580  98.8057030  76.2786550  68.6769050
  99.3571620  76.3881890  67.9022300  99.3200540  76.6524150  69.3924280
 108.6495720  86.7642770  70.7232320 108.1726280  87.5714960  70.5304930
 107.9657510  86.1121100  70.8758530  99.6528540  82.9292590  73.7117020
  98.7557070  83.1532560  73.9590420  99.6781410  83.0527530  72.7628420
 106.6933760  79.7785710  59.6258280 107.1327040  78.9408140  59.4796100
 107.4062180  80.4115110  59.7122420  98.4799760  79.8005910  72.2874390
  98.3407530  80.6728710  72.6561790  97.5981120  79.4578720  72.1422330
 104.8029140  84.7181780  63.5939520 105.2425050  85.4606110  63.1794910
 104.7416030  84.9608350  64.5178480 100.2780110  85.7427610  74.4959540
 100.2495540  86.1470560  73.6287970 100.1145080  84.8137970  74.3331140
 110.2750900  71.0328520  57.9399320 109.9623560  71.1255350  58.8398390
 111.0363370  71.6109550  57.8896750  96.7933040  78.3988320  62.3976660
  96.6730640  79.1250410  61.7857930  96.4833930  77.6291230  61.9204570
  94.4318410  81.5703460  68.2045300  94.5098830  81.7052230  67.2601020
  95.0460090  80.8619350  68.3973420  95.6766040  83.2703650  64.6151480
  95.2694120  83.4118240  63.7605080  96.5679050  82.9863810  64.4122690
 105.4944920  87.4195560  71.5218530 106.0089590  87.3303570  72.3240960
 104.6514000  87.7655260  71.8146440 107.4699320  87.7050900  60.9502530
 107.3100460  87.4153840  61.8484360 107.3046030  86.9291030  60.4147760
  99.9487700  87.4849430  62.7274150  99.7730180  86.5684970  62.5141950
  99.0943440  87.8436720  62.9671950 107.1725450  85.2138460  59.5100530
 106.4790610  85.2115750  58.8502810 107.9148310  84.7897780  59.0794700
 106.7375380  86.8401170  63.5849020 107.1932330  86.0590550  63.8987640
 107.0767900  87.5507990  64.1290200  94.4877930  82.6117630  70.7439760
  94.6508970  82.1422990  69.9259130  94.9530380  82.1041190  71.4088600
  99.2596700  71.7423390  65.7800330  98.8164850  72.5232930  65.4484850
  99.8181690  72.0653280  66.4871270 103.5466510  74.6091910  71.3835650
 103.0845880  74.8174930  72.1955590 103.1444620  73.7951260  71.0806320
 108.5471020  75.8300860  72.5132310 107.6964610  75.5306610  72.8341380
 108.3872810  76.0742870  71.6016130 105.6420730  77.3302610  74.6131100
 105.9674140  76.4966360  74.2733330 106.4301060  77.8531130  74.7609430
 102.3755520  71.3634090  60.6606160 101.7509700  71.3593960  61.3859470
 102.2885640  70.4965050  60.2642130 101.2972600  72.2870720  67.6389930
 101.5944930  73.1933550  67.5581950 101.8458160  71.7989500  67.0249500
  99.0510920  76.8656960  63.5081580  98.8251840  76.6494130  64.4128200
  98.2703450  77.2985420  63.1627550 106.2808680  76.8720330  62.1072230
 105.6817570  77.5956130  61.9235850 106.8288290  76.8097110  61.3248680
 101.4910130  77.7642540  74.1741850 101.3953730  76.8237270  74.0242250
 102.3342110  77.9857610  73.7789920 104.8873550  75.5083870  64.1375510
 105.2803120  75.8256070  63.3244200 105.2490400  74.6295750  64.2520030
  96.6220670  74.1756210  72.3275630  96.2284060  75.0231420  72.5348410
  95.9339070  73.5382580  72.5184270  93.9237720  72.0984670  66.3605710
  93.6350770  72.6687530  67.0730690  94.6683480  71.6189120  66.7236940
  94.1107950  76.0404790  57.5708430  94.0282620  76.9835550  57.7123420
  93.7591010  75.8979700  56.6920780 105.4728690  78.0989620  68.2326290
 104.7409810  78.6076430  68.5816390 105.0753030  77.2819600  67.9315070
 101.9106080  74.7743820  66.6378780 101.9142140  74.3333770  65.7883320
 102.8057200  75.0961150  66.7450600  97.7608460  74.6570310  65.5972990
  97.4208510  75.1345540  66.3540040  96.9985780  74.2035430  65.2374090
 101.9726230  75.7755900  59.6285540 102.0939050  75.7342380  60.5771360
 101.5874740  76.6380050  59.4732270 105.9354600  73.5523300  67.6449230
 105.9527340  74.0031950  68.4891080 105.6870180  72.6528940  67.8582670
 100.9847730  78.0857040  59.0268840 100.4164630  77.6375290  58.4004750
 101.6936730  78.4449820  58.4933990 109.3625350  70.9655480  73.4835610
 109.6871120  70.2345140  74.0093590 109.3981860  70.6469120  72.5816600
  96.0616910  81.9869060  72.9035570  95.6771700  81.3462730  73.5018530
  96.3729100  82.6905180  73.4730300 102.2114050  78.8345600  68.3844190
 102.5784180  78.3604170  69.1305530 102.0219110  79.7087170  68.7252530
  95.0754540  73.5789290  64.5137660  94.7901460  73.2144960  65.3516280
  95.0133400  72.8469750  63.9000800 100.0013420  77.8754240  70.7028400
  99.6970490  78.7546220  70.9278760 100.9559880  77.9354030  70.7385840
  98.5295210  82.0815230  61.2995250  97.7557470  81.5412850  61.1393970
  99.2589840  81.5621840  60.9613010 109.2883190  81.0780590  67.0921640
 110.0082310  81.5735880  66.7017750 109.0865010  80.3998480  66.4475510
 104.7493130  72.4718550  61.2351030 103.9357740  71.9731720  61.1596340
 104.5555080  73.3116800  60.8187380 104.6701990  81.1489650  72.9790640
 104.6039300  80.2285320  72.7248230 104.0407130  81.2465090  73.6935280
 107.4641520  76.8438200  59.5313190 108.3521140  77.1555430  59.3564530
 107.4346610  75.9710450  59.1393770  98.5732610  81.7495610  64.9374060
  99.0911280  80.9463870  64.8830950  98.1216630  81.6874750  65.7790890
 103.4602110  83.0161890  60.2101360 103.8017810  83.7604120  59.7144680
 102.6314820  83.3293010  60.5726190  96.0577150  78.7156980  71.8499760
  95.6992090  79.3810830  72.4373100  95.7631710  77.8840530  72.2212380
  99.2590270  79.1741220  74.7339310  98.9590410  79.3198400  73.8367130
 100.0301510  78.6146510  74.6412700 104.6018720  83.9710220  72.7294440
 104.6163260  83.0391180  72.5113350 103.8943820  84.0569980  73.3684210
 109.7355790  78.1550040  58.9993050 109.6519510  78.5864260  58.1489490
 110.4549980  78.6148390  59.4319870 110.7643040  85.0092300  61.7275180
 110.1219200  84.3547920  62.0018900 110.3773700  85.4147390  60.9515850
 106.3429520  82.3377730  65.5746870 106.6953340  81.7405860  64.9148240
 105.4591850  82.0121960  65.7455120 102.4292800  83.0975420  62.9817280
 103.1163930  83.6444630  63.3624870 101.6425220  83.6416150  63.0166890
  94.5685200  78.7148240  58.4734360  95.4380050  78.9973040  58.7570280
  94.0775520  79.5284110  58.3583170 101.7320010  80.1021450  62.5942640
 102.1882790  80.9126700  62.8202830 101.3808220  79.7844590  63.4261130
 104.0352620  85.6127790  69.8234940 104.6794840  85.8187170  70.5008360
 104.3982060  84.8516190  69.3705790  97.6331790  70.4459100  63.0665160
  97.5046420  70.4377000  64.0150080  96.8093810  70.7842190  62.7156170
 105.3084700  83.6160140  68.5412390 105.9506930  82.9153300  68.6544560
 105.8334050  84.3958580  68.3609280 109.1540420  83.9008760  58.2651530
 108.9278000  83.1839200  58.8576170 108.7636620  83.6521200  57.4273280
 107.0822320  84.4155040  71.7448450 107.4178560  85.0021730  72.4226370
 106.1622660  84.2847750  71.9746240  94.9356450  87.9275620  59.0395990
  95.2954090  88.5264960  58.3853260  94.7948790  88.4735510  59.8131020
  94.6325720  72.2050220  72.5271860  93.9184240  72.4047140  73.1324470
  95.0520760  71.4289790  72.8986660 108.7356670  81.8180700  59.9265690
 108.4478370  82.2793390  60.7143570 109.5308840  81.3578470  60.1949910
  94.9198310  86.1930480  73.5138390  95.0289430  85.2525220  73.3733780
  94.2678870  86.4585230  72.8652120 100.9525070  85.3106820  59.8569660
 100.9435170  86.0436510  59.2414170 100.0323430  85.0638400  59.9496620
  96.5531710  80.5321710  60.6016420  95.9459660  81.2720610  60.6111720
  97.0281060  80.6221070  59.7754620 106.1264500  74.6972530  70.2773310
 106.4945320  73.8767740  70.6052880 105.2662700  74.7574420  70.6928960
 109.4926530  73.6529470  61.0860870 108.8639690  73.7575140  60.3719100
 108.9978450  73.8726250  61.8754750 103.9384670  85.3735060  58.5194850
 104.0396650  85.1699050  57.5896830 103.0386410  85.1193340  58.7242630
 101.4610560  75.9315420  62.5018750 100.7526710  76.4001760  62.9432360
 101.7455040  75.2737430  63.1363940 103.0866490  77.3512120  70.5011280
 103.5851740  77.8257940  71.1663130 103.2289440  76.4275640  70.7081310
 105.4925990  72.6566080  63.9414540 105.3693770  72.6752210  62.9924050
 106.4410550  72.7045020  64.0612940 102.5802780  87.8921380  63.2142520
 102.8344280  87.8542770  62.2921890 101.6315260  87.7654710  63.2070770
  99.6645580  74.2400500  59.8769460 100.5136110  74.6770650  59.8109650
  99.2976850  74.5520760  60.7041520 110.2933350  73.5680080  71.3439670
 109.7906950  74.3085480  71.6833480 111.1090010  73.9564080  71.0276460
 108.5855360  78.8113260  64.7901030 107.6445500  78.8263490  64.9648720
 108.8999430  78.0249220  65.2361330  98.5637000  80.4932860  58.3504990
  99.3300270  80.3814220  58.9130420  98.6411690  79.7970830  57.6981760
  97.2583760  77.9257930  59.0337880  97.3387350  76.9785440  59.1455280
  98.1503510  78.2564810  59.1398540  98.0598470  88.0753320  66.1372420
  98.7960950  87.5268780  66.4080990  98.4439390  88.9409330  65.9978410
  94.9443950  84.1426890  62.0113930  94.0183730  84.3848030  62.0019340
  95.4100380  84.9701150  61.8898680 101.1700780  87.2483630  57.9597990
 101.9629390  87.5372460  57.5079780 100.6505130  86.8175800  57.2810470
 107.3321750  87.0959550  73.8842820 108.2843500  87.0117570  73.8343060
 107.1849970  87.7601260  74.5576610 110.2230950  86.4753760  59.3834730
 109.9372460  86.0618900  58.5688910 110.0250500  87.4041470  59.2635250
  94.7854560  79.7472850  74.2694050  95.2893580  79.1680130  74.8410280
  94.0461980  80.0313080  74.8070420 101.6878180  82.4687040  57.8240340
 101.5828820  81.8539390  58.5501720 101.5202400  81.9452930  57.0403350
 101.8392500  81.1543840  73.8029570 101.0738170  81.7228840  73.7184240
 102.0208460  80.8620050  72.9097800 104.9280910  81.5307070  58.4282330
 104.3791010  81.9776370  59.0725070 105.5500170  81.0256320  58.9520000
 108.9815850  82.8849170  74.3604590 109.7225320  83.2224930  73.8572050
 108.2188530  83.0541230  73.8074360 100.5956030  80.4897990  60.3247630
 101.0172450  80.3237860  61.1679020 100.7206870  79.6798220  59.8302770
  98.7583450  76.4694540  73.1318610  98.2279910  75.9785490  72.5041950
  99.4271520  76.8978740  72.5976540 103.1083670  79.5135600  57.5724730
 103.6289330  78.7984620  57.2065880 103.7552070  80.1521470  57.8725240
 107.6561510  80.9364000  72.8959800 108.0702530  81.0909080  73.7450220
 106.7212510  81.0619220  73.0585580 108.1283680  78.2760160  74.8998950
 108.7104450  77.5212480  74.8119430 108.3045450  78.8067600  74.1230430
  99.2455750  73.4356910  73.2115900  99.1512620  72.8177660  72.4866770
  98.6653140  74.1623200  72.9845810 102.0117190  71.9930150  70.2443290
 101.5634490  72.0154410  69.3988840 101.3782390  71.5949170  70.8413590
 102.4176740  80.8884480  70.8655730 102.8364850  81.7317210  70.6931970
 101.4985370  81.0256520  70.6362510 104.7540640  78.6200660  72.2493570
 104.8736850  78.0241800  72.9888410 105.6134640  78.6570350  71.8294870
 107.0928540  79.1737850  70.8256080 106.5663760  79.6980470  70.2221220
 107.4359880  79.8065240  71.4565810  99.4914930  76.5631220  57.2705790
  99.2903990  75.6998580  57.6319130  99.3206980  76.4764580  56.3327390
 100.2684160  87.1937490  71.9813460  99.7305250  87.9183550  71.6622160
 100.5218120  86.7167830  71.1910800 101.5209410  75.1622010  73.5069390
 102.1109100  74.8537860  74.1947210 100.7029650  74.6901760  73.6629290
 106.3402840  74.7787820  73.7402410 105.6518360  74.1169360  73.6752400
 107.0608860  74.3326090  74.1850870 106.9703240  71.3739450  59.7992670
 107.2505530  70.5307350  60.1552090 106.1968970  71.6062560  60.3131420
  98.2897730  73.6631840  57.2583670  98.5923630  73.6699270  56.3502820
  99.0292320  73.3129700  57.7551330 103.1246370  88.4288700  72.2400110
 103.0505070  89.3323840  72.5472480 102.2225210  88.1100600  72.2122180
 101.5082660  72.6066460  58.2439870 101.1604660  71.9290450  57.6642320
 101.7095430  72.1455970  59.0583260 103.6731700  87.5947210  59.8626470
 104.5682490  87.9332180  59.8845230 103.7049330  86.8726620  59.2350750
  97.3127860  82.9674260  58.0913470  97.7502730  83.5103930  58.7471050
  97.7975590  82.1421210  58.1009810  94.5273660  85.7563290  65.5433730
  94.8576670  84.8884350  65.3112370  94.9564660  85.9621810  66.3738690
  99.1235580  84.0872300  63.2035700  98.8231120  83.9637270  64.1039610
  99.0173070  83.2280890  62.7951430  95.0163870  86.6233880  68.2815360
  94.5794860  86.8034680  69.1139510  95.5841550  87.3808500  68.1397080
 110.6526050  86.1250880  72.5692670 110.0528040  86.1843440  71.8256590
 110.7819950  85.1855860  72.6989520  94.8488300  79.1354110  64.6404240
  94.1937140  78.8665750  63.9963940  95.6866250  79.0258590  64.1906220
 109.3377690  82.8502860  70.6668830 108.5237530  83.2800020  70.9294620
 109.7451890  83.4621270  70.0537880 107.7978740  73.9295400  58.8622730
 108.2163620  73.7426380  58.0219390 107.4914800  73.0774450  59.1725660
  95.8864230  79.5206680  69.1807580  96.2537270  79.4334080  70.0603600
  95.3175050  78.7573230  69.0814440 110.6868090  77.9891060  72.1938050
 110.4554180  77.7603810  71.2936000 110.9472640  78.9090610  72.1482940
  95.4380230  76.4315770  73.0866000  94.5436280  76.3982530  73.4259710
  95.9777780  76.6302560  73.8517250  94.0626380  76.3453040  60.5829570
  93.1590460  76.6083240  60.4081230  94.5467000  76.6164210  59.8029530
 110.5719430  77.0677030  65.8605770 111.0956910  76.5739680  65.2295940
 111.1578850  77.2027390  66.6053340 110.7509150  77.1516900  69.3825320
 109.8011860  77.1180440  69.4970310 110.9322160  78.0617010  69.1475090
  96.6053590  75.4018580  58.4923950  97.3145290  74.9801800  58.0071230
  95.8893530  75.4693810  57.8607300  96.2527750  71.4557910  57.5326600
  96.9755880  71.9966850  57.8507820  96.5252270  71.1821330  56.6568140
 110.0619400  76.3250380  61.7998180 110.5578520  76.0921250  62.5847060
 109.8635470  75.4862220  61.3835820  95.9419940  70.7064100  67.4349220
  96.5896130  70.1561480  66.9944380  96.3621780  70.9607250  68.2565030
 109.8372280  70.9005460  70.7918860 110.4744500  71.5139600  71.1578050
 109.9847170  70.9366120  69.8468090 109.3953740  87.6021460  64.1937100
 109.9912810  87.2806030  63.5171520 109.6531890  87.1293280  64.9850370
  95.6951940  70.8619770  70.1774540  95.3466760  71.3183590  70.9432720
  95.3639640  69.9676900  70.2596970 101.0022340  85.5898960  69.9437450
 100.7613700  85.8573520  69.0567970 101.9424980  85.7604690  69.9988310
 103.2076760  72.0531650  73.6993960 103.1465650  72.6453480  74.4489370
 104.1477140  71.9457610  73.5544220 105.8451320  71.7101710  73.3386250
 106.4591730  72.0281000  72.6767330 106.3900880  71.2250300  73.9582110
  96.3672580  70.3895970  73.4525310  96.9155570  70.2084020  72.6891420
  96.4327890  69.5990080  73.9881620  97.1404340  86.9801620  71.4625510
  96.5464660  86.8486320  72.2015550  97.1328180  86.1439760  70.9967610
 106.5859360  70.2733850  69.6655540 105.7119200  70.6068960  69.4628470
 106.4770110  69.8007030  70.4907410 107.4931340  72.4804720  71.0497260
 107.1644700  71.6656480  70.6698990 108.4413640  72.4374530  70.9262950
 109.9465950  88.2516760  68.0234830 109.4868920  89.0032570  67.6492850
 109.3178410  87.5323230  67.9649630  96.7716570  84.3460000  70.4133550
  96.0450630  83.7265290  70.3459500  96.8325720  84.7400610  69.5431630
 100.3761670  86.5605000  67.1982960 100.8926690  85.9492360  66.6731220
 101.0259050  87.0633780  67.6893970 103.1157170  87.4513490  68.0251940
 103.4034980  87.1967790  67.1484950 103.6280390  86.8990850  68.6157510
 104.3334180  71.1903690  68.6048450 103.5505970  71.6649190  68.8845210
 104.0397110  70.2858520  68.4961630 108.8855250  71.8926790  66.6497540
 109.3263340  71.8371890  65.8019140 108.6162840  72.8084800  66.7207720
  95.0546570  87.6634390  63.6230310  94.8868610  87.0305070  64.3212200
  94.1881080  87.8693790  63.2724500  95.6774590  71.4951170  61.1262170
  96.4353950  71.6080050  60.5526200  95.2151760  72.3320370  61.0805600
 102.2188400  73.6090440  64.1164480 101.4062910  73.2347330  63.7760360
 102.7230040  72.8535520  64.4185670 106.7213380  70.2732890  65.3547550
 107.3242750  70.8453100  65.8296070 105.9806370  70.8372330  65.1321450
 109.8647980  70.6754450  60.6287830 110.0598610  71.5737900  60.8955260
 109.0777850  70.4441530  61.1220780  96.6609270  86.3567620  61.0680450
  96.1356890  86.7375650  60.3642410  96.5853850  86.9818390  61.7890160
  98.0499740  72.0215220  59.6664140  98.5792500  71.2345020  59.5372090
  98.6828060  72.7006410  59.8999670 100.2437580  71.7590360  62.7209530
  99.6140320  71.0577670  62.8879660  99.7042720  72.5194490  62.5042690
  99.2602240  88.3050000  59.9429700  99.9921060  88.0209280  59.3953590
  99.5195910  88.0663280  60.8329080  98.4217030  84.4214730  59.9476030
  97.7925910  84.8899830  60.4961860  98.5364860  83.5763950  60.3822220
 105.8766750  78.4720390  46.0977230 105.7960800  77.5575000  45.8268940
 105.4631170  78.9687460  45.3916940 104.0084790  80.2499410  47.9786500
 103.2326890  79.7699850  48.2685070 104.6597720  79.5705060  47.8042660
  98.0250620  80.5619220  48.8562260  97.1935500  80.3067930  49.2558770
  98.6331600  80.6329990  49.5920180 108.0292220  84.6559600  46.7585630
 107.5673750  83.8846840  47.0872800 108.8417770  84.6825670  47.2638080
  98.0051880  84.5959310  49.0520280  98.3079920  83.7057050  48.8730500
  98.7495470  85.1529530  48.8242530  96.4342570  75.5221110  42.6404650
  95.5459270  75.8637080  42.5384530  96.7183760  75.3221430  41.7485480
  94.3975580  78.1226760  48.5244350  94.9691690  77.3548960  48.5247990
  94.3977120  78.4215520  47.6150960 104.2555530  86.9417610  46.3789620
 103.6366970  87.3975110  45.8084060 105.1107310  87.0969070  45.9779320
 103.4493780  82.9256600  47.9856660 103.3802060  81.9846540  47.8245790
 104.2113640  83.0158010  48.5579230  95.6400450  73.5311120  50.3113280
  95.4603290  72.6336870  50.5916040  95.2380530  74.0782990  50.9860230
 104.4798950  75.7326980  48.2125590 104.8563770  74.8598860  48.0999260
 104.3818460  76.0685680  47.3216030  98.6103960  74.1052610  43.6743030
  98.7170710  75.0056340  43.9811790  97.6996320  74.0570580  43.3837680
 108.2623070  73.2277420  45.1453930 109.0832690  72.7373990  45.1879410
 108.2957150  73.8175080  45.8985770  96.2587120  76.0271620  48.9195620
  96.9397230  76.2909990  49.5383020  95.9435170  75.1872490  49.2533630
 100.4511690  77.0738980  48.0068210 100.9589910  77.5719950  48.6473230
 100.9824930  76.2974180  47.8307570  98.7347790  71.7137540  52.2731630
  98.7366230  72.2309930  51.4677530  97.9052100  71.2367720  52.2501560
 105.1218880  81.8256850  43.7721530 104.5036150  82.2906300  43.2084250
 105.6342130  82.5184330  44.1891040  99.9850640  81.3532720  50.4505130
  99.6520020  81.9801640  51.0926200 100.1617320  81.8794600  49.6706800
 108.4984550  75.1677800  47.9181470 107.7940120  75.4562690  48.4984580
 108.8596710  75.9777910  47.5581030  98.4163120  73.4247500  50.2802080
  98.7579930  74.2689550  49.9855950  97.4778930  73.5731240  50.3967420
  99.1969740  83.3213520  52.2654310  99.8143740  83.9964600  51.9838760
  98.3362860  83.7301500  52.1741810  94.4902080  82.5113380  41.1461160
  94.1130060  83.0000480  40.4146060  94.7475150  83.1838660  41.7767690
 110.1147330  84.7852930  50.1808950 109.4310850  85.4552040  50.1725620
 110.6541620  84.9833580  49.4153810 102.0991010  70.9129770  46.6046670
 102.4065990  70.3576660  45.8882170 101.1691710  71.0474230  46.4219660
 107.6506070  86.6297060  48.8954130 107.6633230  86.2259350  48.0276390
 107.0981290  87.4044350  48.7915560 108.9451490  83.3513280  43.9844300
 108.8347820  82.4087610  44.1093720 108.9419740  83.7128920  44.8707060
 107.0491510  81.5326900  50.2236740 107.4660300  81.3187010  49.3890200
 107.7731330  81.7899690  50.7945360 104.4871770  78.9778600  43.3406790
 103.5601050  78.9115980  43.5695260 104.6396590  79.9158730  43.2262030
 104.4740850  75.2495600  40.3373950 103.5344520  75.4109560  40.4226410
 104.7924110  75.9681280  39.7909940 108.5169060  80.5398900  43.8442040
 107.8981480  80.2018450  43.1968340 108.4993510  79.8958660  44.5521230
 107.9595620  76.7183440  51.2607850 107.5466800  77.5437150  51.5147840
 107.2271570  76.1328480  51.0684210 100.0928410  79.5043340  46.1226520
  99.6885410  78.7920590  45.6272420 100.1791530  79.1596580  47.0114560
 100.5610110  83.1910900  48.2865730 100.2638400  82.5856370  47.6073510
 101.5109930  83.2288210  48.1755090  98.8057030  76.2786550  49.9025560
  99.3571620  76.3881890  49.1278810  99.3200540  76.6524150  50.6180790
 108.6495720  86.7642770  51.9488830 108.1726280  87.5714960  51.7561440
 107.9657510  86.1121100  52.1015040  99.6528540  82.9292590  54.9373530
  98.7557070  83.1532560  55.1846930  99.6781410  83.0527530  53.9884930
 106.6933760  79.7785710  40.8514790 107.1327040  78.9408140  40.7052610
 107.4062180  80.4115110  40.9378930  98.4799760  79.8005910  53.5130900
  98.3407530  80.6728710  53.8818300  97.5981120  79.4578720  53.3678840
 104.8029140  84.7181780  44.8196030 105.2425050  85.4606110  44.4051420
 104.7416030  84.9608350  45.7434990 100.2780110  85.7427610  55.7216050
 100.2495540  86.1470560  54.8544480 100.1145080  84.8137970  55.5587650
 110.2750900  71.0328520  39.1655830 109.9623560  71.1255350  40.0654900
 111.0363370  71.6109550  39.1153260  96.7933040  78.3988320  43.6233170
  96.6730640  79.1250410  43.0114440  96.4833930  77.6291230  43.1461080
  94.4318410  81.5703460  49.4301810  94.5098830  81.7052230  48.4857530
  95.0460090  80.8619350  49.6229930  95.6766040  83.2703650  45.8407990
  95.2694120  83.4118240  44.9861590  96.5679050  82.9863810  45.6379200
 105.4944920  87.4195560  52.7475040 106.0089590  87.3303570  53.5497470
 104.6514000  87.7655260  53.0402950 107.4699320  87.7050900  42.1759040
 107.3100460  87.4153840  43.0740870 107.3046030  86.9291030  41.6404270
  99.9487700  87.4849430  43.9530660  99.7730180  86.5684970  43.7398460
  99.0943440  87.8436720  44.1928460 107.1725450  85.2138460  40.7357040
 106.4790610  85.2115750  40.0759320 107.9148310  84.7897780  40.3051210
 106.7375380  86.8401170  44.8105530 107.1932330  86.0590550  45.1244150
 107.0767900  87.5507990  45.3546710  94.4877930  82.6117630  51.9696270
  94.6508970  82.1422990  51.1515640  94.9530380  82.1041190  52.6345110
  99.2596700  71.7423390  47.0056840  98.8164850  72.5232930  46.6741360
  99.8181690  72.0653280  47.7127780 103.5466510  74.6091910  52.6092160
 103.0845880  74.8174930  53.4212100 103.1444620  73.7951260  52.3062830
 108.5471020  75.8300860  53.7388820 107.6964610  75.5306610  54.0597890
 108.3872810  76.0742870  52.8272640 105.6420730  77.3302610  55.8387610
 105.9674140  76.4966360  55.4989840 106.4301060  77.8531130  55.9865940
 102.3755520  71.3634090  41.8862670 101.7509700  71.3593960  42.6115980
 102.2885640  70.4965050  41.4898640 101.2972600  72.2870720  48.8646440
 101.5944930  73.1933550  48.7838460 101.8458160  71.7989500  48.2506010
  99.0510920  76.8656960  44.7338090  98.8251840  76.6494130  45.6384710
  98.2703450  77.2985420  44.3884060 106.2808680  76.8720330  43.3328740
 105.6817570  77.5956130  43.1492360 106.8288290  76.8097110  42.5505190
 101.4910130  77.7642540  55.3998360 101.3953730  76.8237270  55.2498760
 102.3342110  77.9857610  55.0046430 104.8873550  75.5083870  45.3632020
 105.2803120  75.8256070  44.5500710 105.2490400  74.6295750  45.4776540
  96.6220670  74.1756210  53.5532140  96.2284060  75.0231420  53.7604920
  95.9339070  73.5382580  53.7440780 103.1965720  74.2591180  56.6228880
 102.5064040  74.0663380  57.2574970 103.9398020  74.5425820  57.1553180
  93.9237720  72.0984670  47.5862220  93.6350770  72.6687530  48.2987200
  94.6683480  71.6189120  47.9493450  94.1107950  76.0404790  38.7964940
  94.0282620  76.9835550  38.9379930  93.7591010  75.8979700  37.9177290
 105.4728690  78.0989620  49.4582800 104.7409810  78.6076430  49.8072900
 105.0753030  77.2819600  49.1571580 101.9106080  74.7743820  47.8635290
 101.9142140  74.3333770  47.0139830 102.8057200  75.0961150  47.9707110
  97.7608460  74.6570310  46.8229500  97.4208510  75.1345540  47.5796550
  96.9985780  74.2035430  46.4630600 101.9726230  75.7755900  40.8542050
 102.0939050  75.7342380  41.8027870 101.5874740  76.6380050  40.6988780
 105.9354600  73.5523300  48.8705740 105.9527340  74.0031950  49.7147590
 105.6870180  72.6528940  49.0839180 100.9847730  78.0857040  40.2525350
 100.4164630  77.6375290  39.6261260 101.6936730  78.4449820  39.7190500
 109.3625350  70.9655480  54.7092120 109.6871120  70.2345140  55.2350100
 109.3981860  70.6469120  53.8073110  96.0616910  81.9869060  54.1292080
  95.6771700  81.3462730  54.7275040  96.3729100  82.6905180  54.6986810
 102.2114050  78.8345600  49.6100700 102.5784180  78.3604170  50.3562040
 102.0219110  79.7087170  49.9509040  95.0754540  73.5789290  45.7394170
  94.7901460  73.2144960  46.5772790  95.0133400  72.8469750  45.1257310
 100.0013420  77.8754240  51.9284910  99.6970490  78.7546220  52.1535270
 100.9559880  77.9354030  51.9642350  98.5295210  82.0815230  42.5251760
  97.7557470  81.5412850  42.3650480  99.2589840  81.5621840  42.1869520
 109.2883190  81.0780590  48.3178150 110.0082310  81.5735880  47.9274260
 109.0865010  80.3998480  47.6732020 104.7493130  72.4718550  42.4607540
 103.9357740  71.9731720  42.3852850 104.5555080  73.3116800  42.0443890
 104.6701990  81.1489650  54.2047150 104.6039300  80.2285320  53.9504740
 104.0407130  81.2465090  54.9191790 107.4641520  76.8438200  40.7569700
 108.3521140  77.1555430  40.5821040 107.4346610  75.9710450  40.3650280
  98.5732610  81.7495610  46.1630570  99.0911280  80.9463870  46.1087460
  98.1216630  81.6874750  47.0047400 103.4602110  83.0161890  41.4357870
 103.8017810  83.7604120  40.9401190 102.6314820  83.3293010  41.7982700
  96.0577150  78.7156980  53.0756270  95.6992090  79.3810830  53.6629610
  95.7631710  77.8840530  53.4468890  99.2590270  79.1741220  55.9595820
  98.9590410  79.3198400  55.0623640 100.0301510  78.6146510  55.8669210
 104.6018720  83.9710220  53.9550950 104.6163260  83.0391180  53.7369860
 103.8943820  84.0569980  54.5940720 109.7355790  78.1550040  40.2249560
 109.6519510  78.5864260  39.3746000 110.4549980  78.6148390  40.6576380
 110.7643040  85.0092300  42.9531690 110.1219200  84.3547920  43.2275410
 110.3773700  85.4147390  42.1772360 106.3429520  82.3377730  46.8003380
 106.6953340  81.7405860  46.1404750 105.4591850  82.0121960  46.9711630
 102.4292800  83.0975420  44.2073790 103.1163930  83.6444630  44.5881380
 101.6425220  83.6416150  44.2423400  94.5685200  78.7148240  39.6990870
  95.4380050  78.9973040  39.9826790  94.0775520  79.5284110  39.5839680
 101.7320010  80.1021450  43.8199150 102.1882790  80.9126700  44.0459340
 101.3808220  79.7844590  44.6517640 104.0352620  85.6127790  51.0491450
 104.6794840  85.8187170  51.7264870 104.3982060  84.8516190  50.5962300
  97.6331790  70.4459100  44.2921670  97.5046420  70.4377000  45.2406590
  96.8093810  70.7842190  43.9412680 105.3084700  83.6160140  49.7668900
 105.9506930  82.9153300  49.8801070 105.8334050  84.3958580  49.5865790
 109.1540420  83.9008760  39.4908040 108.9278000  83.1839200  40.0832680
 108.7636620  83.6521200  38.6529790 107.0822320  84.4155040  52.9704960
 107.4178560  85.0021730  53.6482880 106.1622660  84.2847750  53.2002750
  94.9356450  87.9275620  40.2652500  95.2954090  88.5264960  39.6109770
  94.7948790  88.4735510  41.0387530  94.6325720  72.2050220  53.7528370
  93.9184240  72.4047140  54.3580980  95.0520760  71.4289790  54.1243170
 108.7356670  81.8180700  41.1522200 108.4478370  82.2793390  41.9400080
 109.5308840  81.3578470  41.4206420  94.9198310  86.1930480  54.7394900
  95.0289430  85.2525220  54.5990290  94.2678870  86.4585230  54.0908630
 102.9110900  84.4646370  56.1393020 102.5907770  83.7455610  56.6838710
 102.2369260  85.1401440  56.2129080 100.9525070  85.3106820  41.0826170
 100.9435170  86.0436510  40.4670680 100.0323430  85.0638400  41.1753130
  96.5531710  80.5321710  41.8272930  95.9459660  81.2720610  41.8368230
  97.0281060  80.6221070  41.0011130 106.1264500  74.6972530  51.5029820
 106.4945320  73.8767740  51.8309390 105.2662700  74.7574420  51.9185470
 109.4926530  73.6529470  42.3117380 108.8639690  73.7575140  41.5975610
 108.9978450  73.8726250  43.1011260 103.9384670  85.3735060  39.7451360
 104.0396650  85.1699050  38.8153340 103.0386410  85.1193340  39.9499140
 101.4610560  75.9315420  43.7275260 100.7526710  76.4001760  44.1688870
 101.7455040  75.2737430  44.3620450 103.0866490  77.3512120  51.7267790
 103.5851740  77.8257940  52.3919640 103.2289440  76.4275640  51.9337820
 105.4925990  72.6566080  45.1671050 105.3693770  72.6752210  44.2180560
 106.4410550  72.7045020  45.2869450 102.5802780  87.8921380  44.4399030
 102.8344280  87.8542770  43.5178400 101.6315260  87.7654710  44.4327280
  99.6645580  74.2400500  41.1025970 100.5136110  74.6770650  41.0366160
  99.2976850  74.5520760  41.9298030 110.2933350  73.5680080  52.5696180
 109.7906950  74.3085480  52.9089990 111.1090010  73.9564080  52.2532970
 108.5855360  78.8113260  46.0157540 107.6445500  78.8263490  46.1905230
 108.8999430  78.0249220  46.4617840  98.5637000  80.4932860  39.5761500
  99.3300270  80.3814220  40.1386930  98.6411690  79.7970830  38.9238270
  97.2583760  77.9257930  40.2594390  97.3387350  76.9785440  40.3711790
  98.1503510  78.2564810  40.3655050  98.0598470  88.0753320  47.3628930
  98.7960950  87.5268780  47.6337500  98.4439390  88.9409330  47.2234920
  94.9443950  84.1426890  43.2370440  94.0183730  84.3848030  43.2275850
  95.4100380  84.9701150  43.1155190  97.0656750  87.2599390  56.5514510
  97.8669480  87.5811440  56.9649910  96.5508570  86.8994970  57.2734420
 101.1700780  87.2483630  39.1854500 101.9629390  87.5372460  38.7336290
 100.6505130  86.8175800  38.5066980 105.9021380  83.3679260  56.4989920
 105.2959540  83.3910860  55.7585670 105.5975490  82.6362300  57.0357170
 107.3321750  87.0959550  55.1099330 108.2843500  87.0117570  55.0599570
 107.1849970  87.7601260  55.7833120 110.2230950  86.4753760  40.6091240
 109.9372460  86.0618900  39.7945420 110.0250500  87.4041470  40.4891760
  94.7854560  79.7472850  55.4950560  95.2893580  79.1680130  56.0666790
  94.0461980  80.0313080  56.0326930 101.6878180  82.4687040  39.0496850
 101.5828820  81.8539390  39.7758230 101.5202400  81.9452930  38.2659860
 101.8392500  81.1543840  55.0286080 101.0738170  81.7228840  54.9440750
 102.0208460  80.8620050  54.1354310 104.9280910  81.5307070  39.6538840
 104.3791010  81.9776370  40.2981580 105.5500170  81.0256320  40.1776510
 108.9815850  82.8849170  55.5861100 109.7225320  83.2224930  55.0828560
 108.2188530  83.0541230  55.0330870  96.8177640  77.8902440  56.3900630
  96.8582980  77.5916310  57.2985860  97.6723140  78.2910050  56.2308150
 100.5956030  80.4897990  41.5504140 101.0172450  80.3237860  42.3935530
 100.7206870  79.6798220  41.0559280  98.7583450  76.4694540  54.3575120
  98.2279910  75.9785490  53.7298460  99.4271520  76.8978740  53.8233050
 103.1083670  79.5135600  38.7981240 103.6289330  78.7984620  38.4322390
 103.7552070  80.1521470  39.0981750 107.6561510  80.9364000  54.1216310
 108.0702530  81.0909080  54.9706730 106.7212510  81.0619220  54.2842090
 108.1283680  78.2760160  56.1255460 108.7104450  77.5212480  56.0375940
 108.3045450  78.8067600  55.3486940  99.2455750  73.4356910  54.4372410
  99.1512620  72.8177660  53.7123280  98.6653140  74.1623200  54.2102320
 102.0117190  71.9930150  51.4699800 101.5634490  72.0154410  50.6245350
 101.3782390  71.5949170  52.0670100 102.4176740  80.8884480  52.0912240
 102.8364850  81.7317210  51.9188480 101.4985370  81.0256520  51.8619020
 104.7540640  78.6200660  53.4750080 104.8736850  78.0241800  54.2144920
 105.6134640  78.6570350  53.0551380 107.0928540  79.1737850  52.0512590
 106.5663760  79.6980470  51.4477730 107.4359880  79.8065240  52.6822320
  99.4914930  76.5631220  38.4962300  99.2903990  75.6998580  38.8575640
  99.3206980  76.4764580  37.5583900 100.2684160  87.1937490  53.2069970
  99.7305250  87.9183550  52.8878670 100.5218120  86.7167830  52.4167310
 101.5209410  75.1622010  54.7325900 102.1109100  74.8537860  55.4203720
 100.7029650  74.6901760  54.8885800 106.3402840  74.7787820  54.9658920
 105.6518360  74.1169360  54.9008910 107.0608860  74.3326090  55.4107380
 106.9703240  71.3739450  41.0249180 107.2505530  70.5307350  41.3808600
 106.1968970  71.6062560  41.5387930  98.2897730  73.6631840  38.4840180
  98.5923630  73.6699270  37.5759330  99.0292320  73.3129700  38.9807840
 103.1246370  88.4288700  53.4656620 103.0505070  89.3323840  53.7728990
 102.2225210  88.1100600  53.4378690 101.5082660  72.6066460  39.4696380
 101.1604660  71.9290450  38.8898830 101.7095430  72.1455970  40.2839770
 103.6731700  87.5947210  41.0882980 104.5682490  87.9332180  41.1101740
 103.7049330  86.8726620  40.4607260  97.3127860  82.9674260  39.3169980
  97.7502730  83.5103930  39.9727560  97.7975590  82.1421210  39.3266320
  94.5273660  85.7563290  46.7690240  94.8576670  84.8884350  46.5368880
  94.9564660  85.9621810  47.5995200  99.1235580  84.0872300  44.4292210
  98.8231120  83.9637270  45.3296120  99.0173070  83.2280890  44.0207940
  95.0163870  86.6233880  49.5071870  94.5794860  86.8034680  50.3396020
  95.5841550  87.3808500  49.3653590 110.6526050  86.1250880  53.7949180
 110.0528040  86.1843440  53.0513100 110.7819950  85.1855860  53.9246030
  94.8488300  79.1354110  45.8660750  94.1937140  78.8665750  45.2220450
  95.6866250  79.0258590  45.4162730 109.3377690  82.8502860  51.8925340
 108.5237530  83.2800020  52.1551130 109.7451890  83.4621270  51.2794390
 107.7978740  73.9295400  40.0879240 108.2163620  73.7426380  39.2475900
 107.4914800  73.0774450  40.3982170  95.8864230  79.5206680  50.4064090
  96.2537270  79.4334080  51.2860110  95.3175050  78.7573230  50.3070950
 110.6868090  77.9891060  53.4194560 110.4554180  77.7603810  52.5192510
 110.9472640  78.9090610  53.3739450  95.4380230  76.4315770  54.3122510
  94.5436280  76.3982530  54.6516220  95.9777780  76.6302560  55.0773760
 109.1256160  73.2147490  56.1974260 110.0026340  73.2230890  56.5808260
 109.1377000  72.4778330  55.5866610  94.0626380  76.3453040  41.8086080
  93.1590460  76.6083240  41.6337740  94.5467000  76.6164210  41.0286040
 110.5719430  77.0677030  47.0862280 111.0956910  76.5739680  46.4552450
 111.1578850  77.2027390  47.8309850 110.7509150  77.1516900  50.6081830
 109.8011860  77.1180440  50.7226820 110.9322160  78.0617010  50.3731600
  96.6053590  75.4018580  39.7180460  97.3145290  74.9801800  39.2327740
  95.8893530  75.4693810  39.0863810  96.2527750  71.4557910  38.7583110
  96.9755880  71.9966850  39.0764330  96.5252270  71.1821330  37.8824650
 110.0619400  76.3250380  43.0254690 110.5578520  76.0921250  43.8103570
 109.8635470  75.4862220  42.6092330  95.9419940  70.7064100  48.6605730
  96.5896130  70.1561480  48.2200890  96.3621780  70.9607250  49.4821540
 109.8372280  70.9005460  52.0175370 110.4744500  71.5139600  52.3834560
 109.9847170  70.9366120  51.0724600 109.3953740  87.6021460  45.4193610
 109.9912810  87.2806030  44.7428030 109.6531890  87.1293280  46.2106880
  95.6951940  70.8619770  51.4031050  95.3466760  71.3183590  52.1689230
  95.3639640  69.9676900  51.4853480  97.3016310  84.0339370  55.5684240
  97.2585940  83.6632280  56.4498700  97.4327320  84.9716940  55.7086060
 101.0022340  85.5898960  51.1693960 100.7613700  85.8573520  50.2824480
 101.9424980  85.7604690  51.2244820 103.2076760  72.0531650  54.9250470
 103.1465650  72.6453480  55.6745880 104.1477140  71.9457610  54.7800730
 105.8451320  71.7101710  54.5642760 106.4591730  72.0281000  53.9023840
 106.3900880  71.2250300  55.1838620  96.3672580  70.3895970  54.6781820
  96.9155570  70.2084020  53.9147930  96.4327890  69.5990080  55.2138130
  97.1404340  86.9801620  52.6882020  96.5464660  86.8486320  53.4272060
  97.1328180  86.1439760  52.2224120 106.5859360  70.2733850  50.8912050
 105.7119200  70.6068960  50.6884980 106.4770110  69.8007030  51.7163920
 107.4931340  72.4804720  52.2753770 107.1644700  71.6656480  51.8955500
 108.4413640  72.4374530  52.1519460 109.9465950  88.2516760  49.2491340
 109.4868920  89.0032570  48.8749360 109.3178410  87.5323230  49.1906140
  96.7716570  84.3460000  51.6390060  96.0450630  83.7265290  51.5716010
  96.8325720  84.7400610  50.7688140 100.3761670  86.5605000  48.4239470
 100.8926690  85.9492360  47.8987730 101.0259050  87.0633780  48.9150480
 103.1157170  87.4513490  49.2508450 103.4034980  87.1967790  48.3741460
 103.6280390  86.8990850  49.8414020 104.3334180  71.1903690  49.8304960
 103.5505970  71.6649190  50.1101720 104.0397110  70.2858520  49.7218140
 108.8855250  71.8926790  47.8754050 109.3263340  71.8371890  47.0275650
 108.6162840  72.8084800  47.9464230  95.0546570  87.6634390  44.8486820
  94.8868610  87.0305070  45.5468710  94.1881080  87.8693790  44.4981010
  95.6774590  71.4951170  42.3518680  96.4353950  71.6080050  41.7782710
  95.2151760  72.3320370  42.3062110 102.2188400  73.6090440  45.3420990
 101.4062910  73.2347330  45.0016870 102.7230040  72.8535520  45.6442180
 106.7213380  70.2732890  46.5804060 107.3242750  70.8453100  47.0552580
 105.9806370  70.8372330  46.3577960 109.8647980  70.6754450  41.8544340
 110.0598610  71.5737900  42.1211770 109.0777850  70.4441530  42.3477290
  96.6609270  86.3567620  42.2936960  96.1356890  86.7375650  41.5898920
  96.5853850  86.9818390  43.0146670  98.0499740  72.0215220  40.8920650
  98.5792500  71.2345020  40.7628600  98.6828060  72.7006410  41.1256180
 100.2437580  71.7590360  43.9466040  99.6140320  71.0577670  44.1136170
  99.7042720  72.5194490  43.7299200 103.1829530  88.3729590  56.6176650
 104.1096840  88.1373860  56.6612610 103.1679960  89.2001590  56.1362680
 100.3693140  71.0374340  56.3818530 100.0877410  71.5407940  55.6179350
 100.7512840  70.2396090  56.0160660  99.2602240  88.3050000  41.1686210
  99.9921060  88.0209280  40.6210100  99.5195910  88.0663280  42.0585590
  98.4217030  84.4214730  41.1732540  97.7925910  84.8899830  41.7218370
  98.5364860  83.5763950  41.6078730 106.9708600  70.4527920  56.9599000
 106.8574050  70.7722530  57.8550520 107.7878340  70.8540430  56.6636280
 109.7507090  87.5999450  56.4417690 110.5432410  87.1048680  56.2343650
 110.0440240  88.2789590  57.0493300 105.8766750  78.4720390  27.3233740
 105.7960800  77.5575000  27.0525450 105.4631170  78.9687460  26.6173450
 104.0084790  80.2499410  29.2043010 103.2326890  79.7699850  29.4941580
 104.6597720  79.5705060  29.0299170  98.0250620  80.5619220  30.0818770
  97.1935500  80.3067930  30.4815280  98.6331600  80.6329990  30.8176690
 108.0292220  84.6559600  27.9842140 107.5673750  83.8846840  28.3129310
 108.8417770  84.6825670  28.4894590  98.0051880  84.5959310  30.2776790
  98.3079920  83.7057050  30.0987010  98.7495470  85.1529530  30.0499040
  96.4342570  75.5221110  23.8661160  95.5459270  75.8637080  23.7641040
  96.7183760  75.3221430  22.9741990  94.3975580  78.1226760  29.7500860
  94.9691690  77.3548960  29.7504500  94.3977120  78.4215520  28.8407470
 104.2555530  86.9417610  27.6046130 103.6366970  87.3975110  27.0340570
 105.1107310  87.0969070  27.2035830 103.4493780  82.9256600  29.2113170
 103.3802060  81.9846540  29.0502300 104.2113640  83.0158010  29.7835740
  95.6400450  73.5311120  31.5369790  95.4603290  72.6336870  31.8172550
  95.2380530  74.0782990  32.2116740 104.4798950  75.7326980  29.4382100
 104.8563770  74.8598860  29.3255770 104.3818460  76.0685680  28.5472540
  98.6103960  74.1052610  24.8999540  98.7170710  75.0056340  25.2068300
  97.6996320  74.0570580  24.6094190 108.2623070  73.2277420  26.3710440
 109.0832690  72.7373990  26.4135920 108.2957150  73.8175080  27.1242280
  96.2587120  76.0271620  30.1452130  96.9397230  76.2909990  30.7639530
  95.9435170  75.1872490  30.4790140 100.4511690  77.0738980  29.2324720
 100.9589910  77.5719950  29.8729740 100.9824930  76.2974180  29.0564080
  98.7347790  71.7137540  33.4988140  98.7366230  72.2309930  32.6934040
  97.9052100  71.2367720  33.4758070 105.1218880  81.8256850  24.9978040
 104.5036150  82.2906300  24.4340760 105.6342130  82.5184330  25.4147550
  99.9850640  81.3532720  31.6761640  99.6520020  81.9801640  32.3182710
 100.1617320  81.8794600  30.8963310 108.4984550  75.1677800  29.1437980
 107.7940120  75.4562690  29.7241090 108.8596710  75.9777910  28.7837540
  98.4163120  73.4247500  31.5058590  98.7579930  74.2689550  31.2112460
  97.4778930  73.5731240  31.6223930  99.1969740  83.3213520  33.4910820
  99.8143740  83.9964600  33.2095270  98.3362860  83.7301500  33.3998320
  94.4902080  82.5113380  22.3717670  94.1130060  83.0000480  21.6402570
  94.7475150  83.1838660  23.0024200 110.1147330  84.7852930  31.4065460
 109.4310850  85.4552040  31.3982130 110.6541620  84.9833580  30.6410320
 102.0991010  70.9129770  27.8303180 102.4065990  70.3576660  27.1138680
 101.1691710  71.0474230  27.6476170 107.6506070  86.6297060  30.1210640
 107.6633230  86.2259350  29.2532900 107.0981290  87.4044350  30.0172070
 108.9451490  83.3513280  25.2100810 108.8347820  82.4087610  25.3350230
 108.9419740  83.7128920  26.0963570 107.0491510  81.5326900  31.4493250
 107.4660300  81.3187010  30.6146710 107.7731330  81.7899690  32.0201870
 104.4871770  78.9778600  24.5663300 103.5601050  78.9115980  24.7951770
 104.6396590  79.9158730  24.4518540 104.4740850  75.2495600  21.5630460
 103.5344520  75.4109560  21.6482920 104.7924110  75.9681280  21.0166450
 108.5169060  80.5398900  25.0698550 107.8981480  80.2018450  24.4224850
 108.4993510  79.8958660  25.7777740 107.9595620  76.7183440  32.4864360
 107.5466800  77.5437150  32.7404350 107.2271570  76.1328480  32.2940720
 100.0928410  79.5043340  27.3483030  99.6885410  78.7920590  26.8528930
 100.1791530  79.1596580  28.2371070 100.5610110  83.1910900  29.5122240
 100.2638400  82.5856370  28.8330020 101.5109930  83.2288210  29.4011600
  98.8057030  76.2786550  31.1282070  99.3571620  76.3881890  30.3535320
  99.3200540  76.6524150  31.8437300 108.6495720  86.7642770  33.1745340
 108.1726280  87.5714960  32.9817950 107.9657510  86.1121100  33.3271550
  99.6528540  82.9292590  36.1630040  98.7557070  83.1532560  36.4103440
  99.6781410  83.0527530  35.2141440 106.6933760  79.7785710  22.0771300
 107.1327040  78.9408140  21.9309120 107.4062180  80.4115110  22.1635440
  98.4799760  79.8005910  34.7387410  98.3407530  80.6728710  35.1074810
  97.5981120  79.4578720  34.5935350 104.8029140  84.7181780  26.0452540
 105.2425050  85.4606110  25.6307930 104.7416030  84.9608350  26.9691500
 100.2780110  85.7427610  36.9472560 100.2495540  86.1470560  36.0800990
 100.1145080  84.8137970  36.7844160 110.2750900  71.0328520  20.3912340
 109.9623560  71.1255350  21.2911410 111.0363370  71.6109550  20.3409770
  96.7933040  78.3988320  24.8489680  96.6730640  79.1250410  24.2370950
  96.4833930  77.6291230  24.3717590  94.4318410  81.5703460  30.6558320
  94.5098830  81.7052230  29.7114040  95.0460090  80.8619350  30.8486440
  95.6766040  83.2703650  27.0664500  95.2694120  83.4118240  26.2118100
  96.5679050  82.9863810  26.8635710 105.4944920  87.4195560  33.9731550
 106.0089590  87.3303570  34.7753980 104.6514000  87.7655260  34.2659460
 107.4699320  87.7050900  23.4015550 107.3100460  87.4153840  24.2997380
 107.3046030  86.9291030  22.8660780  99.9487700  87.4849430  25.1787170
  99.7730180  86.5684970  24.9654970  99.0943440  87.8436720  25.4184970
 107.1725450  85.2138460  21.9613550 106.4790610  85.2115750  21.3015830
 107.9148310  84.7897780  21.5307720 106.7375380  86.8401170  26.0362040
 107.1932330  86.0590550  26.3500660 107.0767900  87.5507990  26.5803220
  94.4877930  82.6117630  33.1952780  94.6508970  82.1422990  32.3772150
  94.9530380  82.1041190  33.8601620  99.2596700  71.7423390  28.2313350
  98.8164850  72.5232930  27.8997870  99.8181690  72.0653280  28.9384290
 103.5466510  74.6091910  33.8348670 103.0845880  74.8174930  34.6468610
 103.1444620  73.7951260  33.5319340 108.5471020  75.8300860  34.9645330
 107.6964610  75.5306610  35.2854400 108.3872810  76.0742870  34.0529150
 105.6420730  77.3302610  37.0644120 105.9674140  76.4966360  36.7246350
 106.4301060  77.8531130  37.2122450 102.3755520  71.3634090  23.1119180
 101.7509700  71.3593960  23.8372490 102.2885640  70.4965050  22.7155150
 101.2972600  72.2870720  30.0902950 101.5944930  73.1933550  30.0094970
 101.8458160  71.7989500  29.4762520  99.0510920  76.8656960  25.9594600
  98.8251840  76.6494130  26.8641220  98.2703450  77.2985420  25.6140570
 106.2808680  76.8720330  24.5585250 105.6817570  77.5956130  24.3748870
 106.8288290  76.8097110  23.7761700 101.4910130  77.7642540  36.6254870
 101.3953730  76.8237270  36.4755270 102.3342110  77.9857610  36.2302940
 104.8873550  75.5083870  26.5888530 105.2803120  75.8256070  25.7757220
 105.2490400  74.6295750  26.7033050  96.6220670  74.1756210  34.7788650
  96.2284060  75.0231420  34.9861430  95.9339070  73.5382580  34.9697290
 103.1965720  74.2591180  37.8485390 102.5064040  74.0663380  38.4831480
 103.9398020  74.5425820  38.3809690  93.9237720  72.0984670  28.8118730
  93.6350770  72.6687530  29.5243710  94.6683480  71.6189120  29.1749960
  94.1107950  76.0404790  20.0221450  94.0282620  76.9835550  20.1636440
  93.7591010  75.8979700  19.1433800 105.4728690  78.0989620  30.6839310
 104.7409810  78.6076430  31.0329410 105.0753030  77.2819600  30.3828090
 101.9106080  74.7743820  29.0891800 101.9142140  74.3333770  28.2396340
 102.8057200  75.0961150  29.1963620  97.7608460  74.6570310  28.0486010
  97.4208510  75.1345540  28.8053060  96.9985780  74.2035430  27.6887110
 101.9726230  75.7755900  22.0798560 102.0939050  75.7342380  23.0284380
 101.5874740  76.6380050  21.9245290 105.9354600  73.5523300  30.0962250
 105.9527340  74.0031950  30.9404100 105.6870180  72.6528940  30.3095690
 100.9847730  78.0857040  21.4781860 100.4164630  77.6375290  20.8517770
 101.6936730  78.4449820  20.9447010 109.3625350  70.9655480  35.9348630
 109.6871120  70.2345140  36.4606610 109.3981860  70.6469120  35.0329620
  96.0616910  81.9869060  35.3548590  95.6771700  81.3462730  35.9531550
  96.3729100  82.6905180  35.9243320 102.2114050  78.8345600  30.8357210
 102.5784180  78.3604170  31.5818550 102.0219110  79.7087170  31.1765550
  95.0754540  73.5789290  26.9650680  94.7901460  73.2144960  27.8029300
  95.0133400  72.8469750  26.3513820 100.0013420  77.8754240  33.1541420
  99.6970490  78.7546220  33.3791780 100.9559880  77.9354030  33.1898860
  98.5295210  82.0815230  23.7508270  97.7557470  81.5412850  23.5906990
  99.2589840  81.5621840  23.4126030 109.2883190  81.0780590  29.5434660
 110.0082310  81.5735880  29.1530770 109.0865010  80.3998480  28.8988530
 104.7493130  72.4718550  23.6864050 103.9357740  71.9731720  23.6109360
 104.5555080  73.3116800  23.2700400 104.6701990  81.1489650  35.4303660
 104.6039300  80.2285320  35.1761250 104.0407130  81.2465090  36.1448300
 107.4641520  76.8438200  21.9826210 108.3521140  77.1555430  21.8077550
 107.4346610  75.9710450  21.5906790  98.5732610  81.7495610  27.3887080
  99.0911280  80.9463870  27.3343970  98.1216630  81.6874750  28.2303910
 103.4602110  83.0161890  22.6614380 103.8017810  83.7604120  22.1657700
 102.6314820  83.3293010  23.0239210  96.0577150  78.7156980  34.3012780
  95.6992090  79.3810830  34.8886120  95.7631710  77.8840530  34.6725400
  99.2590270  79.1741220  37.1852330  98.9590410  79.3198400  36.2880150
 100.0301510  78.6146510  37.0925720 104.6018720  83.9710220  35.1807460
 104.6163260  83.0391180  34.9626370 103.8943820  84.0569980  35.8197230
 109.7355790  78.1550040  21.4506070 109.6519510  78.5864260  20.6002510
 110.4549980  78.6148390  21.8832890 110.7643040  85.0092300  24.1788200
 110.1219200  84.3547920  24.4531920 110.3773700  85.4147390  23.4028870
 106.3429520  82.3377730  28.0259890 106.6953340  81.7405860  27.3661260
 105.4591850  82.0121960  28.1968140 102.4292800  83.0975420  25.4330300
 103.1163930  83.6444630  25.8137890 101.6425220  83.6416150  25.4679910
  94.5685200  78.7148240  20.9247380  95.4380050  78.9973040  21.2083300
  94.0775520  79.5284110  20.8096190 101.7320010  80.1021450  25.0455660
 102.1882790  80.9126700  25.2715850 101.3808220  79.7844590  25.8774150
 104.0352620  85.6127790  32.2747960 104.6794840  85.8187170  32.9521380
 104.3982060  84.8516190  31.8218810  97.6331790  70.4459100  25.5178180
  97.5046420  70.4377000  26.4663100  96.8093810  70.7842190  25.1669190
 105.3084700  83.6160140  30.9925410 105.9506930  82.9153300  31.1057580
 105.8334050  84.3958580  30.8122300 109.1540420  83.9008760  20.7164550
 108.9278000  83.1839200  21.3089190 108.7636620  83.6521200  19.8786300
 107.0822320  84.4155040  34.1961470 107.4178560  85.0021730  34.8739390
 106.1622660  84.2847750  34.4259260  94.9356450  87.9275620  21.4909010
  95.2954090  88.5264960  20.8366280  94.7948790  88.4735510  22.2644040
  94.6325720  72.2050220  34.9784880  93.9184240  72.4047140  35.5837490
  95.0520760  71.4289790  35.3499680 108.7356670  81.8180700  22.3778710
 108.4478370  82.2793390  23.1656590 109.5308840  81.3578470  22.6462930
  94.9198310  86.1930480  35.9651410  95.0289430  85.2525220  35.8246800
  94.2678870  86.4585230  35.3165140 102.9110900  84.4646370  37.3649530
 102.5907770  83.7455610  37.9095220 102.2369260  85.1401440  37.4385590
 100.9525070  85.3106820  22.3082680 100.9435170  86.0436510  21.6927190
 100.0323430  85.0638400  22.4009640  96.5531710  80.5321710  23.0529440
  95.9459660  81.2720610  23.0624740  97.0281060  80.6221070  22.2267640
 106.1264500  74.6972530  32.7286330 106.4945320  73.8767740  33.0565900
 105.2662700  74.7574420  33.1441980 109.4926530  73.6529470  23.5373890
 108.8639690  73.7575140  22.8232120 108.9978450  73.8726250  24.3267770
 103.9384670  85.3735060  20.9707870 104.0396650  85.1699050  20.0409850
 103.0386410  85.1193340  21.1755650 101.4610560  75.9315420  24.9531770
 100.7526710  76.4001760  25.3945380 101.7455040  75.2737430  25.5876960
 103.0866490  77.3512120  32.9524300 103.5851740  77.8257940  33.6176150
 103.2289440  76.4275640  33.1594330 105.4925990  72.6566080  26.3927560
 105.3693770  72.6752210  25.4437070 106.4410550  72.7045020  26.5125960
 102.5802780  87.8921380  25.6655540 102.8344280  87.8542770  24.7434910
 101.6315260  87.7654710  25.6583790  99.6645580  74.2400500  22.3282480
 100.5136110  74.6770650  22.2622670  99.2976850  74.5520760  23.1554540
 110.2933350  73.5680080  33.7952690 109.7906950  74.3085480  34.1346500
 111.1090010  73.9564080  33.4789480 108.5855360  78.8113260  27.2414050
 107.6445500  78.8263490  27.4161740 108.8999430  78.0249220  27.6874350
  98.5637000  80.4932860  20.8018010  99.3300270  80.3814220  21.3643440
  98.6411690  79.7970830  20.1494780  97.2583760  77.9257930  21.4850900
  97.3387350  76.9785440  21.5968300  98.1503510  78.2564810  21.5911560
  98.0598470  88.0753320  28.5885440  98.7960950  87.5268780  28.8594010
  98.4439390  88.9409330  28.4491430  94.9443950  84.1426890  24.4626950
  94.0183730  84.3848030  24.4532360  95.4100380  84.9701150  24.3411700
  97.0656750  87.2599390  37.7771020  97.8669480  87.5811440  38.1906420
  96.5508570  86.8994970  38.4990930 101.1700780  87.2483630  20.4111010
 101.9629390  87.5372460  19.9592800 100.6505130  86.8175800  19.7323490
 105.9021380  83.3679260  37.7246430 105.2959540  83.3910860  36.9842180
 105.5975490  82.6362300  38.2613680 107.3321750  87.0959550  36.3355840
 108.2843500  87.0117570  36.2856080 107.1849970  87.7601260  37.0089630
 110.2230950  86.4753760  21.8347750 109.9372460  86.0618900  21.0201930
 110.0250500  87.4041470  21.7148270  94.7854560  79.7472850  36.7207070
  95.2893580  79.1680130  37.2923300  94.0461980  80.0313080  37.2583440
 101.6878180  82.4687040  20.2753360 101.5828820  81.8539390  21.0014740
 101.5202400  81.9452930  19.4916370 101.8392500  81.1543840  36.2542590
 101.0738170  81.7228840  36.1697260 102.0208460  80.8620050  35.3610820
 104.9280910  81.5307070  20.8795350 104.3791010  81.9776370  21.5238090
 105.5500170  81.0256320  21.4033020 108.9815850  82.8849170  36.8117610
 109.7225320  83.2224930  36.3085070 108.2188530  83.0541230  36.2587380
  96.8177640  77.8902440  37.6157140  96.8582980  77.5916310  38.5242370
  97.6723140  78.2910050  37.4564660 100.5956030  80.4897990  22.7760650
 101.0172450  80.3237860  23.6192040 100.7206870  79.6798220  22.2815790
  98.7583450  76.4694540  35.5831630  98.2279910  75.9785490  34.9554970
  99.4271520  76.8978740  35.0489560 103.1083670  79.5135600  20.0237750
 103.6289330  78.7984620  19.6578900 103.7552070  80.1521470  20.3238260
 107.6561510  80.9364000  35.3472820 108.0702530  81.0909080  36.1963240
 106.7212510  81.0619220  35.5098600 108.1283680  78.2760160  37.3511970
 108.7104450  77.5212480  37.2632450 108.3045450  78.8067600  36.5743450
  99.2455750  73.4356910  35.6628920  99.1512620  72.8177660  34.9379790
  98.6653140  74.1623200  35.4358830 102.0117190  71.9930150  32.6956310
 101.5634490  72.0154410  31.8501860 101.3782390  71.5949170  33.2926610
 102.4176740  80.8884480  33.3168750 102.8364850  81.7317210  33.1444990
 101.4985370  81.0256520  33.0875530 104.7540640  78.6200660  34.7006590
 104.8736850  78.0241800  35.4401430 105.6134640  78.6570350  34.2807890
 107.0928540  79.1737850  33.2769100 106.5663760  79.6980470  32.6734240
 107.4359880  79.8065240  33.9078830  99.4914930  76.5631220  19.7218810
  99.2903990  75.6998580  20.0832150  99.3206980  76.4764580  18.7840410
 100.2684160  87.1937490  34.4326480  99.7305250  87.9183550  34.1135180
 100.5218120  86.7167830  33.6423820 101.5209410  75.1622010  35.9582410
 102.1109100  74.8537860  36.6460230 100.7029650  74.6901760  36.1142310
 106.3402840  74.7787820  36.1915430 105.6518360  74.1169360  36.1265420
 107.0608860  74.3326090  36.6363890 106.9703240  71.3739450  22.2505690
 107.2505530  70.5307350  22.6065110 106.1968970  71.6062560  22.7644440
  98.2897730  73.6631840  19.7096690  98.5923630  73.6699270  18.8015840
  99.0292320  73.3129700  20.2064350 103.1246370  88.4288700  34.6913130
 103.0505070  89.3323840  34.9985500 102.2225210  88.1100600  34.6635200
 101.5082660  72.6066460  20.6952890 101.1604660  71.9290450  20.1155340
 101.7095430  72.1455970  21.5096280 103.6731700  87.5947210  22.3139490
 104.5682490  87.9332180  22.3358250 103.7049330  86.8726620  21.6863770
  97.3127860  82.9674260  20.5426490  97.7502730  83.5103930  21.1984070
  97.7975590  82.1421210  20.5522830  94.5273660  85.7563290  27.9946750
  94.8576670  84.8884350  27.7625390  94.9564660  85.9621810  28.8251710
  99.1235580  84.0872300  25.6548720  98.8231120  83.9637270  26.5552630
  99.0173070  83.2280890  25.2464450  95.0163870  86.6233880  30.7328380
  94.5794860  86.8034680  31.5652530  95.5841550  87.3808500  30.5910100
 110.6526050  86.1250880  35.0205690 110.0528040  86.1843440  34.2769610
 110.7819950  85.1855860  35.1502540  94.8488300  79.1354110  27.0917260
  94.1937140  78.8665750  26.4476960  95.6866250  79.0258590  26.6419240
 109.3377690  82.8502860  33.1181850 108.5237530  83.2800020  33.3807640
 109.7451890  83.4621270  32.5050900 107.7978740  73.9295400  21.3135750
 108.2163620  73.7426380  20.4732410 107.4914800  73.0774450  21.6238680
  95.8864230  79.5206680  31.6320600  96.2537270  79.4334080  32.5116620
  95.3175050  78.7573230  31.5327460 110.6868090  77.9891060  34.6451070
 110.4554180  77.7603810  33.7449020 110.9472640  78.9090610  34.5995960
  95.4380230  76.4315770  35.5379020  94.5436280  76.3982530  35.8772730
  95.9777780  76.6302560  36.3030270 109.1256160  73.2147490  37.4230770
 110.0026340  73.2230890  37.8064770 109.1377000  72.4778330  36.8123120
  94.0626380  76.3453040  23.0342590  93.1590460  76.6083240  22.8594250
  94.5467000  76.6164210  22.2542550 110.5719430  77.0677030  28.3118790
 111.0956910  76.5739680  27.6808960 111.1578850  77.2027390  29.0566360
 110.7509150  77.1516900  31.8338340 109.8011860  77.1180440  31.9483330
 110.9322160  78.0617010  31.5988110  96.6053590  75.4018580  20.9436970
  97.3145290  74.9801800  20.4584250  95.8893530  75.4693810  20.3120320
  96.2527750  71.4557910  19.9839620  96.9755880  71.9966850  20.3020840
  96.5252270  71.1821330  19.1081160 110.0619400  76.3250380  24.2511200
 110.5578520  76.0921250  25.0360080 109.8635470  75.4862220  23.8348840
  95.9419940  70.7064100  29.8862240  96.5896130  70.1561480  29.4457400
  96.3621780  70.9607250  30.7078050 109.8372280  70.9005460  33.2431880
 110.4744500  71.5139600  33.6091070 109.9847170  70.9366120  32.2981110
 109.3953740  87.6021460  26.6450120 109.9912810  87.2806030  25.9684540
 109.6531890  87.1293280  27.4363390  95.6951940  70.8619770  32.6287560
  95.3466760  71.3183590  33.3945740  95.3639640  69.9676900  32.7109990
  97.3016310  84.0339370  36.7940750  97.2585940  83.6632280  37.6755210
  97.4327320  84.9716940  36.9342570 101.0022340  85.5898960  32.3950470
 100.7613700  85.8573520  31.5080990 101.9424980  85.7604690  32.4501330
 103.2076760  72.0531650  36.1506980 103.1465650  72.6453480  36.9002390
 104.1477140  71.9457610  36.0057240 105.8451320  71.7101710  35.7899270
 106.4591730  72.0281000  35.1280350 106.3900880  71.2250300  36.4095130
  96.3672580  70.3895970  35.9038330  96.9155570  70.2084020  35.1404440
  96.4327890  69.5990080  36.4394640  97.1404340  86.9801620  33.9138530
  96.5464660  86.8486320  34.6528570  97.1328180  86.1439760  33.4480630
 106.5859360  70.2733850  32.1168560 105.7119200  70.6068960  31.9141490
 106.4770110  69.8007030  32.9420430 107.4931340  72.4804720  33.5010280
 107.1644700  71.6656480  33.1212010 108.4413640  72.4374530  33.3775970
 109.9465950  88.2516760  30.4747850 109.4868920  89.0032570  30.1005870
 109.3178410  87.5323230  30.4162650  96.7716570  84.3460000  32.8646570
  96.0450630  83.7265290  32.7972520  96.8325720  84.7400610  31.9944650
 100.3761670  86.5605000  29.6495980 100.8926690  85.9492360  29.1244240
 101.0259050  87.0633780  30.1406990 103.1157170  87.4513490  30.4764960
 103.4034980  87.1967790  29.5997970 103.6280390  86.8990850  31.0670530
 104.3334180  71.1903690  31.0561470 103.5505970  71.6649190  31.3358230
 104.0397110  70.2858520  30.9474650 108.8855250  71.8926790  29.1010560
 109.3263340  71.8371890  28.2532160 108.6162840  72.8084800  29.1720740
  95.0546570  87.6634390  26.0743330  94.8868610  87.0305070  26.7725220
  94.1881080  87.8693790  25.7237520  95.6774590  71.4951170  23.5775190
  96.4353950  71.6080050  23.0039220  95.2151760  72.3320370  23.5318620
 102.2188400  73.6090440  26.5677500 101.4062910  73.2347330  26.2273380
 102.7230040  72.8535520  26.8698690 106.7213380  70.2732890  27.8060570
 107.3242750  70.8453100  28.2809090 105.9806370  70.8372330  27.5834470
 109.8647980  70.6754450  23.0800850 110.0598610  71.5737900  23.3468280
 109.0777850  70.4441530  23.5733800  96.6609270  86.3567620  23.5193470
  96.1356890  86.7375650  22.8155430  96.5853850  86.9818390  24.2403180
  98.0499740  72.0215220  22.1177160  98.5792500  71.2345020  21.9885110
  98.6828060  72.7006410  22.3512690 100.2437580  71.7590360  25.1722550
  99.6140320  71.0577670  25.3392680  99.7042720  72.5194490  24.9555710
 103.1829530  88.3729590  37.8433160 104.1096840  88.1373860  37.8869120
 103.1679960  89.2001590  37.3619190 100.3693140  71.0374340  37.6075040
 100.0877410  71.5407940  36.8435860 100.7512840  70.2396090  37.2417170
  99.2602240  88.3050000  22.3942720  99.9921060  88.0209280  21.8466610
  99.5195910  88.0663280  23.2842100  98.4217030  84.4214730  22.3989050
  97.7925910  84.8899830  22.9474880  98.5364860  83.5763950  22.8335240
 106.9708600  70.4527920  38.1855510 106.8574050  70.7722530  39.0807030
 107.7878340  70.8540430  37.8892790 109.7507090  87.5999450  37.6674200
 110.5432410  87.1048680  37.4600160 110.0440240  88.2789590  38.2749810
 105.8766750  78.4720390   8.5490250 105.7960800  77.5575000   8.2781960
 105.4631170  78.9687460   7.8429960 104.0084790  80.2499410  10.4299520
 103.2326890  79.7699850  10.7198090 104.6597720  79.5705060  10.2555680
  98.0250620  80.5619220  11.3075280  97.1935500  80.3067930  11.7071790
  98.6331600  80.6329990  12.0433200 108.0292220  84.6559600   9.2098650
 107.5673750  83.8846840   9.5385820 108.8417770  84.6825670   9.7151100
  98.0051880  84.5959310  11.5033300  98.3079920  83.7057050  11.3243520
  98.7495470  85.1529530  11.2755550  96.4342570  75.5221110   5.0917670
  95.5459270  75.8637080   4.9897550  96.7183760  75.3221430   4.1998500
  94.3975580  78.1226760  10.9757370  94.9691690  77.3548960  10.9761010
  94.3977120  78.4215520  10.0663980 104.2555530  86.9417610   8.8302640
 103.6366970  87.3975110   8.2597080 105.1107310  87.0969070   8.4292340
 103.4493780  82.9256600  10.4369680 103.3802060  81.9846540  10.2758810
 104.2113640  83.0158010  11.0092250  95.6400450  73.5311120  12.7626300
  95.4603290  72.6336870  13.0429060  95.2380530  74.0782990  13.4373250
 104.4798950  75.7326980  10.6638610 104.8563770  74.8598860  10.5512280
 104.3818460  76.0685680   9.7729050  98.6103960  74.1052610   6.1256050
  98.7170710  75.0056340   6.4324810  97.6996320  74.0570580   5.8350700
 108.2623070  73.2277420   7.5966950 109.0832690  72.7373990   7.6392430
 108.2957150  73.8175080   8.3498790  96.2587120  76.0271620  11.3708640
  96.9397230  76.2909990  11.9896040  95.9435170  75.1872490  11.7046650
 100.4511690  77.0738980  10.4581230 100.9589910  77.5719950  11.0986250
 100.9824930  76.2974180  10.2820590  98.7347790  71.7137540  14.7244650
  98.7366230  72.2309930  13.9190550  97.9052100  71.2367720  14.7014580
 105.1218880  81.8256850   6.2234550 104.5036150  82.2906300   5.6597270
 105.6342130  82.5184330   6.6404060  99.9850640  81.3532720  12.9018150
  99.6520020  81.9801640  13.5439220 100.1617320  81.8794600  12.1219820
 108.4984550  75.1677800  10.3694490 107.7940120  75.4562690  10.9497600
 108.8596710  75.9777910  10.0094050  98.4163120  73.4247500  12.7315100
  98.7579930  74.2689550  12.4368970  97.4778930  73.5731240  12.8480440
  99.1969740  83.3213520  14.7167330  99.8143740  83.9964600  14.4351780
  98.3362860  83.7301500  14.6254830  94.4902080  82.5113380   3.5974180
  94.1130060  83.0000480   2.8659080  94.7475150  83.1838660   4.2280710
 110.1147330  84.7852930  12.6321970 109.4310850  85.4552040  12.6238640
 110.6541620  84.9833580  11.8666830 102.0991010  70.9129770   9.0559690
 102.4065990  70.3576660   8.3395190 101.1691710  71.0474230   8.8732680
 107.6506070  86.6297060  11.3467150 107.6633230  86.2259350  10.4789410
 107.0981290  87.4044350  11.2428580 108.9451490  83.3513280   6.4357320
 108.8347820  82.4087610   6.5606740 108.9419740  83.7128920   7.3220080
 107.0491510  81.5326900  12.6749760 107.4660300  81.3187010  11.8403220
 107.7731330  81.7899690  13.2458380 104.4871770  78.9778600   5.7919810
 103.5601050  78.9115980   6.0208280 104.6396590  79.9158730   5.6775050
 104.4740850  75.2495600   2.7886970 103.5344520  75.4109560   2.8739430
 104.7924110  75.9681280   2.2422960 108.5169060  80.5398900   6.2955060
 107.8981480  80.2018450   5.6481360 108.4993510  79.8958660   7.0034250
 107.9595620  76.7183440  13.7120870 107.5466800  77.5437150  13.9660860
 107.2271570  76.1328480  13.5197230 100.0928410  79.5043340   8.5739540
  99.6885410  78.7920590   8.0785440 100.1791530  79.1596580   9.4627580
 100.5610110  83.1910900  10.7378750 100.2638400  82.5856370  10.0586530
 101.5109930  83.2288210  10.6268110  98.8057030  76.2786550  12.3538580
  99.3571620  76.3881890  11.5791830  99.3200540  76.6524150  13.0693810
 108.6495720  86.7642770  14.4001850 108.1726280  87.5714960  14.2074460
 107.9657510  86.1121100  14.5528060  99.6528540  82.9292590  17.3886550
  98.7557070  83.1532560  17.6359950  99.6781410  83.0527530  16.4397950
 106.6933760  79.7785710   3.3027810 107.1327040  78.9408140   3.1565630
 107.4062180  80.4115110   3.3891950  98.4799760  79.8005910  15.9643920
  98.3407530  80.6728710  16.3331320  97.5981120  79.4578720  15.8191860
 104.8029140  84.7181780   7.2709050 105.2425050  85.4606110   6.8564440
 104.7416030  84.9608350   8.1948010 100.2780110  85.7427610  18.1729070
 100.2495540  86.1470560  17.3057500 100.1145080  84.8137970  18.0100670
  96.7933040  78.3988320   6.0746190  96.6730640  79.1250410   5.4627460
  96.4833930  77.6291230   5.5974100  94.4318410  81.5703460  11.8814830
  94.5098830  81.7052230  10.9370550  95.0460090  80.8619350  12.0742950
  95.6766040  83.2703650   8.2921010  95.2694120  83.4118240   7.4374610
  96.5679050  82.9863810   8.0892220 105.4944920  87.4195560  15.1988060
 106.0089590  87.3303570  16.0010490 104.6514000  87.7655260  15.4915970
 107.4699320  87.7050900   4.6272060 107.3100460  87.4153840   5.5253890
 107.3046030  86.9291030   4.0917290  99.9487700  87.4849430   6.4043680
  99.7730180  86.5684970   6.1911480  99.0943440  87.8436720   6.6441480
 107.1725450  85.2138460   3.1870060 106.4790610  85.2115750   2.5272340
 107.9148310  84.7897780   2.7564230 106.7375380  86.8401170   7.2618550
 107.1932330  86.0590550   7.5757170 107.0767900  87.5507990   7.8059730
  94.4877930  82.6117630  14.4209290  94.6508970  82.1422990  13.6028660
  94.9530380  82.1041190  15.0858130  99.2596700  71.7423390   9.4569860
  98.8164850  72.5232930   9.1254380  99.8181690  72.0653280  10.1640800
 103.5466510  74.6091910  15.0605180 103.0845880  74.8174930  15.8725120
 103.1444620  73.7951260  14.7575850 108.5471020  75.8300860  16.1901840
 107.6964610  75.5306610  16.5110910 108.3872810  76.0742870  15.2785660
 105.6420730  77.3302610  18.2900630 105.9674140  76.4966360  17.9502860
 106.4301060  77.8531130  18.4378960 102.3755520  71.3634090   4.3375690
 101.7509700  71.3593960   5.0629000 102.2885640  70.4965050   3.9411660
 101.2972600  72.2870720  11.3159460 101.5944930  73.1933550  11.2351480
 101.8458160  71.7989500  10.7019030  99.0510920  76.8656960   7.1851110
  98.8251840  76.6494130   8.0897730  98.2703450  77.2985420   6.8397080
 106.2808680  76.8720330   5.7841760 105.6817570  77.5956130   5.6005380
 106.8288290  76.8097110   5.0018210 101.4910130  77.7642540  17.8511380
 101.3953730  76.8237270  17.7011780 102.3342110  77.9857610  17.4559450
 104.8873550  75.5083870   7.8145040 105.2803120  75.8256070   7.0013730
 105.2490400  74.6295750   7.9289560  96.6220670  74.1756210  16.0045160
  96.2284060  75.0231420  16.2117940  95.9339070  73.5382580  16.1953800
 103.1965720  74.2591180  19.0741900 102.5064040  74.0663380  19.7087990
 103.9398020  74.5425820  19.6066200  93.9237720  72.0984670  10.0375240
  93.6350770  72.6687530  10.7500220  94.6683480  71.6189120  10.4006470
 105.4728690  78.0989620  11.9095820 104.7409810  78.6076430  12.2585920
 105.0753030  77.2819600  11.6084600 101.9106080  74.7743820  10.3148310
 101.9142140  74.3333770   9.4652850 102.8057200  75.0961150  10.4220130
  97.7608460  74.6570310   9.2742520  97.4208510  75.1345540  10.0309570
  96.9985780  74.2035430   8.9143620 101.9726230  75.7755900   3.3055070
 102.0939050  75.7342380   4.2540890 101.5874740  76.6380050   3.1501800
 105.9354600  73.5523300  11.3218760 105.9527340  74.0031950  12.1660610
 105.6870180  72.6528940  11.5352200 100.9847730  78.0857040   2.7038370
 100.4164630  77.6375290   2.0774280 101.6936730  78.4449820   2.1703520
 109.3625350  70.9655480  17.1605140 109.6871120  70.2345140  17.6863120
 109.3981860  70.6469120  16.2586130  96.0616910  81.9869060  16.5805100
  95.6771700  81.3462730  17.1788060  96.3729100  82.6905180  17.1499830
 102.2114050  78.8345600  12.0613720 102.5784180  78.3604170  12.8075060
 102.0219110  79.7087170  12.4022060  95.0754540  73.5789290   8.1907190
  94.7901460  73.2144960   9.0285810  95.0133400  72.8469750   7.5770330
 100.0013420  77.8754240  14.3797930  99.6970490  78.7546220  14.6048290
 100.9559880  77.9354030  14.4155370  98.5295210  82.0815230   4.9764780
  97.7557470  81.5412850   4.8163500  99.2589840  81.5621840   4.6382540
 109.2883190  81.0780590  10.7691170 110.0082310  81.5735880  10.3787280
 109.0865010  80.3998480  10.1245040 104.7493130  72.4718550   4.9120560
 103.9357740  71.9731720   4.8365870 104.5555080  73.3116800   4.4956910
 104.6701990  81.1489650  16.6560170 104.6039300  80.2285320  16.4017760
 104.0407130  81.2465090  17.3704810 107.4641520  76.8438200   3.2082720
 108.3521140  77.1555430   3.0334060 107.4346610  75.9710450   2.8163300
  98.5732610  81.7495610   8.6143590  99.0911280  80.9463870   8.5600480
  98.1216630  81.6874750   9.4560420 103.4602110  83.0161890   3.8870890
 103.8017810  83.7604120   3.3914210 102.6314820  83.3293010   4.2495720
  96.0577150  78.7156980  15.5269290  95.6992090  79.3810830  16.1142630
  95.7631710  77.8840530  15.8981910  99.2590270  79.1741220  18.4108840
  98.9590410  79.3198400  17.5136660 100.0301510  78.6146510  18.3182230
 104.6018720  83.9710220  16.4063970 104.6163260  83.0391180  16.1882880
 103.8943820  84.0569980  17.0453740 109.7355790  78.1550040   2.6762580
 109.6519510  78.5864260   1.8259020 110.4549980  78.6148390   3.1089400
 110.7643040  85.0092300   5.4044710 110.1219200  84.3547920   5.6788430
 110.3773700  85.4147390   4.6285380 106.3429520  82.3377730   9.2516400
 106.6953340  81.7405860   8.5917770 105.4591850  82.0121960   9.4224650
 102.4292800  83.0975420   6.6586810 103.1163930  83.6444630   7.0394400
 101.6425220  83.6416150   6.6936420  94.5685200  78.7148240   2.1503890
  95.4380050  78.9973040   2.4339810  94.0775520  79.5284110   2.0352700
 101.7320010  80.1021450   6.2712170 102.1882790  80.9126700   6.4972360
 101.3808220  79.7844590   7.1030660 104.0352620  85.6127790  13.5004470
 104.6794840  85.8187170  14.1777890 104.3982060  84.8516190  13.0475320
  97.6331790  70.4459100   6.7434690  97.5046420  70.4377000   7.6919610
  96.8093810  70.7842190   6.3925700 105.3084700  83.6160140  12.2181920
 105.9506930  82.9153300  12.3314090 105.8334050  84.3958580  12.0378810
 107.0822320  84.4155040  15.4217980 107.4178560  85.0021730  16.0995900
 106.1622660  84.2847750  15.6515770  94.9356450  87.9275620   2.7165520
  95.2954090  88.5264960   2.0622790  94.7948790  88.4735510   3.4900550
  94.6325720  72.2050220  16.2041390  93.9184240  72.4047140  16.8094000
  95.0520760  71.4289790  16.5756190 108.7356670  81.8180700   3.6035220
 108.4478370  82.2793390   4.3913100 109.5308840  81.3578470   3.8719440
  94.9198310  86.1930480  17.1907920  95.0289430  85.2525220  17.0503310
  94.2678870  86.4585230  16.5421650 102.9110900  84.4646370  18.5906040
 102.5907770  83.7455610  19.1351730 102.2369260  85.1401440  18.6642100
 100.9525070  85.3106820   3.5339190 100.9435170  86.0436510   2.9183700
 100.0323430  85.0638400   3.6266150  96.5531710  80.5321710   4.2785950
  95.9459660  81.2720610   4.2881250  97.0281060  80.6221070   3.4524150
 106.1264500  74.6972530  13.9542840 106.4945320  73.8767740  14.2822410
 105.2662700  74.7574420  14.3698490 109.4926530  73.6529470   4.7630400
 108.8639690  73.7575140   4.0488630 108.9978450  73.8726250   5.5524280
 101.4610560  75.9315420   6.1788280 100.7526710  76.4001760   6.6201890
 101.7455040  75.2737430   6.8133470 103.0866490  77.3512120  14.1780810
 103.5851740  77.8257940  14.8432660 103.2289440  76.4275640  14.3850840
 105.4925990  72.6566080   7.6184070 105.3693770  72.6752210   6.6693580
 106.4410550  72.7045020   7.7382470 102.5802780  87.8921380   6.8912050
 102.8344280  87.8542770   5.9691420 101.6315260  87.7654710   6.8840300
  99.6645580  74.2400500   3.5538990 100.5136110  74.6770650   3.4879180
  99.2976850  74.5520760   4.3811050 110.2933350  73.5680080  15.0209200
 109.7906950  74.3085480  15.3603010 111.1090010  73.9564080  14.7045990
 108.5855360  78.8113260   8.4670560 107.6445500  78.8263490   8.6418250
 108.8999430  78.0249220   8.9130860  97.2583760  77.9257930   2.7107410
  97.3387350  76.9785440   2.8224810  98.1503510  78.2564810   2.8168070
  98.0598470  88.0753320   9.8141950  98.7960950  87.5268780  10.0850520
  98.4439390  88.9409330   9.6747940  94.9443950  84.1426890   5.6883460
  94.0183730  84.3848030   5.6788870  95.4100380  84.9701150   5.5668210
  97.0656750  87.2599390  19.0027530  97.8669480  87.5811440  19.4162930
  96.5508570  86.8994970  19.7247440 105.9021380  83.3679260  18.9502940
 105.2959540  83.3910860  18.2098690 105.5975490  82.6362300  19.4870190
 107.3321750  87.0959550  17.5612350 108.2843500  87.0117570  17.5112590
 107.1849970  87.7601260  18.2346140 110.2230950  86.4753760   3.0604260
 109.9372460  86.0618900   2.2458440 110.0250500  87.4041470   2.9404780
  94.7854560  79.7472850  17.9463580  95.2893580  79.1680130  18.5179810
  94.0461980  80.0313080  18.4839950 101.8392500  81.1543840  17.4799100
 101.0738170  81.7228840  17.3953770 102.0208460  80.8620050  16.5867330
 104.9280910  81.5307070   2.1051860 104.3791010  81.9776370   2.7494600
 105.5500170  81.0256320   2.6289530 108.9815850  82.8849170  18.0374120
 109.7225320  83.2224930  17.5341580 108.2188530  83.0541230  17.4843890
  96.8177640  77.8902440  18.8413650  96.8582980  77.5916310  19.7498880
  97.6723140  78.2910050  18.6821170 100.5956030  80.4897990   4.0017160
 101.0172450  80.3237860   4.8448550 100.7206870  79.6798220   3.5072300
  98.7583450  76.4694540  16.8088140  98.2279910  75.9785490  16.1811480
  99.4271520  76.8978740  16.2746070 107.6561510  80.9364000  16.5729330
 108.0702530  81.0909080  17.4219750 106.7212510  81.0619220  16.7355110
 108.1283680  78.2760160  18.5768480 108.7104450  77.5212480  18.4888960
 108.3045450  78.8067600  17.7999960  99.2455750  73.4356910  16.8885430
  99.1512620  72.8177660  16.1636300  98.6653140  74.1623200  16.6615340
 102.0117190  71.9930150  13.9212820 101.5634490  72.0154410  13.0758370
 101.3782390  71.5949170  14.5183120 102.4176740  80.8884480  14.5425260
 102.8364850  81.7317210  14.3701500 101.4985370  81.0256520  14.3132040
 104.7540640  78.6200660  15.9263100 104.8736850  78.0241800  16.6657940
 105.6134640  78.6570350  15.5064400 107.0928540  79.1737850  14.5025610
 106.5663760  79.6980470  13.8990750 107.4359880  79.8065240  15.1335340
 100.2684160  87.1937490  15.6582990  99.7305250  87.9183550  15.3391690
 100.5218120  86.7167830  14.8680330 101.5209410  75.1622010  17.1838920
 102.1109100  74.8537860  17.8716740 100.7029650  74.6901760  17.3398820
 106.3402840  74.7787820  17.4171940 105.6518360  74.1169360  17.3521930
 107.0608860  74.3326090  17.8620400 106.9703240  71.3739450   3.4762200
 107.2505530  70.5307350   3.8321620 106.1968970  71.6062560   3.9900950
 103.1246370  88.4288700  15.9169640 103.0505070  89.3323840  16.2242010
 102.2225210  88.1100600  15.8891710 103.6731700  87.5947210   3.5396000
 104.5682490  87.9332180   3.5614760 103.7049330  86.8726620   2.9120280
  97.3127860  82.9674260   1.7683000  97.7502730  83.5103930   2.4240580
  97.7975590  82.1421210   1.7779340  94.5273660  85.7563290   9.2203260
  94.8576670  84.8884350   8.9881900  94.9564660  85.9621810  10.0508220
  99.1235580  84.0872300   6.8805230  98.8231120  83.9637270   7.7809140
  99.0173070  83.2280890   6.4720960  95.0163870  86.6233880  11.9584890
  94.5794860  86.8034680  12.7909040  95.5841550  87.3808500  11.8166610
 110.6526050  86.1250880  16.2462200 110.0528040  86.1843440  15.5026120
 110.7819950  85.1855860  16.3759050  94.8488300  79.1354110   8.3173770
  94.1937140  78.8665750   7.6733470  95.6866250  79.0258590   7.8675750
 109.3377690  82.8502860  14.3438360 108.5237530  83.2800020  14.6064150
 109.7451890  83.4621270  13.7307410 107.7978740  73.9295400   2.5392260
 108.2163620  73.7426380   1.6988920 107.4914800  73.0774450   2.8495190
  95.8864230  79.5206680  12.8577110  96.2537270  79.4334080  13.7373130
  95.3175050  78.7573230  12.7583970 110.6868090  77.9891060  15.8707580
 110.4554180  77.7603810  14.9705530 110.9472640  78.9090610  15.8252470
  95.4380230  76.4315770  16.7635530  94.5436280  76.3982530  17.1029240
  95.9777780  76.6302560  17.5286780 109.1256160  73.2147490  18.6487280
 110.0026340  73.2230890  19.0321280 109.1377000  72.4778330  18.0379630
  94.0626380  76.3453040   4.2599100  93.1590460  76.6083240   4.0850760
  94.5467000  76.6164210   3.4799060 110.5719430  77.0677030   9.5375300
 111.0956910  76.5739680   8.9065470 111.1578850  77.2027390  10.2822870
 110.7509150  77.1516900  13.0594850 109.8011860  77.1180440  13.1739840
 110.9322160  78.0617010  12.8244620 110.0619400  76.3250380   5.4767710
 110.5578520  76.0921250   6.2616590 109.8635470  75.4862220   5.0605350
  95.9419940  70.7064100  11.1118750  96.5896130  70.1561480  10.6713910
  96.3621780  70.9607250  11.9334560 109.8372280  70.9005460  14.4688390
 110.4744500  71.5139600  14.8347580 109.9847170  70.9366120  13.5237620
 109.3953740  87.6021460   7.8706630 109.9912810  87.2806030   7.1941050
 109.6531890  87.1293280   8.6619900  95.6951940  70.8619770  13.8544070
  95.3466760  71.3183590  14.6202250  95.3639640  69.9676900  13.9366500
  97.3016310  84.0339370  18.0197260  97.2585940  83.6632280  18.9011720
  97.4327320  84.9716940  18.1599080 101.0022340  85.5898960  13.6206980
 100.7613700  85.8573520  12.7337500 101.9424980  85.7604690  13.6757840
 103.2076760  72.0531650  17.3763490 103.1465650  72.6453480  18.1258900
 104.1477140  71.9457610  17.2313750 105.8451320  71.7101710  17.0155780
 106.4591730  72.0281000  16.3536860 106.3900880  71.2250300  17.6351640
  96.3672580  70.3895970  17.1294840  96.9155570  70.2084020  16.3660950
  96.4327890  69.5990080  17.6651150  97.1404340  86.9801620  15.1395040
  96.5464660  86.8486320  15.8785080  97.1328180  86.1439760  14.6737140
 106.5859360  70.2733850  13.3425070 105.7119200  70.6068960  13.1398000
 106.4770110  69.8007030  14.1676940 107.4931340  72.4804720  14.7266790
 107.1644700  71.6656480  14.3468520 108.4413640  72.4374530  14.6032480
 109.9465950  88.2516760  11.7004360 109.4868920  89.0032570  11.3262380
 109.3178410  87.5323230  11.6419160  96.7716570  84.3460000  14.0903080
  96.0450630  83.7265290  14.0229030  96.8325720  84.7400610  13.2201160
 100.3761670  86.5605000  10.8752490 100.8926690  85.9492360  10.3500750
 101.0259050  87.0633780  11.3663500 103.1157170  87.4513490  11.7021470
 103.4034980  87.1967790  10.8254480 103.6280390  86.8990850  12.2927040
 104.3334180  71.1903690  12.2817980 103.5505970  71.6649190  12.5614740
 104.0397110  70.2858520  12.1731160 108.8855250  71.8926790  10.3267070
 109.3263340  71.8371890   9.4788670 108.6162840  72.8084800  10.3977250
  95.0546570  87.6634390   7.2999840  94.8868610  87.0305070   7.9981730
  94.1881080  87.8693790   6.9494030  95.6774590  71.4951170   4.8031700
  96.4353950  71.6080050   4.2295730  95.2151760  72.3320370   4.7575130
 102.2188400  73.6090440   7.7934010 101.4062910  73.2347330   7.4529890
 102.7230040  72.8535520   8.0955200 106.7213380  70.2732890   9.0317080
 107.3242750  70.8453100   9.5065600 105.9806370  70.8372330   8.8090980
 109.8647980  70.6754450   4.3057360 110.0598610  71.5737900   4.5724790
 109.0777850  70.4441530   4.7990310  96.6609270  86.3567620   4.7449980
  96.1356890  86.7375650   4.0411940  96.5853850  86.9818390   5.4659690
  98.0499740  72.0215220   3.3433670  98.5792500  71.2345020   3.2141620
  98.6828060  72.7006410   3.5769200 100.2437580  71.7590360   6.3979060
  99.6140320  71.0577670   6.5649190  99.7042720  72.5194490   6.1812220
 103.1829530  88.3729590  19.0689670 104.1096840  88.1373860  19.1125630
 103.1679960  89.2001590  18.5875700 100.3693140  71.0374340  18.8331550
 100.0877410  71.5407940  18.0692370 100.7512840  70.2396090  18.4673680
  99.2602240  88.3050000   3.6199230  99.9921060  88.0209280   3.0723120
  99.5195910  88.0663280   4.5098610  98.4217030  84.4214730   3.6245560
  97.7925910  84.8899830   4.1731390  98.5364860  83.5763950   4.0591750
 106.9708600  70.4527920  19.4112020 106.8574050  70.7722530  20.3063540
 107.7878340  70.8540430  19.1149300 109.7507090  87.5999450  18.8930710
 110.5432410  87.1048680  18.6856670 110.0440240  88.2789590  19.5006320
 105.8766750  59.6976900  64.8720720 105.7960800  58.7831510  64.6012430
 105.4631170  60.1943970  64.1660430 104.0084790  61.4755920  66.7529990
 103.2326890  60.9956360  67.0428560 104.6597720  60.7961570  66.5786150
  98.0250620  61.7875730  67.6305750  97.1935500  61.5324440  68.0302260
  98.6331600  61.8586500  68.3663670 108.0292220  65.8816110  65.5329120
 107.5673750  65.1103350  65.8616290 108.8417770  65.9082180  66.0381570
  98.0051880  65.8215820  67.8263770  98.3079920  64.9313560  67.6473990
  98.7495470  66.3786040  67.5986020  96.4342570  56.7477620  61.4148140
  95.5459270  57.0893590  61.3128020  96.7183760  56.5477940  60.5228970
  94.3975580  59.3483270  67.2987840  94.9691690  58.5805470  67.2991480
  94.3977120  59.6472030  66.3894450 104.2555530  68.1674120  65.1533110
 103.6366970  68.6231620  64.5827550 105.1107310  68.3225580  64.7522810
 103.4493780  64.1513110  66.7600150 103.3802060  63.2103050  66.5989280
 104.2113640  64.2414520  67.3322720  95.6400450  54.7567630  69.0856770
  95.4603290  53.8593380  69.3659530  95.2380530  55.3039500  69.7603720
 104.4798950  56.9583490  66.9869080 104.8563770  56.0855370  66.8742750
 104.3818460  57.2942190  66.0959520  98.6103960  55.3309120  62.4486520
  98.7170710  56.2312850  62.7555280  97.6996320  55.2827090  62.1581170
 108.2623070  54.4533930  63.9197420 109.0832690  53.9630500  63.9622900
 108.2957150  55.0431590  64.6729260  96.2587120  57.2528130  67.6939110
  96.9397230  57.5166500  68.3126510  95.9435170  56.4129000  68.0277120
 100.4511690  58.2995490  66.7811700 100.9589910  58.7976460  67.4216720
 100.9824930  57.5230690  66.6051060  98.7347790  52.9394050  71.0475120
  98.7366230  53.4566440  70.2421020  97.9052100  52.4624230  71.0245050
 105.1218880  63.0513360  62.5465020 104.5036150  63.5162810  61.9827740
 105.6342130  63.7440840  62.9634530  99.9850640  62.5789230  69.2248620
  99.6520020  63.2058150  69.8669690 100.1617320  63.1051110  68.4450290
 108.4984550  56.3934310  66.6924960 107.7940120  56.6819200  67.2728070
 108.8596710  57.2034420  66.3324520  98.4163120  54.6504010  69.0545570
  98.7579930  55.4946060  68.7599440  97.4778930  54.7987750  69.1710910
  99.1969740  64.5470030  71.0397800  99.8143740  65.2221110  70.7582250
  98.3362860  64.9558010  70.9485300  94.4902080  63.7369890  59.9204650
  94.1130060  64.2256990  59.1889550  94.7475150  64.4095170  60.5511180
 110.1147330  66.0109440  68.9552440 109.4310850  66.6808550  68.9469110
 110.6541620  66.2090090  68.1897300 102.0991010  52.1386280  65.3790160
 102.4065990  51.5833170  64.6625660 101.1691710  52.2730740  65.1963150
 107.6506070  67.8553570  67.6697620 107.6633230  67.4515860  66.8019880
 107.0981290  68.6300860  67.5659050 108.9451490  64.5769790  62.7587790
 108.8347820  63.6344120  62.8837210 108.9419740  64.9385430  63.6450550
 107.0491510  62.7583410  68.9980230 107.4660300  62.5443520  68.1633690
 107.7731330  63.0156200  69.5688850 104.4871770  60.2035110  62.1150280
 103.5601050  60.1372490  62.3438750 104.6396590  61.1415240  62.0005520
 104.4740850  56.4752110  59.1117440 103.5344520  56.6366070  59.1969900
 104.7924110  57.1937790  58.5653430 108.5169060  61.7655410  62.6185530
 107.8981480  61.4274960  61.9711830 108.4993510  61.1215170  63.3264720
 107.9595620  57.9439950  70.0351340 107.5466800  58.7693660  70.2891330
 107.2271570  57.3584990  69.8427700 100.0928410  60.7299850  64.8970010
  99.6885410  60.0177100  64.4015910 100.1791530  60.3853090  65.7858050
 100.5610110  64.4167410  67.0609220 100.2638400  63.8112880  66.3817000
 101.5109930  64.4544720  66.9498580  98.8057030  57.5043060  68.6769050
  99.3571620  57.6138400  67.9022300  99.3200540  57.8780660  69.3924280
 108.6495720  67.9899280  70.7232320 108.1726280  68.7971470  70.5304930
 107.9657510  67.3377610  70.8758530  99.6528540  64.1549100  73.7117020
  98.7557070  64.3789070  73.9590420  99.6781410  64.2784040  72.7628420
 106.6933760  61.0042220  59.6258280 107.1327040  60.1664650  59.4796100
 107.4062180  61.6371620  59.7122420  98.4799760  61.0262420  72.2874390
  98.3407530  61.8985220  72.6561790  97.5981120  60.6835230  72.1422330
 104.8029140  65.9438290  63.5939520 105.2425050  66.6862620  63.1794910
 104.7416030  66.1864860  64.5178480 100.2780110  66.9684120  74.4959540
 100.2495540  67.3727070  73.6287970 100.1145080  66.0394480  74.3331140
 110.2750900  52.2585030  57.9399320 109.9623560  52.3511860  58.8398390
 111.0363370  52.8366060  57.8896750  96.7933040  59.6244830  62.3976660
  96.6730640  60.3506920  61.7857930  96.4833930  58.8547740  61.9204570
  94.4318410  62.7959970  68.2045300  94.5098830  62.9308740  67.2601020
  95.0460090  62.0875860  68.3973420  95.6766040  64.4960160  64.6151480
  95.2694120  64.6374750  63.7605080  96.5679050  64.2120320  64.4122690
 105.4944920  68.6452070  71.5218530 106.0089590  68.5560080  72.3240960
 104.6514000  68.9911770  71.8146440 107.4699320  68.9307410  60.9502530
 107.3100460  68.6410350  61.8484360 107.3046030  68.1547540  60.4147760
  99.9487700  68.7105940  62.7274150  99.7730180  67.7941480  62.5141950
  99.0943440  69.0693230  62.9671950 107.1725450  66.4394970  59.5100530
 106.4790610  66.4372260  58.8502810 107.9148310  66.0154290  59.0794700
 106.7375380  68.0657680  63.5849020 107.1932330  67.2847060  63.8987640
 107.0767900  68.7764500  64.1290200  94.4877930  63.8374140  70.7439760
  94.6508970  63.3679500  69.9259130  94.9530380  63.3297700  71.4088600
  99.2596700  52.9679900  65.7800330  98.8164850  53.7489440  65.4484850
  99.8181690  53.2909790  66.4871270 103.5466510  55.8348420  71.3835650
 103.0845880  56.0431440  72.1955590 103.1444620  55.0207770  71.0806320
 108.5471020  57.0557370  72.5132310 107.6964610  56.7563120  72.8341380
 108.3872810  57.2999380  71.6016130 105.6420730  58.5559120  74.6131100
 105.9674140  57.7222870  74.2733330 106.4301060  59.0787640  74.7609430
 102.3755520  52.5890600  60.6606160 101.7509700  52.5850470  61.3859470
 102.2885640  51.7221560  60.2642130 101.2972600  53.5127230  67.6389930
 101.5944930  54.4190060  67.5581950 101.8458160  53.0246010  67.0249500
  99.0510920  58.0913470  63.5081580  98.8251840  57.8750640  64.4128200
  98.2703450  58.5241930  63.1627550 106.2808680  58.0976840  62.1072230
 105.6817570  58.8212640  61.9235850 106.8288290  58.0353620  61.3248680
 101.4910130  58.9899050  74.1741850 101.3953730  58.0493780  74.0242250
 102.3342110  59.2114120  73.7789920 104.8873550  56.7340380  64.1375510
 105.2803120  57.0512580  63.3244200 105.2490400  55.8552260  64.2520030
  96.6220670  55.4012720  72.3275630  96.2284060  56.2487930  72.5348410
  95.9339070  54.7639090  72.5184270  93.9237720  53.3241180  66.3605710
  93.6350770  53.8944040  67.0730690  94.6683480  52.8445630  66.7236940
  94.1107950  57.2661300  57.5708430  94.0282620  58.2092060  57.7123420
  93.7591010  57.1236210  56.6920780 105.4728690  59.3246130  68.2326290
 104.7409810  59.8332940  68.5816390 105.0753030  58.5076110  67.9315070
 101.9106080  56.0000330  66.6378780 101.9142140  55.5590280  65.7883320
 102.8057200  56.3217660  66.7450600  97.7608460  55.8826820  65.5972990
  97.4208510  56.3602050  66.3540040  96.9985780  55.4291940  65.2374090
 101.9726230  57.0012410  59.6285540 102.0939050  56.9598890  60.5771360
 101.5874740  57.8636560  59.4732270 105.9354600  54.7779810  67.6449230
 105.9527340  55.2288460  68.4891080 105.6870180  53.8785450  67.8582670
 100.9847730  59.3113550  59.0268840 100.4164630  58.8631800  58.4004750
 101.6936730  59.6706330  58.4933990 109.3625350  52.1911990  73.4835610
 109.6871120  51.4601650  74.0093590 109.3981860  51.8725630  72.5816600
  96.0616910  63.2125570  72.9035570  95.6771700  62.5719240  73.5018530
  96.3729100  63.9161690  73.4730300 102.2114050  60.0602110  68.3844190
 102.5784180  59.5860680  69.1305530 102.0219110  60.9343680  68.7252530
  95.0754540  54.8045800  64.5137660  94.7901460  54.4401470  65.3516280
  95.0133400  54.0726260  63.9000800 100.0013420  59.1010750  70.7028400
  99.6970490  59.9802730  70.9278760 100.9559880  59.1610540  70.7385840
  98.5295210  63.3071740  61.2995250  97.7557470  62.7669360  61.1393970
  99.2589840  62.7878350  60.9613010 109.2883190  62.3037100  67.0921640
 110.0082310  62.7992390  66.7017750 109.0865010  61.6254990  66.4475510
 104.7493130  53.6975060  61.2351030 103.9357740  53.1988230  61.1596340
 104.5555080  54.5373310  60.8187380 104.6701990  62.3746160  72.9790640
 104.6039300  61.4541830  72.7248230 104.0407130  62.4721600  73.6935280
 107.4641520  58.0694710  59.5313190 108.3521140  58.3811940  59.3564530
 107.4346610  57.1966960  59.1393770  98.5732610  62.9752120  64.9374060
  99.0911280  62.1720380  64.8830950  98.1216630  62.9131260  65.7790890
 103.4602110  64.2418400  60.2101360 103.8017810  64.9860630  59.7144680
 102.6314820  64.5549520  60.5726190  96.0577150  59.9413490  71.8499760
  95.6992090  60.6067340  72.4373100  95.7631710  59.1097040  72.2212380
  99.2590270  60.3997730  74.7339310  98.9590410  60.5454910  73.8367130
 100.0301510  59.8403020  74.6412700 104.6018720  65.1966730  72.7294440
 104.6163260  64.2647690  72.5113350 103.8943820  65.2826490  73.3684210
 109.7355790  59.3806550  58.9993050 109.6519510  59.8120770  58.1489490
 110.4549980  59.8404900  59.4319870 110.7643040  66.2348810  61.7275180
 110.1219200  65.5804430  62.0018900 110.3773700  66.6403900  60.9515850
 106.3429520  63.5634240  65.5746870 106.6953340  62.9662370  64.9148240
 105.4591850  63.2378470  65.7455120 102.4292800  64.3231930  62.9817280
 103.1163930  64.8701140  63.3624870 101.6425220  64.8672660  63.0166890
  94.5685200  59.9404750  58.4734360  95.4380050  60.2229550  58.7570280
  94.0775520  60.7540620  58.3583170 101.7320010  61.3277960  62.5942640
 102.1882790  62.1383210  62.8202830 101.3808220  61.0101100  63.4261130
 104.0352620  66.8384300  69.8234940 104.6794840  67.0443680  70.5008360
 104.3982060  66.0772700  69.3705790  97.6331790  51.6715610  63.0665160
  97.5046420  51.6633510  64.0150080  96.8093810  52.0098700  62.7156170
 105.3084700  64.8416650  68.5412390 105.9506930  64.1409810  68.6544560
 105.8334050  65.6215090  68.3609280 109.1540420  65.1265270  58.2651530
 108.9278000  64.4095710  58.8576170 108.7636620  64.8777710  57.4273280
 107.0822320  65.6411550  71.7448450 107.4178560  66.2278240  72.4226370
 106.1622660  65.5104260  71.9746240  94.9356450  69.1532130  59.0395990
  95.2954090  69.7521470  58.3853260  94.7948790  69.6992020  59.8131020
  94.6325720  53.4306730  72.5271860  93.9184240  53.6303650  73.1324470
  95.0520760  52.6546300  72.8986660 108.7356670  63.0437210  59.9265690
 108.4478370  63.5049900  60.7143570 109.5308840  62.5834980  60.1949910
  94.9198310  67.4186990  73.5138390  95.0289430  66.4781730  73.3733780
  94.2678870  67.6841740  72.8652120 100.9525070  66.5363330  59.8569660
 100.9435170  67.2693020  59.2414170 100.0323430  66.2894910  59.9496620
  96.5531710  61.7578220  60.6016420  95.9459660  62.4977120  60.6111720
  97.0281060  61.8477580  59.7754620 106.1264500  55.9229040  70.2773310
 106.4945320  55.1024250  70.6052880 105.2662700  55.9830930  70.6928960
 109.4926530  54.8785980  61.0860870 108.8639690  54.9831650  60.3719100
 108.9978450  55.0982760  61.8754750 103.9384670  66.5991570  58.5194850
 104.0396650  66.3955560  57.5896830 103.0386410  66.3449850  58.7242630
 101.4610560  57.1571930  62.5018750 100.7526710  57.6258270  62.9432360
 101.7455040  56.4993940  63.1363940 103.0866490  58.5768630  70.5011280
 103.5851740  59.0514450  71.1663130 103.2289440  57.6532150  70.7081310
 105.4925990  53.8822590  63.9414540 105.3693770  53.9008720  62.9924050
 106.4410550  53.9301530  64.0612940 102.5802780  69.1177890  63.2142520
 102.8344280  69.0799280  62.2921890 101.6315260  68.9911220  63.2070770
  99.6645580  55.4657010  59.8769460 100.5136110  55.9027160  59.8109650
  99.2976850  55.7777270  60.7041520 110.2933350  54.7936590  71.3439670
 109.7906950  55.5341990  71.6833480 111.1090010  55.1820590  71.0276460
 108.5855360  60.0369770  64.7901030 107.6445500  60.0520000  64.9648720
 108.8999430  59.2505730  65.2361330  98.5637000  61.7189370  58.3504990
  99.3300270  61.6070730  58.9130420  98.6411690  61.0227340  57.6981760
  97.2583760  59.1514440  59.0337880  97.3387350  58.2041950  59.1455280
  98.1503510  59.4821320  59.1398540  98.0598470  69.3009830  66.1372420
  98.7960950  68.7525290  66.4080990  98.4439390  70.1665840  65.9978410
  94.9443950  65.3683400  62.0113930  94.0183730  65.6104540  62.0019340
  95.4100380  66.1957660  61.8898680 101.1700780  68.4740140  57.9597990
 101.9629390  68.7628970  57.5079780 100.6505130  68.0432310  57.2810470
 107.3321750  68.3216060  73.8842820 108.2843500  68.2374080  73.8343060
 107.1849970  68.9857770  74.5576610 110.2230950  67.7010270  59.3834730
 109.9372460  67.2875410  58.5688910 110.0250500  68.6297980  59.2635250
  94.7854560  60.9729360  74.2694050  95.2893580  60.3936640  74.8410280
  94.0461980  61.2569590  74.8070420 101.6878180  63.6943550  57.8240340
 101.5828820  63.0795900  58.5501720 101.5202400  63.1709440  57.0403350
 101.8392500  62.3800350  73.8029570 101.0738170  62.9485350  73.7184240
 102.0208460  62.0876560  72.9097800 104.9280910  62.7563580  58.4282330
 104.3791010  63.2032880  59.0725070 105.5500170  62.2512830  58.9520000
 108.9815850  64.1105680  74.3604590 109.7225320  64.4481440  73.8572050
 108.2188530  64.2797740  73.8074360 100.5956030  61.7154500  60.3247630
 101.0172450  61.5494370  61.1679020 100.7206870  60.9054730  59.8302770
  98.7583450  57.6951050  73.1318610  98.2279910  57.2042000  72.5041950
  99.4271520  58.1235250  72.5976540 103.1083670  60.7392110  57.5724730
 103.6289330  60.0241130  57.2065880 103.7552070  61.3777980  57.8725240
 107.6561510  62.1620510  72.8959800 108.0702530  62.3165590  73.7450220
 106.7212510  62.2875730  73.0585580 108.1283680  59.5016670  74.8998950
 108.7104450  58.7468990  74.8119430 108.3045450  60.0324110  74.1230430
  99.2455750  54.6613420  73.2115900  99.1512620  54.0434170  72.4866770
  98.6653140  55.3879710  72.9845810 102.0117190  53.2186660  70.2443290
 101.5634490  53.2410920  69.3988840 101.3782390  52.8205680  70.8413590
 102.4176740  62.1140990  70.8655730 102.8364850  62.9573720  70.6931970
 101.4985370  62.2513030  70.6362510 104.7540640  59.8457170  72.2493570
 104.8736850  59.2498310  72.9888410 105.6134640  59.8826860  71.8294870
 107.0928540  60.3994360  70.8256080 106.5663760  60.9236980  70.2221220
 107.4359880  61.0321750  71.4565810  99.4914930  57.7887730  57.2705790
  99.2903990  56.9255090  57.6319130  99.3206980  57.7021090  56.3327390
 100.2684160  68.4194000  71.9813460  99.7305250  69.1440060  71.6622160
 100.5218120  67.9424340  71.1910800 101.5209410  56.3878520  73.5069390
 102.1109100  56.0794370  74.1947210 100.7029650  55.9158270  73.6629290
 106.3402840  56.0044330  73.7402410 105.6518360  55.3425870  73.6752400
 107.0608860  55.5582600  74.1850870 106.9703240  52.5995960  59.7992670
 107.2505530  51.7563860  60.1552090 106.1968970  52.8319070  60.3131420
  98.2897730  54.8888350  57.2583670  98.5923630  54.8955780  56.3502820
  99.0292320  54.5386210  57.7551330 103.1246370  69.6545210  72.2400110
 103.0505070  70.5580350  72.5472480 102.2225210  69.3357110  72.2122180
 101.5082660  53.8322970  58.2439870 101.1604660  53.1546960  57.6642320
 101.7095430  53.3712480  59.0583260 103.6731700  68.8203720  59.8626470
 104.5682490  69.1588690  59.8845230 103.7049330  68.0983130  59.2350750
  97.3127860  64.1930770  58.0913470  97.7502730  64.7360440  58.7471050
  97.7975590  63.3677720  58.1009810  94.5273660  66.9819800  65.5433730
  94.8576670  66.1140860  65.3112370  94.9564660  67.1878320  66.3738690
  99.1235580  65.3128810  63.2035700  98.8231120  65.1893780  64.1039610
  99.0173070  64.4537400  62.7951430  95.0163870  67.8490390  68.2815360
  94.5794860  68.0291190  69.1139510  95.5841550  68.6065010  68.1397080
 110.6526050  67.3507390  72.5692670 110.0528040  67.4099950  71.8256590
 110.7819950  66.4112370  72.6989520  94.8488300  60.3610620  64.6404240
  94.1937140  60.0922260  63.9963940  95.6866250  60.2515100  64.1906220
 109.3377690  64.0759370  70.6668830 108.5237530  64.5056530  70.9294620
 109.7451890  64.6877780  70.0537880 107.7978740  55.1551910  58.8622730
 108.2163620  54.9682890  58.0219390 107.4914800  54.3030960  59.1725660
  95.8864230  60.7463190  69.1807580  96.2537270  60.6590590  70.0603600
  95.3175050  59.9829740  69.0814440 110.6868090  59.2147570  72.1938050
 110.4554180  58.9860320  71.2936000 110.9472640  60.1347120  72.1482940
  95.4380230  57.6572280  73.0866000  94.5436280  57.6239040  73.4259710
  95.9777780  57.8559070  73.8517250  94.0626380  57.5709550  60.5829570
  93.1590460  57.8339750  60.4081230  94.5467000  57.8420720  59.8029530
 110.5719430  58.2933540  65.8605770 111.0956910  57.7996190  65.2295940
 111.1578850  58.4283900  66.6053340 110.7509150  58.3773410  69.3825320
 109.8011860  58.3436950  69.4970310 110.9322160  59.2873520  69.1475090
  96.6053590  56.6275090  58.4923950  97.3145290  56.2058310  58.0071230
  95.8893530  56.6950320  57.8607300  96.2527750  52.6814420  57.5326600
  96.9755880  53.2223360  57.8507820  96.5252270  52.4077840  56.6568140
 110.0619400  57.5506890  61.7998180 110.5578520  57.3177760  62.5847060
 109.8635470  56.7118730  61.3835820  95.9419940  51.9320610  67.4349220
  96.5896130  51.3817990  66.9944380  96.3621780  52.1863760  68.2565030
 109.8372280  52.1261970  70.7918860 110.4744500  52.7396110  71.1578050
 109.9847170  52.1622630  69.8468090 109.3953740  68.8277970  64.1937100
 109.9912810  68.5062540  63.5171520 109.6531890  68.3549790  64.9850370
  95.6951940  52.0876280  70.1774540  95.3466760  52.5440100  70.9432720
  95.3639640  51.1933410  70.2596970 101.0022340  66.8155470  69.9437450
 100.7613700  67.0830030  69.0567970 101.9424980  66.9861200  69.9988310
 103.2076760  53.2788160  73.6993960 103.1465650  53.8709990  74.4489370
 104.1477140  53.1714120  73.5544220 105.8451320  52.9358220  73.3386250
 106.4591730  53.2537510  72.6767330 106.3900880  52.4506810  73.9582110
  96.3672580  51.6152480  73.4525310  96.9155570  51.4340530  72.6891420
  96.4327890  50.8246590  73.9881620  97.1404340  68.2058130  71.4625510
  96.5464660  68.0742830  72.2015550  97.1328180  67.3696270  70.9967610
 106.5859360  51.4990360  69.6655540 105.7119200  51.8325470  69.4628470
 106.4770110  51.0263540  70.4907410 107.4931340  53.7061230  71.0497260
 107.1644700  52.8912990  70.6698990 108.4413640  53.6631040  70.9262950
 109.9465950  69.4773270  68.0234830 109.4868920  70.2289080  67.6492850
 109.3178410  68.7579740  67.9649630  96.7716570  65.5716510  70.4133550
  96.0450630  64.9521800  70.3459500  96.8325720  65.9657120  69.5431630
 100.3761670  67.7861510  67.1982960 100.8926690  67.1748870  66.6731220
 101.0259050  68.2890290  67.6893970 103.1157170  68.6770000  68.0251940
 103.4034980  68.4224300  67.1484950 103.6280390  68.1247360  68.6157510
 104.3334180  52.4160200  68.6048450 103.5505970  52.8905700  68.8845210
 104.0397110  51.5115030  68.4961630 108.8855250  53.1183300  66.6497540
 109.3263340  53.0628400  65.8019140 108.6162840  54.0341310  66.7207720
  95.0546570  68.8890900  63.6230310  94.8868610  68.2561580  64.3212200
  94.1881080  69.0950300  63.2724500  95.6774590  52.7207680  61.1262170
  96.4353950  52.8336560  60.5526200  95.2151760  53.5576880  61.0805600
 102.2188400  54.8346950  64.1164480 101.4062910  54.4603840  63.7760360
 102.7230040  54.0792030  64.4185670 106.7213380  51.4989400  65.3547550
 107.3242750  52.0709610  65.8296070 105.9806370  52.0628840  65.1321450
 109.8647980  51.9010960  60.6287830 110.0598610  52.7994410  60.8955260
 109.0777850  51.6698040  61.1220780  96.6609270  67.5824130  61.0680450
  96.1356890  67.9632160  60.3642410  96.5853850  68.2074900  61.7890160
  98.0499740  53.2471730  59.6664140  98.5792500  52.4601530  59.5372090
  98.6828060  53.9262920  59.8999670 100.2437580  52.9846870  62.7209530
  99.6140320  52.2834180  62.8879660  99.7042720  53.7451000  62.5042690
  99.2602240  69.5306510  59.9429700  99.9921060  69.2465790  59.3953590
  99.5195910  69.2919790  60.8329080  98.4217030  65.6471240  59.9476030
  97.7925910  66.1156340  60.4961860  98.5364860  64.8020460  60.3822220
 105.8766750  59.6976900  46.0977230 105.7960800  58.7831510  45.8268940
 105.4631170  60.1943970  45.3916940 104.0084790  61.4755920  47.9786500
 103.2326890  60.9956360  48.2685070 104.6597720  60.7961570  47.8042660
  98.0250620  61.7875730  48.8562260  97.1935500  61.5324440  49.2558770
  98.6331600  61.8586500  49.5920180 108.0292220  65.8816110  46.7585630
 107.5673750  65.1103350  47.0872800 108.8417770  65.9082180  47.2638080
  98.0051880  65.8215820  49.0520280  98.3079920  64.9313560  48.8730500
  98.7495470  66.3786040  48.8242530  96.4342570  56.7477620  42.6404650
  95.5459270  57.0893590  42.5384530  96.7183760  56.5477940  41.7485480
  94.3975580  59.3483270  48.5244350  94.9691690  58.5805470  48.5247990
  94.3977120  59.6472030  47.6150960 104.2555530  68.1674120  46.3789620
 103.6366970  68.6231620  45.8084060 105.1107310  68.3225580  45.9779320
 103.4493780  64.1513110  47.9856660 103.3802060  63.2103050  47.8245790
 104.2113640  64.2414520  48.5579230  95.6400450  54.7567630  50.3113280
  95.4603290  53.8593380  50.5916040  95.2380530  55.3039500  50.9860230
 104.4798950  56.9583490  48.2125590 104.8563770  56.0855370  48.0999260
 104.3818460  57.2942190  47.3216030  98.6103960  55.3309120  43.6743030
  98.7170710  56.2312850  43.9811790  97.6996320  55.2827090  43.3837680
 108.2623070  54.4533930  45.1453930 109.0832690  53.9630500  45.1879410
 108.2957150  55.0431590  45.8985770  96.2587120  57.2528130  48.9195620
  96.9397230  57.5166500  49.5383020  95.9435170  56.4129000  49.2533630
 100.4511690  58.2995490  48.0068210 100.9589910  58.7976460  48.6473230
 100.9824930  57.5230690  47.8307570  98.7347790  52.9394050  52.2731630
  98.7366230  53.4566440  51.4677530  97.9052100  52.4624230  52.2501560
 105.1218880  63.0513360  43.7721530 104.5036150  63.5162810  43.2084250
 105.6342130  63.7440840  44.1891040  99.9850640  62.5789230  50.4505130
  99.6520020  63.2058150  51.0926200 100.1617320  63.1051110  49.6706800
 108.4984550  56.3934310  47.9181470 107.7940120  56.6819200  48.4984580
 108.8596710  57.2034420  47.5581030  98.4163120  54.6504010  50.2802080
  98.7579930  55.4946060  49.9855950  97.4778930  54.7987750  50.3967420
  99.1969740  64.5470030  52.2654310  99.8143740  65.2221110  51.9838760
  98.3362860  64.9558010  52.1741810  94.4902080  63.7369890  41.1461160
  94.1130060  64.2256990  40.4146060  94.7475150  64.4095170  41.7767690
 110.1147330  66.0109440  50.1808950 109.4310850  66.6808550  50.1725620
 110.6541620  66.2090090  49.4153810 102.0991010  52.1386280  46.6046670
 102.4065990  51.5833170  45.8882170 101.1691710  52.2730740  46.4219660
 107.6506070  67.8553570  48.8954130 107.6633230  67.4515860  48.0276390
 107.0981290  68.6300860  48.7915560 108.9451490  64.5769790  43.9844300
 108.8347820  63.6344120  44.1093720 108.9419740  64.9385430  44.8707060
 107.0491510  62.7583410  50.2236740 107.4660300  62.5443520  49.3890200
 107.7731330  63.0156200  50.7945360 104.4871770  60.2035110  43.3406790
 103.5601050  60.1372490  43.5695260 104.6396590  61.1415240  43.2262030
 104.4740850  56.4752110  40.3373950 103.5344520  56.6366070  40.4226410
 104.7924110  57.1937790  39.7909940 108.5169060  61.7655410  43.8442040
 107.8981480  61.4274960  43.1968340 108.4993510  61.1215170  44.5521230
 107.9595620  57.9439950  51.2607850 107.5466800  58.7693660  51.5147840
 107.2271570  57.3584990  51.0684210 100.0928410  60.7299850  46.1226520
  99.6885410  60.0177100  45.6272420 100.1791530  60.3853090  47.0114560
 100.5610110  64.4167410  48.2865730 100.2638400  63.8112880  47.6073510
 101.5109930  64.4544720  48.1755090  98.8057030  57.5043060  49.9025560
  99.3571620  57.6138400  49.1278810  99.3200540  57.8780660  50.6180790
 108.6495720  67.9899280  51.9488830 108.1726280  68.7971470  51.7561440
 107.9657510  67.3377610  52.1015040  99.6528540  64.1549100  54.9373530
  98.7557070  64.3789070  55.1846930  99.6781410  64.2784040  53.9884930
 106.6933760  61.0042220  40.8514790 107.1327040  60.1664650  40.7052610
 107.4062180  61.6371620  40.9378930  98.4799760  61.0262420  53.5130900
  98.3407530  61.8985220  53.8818300  97.5981120  60.6835230  53.3678840
 104.8029140  65.9438290  44.8196030 105.2425050  66.6862620  44.4051420
 104.7416030  66.1864860  45.7434990 100.2780110  66.9684120  55.7216050
 100.2495540  67.3727070  54.8544480 100.1145080  66.0394480  55.5587650
 110.2750900  52.2585030  39.1655830 109.9623560  52.3511860  40.0654900
 111.0363370  52.8366060  39.1153260  96.7933040  59.6244830  43.6233170
  96.6730640  60.3506920  43.0114440  96.4833930  58.8547740  43.1461080
  94.4318410  62.7959970  49.4301810  94.5098830  62.9308740  48.4857530
  95.0460090  62.0875860  49.6229930  95.6766040  64.4960160  45.8407990
  95.2694120  64.6374750  44.9861590  96.5679050  64.2120320  45.6379200
 105.4944920  68.6452070  52.7475040 106.0089590  68.5560080  53.5497470
 104.6514000  68.9911770  53.0402950 107.4699320  68.9307410  42.1759040
 107.3100460  68.6410350  43.0740870 107.3046030  68.1547540  41.6404270
  99.9487700  68.7105940  43.9530660  99.7730180  67.7941480  43.7398460
  99.0943440  69.0693230  44.1928460 107.1725450  66.4394970  40.7357040
 106.4790610  66.4372260  40.0759320 107.9148310  66.0154290  40.3051210
 106.7375380  68.0657680  44.8105530 107.1932330  67.2847060  45.1244150
 107.0767900  68.7764500  45.3546710  94.4877930  63.8374140  51.9696270
  94.6508970  63.3679500  51.1515640  94.9530380  63.3297700  52.6345110
  99.2596700  52.9679900  47.0056840  98.8164850  53.7489440  46.6741360
  99.8181690  53.2909790  47.7127780 103.5466510  55.8348420  52.6092160
 103.0845880  56.0431440  53.4212100 103.1444620  55.0207770  52.3062830
 108.5471020  57.0557370  53.7388820 107.6964610  56.7563120  54.0597890
 108.3872810  57.2999380  52.8272640 105.6420730  58.5559120  55.8387610
 105.9674140  57.7222870  55.4989840 106.4301060  59.0787640  55.9865940
 102.3755520  52.5890600  41.8862670 101.7509700  52.5850470  42.6115980
 102.2885640  51.7221560  41.4898640 101.2972600  53.5127230  48.8646440
 101.5944930  54.4190060  48.7838460 101.8458160  53.0246010  48.2506010
  99.0510920  58.0913470  44.7338090  98.8251840  57.8750640  45.6384710
  98.2703450  58.5241930  44.3884060 106.2808680  58.0976840  43.3328740
 105.6817570  58.8212640  43.1492360 106.8288290  58.0353620  42.5505190
 101.4910130  58.9899050  55.3998360 101.3953730  58.0493780  55.2498760
 102.3342110  59.2114120  55.0046430 104.8873550  56.7340380  45.3632020
 105.2803120  57.0512580  44.5500710 105.2490400  55.8552260  45.4776540
  96.6220670  55.4012720  53.5532140  96.2284060  56.2487930  53.7604920
  95.9339070  54.7639090  53.7440780 103.1965720  55.4847690  56.6228880
 102.5064040  55.2919890  57.2574970 103.9398020  55.7682330  57.1553180
  93.9237720  53.3241180  47.5862220  93.6350770  53.8944040  48.2987200
  94.6683480  52.8445630  47.9493450  94.1107950  57.2661300  38.7964940
  94.0282620  58.2092060  38.9379930  93.7591010  57.1236210  37.9177290
 105.4728690  59.3246130  49.4582800 104.7409810  59.8332940  49.8072900
 105.0753030  58.5076110  49.1571580 101.9106080  56.0000330  47.8635290
 101.9142140  55.5590280  47.0139830 102.8057200  56.3217660  47.9707110
  97.7608460  55.8826820  46.8229500  97.4208510  56.3602050  47.5796550
  96.9985780  55.4291940  46.4630600 101.9726230  57.0012410  40.8542050
 102.0939050  56.9598890  41.8027870 101.5874740  57.8636560  40.6988780
 105.9354600  54.7779810  48.8705740 105.9527340  55.2288460  49.7147590
 105.6870180  53.8785450  49.0839180 100.9847730  59.3113550  40.2525350
 100.4164630  58.8631800  39.6261260 101.6936730  59.6706330  39.7190500
 109.3625350  52.1911990  54.7092120 109.6871120  51.4601650  55.2350100
 109.3981860  51.8725630  53.8073110  96.0616910  63.2125570  54.1292080
  95.6771700  62.5719240  54.7275040  96.3729100  63.9161690  54.6986810
 102.2114050  60.0602110  49.6100700 102.5784180  59.5860680  50.3562040
 102.0219110  60.9343680  49.9509040  95.0754540  54.8045800  45.7394170
  94.7901460  54.4401470  46.5772790  95.0133400  54.0726260  45.1257310
 100.0013420  59.1010750  51.9284910  99.6970490  59.9802730  52.1535270
 100.9559880  59.1610540  51.9642350  98.5295210  63.3071740  42.5251760
  97.7557470  62.7669360  42.3650480  99.2589840  62.7878350  42.1869520
 109.2883190  62.3037100  48.3178150 110.0082310  62.7992390  47.9274260
 109.0865010  61.6254990  47.6732020 104.7493130  53.6975060  42.4607540
 103.9357740  53.1988230  42.3852850 104.5555080  54.5373310  42.0443890
 104.6701990  62.3746160  54.2047150 104.6039300  61.4541830  53.9504740
 104.0407130  62.4721600  54.9191790 107.4641520  58.0694710  40.7569700
 108.3521140  58.3811940  40.5821040 107.4346610  57.1966960  40.3650280
  98.5732610  62.9752120  46.1630570  99.0911280  62.1720380  46.1087460
  98.1216630  62.9131260  47.0047400 103.4602110  64.2418400  41.4357870
 103.8017810  64.9860630  40.9401190 102.6314820  64.5549520  41.7982700
  96.0577150  59.9413490  53.0756270  95.6992090  60.6067340  53.6629610
  95.7631710  59.1097040  53.4468890  99.2590270  60.3997730  55.9595820
  98.9590410  60.5454910  55.0623640 100.0301510  59.8403020  55.8669210
 104.6018720  65.1966730  53.9550950 104.6163260  64.2647690  53.7369860
 103.8943820  65.2826490  54.5940720 109.7355790  59.3806550  40.2249560
 109.6519510  59.8120770  39.3746000 110.4549980  59.8404900  40.6576380
 110.7643040  66.2348810  42.9531690 110.1219200  65.5804430  43.2275410
 110.3773700  66.6403900  42.1772360 106.3429520  63.5634240  46.8003380
 106.6953340  62.9662370  46.1404750 105.4591850  63.2378470  46.9711630
 102.4292800  64.3231930  44.2073790 103.1163930  64.8701140  44.5881380
 101.6425220  64.8672660  44.2423400  94.5685200  59.9404750  39.6990870
  95.4380050  60.2229550  39.9826790  94.0775520  60.7540620  39.5839680
 101.7320010  61.3277960  43.8199150 102.1882790  62.1383210  44.0459340
 101.3808220  61.0101100  44.6517640 104.0352620  66.8384300  51.0491450
 104.6794840  67.0443680  51.7264870 104.3982060  66.0772700  50.5962300
  97.6331790  51.6715610  44.2921670  97.5046420  51.6633510  45.2406590
  96.8093810  52.0098700  43.9412680 105.3084700  64.8416650  49.7668900
 105.9506930  64.1409810  49.8801070 105.8334050  65.6215090  49.5865790
 109.1540420  65.1265270  39.4908040 108.9278000  64.4095710  40.0832680
 108.7636620  64.8777710  38.6529790 107.0822320  65.6411550  52.9704960
 107.4178560  66.2278240  53.6482880 106.1622660  65.5104260  53.2002750
  94.9356450  69.1532130  40.2652500  95.2954090  69.7521470  39.6109770
  94.7948790  69.6992020  41.0387530  94.6325720  53.4306730  53.7528370
  93.9184240  53.6303650  54.3580980  95.0520760  52.6546300  54.1243170
 108.7356670  63.0437210  41.1522200 108.4478370  63.5049900  41.9400080
 109.5308840  62.5834980  41.4206420  94.9198310  67.4186990  54.7394900
  95.0289430  66.4781730  54.5990290  94.2678870  67.6841740  54.0908630
 102.9110900  65.6902880  56.1393020 102.5907770  64.9712120  56.6838710
 102.2369260  66.3657950  56.2129080 100.9525070  66.5363330  41.0826170
 100.9435170  67.2693020  40.4670680 100.0323430  66.2894910  41.1753130
  96.5531710  61.7578220  41.8272930  95.9459660  62.4977120  41.8368230
  97.0281060  61.8477580  41.0011130 106.1264500  55.9229040  51.5029820
 106.4945320  55.1024250  51.8309390 105.2662700  55.9830930  51.9185470
 109.4926530  54.8785980  42.3117380 108.8639690  54.9831650  41.5975610
 108.9978450  55.0982760  43.1011260 103.9384670  66.5991570  39.7451360
 104.0396650  66.3955560  38.8153340 103.0386410  66.3449850  39.9499140
 101.4610560  57.1571930  43.7275260 100.7526710  57.6258270  44.1688870
 101.7455040  56.4993940  44.3620450 103.0866490  58.5768630  51.7267790
 103.5851740  59.0514450  52.3919640 103.2289440  57.6532150  51.9337820
 105.4925990  53.8822590  45.1671050 105.3693770  53.9008720  44.2180560
 106.4410550  53.9301530  45.2869450 102.5802780  69.1177890  44.4399030
 102.8344280  69.0799280  43.5178400 101.6315260  68.9911220  44.4327280
  99.6645580  55.4657010  41.1025970 100.5136110  55.9027160  41.0366160
  99.2976850  55.7777270  41.9298030 110.2933350  54.7936590  52.5696180
 109.7906950  55.5341990  52.9089990 111.1090010  55.1820590  52.2532970
 108.5855360  60.0369770  46.0157540 107.6445500  60.0520000  46.1905230
 108.8999430  59.2505730  46.4617840  98.5637000  61.7189370  39.5761500
  99.3300270  61.6070730  40.1386930  98.6411690  61.0227340  38.9238270
  97.2583760  59.1514440  40.2594390  97.3387350  58.2041950  40.3711790
  98.1503510  59.4821320  40.3655050  98.0598470  69.3009830  47.3628930
  98.7960950  68.7525290  47.6337500  98.4439390  70.1665840  47.2234920
  94.9443950  65.3683400  43.2370440  94.0183730  65.6104540  43.2275850
  95.4100380  66.1957660  43.1155190  97.0656750  68.4855900  56.5514510
  97.8669480  68.8067950  56.9649910  96.5508570  68.1251480  57.2734420
 101.1700780  68.4740140  39.1854500 101.9629390  68.7628970  38.7336290
 100.6505130  68.0432310  38.5066980 105.9021380  64.5935770  56.4989920
 105.2959540  64.6167370  55.7585670 105.5975490  63.8618810  57.0357170
 107.3321750  68.3216060  55.1099330 108.2843500  68.2374080  55.0599570
 107.1849970  68.9857770  55.7833120 110.2230950  67.7010270  40.6091240
 109.9372460  67.2875410  39.7945420 110.0250500  68.6297980  40.4891760
  94.7854560  60.9729360  55.4950560  95.2893580  60.3936640  56.0666790
  94.0461980  61.2569590  56.0326930 101.6878180  63.6943550  39.0496850
 101.5828820  63.0795900  39.7758230 101.5202400  63.1709440  38.2659860
 101.8392500  62.3800350  55.0286080 101.0738170  62.9485350  54.9440750
 102.0208460  62.0876560  54.1354310 104.9280910  62.7563580  39.6538840
 104.3791010  63.2032880  40.2981580 105.5500170  62.2512830  40.1776510
 108.9815850  64.1105680  55.5861100 109.7225320  64.4481440  55.0828560
 108.2188530  64.2797740  55.0330870  96.8177640  59.1158950  56.3900630
  96.8582980  58.8172820  57.2985860  97.6723140  59.5166560  56.2308150
 100.5956030  61.7154500  41.5504140 101.0172450  61.5494370  42.3935530
 100.7206870  60.9054730  41.0559280  98.7583450  57.6951050  54.3575120
  98.2279910  57.2042000  53.7298460  99.4271520  58.1235250  53.8233050
 103.1083670  60.7392110  38.7981240 103.6289330  60.0241130  38.4322390
 103.7552070  61.3777980  39.0981750 107.6561510  62.1620510  54.1216310
 108.0702530  62.3165590  54.9706730 106.7212510  62.2875730  54.2842090
 108.1283680  59.5016670  56.1255460 108.7104450  58.7468990  56.0375940
 108.3045450  60.0324110  55.3486940  99.2455750  54.6613420  54.4372410
  99.1512620  54.0434170  53.7123280  98.6653140  55.3879710  54.2102320
 102.0117190  53.2186660  51.4699800 101.5634490  53.2410920  50.6245350
 101.3782390  52.8205680  52.0670100 102.4176740  62.1140990  52.0912240
 102.8364850  62.9573720  51.9188480 101.4985370  62.2513030  51.8619020
 104.7540640  59.8457170  53.4750080 104.8736850  59.2498310  54.2144920
 105.6134640  59.8826860  53.0551380 107.0928540  60.3994360  52.0512590
 106.5663760  60.9236980  51.4477730 107.4359880  61.0321750  52.6822320
  99.4914930  57.7887730  38.4962300  99.2903990  56.9255090  38.8575640
  99.3206980  57.7021090  37.5583900 100.2684160  68.4194000  53.2069970
  99.7305250  69.1440060  52.8878670 100.5218120  67.9424340  52.4167310
 101.5209410  56.3878520  54.7325900 102.1109100  56.0794370  55.4203720
 100.7029650  55.9158270  54.8885800 106.3402840  56.0044330  54.9658920
 105.6518360  55.3425870  54.9008910 107.0608860  55.5582600  55.4107380
 106.9703240  52.5995960  41.0249180 107.2505530  51.7563860  41.3808600
 106.1968970  52.8319070  41.5387930  98.2897730  54.8888350  38.4840180
  98.5923630  54.8955780  37.5759330  99.0292320  54.5386210  38.9807840
 103.1246370  69.6545210  53.4656620 103.0505070  70.5580350  53.7728990
 102.2225210  69.3357110  53.4378690 101.5082660  53.8322970  39.4696380
 101.1604660  53.1546960  38.8898830 101.7095430  53.3712480  40.2839770
 103.6731700  68.8203720  41.0882980 104.5682490  69.1588690  41.1101740
 103.7049330  68.0983130  40.4607260  97.3127860  64.1930770  39.3169980
  97.7502730  64.7360440  39.9727560  97.7975590  63.3677720  39.3266320
  94.5273660  66.9819800  46.7690240  94.8576670  66.1140860  46.5368880
  94.9564660  67.1878320  47.5995200  99.1235580  65.3128810  44.4292210
  98.8231120  65.1893780  45.3296120  99.0173070  64.4537400  44.0207940
  95.0163870  67.8490390  49.5071870  94.5794860  68.0291190  50.3396020
  95.5841550  68.6065010  49.3653590 110.6526050  67.3507390  53.7949180
 110.0528040  67.4099950  53.0513100 110.7819950  66.4112370  53.9246030
  94.8488300  60.3610620  45.8660750  94.1937140  60.0922260  45.2220450
  95.6866250  60.2515100  45.4162730 109.3377690  64.0759370  51.8925340
 108.5237530  64.5056530  52.1551130 109.7451890  64.6877780  51.2794390
 107.7978740  55.1551910  40.0879240 108.2163620  54.9682890  39.2475900
 107.4914800  54.3030960  40.3982170  95.8864230  60.7463190  50.4064090
  96.2537270  60.6590590  51.2860110  95.3175050  59.9829740  50.3070950
 110.6868090  59.2147570  53.4194560 110.4554180  58.9860320  52.5192510
 110.9472640  60.1347120  53.3739450  95.4380230  57.6572280  54.3122510
  94.5436280  57.6239040  54.6516220  95.9777780  57.8559070  55.0773760
 109.1256160  54.4404000  56.1974260 110.0026340  54.4487400  56.5808260
 109.1377000  53.7034840  55.5866610  94.0626380  57.5709550  41.8086080
  93.1590460  57.8339750  41.6337740  94.5467000  57.8420720  41.0286040
 110.5719430  58.2933540  47.0862280 111.0956910  57.7996190  46.4552450
 111.1578850  58.4283900  47.8309850 110.7509150  58.3773410  50.6081830
 109.8011860  58.3436950  50.7226820 110.9322160  59.2873520  50.3731600
  96.6053590  56.6275090  39.7180460  97.3145290  56.2058310  39.2327740
  95.8893530  56.6950320  39.0863810  96.2527750  52.6814420  38.7583110
  96.9755880  53.2223360  39.0764330  96.5252270  52.4077840  37.8824650
 110.0619400  57.5506890  43.0254690 110.5578520  57.3177760  43.8103570
 109.8635470  56.7118730  42.6092330  95.9419940  51.9320610  48.6605730
  96.5896130  51.3817990  48.2200890  96.3621780  52.1863760  49.4821540
 109.8372280  52.1261970  52.0175370 110.4744500  52.7396110  52.3834560
 109.9847170  52.1622630  51.0724600 109.3953740  68.8277970  45.4193610
 109.9912810  68.5062540  44.7428030 109.6531890  68.3549790  46.2106880
  95.6951940  52.0876280  51.4031050  95.3466760  52.5440100  52.1689230
  95.3639640  51.1933410  51.4853480  97.3016310  65.2595880  55.5684240
  97.2585940  64.8888790  56.4498700  97.4327320  66.1973450  55.7086060
 101.0022340  66.8155470  51.1693960 100.7613700  67.0830030  50.2824480
 101.9424980  66.9861200  51.2244820 103.2076760  53.2788160  54.9250470
 103.1465650  53.8709990  55.6745880 104.1477140  53.1714120  54.7800730
 105.8451320  52.9358220  54.5642760 106.4591730  53.2537510  53.9023840
 106.3900880  52.4506810  55.1838620  96.3672580  51.6152480  54.6781820
  96.9155570  51.4340530  53.9147930  96.4327890  50.8246590  55.2138130
  97.1404340  68.2058130  52.6882020  96.5464660  68.0742830  53.4272060
  97.1328180  67.3696270  52.2224120 106.5859360  51.4990360  50.8912050
 105.7119200  51.8325470  50.6884980 106.4770110  51.0263540  51.7163920
 107.4931340  53.7061230  52.2753770 107.1644700  52.8912990  51.8955500
 108.4413640  53.6631040  52.1519460 109.9465950  69.4773270  49.2491340
 109.4868920  70.2289080  48.8749360 109.3178410  68.7579740  49.1906140
  96.7716570  65.5716510  51.6390060  96.0450630  64.9521800  51.5716010
  96.8325720  65.9657120  50.7688140 100.3761670  67.7861510  48.4239470
 100.8926690  67.1748870  47.8987730 101.0259050  68.2890290  48.9150480
 103.1157170  68.6770000  49.2508450 103.4034980  68.4224300  48.3741460
 103.6280390  68.1247360  49.8414020 104.3334180  52.4160200  49.8304960
 103.5505970  52.8905700  50.1101720 104.0397110  51.5115030  49.7218140
 108.8855250  53.1183300  47.8754050 109.3263340  53.0628400  47.0275650
 108.6162840  54.0341310  47.9464230  95.0546570  68.8890900  44.8486820
  94.8868610  68.2561580  45.5468710  94.1881080  69.0950300  44.4981010
  95.6774590  52.7207680  42.3518680  96.4353950  52.8336560  41.7782710
  95.2151760  53.5576880  42.3062110 102.2188400  54.8346950  45.3420990
 101.4062910  54.4603840  45.0016870 102.7230040  54.0792030  45.6442180
 106.7213380  51.4989400  46.5804060 107.3242750  52.0709610  47.0552580
 105.9806370  52.0628840  46.3577960 109.8647980  51.9010960  41.8544340
 110.0598610  52.7994410  42.1211770 109.0777850  51.6698040  42.3477290
  96.6609270  67.5824130  42.2936960  96.1356890  67.9632160  41.5898920
  96.5853850  68.2074900  43.0146670  98.0499740  53.2471730  40.8920650
  98.5792500  52.4601530  40.7628600  98.6828060  53.9262920  41.1256180
 100.2437580  52.9846870  43.9466040  99.6140320  52.2834180  44.1136170
  99.7042720  53.7451000  43.7299200 103.1829530  69.5986100  56.6176650
 104.1096840  69.3630370  56.6612610 103.1679960  70.4258100  56.1362680
 100.3693140  52.2630850  56.3818530 100.0877410  52.7664450  55.6179350
 100.7512840  51.4652600  56.0160660  99.2602240  69.5306510  41.1686210
  99.9921060  69.2465790  40.6210100  99.5195910  69.2919790  42.0585590
  98.4217030  65.6471240  41.1732540  97.7925910  66.1156340  41.7218370
  98.5364860  64.8020460  41.6078730 106.9708600  51.6784430  56.9599000
 106.8574050  51.9979040  57.8550520 107.7878340  52.0796940  56.6636280
 109.7507090  68.8255960  56.4417690 110.5432410  68.3305190  56.2343650
 110.0440240  69.5046100  57.0493300 105.8766750  59.6976900  27.3233740
 105.7960800  58.7831510  27.0525450 105.4631170  60.1943970  26.6173450
 104.0084790  61.4755920  29.2043010 103.2326890  60.9956360  29.4941580
 104.6597720  60.7961570  29.0299170  98.0250620  61.7875730  30.0818770
  97.1935500  61.5324440  30.4815280  98.6331600  61.8586500  30.8176690
 108.0292220  65.8816110  27.9842140 107.5673750  65.1103350  28.3129310
 108.8417770  65.9082180  28.4894590  98.0051880  65.8215820  30.2776790
  98.3079920  64.9313560  30.0987010  98.7495470  66.3786040  30.0499040
  96.4342570  56.7477620  23.8661160  95.5459270  57.0893590  23.7641040
  96.7183760  56.5477940  22.9741990  94.3975580  59.3483270  29.7500860
  94.9691690  58.5805470  29.7504500  94.3977120  59.6472030  28.8407470
 104.2555530  68.1674120  27.6046130 103.6366970  68.6231620  27.0340570
 105.1107310  68.3225580  27.2035830 103.4493780  64.1513110  29.2113170
 103.3802060  63.2103050  29.0502300 104.2113640  64.2414520  29.7835740
  95.6400450  54.7567630  31.5369790  95.4603290  53.8593380  31.8172550
  95.2380530  55.3039500  32.2116740 104.4798950  56.9583490  29.4382100
 104.8563770  56.0855370  29.3255770 104.3818460  57.2942190  28.5472540
  98.6103960  55.3309120  24.8999540  98.7170710  56.2312850  25.2068300
  97.6996320  55.2827090  24.6094190 108.2623070  54.4533930  26.3710440
 109.0832690  53.9630500  26.4135920 108.2957150  55.0431590  27.1242280
  96.2587120  57.2528130  30.1452130  96.9397230  57.5166500  30.7639530
  95.9435170  56.4129000  30.4790140 100.4511690  58.2995490  29.2324720
 100.9589910  58.7976460  29.8729740 100.9824930  57.5230690  29.0564080
  98.7347790  52.9394050  33.4988140  98.7366230  53.4566440  32.6934040
  97.9052100  52.4624230  33.4758070 105.1218880  63.0513360  24.9978040
 104.5036150  63.5162810  24.4340760 105.6342130  63.7440840  25.4147550
  99.9850640  62.5789230  31.6761640  99.6520020  63.2058150  32.3182710
 100.1617320  63.1051110  30.8963310 108.4984550  56.3934310  29.1437980
 107.7940120  56.6819200  29.7241090 108.8596710  57.2034420  28.7837540
  98.4163120  54.6504010  31.5058590  98.7579930  55.4946060  31.2112460
  97.4778930  54.7987750  31.6223930  99.1969740  64.5470030  33.4910820
  99.8143740  65.2221110  33.2095270  98.3362860  64.9558010  33.3998320
  94.4902080  63.7369890  22.3717670  94.1130060  64.2256990  21.6402570
  94.7475150  64.4095170  23.0024200 110.1147330  66.0109440  31.4065460
 109.4310850  66.6808550  31.3982130 110.6541620  66.2090090  30.6410320
 102.0991010  52.1386280  27.8303180 102.4065990  51.5833170  27.1138680
 101.1691710  52.2730740  27.6476170 107.6506070  67.8553570  30.1210640
 107.6633230  67.4515860  29.2532900 107.0981290  68.6300860  30.0172070
 108.9451490  64.5769790  25.2100810 108.8347820  63.6344120  25.3350230
 108.9419740  64.9385430  26.0963570 107.0491510  62.7583410  31.4493250
 107.4660300  62.5443520  30.6146710 107.7731330  63.0156200  32.0201870
 104.4871770  60.2035110  24.5663300 103.5601050  60.1372490  24.7951770
 104.6396590  61.1415240  24.4518540 104.4740850  56.4752110  21.5630460
 103.5344520  56.6366070  21.6482920 104.7924110  57.1937790  21.0166450
 108.5169060  61.7655410  25.0698550 107.8981480  61.4274960  24.4224850
 108.4993510  61.1215170  25.7777740 107.9595620  57.9439950  32.4864360
 107.5466800  58.7693660  32.7404350 107.2271570  57.3584990  32.2940720
 100.0928410  60.7299850  27.3483030  99.6885410  60.0177100  26.8528930
 100.1791530  60.3853090  28.2371070 100.5610110  64.4167410  29.5122240
 100.2638400  63.8112880  28.8330020 101.5109930  64.4544720  29.4011600
  98.8057030  57.5043060  31.1282070  99.3571620  57.6138400  30.3535320
  99.3200540  57.8780660  31.8437300 108.6495720  67.9899280  33.1745340
 108.1726280  68.7971470  32.9817950 107.9657510  67.3377610  33.3271550
  99.6528540  64.1549100  36.1630040  98.7557070  64.3789070  36.4103440
  99.6781410  64.2784040  35.2141440 106.6933760  61.0042220  22.0771300
 107.1327040  60.1664650  21.9309120 107.4062180  61.6371620  22.1635440
  98.4799760  61.0262420  34.7387410  98.3407530  61.8985220  35.1074810
  97.5981120  60.6835230  34.5935350 104.8029140  65.9438290  26.0452540
 105.2425050  66.6862620  25.6307930 104.7416030  66.1864860  26.9691500
 100.2780110  66.9684120  36.9472560 100.2495540  67.3727070  36.0800990
 100.1145080  66.0394480  36.7844160 110.2750900  52.2585030  20.3912340
 109.9623560  52.3511860  21.2911410 111.0363370  52.8366060  20.3409770
  96.7933040  59.6244830  24.8489680  96.6730640  60.3506920  24.2370950
  96.4833930  58.8547740  24.3717590  94.4318410  62.7959970  30.6558320
  94.5098830  62.9308740  29.7114040  95.0460090  62.0875860  30.8486440
  95.6766040  64.4960160  27.0664500  95.2694120  64.6374750  26.2118100
  96.5679050  64.2120320  26.8635710 105.4944920  68.6452070  33.9731550
 106.0089590  68.5560080  34.7753980 104.6514000  68.9911770  34.2659460
 107.4699320  68.9307410  23.4015550 107.3100460  68.6410350  24.2997380
 107.3046030  68.1547540  22.8660780  99.9487700  68.7105940  25.1787170
  99.7730180  67.7941480  24.9654970  99.0943440  69.0693230  25.4184970
 107.1725450  66.4394970  21.9613550 106.4790610  66.4372260  21.3015830
 107.9148310  66.0154290  21.5307720 106.7375380  68.0657680  26.0362040
 107.1932330  67.2847060  26.3500660 107.0767900  68.7764500  26.5803220
  94.4877930  63.8374140  33.1952780  94.6508970  63.3679500  32.3772150
  94.9530380  63.3297700  33.8601620  99.2596700  52.9679900  28.2313350
  98.8164850  53.7489440  27.8997870  99.8181690  53.2909790  28.9384290
 103.5466510  55.8348420  33.8348670 103.0845880  56.0431440  34.6468610
 103.1444620  55.0207770  33.5319340 108.5471020  57.0557370  34.9645330
 107.6964610  56.7563120  35.2854400 108.3872810  57.2999380  34.0529150
 105.6420730  58.5559120  37.0644120 105.9674140  57.7222870  36.7246350
 106.4301060  59.0787640  37.2122450 102.3755520  52.5890600  23.1119180
 101.7509700  52.5850470  23.8372490 102.2885640  51.7221560  22.7155150
 101.2972600  53.5127230  30.0902950 101.5944930  54.4190060  30.0094970
 101.8458160  53.0246010  29.4762520  99.0510920  58.0913470  25.9594600
  98.8251840  57.8750640  26.8641220  98.2703450  58.5241930  25.6140570
 106.2808680  58.0976840  24.5585250 105.6817570  58.8212640  24.3748870
 106.8288290  58.0353620  23.7761700 101.4910130  58.9899050  36.6254870
 101.3953730  58.0493780  36.4755270 102.3342110  59.2114120  36.2302940
 104.8873550  56.7340380  26.5888530 105.2803120  57.0512580  25.7757220
 105.2490400  55.8552260  26.7033050  96.6220670  55.4012720  34.7788650
  96.2284060  56.2487930  34.9861430  95.9339070  54.7639090  34.9697290
 103.1965720  55.4847690  37.8485390 102.5064040  55.2919890  38.4831480
 103.9398020  55.7682330  38.3809690  93.9237720  53.3241180  28.8118730
  93.6350770  53.8944040  29.5243710  94.6683480  52.8445630  29.1749960
  94.1107950  57.2661300  20.0221450  94.0282620  58.2092060  20.1636440
  93.7591010  57.1236210  19.1433800 105.4728690  59.3246130  30.6839310
 104.7409810  59.8332940  31.0329410 105.0753030  58.5076110  30.3828090
 101.9106080  56.0000330  29.0891800 101.9142140  55.5590280  28.2396340
 102.8057200  56.3217660  29.1963620  97.7608460  55.8826820  28.0486010
  97.4208510  56.3602050  28.8053060  96.9985780  55.4291940  27.6887110
 101.9726230  57.0012410  22.0798560 102.0939050  56.9598890  23.0284380
 101.5874740  57.8636560  21.9245290 105.9354600  54.7779810  30.0962250
 105.9527340  55.2288460  30.9404100 105.6870180  53.8785450  30.3095690
 100.9847730  59.3113550  21.4781860 100.4164630  58.8631800  20.8517770
 101.6936730  59.6706330  20.9447010 109.3625350  52.1911990  35.9348630
 109.6871120  51.4601650  36.4606610 109.3981860  51.8725630  35.0329620
  96.0616910  63.2125570  35.3548590  95.6771700  62.5719240  35.9531550
  96.3729100  63.9161690  35.9243320 102.2114050  60.0602110  30.8357210
 102.5784180  59.5860680  31.5818550 102.0219110  60.9343680  31.1765550
  95.0754540  54.8045800  26.9650680  94.7901460  54.4401470  27.8029300
  95.0133400  54.0726260  26.3513820 100.0013420  59.1010750  33.1541420
  99.6970490  59.9802730  33.3791780 100.9559880  59.1610540  33.1898860
  98.5295210  63.3071740  23.7508270  97.7557470  62.7669360  23.5906990
  99.2589840  62.7878350  23.4126030 109.2883190  62.3037100  29.5434660
 110.0082310  62.7992390  29.1530770 109.0865010  61.6254990  28.8988530
 104.7493130  53.6975060  23.6864050 103.9357740  53.1988230  23.6109360
 104.5555080  54.5373310  23.2700400 104.6701990  62.3746160  35.4303660
 104.6039300  61.4541830  35.1761250 104.0407130  62.4721600  36.1448300
 107.4641520  58.0694710  21.9826210 108.3521140  58.3811940  21.8077550
 107.4346610  57.1966960  21.5906790  98.5732610  62.9752120  27.3887080
  99.0911280  62.1720380  27.3343970  98.1216630  62.9131260  28.2303910
 103.4602110  64.2418400  22.6614380 103.8017810  64.9860630  22.1657700
 102.6314820  64.5549520  23.0239210  96.0577150  59.9413490  34.3012780
  95.6992090  60.6067340  34.8886120  95.7631710  59.1097040  34.6725400
  99.2590270  60.3997730  37.1852330  98.9590410  60.5454910  36.2880150
 100.0301510  59.8403020  37.0925720 104.6018720  65.1966730  35.1807460
 104.6163260  64.2647690  34.9626370 103.8943820  65.2826490  35.8197230
 109.7355790  59.3806550  21.4506070 109.6519510  59.8120770  20.6002510
 110.4549980  59.8404900  21.8832890 110.7643040  66.2348810  24.1788200
 110.1219200  65.5804430  24.4531920 110.3773700  66.6403900  23.4028870
 106.3429520  63.5634240  28.0259890 106.6953340  62.9662370  27.3661260
 105.4591850  63.2378470  28.1968140 102.4292800  64.3231930  25.4330300
 103.1163930  64.8701140  25.8137890 101.6425220  64.8672660  25.4679910
  94.5685200  59.9404750  20.9247380  95.4380050  60.2229550  21.2083300
  94.0775520  60.7540620  20.8096190 101.7320010  61.3277960  25.0455660
 102.1882790  62.1383210  25.2715850 101.3808220  61.0101100  25.8774150
 104.0352620  66.8384300  32.2747960 104.6794840  67.0443680  32.9521380
 104.3982060  66.0772700  31.8218810  97.6331790  51.6715610  25.5178180
  97.5046420  51.6633510  26.4663100  96.8093810  52.0098700  25.1669190
 105.3084700  64.8416650  30.9925410 105.9506930  64.1409810  31.1057580
 105.8334050  65.6215090  30.8122300 109.1540420  65.1265270  20.7164550
 108.9278000  64.4095710  21.3089190 108.7636620  64.8777710  19.8786300
 107.0822320  65.6411550  34.1961470 107.4178560  66.2278240  34.8739390
 106.1622660  65.5104260  34.4259260  94.9356450  69.1532130  21.4909010
  95.2954090  69.7521470  20.8366280  94.7948790  69.6992020  22.2644040
  94.6325720  53.4306730  34.9784880  93.9184240  53.6303650  35.5837490
  95.0520760  52.6546300  35.3499680 108.7356670  63.0437210  22.3778710
 108.4478370  63.5049900  23.1656590 109.5308840  62.5834980  22.6462930
  94.9198310  67.4186990  35.9651410  95.0289430  66.4781730  35.8246800
  94.2678870  67.6841740  35.3165140 102.9110900  65.6902880  37.3649530
 102.5907770  64.9712120  37.9095220 102.2369260  66.3657950  37.4385590
 100.9525070  66.5363330  22.3082680 100.9435170  67.2693020  21.6927190
 100.0323430  66.2894910  22.4009640  96.5531710  61.7578220  23.0529440
  95.9459660  62.4977120  23.0624740  97.0281060  61.8477580  22.2267640
 106.1264500  55.9229040  32.7286330 106.4945320  55.1024250  33.0565900
 105.2662700  55.9830930  33.1441980 109.4926530  54.8785980  23.5373890
 108.8639690  54.9831650  22.8232120 108.9978450  55.0982760  24.3267770
 103.9384670  66.5991570  20.9707870 104.0396650  66.3955560  20.0409850
 103.0386410  66.3449850  21.1755650 101.4610560  57.1571930  24.9531770
 100.7526710  57.6258270  25.3945380 101.7455040  56.4993940  25.5876960
 103.0866490  58.5768630  32.9524300 103.5851740  59.0514450  33.6176150
 103.2289440  57.6532150  33.1594330 105.4925990  53.8822590  26.3927560
 105.3693770  53.9008720  25.4437070 106.4410550  53.9301530  26.5125960
 102.5802780  69.1177890  25.6655540 102.8344280  69.0799280  24.7434910
 101.6315260  68.9911220  25.6583790  99.6645580  55.4657010  22.3282480
 100.5136110  55.9027160  22.2622670  99.2976850  55.7777270  23.1554540
 110.2933350  54.7936590  33.7952690 109.7906950  55.5341990  34.1346500
 111.1090010  55.1820590  33.4789480 108.5855360  60.0369770  27.2414050
 107.6445500  60.0520000  27.4161740 108.8999430  59.2505730  27.6874350
  98.5637000  61.7189370  20.8018010  99.3300270  61.6070730  21.3643440
  98.6411690  61.0227340  20.1494780  97.2583760  59.1514440  21.4850900
  97.3387350  58.2041950  21.5968300  98.1503510  59.4821320  21.5911560
  98.0598470  69.3009830  28.5885440  98.7960950  68.7525290  28.8594010
  98.4439390  70.1665840  28.4491430  94.9443950  65.3683400  24.4626950
  94.0183730  65.6104540  24.4532360  95.4100380  66.1957660  24.3411700
  97.0656750  68.4855900  37.7771020  97.8669480  68.8067950  38.1906420
  96.5508570  68.1251480  38.4990930 101.1700780  68.4740140  20.4111010
 101.9629390  68.7628970  19.9592800 100.6505130  68.0432310  19.7323490
 105.9021380  64.5935770  37.7246430 105.2959540  64.6167370  36.9842180
 105.5975490  63.8618810  38.2613680 107.3321750  68.3216060  36.3355840
 108.2843500  68.2374080  36.2856080 107.1849970  68.9857770  37.0089630
 110.2230950  67.7010270  21.8347750 109.9372460  67.2875410  21.0201930
 110.0250500  68.6297980  21.7148270  94.7854560  60.9729360  36.7207070
  95.2893580  60.3936640  37.2923300  94.0461980  61.2569590  37.2583440
 101.6878180  63.6943550  20.2753360 101.5828820  63.0795900  21.0014740
 101.5202400  63.1709440  19.4916370 101.8392500  62.3800350  36.2542590
 101.0738170  62.9485350  36.1697260 102.0208460  62.0876560  35.3610820
 104.9280910  62.7563580  20.8795350 104.3791010  63.2032880  21.5238090
 105.5500170  62.2512830  21.4033020 108.9815850  64.1105680  36.8117610
 109.7225320  64.4481440  36.3085070 108.2188530  64.2797740  36.2587380
  96.8177640  59.1158950  37.6157140  96.8582980  58.8172820  38.5242370
  97.6723140  59.5166560  37.4564660 100.5956030  61.7154500  22.7760650
 101.0172450  61.5494370  23.6192040 100.7206870  60.9054730  22.2815790
  98.7583450  57.6951050  35.5831630  98.2279910  57.2042000  34.9554970
  99.4271520  58.1235250  35.0489560 103.1083670  60.7392110  20.0237750
 103.6289330  60.0241130  19.6578900 103.7552070  61.3777980  20.3238260
 107.6561510  62.1620510  35.3472820 108.0702530  62.3165590  36.1963240
 106.7212510  62.2875730  35.5098600 108.1283680  59.5016670  37.3511970
 108.7104450  58.7468990  37.2632450 108.3045450  60.0324110  36.5743450
  99.2455750  54.6613420  35.6628920  99.1512620  54.0434170  34.9379790
  98.6653140  55.3879710  35.4358830 102.0117190  53.2186660  32.6956310
 101.5634490  53.2410920  31.8501860 101.3782390  52.8205680  33.2926610
 102.4176740  62.1140990  33.3168750 102.8364850  62.9573720  33.1444990
 101.4985370  62.2513030  33.0875530 104.7540640  59.8457170  34.7006590
 104.8736850  59.2498310  35.4401430 105.6134640  59.8826860  34.2807890
 107.0928540  60.3994360  33.2769100 106.5663760  60.9236980  32.6734240
 107.4359880  61.0321750  33.9078830  99.4914930  57.7887730  19.7218810
  99.2903990  56.9255090  20.0832150  99.3206980  57.7021090  18.7840410
 100.2684160  68.4194000  34.4326480  99.7305250  69.1440060  34.1135180
 100.5218120  67.9424340  33.6423820 101.5209410  56.3878520  35.9582410
 102.1109100  56.0794370  36.6460230 100.7029650  55.9158270  36.1142310
 106.3402840  56.0044330  36.1915430 105.6518360  55.3425870  36.1265420
 107.0608860  55.5582600  36.6363890 106.9703240  52.5995960  22.2505690
 107.2505530  51.7563860  22.6065110 106.1968970  52.8319070  22.7644440
  98.2897730  54.8888350  19.7096690  98.5923630  54.8955780  18.8015840
  99.0292320  54.5386210  20.2064350 103.1246370  69.6545210  34.6913130
 103.0505070  70.5580350  34.9985500 102.2225210  69.3357110  34.6635200
 101.5082660  53.8322970  20.6952890 101.1604660  53.1546960  20.1155340
 101.7095430  53.3712480  21.5096280 103.6731700  68.8203720  22.3139490
 104.5682490  69.1588690  22.3358250 103.7049330  68.0983130  21.6863770
  97.3127860  64.1930770  20.5426490  97.7502730  64.7360440  21.1984070
  97.7975590  63.3677720  20.5522830  94.5273660  66.9819800  27.9946750
  94.8576670  66.1140860  27.7625390  94.9564660  67.1878320  28.8251710
  99.1235580  65.3128810  25.6548720  98.8231120  65.1893780  26.5552630
  99.0173070  64.4537400  25.2464450  95.0163870  67.8490390  30.7328380
  94.5794860  68.0291190  31.5652530  95.5841550  68.6065010  30.5910100
 110.6526050  67.3507390  35.0205690 110.0528040  67.4099950  34.2769610
 110.7819950  66.4112370  35.1502540  94.8488300  60.3610620  27.0917260
  94.1937140  60.0922260  26.4476960  95.6866250  60.2515100  26.6419240
 109.3377690  64.0759370  33.1181850 108.5237530  64.5056530  33.3807640
 109.7451890  64.6877780  32.5050900 107.7978740  55.1551910  21.3135750
 108.2163620  54.9682890  20.4732410 107.4914800  54.3030960  21.6238680
  95.8864230  60.7463190  31.6320600  96.2537270  60.6590590  32.5116620
  95.3175050  59.9829740  31.5327460 110.6868090  59.2147570  34.6451070
 110.4554180  58.9860320  33.7449020 110.9472640  60.1347120  34.5995960
  95.4380230  57.6572280  35.5379020  94.5436280  57.6239040  35.8772730
  95.9777780  57.8559070  36.3030270 109.1256160  54.4404000  37.4230770
 110.0026340  54.4487400  37.8064770 109.1377000  53.7034840  36.8123120
  94.0626380  57.5709550  23.0342590  93.1590460  57.8339750  22.8594250
  94.5467000  57.8420720  22.2542550 110.5719430  58.2933540  28.3118790
 111.0956910  57.7996190  27.6808960 111.1578850  58.4283900  29.0566360
 110.7509150  58.3773410  31.8338340 109.8011860  58.3436950  31.9483330
 110.9322160  59.2873520  31.5988110  96.6053590  56.6275090  20.9436970
  97.3145290  56.2058310  20.4584250  95.8893530  56.6950320  20.3120320
  96.2527750  52.6814420  19.9839620  96.9755880  53.2223360  20.3020840
  96.5252270  52.4077840  19.1081160 110.0619400  57.5506890  24.2511200
 110.5578520  57.3177760  25.0360080 109.8635470  56.7118730  23.8348840
  95.9419940  51.9320610  29.8862240  96.5896130  51.3817990  29.4457400
  96.3621780  52.1863760  30.7078050 109.8372280  52.1261970  33.2431880
 110.4744500  52.7396110  33.6091070 109.9847170  52.1622630  32.2981110
 109.3953740  68.8277970  26.6450120 109.9912810  68.5062540  25.9684540
 109.6531890  68.3549790  27.4363390  95.6951940  52.0876280  32.6287560
  95.3466760  52.5440100  33.3945740  95.3639640  51.1933410  32.7109990
  97.3016310  65.2595880  36.7940750  97.2585940  64.8888790  37.6755210
  97.4327320  66.1973450  36.9342570 101.0022340  66.8155470  32.3950470
 100.7613700  67.0830030  31.5080990 101.9424980  66.9861200  32.4501330
 103.2076760  53.2788160  36.1506980 103.1465650  53.8709990  36.9002390
 104.1477140  53.1714120  36.0057240 105.8451320  52.9358220  35.7899270
 106.4591730  53.2537510  35.1280350 106.3900880  52.4506810  36.4095130
  96.3672580  51.6152480  35.9038330  96.9155570  51.4340530  35.1404440
  96.4327890  50.8246590  36.4394640  97.1404340  68.2058130  33.9138530
  96.5464660  68.0742830  34.6528570  97.1328180  67.3696270  33.4480630
 106.5859360  51.4990360  32.1168560 105.7119200  51.8325470  31.9141490
 106.4770110  51.0263540  32.9420430 107.4931340  53.7061230  33.5010280
 107.1644700  52.8912990  33.1212010 108.4413640  53.6631040  33.3775970
 109.9465950  69.4773270  30.4747850 109.4868920  70.2289080  30.1005870
 109.3178410  68.7579740  30.4162650  96.7716570  65.5716510  32.8646570
  96.0450630  64.9521800  32.7972520  96.8325720  65.9657120  31.9944650
 100.3761670  67.7861510  29.6495980 100.8926690  67.1748870  29.1244240
 101.0259050  68.2890290  30.1406990 103.1157170  68.6770000  30.4764960
 103.4034980  68.4224300  29.5997970 103.6280390  68.1247360  31.0670530
 104.3334180  52.4160200  31.0561470 103.5505970  52.8905700  31.3358230
 104.0397110  51.5115030  30.9474650 108.8855250  53.1183300  29.1010560
 109.3263340  53.0628400  28.2532160 108.6162840  54.0341310  29.1720740
  95.0546570  68.8890900  26.0743330  94.8868610  68.2561580  26.7725220
  94.1881080  69.0950300  25.7237520  95.6774590  52.7207680  23.5775190
  96.4353950  52.8336560  23.0039220  95.2151760  53.5576880  23.5318620
 102.2188400  54.8346950  26.5677500 101.4062910  54.4603840  26.2273380
 102.7230040  54.0792030  26.8698690 106.7213380  51.4989400  27.8060570
 107.3242750  52.0709610  28.2809090 105.9806370  52.0628840  27.5834470
 109.8647980  51.9010960  23.0800850 110.0598610  52.7994410  23.3468280
 109.0777850  51.6698040  23.5733800  96.6609270  67.5824130  23.5193470
  96.1356890  67.9632160  22.8155430  96.5853850  68.2074900  24.2403180
  98.0499740  53.2471730  22.1177160  98.5792500  52.4601530  21.9885110
  98.6828060  53.9262920  22.3512690 100.2437580  52.9846870  25.1722550
  99.6140320  52.2834180  25.3392680  99.7042720  53.7451000  24.9555710
 103.1829530  69.5986100  37.8433160 104.1096840  69.3630370  37.8869120
 103.1679960  70.4258100  37.3619190 100.3693140  52.2630850  37.6075040
 100.0877410  52.7664450  36.8435860 100.7512840  51.4652600  37.2417170
  99.2602240  69.5306510  22.3942720  99.9921060  69.2465790  21.8466610
  99.5195910  69.2919790  23.2842100  98.4217030  65.6471240  22.3989050
  97.7925910  66.1156340  22.9474880  98.5364860  64.8020460  22.8335240
 106.9708600  51.6784430  38.1855510 106.8574050  51.9979040  39.0807030
 107.7878340  52.0796940  37.8892790 109.7507090  68.8255960  37.6674200
 110.5432410  68.3305190  37.4600160 110.0440240  69.5046100  38.2749810
 105.8766750  59.6976900   8.5490250 105.7960800  58.7831510   8.2781960
 105.4631170  60.1943970   7.8429960 104.0084790  61.4755920  10.4299520
 103.2326890  60.9956360  10.7198090 104.6597720  60.7961570  10.2555680
  98.0250620  61.7875730  11.3075280  97.1935500  61.5324440  11.7071790
  98.6331600  61.8586500  12.0433200 108.0292220  65.8816110   9.2098650
 107.5673750  65.1103350   9.5385820 108.8417770  65.9082180   9.7151100
  98.0051880  65.8215820  11.5033300  98.3079920  64.9313560  11.3243520
  98.7495470  66.3786040  11.2755550  96.4342570  56.7477620   5.0917670
  95.5459270  57.0893590   4.9897550  96.7183760  56.5477940   4.1998500
  94.3975580  59.3483270  10.9757370  94.9691690  58.5805470  10.9761010
  94.3977120  59.6472030  10.0663980 104.2555530  68.1674120   8.8302640
 103.6366970  68.6231620   8.2597080 105.1107310  68.3225580   8.4292340
 103.4493780  64.1513110  10.4369680 103.3802060  63.2103050  10.2758810
 104.2113640  64.2414520  11.0092250  95.6400450  54.7567630  12.7626300
  95.4603290  53.8593380  13.0429060  95.2380530  55.3039500  13.4373250
 104.4798950  56.9583490  10.6638610 104.8563770  56.0855370  10.5512280
 104.3818460  57.2942190   9.7729050  98.6103960  55.3309120   6.1256050
  98.7170710  56.2312850   6.4324810  97.6996320  55.2827090   5.8350700
 108.2623070  54.4533930   7.5966950 109.0832690  53.9630500   7.6392430
 108.2957150  55.0431590   8.3498790  96.2587120  57.2528130  11.3708640
  96.9397230  57.5166500  11.9896040  95.9435170  56.4129000  11.7046650
 100.4511690  58.2995490  10.4581230 100.9589910  58.7976460  11.0986250
 100.9824930  57.5230690  10.2820590  98.7347790  52.9394050  14.7244650
  98.7366230  53.4566440  13.9190550  97.9052100  52.4624230  14.7014580
 105.1218880  63.0513360   6.2234550 104.5036150  63.5162810   5.6597270
 105.6342130  63.7440840   6.6404060  99.9850640  62.5789230  12.9018150
  99.6520020  63.2058150  13.5439220 100.1617320  63.1051110  12.1219820
 108.4984550  56.3934310  10.3694490 107.7940120  56.6819200  10.9497600
 108.8596710  57.2034420  10.0094050  98.4163120  54.6504010  12.7315100
  98.7579930  55.4946060  12.4368970  97.4778930  54.7987750  12.8480440
  99.1969740  64.5470030  14.7167330  99.8143740  65.2221110  14.4351780
  98.3362860  64.9558010  14.6254830  94.4902080  63.7369890   3.5974180
  94.1130060  64.2256990   2.8659080  94.7475150  64.4095170   4.2280710
 110.1147330  66.0109440  12.6321970 109.4310850  66.6808550  12.6238640
 110.6541620  66.2090090  11.8666830 102.0991010  52.1386280   9.0559690
 102.4065990  51.5833170   8.3395190 101.1691710  52.2730740   8.8732680
 107.6506070  67.8553570  11.3467150 107.6633230  67.4515860  10.4789410
 107.0981290  68.6300860  11.2428580 108.9451490  64.5769790   6.4357320
 108.8347820  63.6344120   6.5606740 108.9419740  64.9385430   7.3220080
 107.0491510  62.7583410  12.6749760 107.4660300  62.5443520  11.8403220
 107.7731330  63.0156200  13.2458380 104.4871770  60.2035110   5.7919810
 103.5601050  60.1372490   6.0208280 104.6396590  61.1415240   5.6775050
 104.4740850  56.4752110   2.7886970 103.5344520  56.6366070   2.8739430
 104.7924110  57.1937790   2.2422960 108.5169060  61.7655410   6.2955060
 107.8981480  61.4274960   5.6481360 108.4993510  61.1215170   7.0034250
 107.9595620  57.9439950  13.7120870 107.5466800  58.7693660  13.9660860
 107.2271570  57.3584990  13.5197230 100.0928410  60.7299850   8.5739540
  99.6885410  60.0177100   8.0785440 100.1791530  60.3853090   9.4627580
 100.5610110  64.4167410  10.7378750 100.2638400  63.8112880  10.0586530
 101.5109930  64.4544720  10.6268110  98.8057030  57.5043060  12.3538580
  99.3571620  57.6138400  11.5791830  99.3200540  57.8780660  13.0693810
 108.6495720  67.9899280  14.4001850 108.1726280  68.7971470  14.2074460
 107.9657510  67.3377610  14.5528060  99.6528540  64.1549100  17.3886550
  98.7557070  64.3789070  17.6359950  99.6781410  64.2784040  16.4397950
 106.6933760  61.0042220   3.3027810 107.1327040  60.1664650   3.1565630
 107.4062180  61.6371620   3.3891950  98.4799760  61.0262420  15.9643920
  98.3407530  61.8985220  16.3331320  97.5981120  60.6835230  15.8191860
 104.8029140  65.9438290   7.2709050 105.2425050  66.6862620   6.8564440
 104.7416030  66.1864860   8.1948010 100.2780110  66.9684120  18.1729070
 100.2495540  67.3727070  17.3057500 100.1145080  66.0394480  18.0100670
  96.7933040  59.6244830   6.0746190  96.6730640  60.3506920   5.4627460
  96.4833930  58.8547740   5.5974100  94.4318410  62.7959970  11.8814830
  94.5098830  62.9308740  10.9370550  95.0460090  62.0875860  12.0742950
  95.6766040  64.4960160   8.2921010  95.2694120  64.6374750   7.4374610
  96.5679050  64.2120320   8.0892220 105.4944920  68.6452070  15.1988060
 106.0089590  68.5560080  16.0010490 104.6514000  68.9911770  15.4915970
 107.4699320  68.9307410   4.6272060 107.3100460  68.6410350   5.5253890
 107.3046030  68.1547540   4.0917290  99.9487700  68.7105940   6.4043680
  99.7730180  67.7941480   6.1911480  99.0943440  69.0693230   6.6441480
 107.1725450  66.4394970   3.1870060 106.4790610  66.4372260   2.5272340
 107.9148310  66.0154290   2.7564230 106.7375380  68.0657680   7.2618550
 107.1932330  67.2847060   7.5757170 107.0767900  68.7764500   7.8059730
  94.4877930  63.8374140  14.4209290  94.6508970  63.3679500  13.6028660
  94.9530380  63.3297700  15.0858130  99.2596700  52.9679900   9.4569860
  98.8164850  53.7489440   9.1254380  99.8181690  53.2909790  10.1640800
 103.5466510  55.8348420  15.0605180 103.0845880  56.0431440  15.8725120
 103.1444620  55.0207770  14.7575850 108.5471020  57.0557370  16.1901840
 107.6964610  56.7563120  16.5110910 108.3872810  57.2999380  15.2785660
 105.6420730  58.5559120  18.2900630 105.9674140  57.7222870  17.9502860
 106.4301060  59.0787640  18.4378960 102.3755520  52.5890600   4.3375690
 101.7509700  52.5850470   5.0629000 102.2885640  51.7221560   3.9411660
 101.2972600  53.5127230  11.3159460 101.5944930  54.4190060  11.2351480
 101.8458160  53.0246010  10.7019030  99.0510920  58.0913470   7.1851110
  98.8251840  57.8750640   8.0897730  98.2703450  58.5241930   6.8397080
 106.2808680  58.0976840   5.7841760 105.6817570  58.8212640   5.6005380
 106.8288290  58.0353620   5.0018210 101.4910130  58.9899050  17.8511380
 101.3953730  58.0493780  17.7011780 102.3342110  59.2114120  17.4559450
 104.8873550  56.7340380   7.8145040 105.2803120  57.0512580   7.0013730
 105.2490400  55.8552260   7.9289560  96.6220670  55.4012720  16.0045160
  96.2284060  56.2487930  16.2117940  95.9339070  54.7639090  16.1953800
 103.1965720  55.4847690  19.0741900 102.5064040  55.2919890  19.7087990
 103.9398020  55.7682330  19.6066200  93.9237720  53.3241180  10.0375240
  93.6350770  53.8944040  10.7500220  94.6683480  52.8445630  10.4006470
 105.4728690  59.3246130  11.9095820 104.7409810  59.8332940  12.2585920
 105.0753030  58.5076110  11.6084600 101.9106080  56.0000330  10.3148310
 101.9142140  55.5590280   9.4652850 102.8057200  56.3217660  10.4220130
  97.7608460  55.8826820   9.2742520  97.4208510  56.3602050  10.0309570
  96.9985780  55.4291940   8.9143620 101.9726230  57.0012410   3.3055070
 102.0939050  56.9598890   4.2540890 101.5874740  57.8636560   3.1501800
 105.9354600  54.7779810  11.3218760 105.9527340  55.2288460  12.1660610
 105.6870180  53.8785450  11.5352200 100.9847730  59.3113550   2.7038370
 100.4164630  58.8631800   2.0774280 101.6936730  59.6706330   2.1703520
 109.3625350  52.1911990  17.1605140 109.6871120  51.4601650  17.6863120
 109.3981860  51.8725630  16.2586130  96.0616910  63.2125570  16.5805100
  95.6771700  62.5719240  17.1788060  96.3729100  63.9161690  17.1499830
 102.2114050  60.0602110  12.0613720 102.5784180  59.5860680  12.8075060
 102.0219110  60.9343680  12.4022060  95.0754540  54.8045800   8.1907190
  94.7901460  54.4401470   9.0285810  95.0133400  54.0726260   7.5770330
 100.0013420  59.1010750  14.3797930  99.6970490  59.9802730  14.6048290
 100.9559880  59.1610540  14.4155370  98.5295210  63.3071740   4.9764780
  97.7557470  62.7669360   4.8163500  99.2589840  62.7878350   4.6382540
 109.2883190  62.3037100  10.7691170 110.0082310  62.7992390  10.3787280
 109.0865010  61.6254990  10.1245040 104.7493130  53.6975060   4.9120560
 103.9357740  53.1988230   4.8365870 104.5555080  54.5373310   4.4956910
 104.6701990  62.3746160  16.6560170 104.6039300  61.4541830  16.4017760
 104.0407130  62.4721600  17.3704810 107.4641520  58.0694710   3.2082720
 108.3521140  58.3811940   3.0334060 107.4346610  57.1966960   2.8163300
  98.5732610  62.9752120   8.6143590  99.0911280  62.1720380   8.5600480
  98.1216630  62.9131260   9.4560420 103.4602110  64.2418400   3.8870890
 103.8017810  64.9860630   3.3914210 102.6314820  64.5549520   4.2495720
  96.0577150  59.9413490  15.5269290  95.6992090  60.6067340  16.1142630
  95.7631710  59.1097040  15.8981910  99.2590270  60.3997730  18.4108840
  98.9590410  60.5454910  17.5136660 100.0301510  59.8403020  18.3182230
 104.6018720  65.1966730  16.4063970 104.6163260  64.2647690  16.1882880
 103.8943820  65.2826490  17.0453740 109.7355790  59.3806550   2.6762580
 109.6519510  59.8120770   1.8259020 110.4549980  59.8404900   3.1089400
 110.7643040  66.2348810   5.4044710 110.1219200  65.5804430   5.6788430
 110.3773700  66.6403900   4.6285380 106.3429520  63.5634240   9.2516400
 106.6953340  62.9662370   8.5917770 105.4591850  63.2378470   9.4224650
 102.4292800  64.3231930   6.6586810 103.1163930  64.8701140   7.0394400
 101.6425220  64.8672660   6.6936420  94.5685200  59.9404750   2.1503890
  95.4380050  60.2229550   2.4339810  94.0775520  60.7540620   2.0352700
 101.7320010  61.3277960   6.2712170 102.1882790  62.1383210   6.4972360
 101.3808220  61.0101100   7.1030660 104.0352620  66.8384300  13.5004470
 104.6794840  67.0443680  14.1777890 104.3982060  66.0772700  13.0475320
  97.6331790  51.6715610   6.7434690  97.5046420  51.6633510   7.6919610
  96.8093810  52.0098700   6.3925700 105.3084700  64.8416650  12.2181920
 105.9506930  64.1409810  12.3314090 105.8334050  65.6215090  12.0378810
 107.0822320  65.6411550  15.4217980 107.4178560  66.2278240  16.0995900
 106.1622660  65.5104260  15.6515770  94.9356450  69.1532130   2.7165520
  95.2954090  69.7521470   2.0622790  94.7948790  69.6992020   3.4900550
  94.6325720  53.4306730  16.2041390  93.9184240  53.6303650  16.8094000
  95.0520760  52.6546300  16.5756190 108.7356670  63.0437210   3.6035220
 108.4478370  63.5049900   4.3913100 109.5308840  62.5834980   3.8719440
  94.9198310  67.4186990  17.1907920  95.0289430  66.4781730  17.0503310
  94.2678870  67.6841740  16.5421650 102.9110900  65.6902880  18.5906040
 102.5907770  64.9712120  19.1351730 102.2369260  66.3657950  18.6642100
 100.9525070  66.5363330   3.5339190 100.9435170  67.2693020   2.9183700
 100.0323430  66.2894910   3.6266150  96.5531710  61.7578220   4.2785950
  95.9459660  62.4977120   4.2881250  97.0281060  61.8477580   3.4524150
 106.1264500  55.9229040  13.9542840 106.4945320  55.1024250  14.2822410
 105.2662700  55.9830930  14.3698490 109.4926530  54.8785980   4.7630400
 108.8639690  54.9831650   4.0488630 108.9978450  55.0982760   5.5524280
 101.4610560  57.1571930   6.1788280 100.7526710  57.6258270   6.6201890
 101.7455040  56.4993940   6.8133470 103.0866490  58.5768630  14.1780810
 103.5851740  59.0514450  14.8432660 103.2289440  57.6532150  14.3850840
 105.4925990  53.8822590   7.6184070 105.3693770  53.9008720   6.6693580
 106.4410550  53.9301530   7.7382470 102.5802780  69.1177890   6.8912050
 102.8344280  69.0799280   5.9691420 101.6315260  68.9911220   6.8840300
  99.6645580  55.4657010   3.5538990 100.5136110  55.9027160   3.4879180
  99.2976850  55.7777270   4.3811050 110.2933350  54.7936590  15.0209200
 109.7906950  55.5341990  15.3603010 111.1090010  55.1820590  14.7045990
 108.5855360  60.0369770   8.4670560 107.6445500  60.0520000   8.6418250
 108.8999430  59.2505730   8.9130860  97.2583760  59.1514440   2.7107410
  97.3387350  58.2041950   2.8224810  98.1503510  59.4821320   2.8168070
  98.0598470  69.3009830   9.8141950  98.7960950  68.7525290  10.0850520
  98.4439390  70.1665840   9.6747940  94.9443950  65.3683400   5.6883460
  94.0183730  65.6104540   5.6788870  95.4100380  66.1957660   5.5668210
  97.0656750  68.4855900  19.0027530  97.8669480  68.8067950  19.4162930
  96.5508570  68.1251480  19.7247440 105.9021380  64.5935770  18.9502940
 105.2959540  64.6167370  18.2098690 105.5975490  63.8618810  19.4870190
 107.3321750  68.3216060  17.5612350 108.2843500  68.2374080  17.5112590
 107.1849970  68.9857770  18.2346140 110.2230950  67.7010270   3.0604260
 109.9372460  67.2875410   2.2458440 110.0250500  68.6297980   2.9404780
  94.7854560  60.9729360  17.9463580  95.2893580  60.3936640  18.5179810
  94.0461980  61.2569590  18.4839950 101.8392500  62.3800350  17.4799100
 101.0738170  62.9485350  17.3953770 102.0208460  62.0876560  16.5867330
 104.9280910  62.7563580   2.1051860 104.3791010  63.2032880   2.7494600
 105.5500170  62.2512830   2.6289530 108.9815850  64.1105680  18.0374120
 109.7225320  64.4481440  17.5341580 108.2188530  64.2797740  17.4843890
  96.8177640  59.1158950  18.8413650  96.8582980  58.8172820  19.7498880
  97.6723140  59.5166560  18.6821170 100.5956030  61.7154500   4.0017160
 101.0172450  61.5494370   4.8448550 100.7206870  60.9054730   3.5072300
  98.7583450  57.6951050  16.8088140  98.2279910  57.2042000  16.1811480
  99.4271520  58.1235250  16.2746070 107.6561510  62.1620510  16.5729330
 108.0702530  62.3165590  17.4219750 106.7212510  62.2875730  16.7355110
 108.1283680  59.5016670  18.5768480 108.7104450  58.7468990  18.4888960
 108.3045450  60.0324110  17.7999960  99.2455750  54.6613420  16.8885430
  99.1512620  54.0434170  16.1636300  98.6653140  55.3879710  16.6615340
 102.0117190  53.2186660  13.9212820 101.5634490  53.2410920  13.0758370
 101.3782390  52.8205680  14.5183120 102.4176740  62.1140990  14.5425260
 102.8364850  62.9573720  14.3701500 101.4985370  62.2513030  14.3132040
 104.7540640  59.8457170  15.9263100 104.8736850  59.2498310  16.6657940
 105.6134640  59.8826860  15.5064400 107.0928540  60.3994360  14.5025610
 106.5663760  60.9236980  13.8990750 107.4359880  61.0321750  15.1335340
 100.2684160  68.4194000  15.6582990  99.7305250  69.1440060  15.3391690
 100.5218120  67.9424340  14.8680330 101.5209410  56.3878520  17.1838920
 102.1109100  56.0794370  17.8716740 100.7029650  55.9158270  17.3398820
 106.3402840  56.0044330  17.4171940 105.6518360  55.3425870  17.3521930
 107.0608860  55.5582600  17.8620400 106.9703240  52.5995960   3.4762200
 107.2505530  51.7563860   3.8321620 106.1968970  52.8319070   3.9900950
 103.1246370  69.6545210  15.9169640 103.0505070  70.5580350  16.2242010
 102.2225210  69.3357110  15.8891710 103.6731700  68.8203720   3.5396000
 104.5682490  69.1588690   3.5614760 103.7049330  68.0983130   2.9120280
  97.3127860  64.1930770   1.7683000  97.7502730  64.7360440   2.4240580
  97.7975590  63.3677720   1.7779340  94.5273660  66.9819800   9.2203260
  94.8576670  66.1140860   8.9881900  94.9564660  67.1878320  10.0508220
  99.1235580  65.3128810   6.8805230  98.8231120  65.1893780   7.7809140
  99.0173070  64.4537400   6.4720960  95.0163870  67.8490390  11.9584890
  94.5794860  68.0291190  12.7909040  95.5841550  68.6065010  11.8166610
 110.6526050  67.3507390  16.2462200 110.0528040  67.4099950  15.5026120
 110.7819950  66.4112370  16.3759050  94.8488300  60.3610620   8.3173770
  94.1937140  60.0922260   7.6733470  95.6866250  60.2515100   7.8675750
 109.3377690  64.0759370  14.3438360 108.5237530  64.5056530  14.6064150
 109.7451890  64.6877780  13.7307410 107.7978740  55.1551910   2.5392260
 108.2163620  54.9682890   1.6988920 107.4914800  54.3030960   2.8495190
  95.8864230  60.7463190  12.8577110  96.2537270  60.6590590  13.7373130
  95.3175050  59.9829740  12.7583970 110.6868090  59.2147570  15.8707580
 110.4554180  58.9860320  14.9705530 110.9472640  60.1347120  15.8252470
  95.4380230  57.6572280  16.7635530  94.5436280  57.6239040  17.1029240
  95.9777780  57.8559070  17.5286780 109.1256160  54.4404000  18.6487280
 110.0026340  54.4487400  19.0321280 109.1377000  53.7034840  18.0379630
  94.0626380  57.5709550   4.2599100  93.1590460  57.8339750   4.0850760
  94.5467000  57.8420720   3.4799060 110.5719430  58.2933540   9.5375300
 111.0956910  57.7996190   8.9065470 111.1578850  58.4283900  10.2822870
 110.7509150  58.3773410  13.0594850 109.8011860  58.3436950  13.1739840
 110.9322160  59.2873520  12.8244620 110.0619400  57.5506890   5.4767710
 110.5578520  57.3177760   6.2616590 109.8635470  56.7118730   5.0605350
  95.9419940  51.9320610  11.1118750  96.5896130  51.3817990  10.6713910
  96.3621780  52.1863760  11.9334560 109.8372280  52.1261970  14.4688390
 110.4744500  52.7396110  14.8347580 109.9847170  52.1622630  13.5237620
 109.3953740  68.8277970   7.8706630 109.9912810  68.5062540   7.1941050
 109.6531890  68.3549790   8.6619900  95.6951940  52.0876280  13.8544070
  95.3466760  52.5440100  14.6202250  95.3639640  51.1933410  13.9366500
  97.3016310  65.2595880  18.0197260  97.2585940  64.8888790  18.9011720
  97.4327320  66.1973450  18.1599080 101.0022340  66.8155470  13.6206980
 100.7613700  67.0830030  12.7337500 101.9424980  66.9861200  13.6757840
 103.2076760  53.2788160  17.3763490 103.1465650  53.8709990  18.1258900
 104.1477140  53.1714120  17.2313750 105.8451320  52.9358220  17.0155780
 106.4591730  53.2537510  16.3536860 106.3900880  52.4506810  17.6351640
  96.3672580  51.6152480  17.1294840  96.9155570  51.4340530  16.3660950
  96.4327890  50.8246590  17.6651150  97.1404340  68.2058130  15.1395040
  96.5464660  68.0742830  15.8785080  97.1328180  67.3696270  14.6737140
 106.5859360  51.4990360  13.3425070 105.7119200  51.8325470  13.1398000
 106.4770110  51.0263540  14.1676940 107.4931340  53.7061230  14.7266790
 107.1644700  52.8912990  14.3468520 108.4413640  53.6631040  14.6032480
 109.9465950  69.4773270  11.7004360 109.4868920  70.2289080  11.3262380
 109.3178410  68.7579740  11.6419160  96.7716570  65.5716510  14.0903080
  96.0450630  64.9521800  14.0229030  96.8325720  65.9657120  13.2201160
 100.3761670  67.7861510  10.8752490 100.8926690  67.1748870  10.3500750
 101.0259050  68.2890290  11.3663500 103.1157170  68.6770000  11.7021470
 103.4034980  68.4224300  10.8254480 103.6280390  68.1247360  12.2927040
 104.3334180  52.4160200  12.2817980 103.5505970  52.8905700  12.5614740
 104.0397110  51.5115030  12.1731160 108.8855250  53.1183300  10.3267070
 109.3263340  53.0628400   9.4788670 108.6162840  54.0341310  10.3977250
  95.0546570  68.8890900   7.2999840  94.8868610  68.2561580   7.9981730
  94.1881080  69.0950300   6.9494030  95.6774590  52.7207680   4.8031700
  96.4353950  52.8336560   4.2295730  95.2151760  53.5576880   4.7575130
 102.2188400  54.8346950   7.7934010 101.4062910  54.4603840   7.4529890
 102.7230040  54.0792030   8.0955200 106.7213380  51.4989400   9.0317080
 107.3242750  52.0709610   9.5065600 105.9806370  52.0628840   8.8090980
 109.8647980  51.9010960   4.3057360 110.0598610  52.7994410   4.5724790
 109.0777850  51.6698040   4.7990310  96.6609270  67.5824130   4.7449980
  96.1356890  67.9632160   4.0411940  96.5853850  68.2074900   5.4659690
  98.0499740  53.2471730   3.3433670  98.5792500  52.4601530   3.2141620
  98.6828060  53.9262920   3.5769200 100.2437580  52.9846870   6.3979060
  99.6140320  52.2834180   6.5649190  99.7042720  53.7451000   6.1812220
 103.1829530  69.5986100  19.0689670 104.1096840  69.3630370  19.1125630
 103.1679960  70.4258100  18.5875700 100.3693140  52.2630850  18.8331550
 100.0877410  52.7664450  18.0692370 100.7512840  51.4652600  18.4673680
  99.2602240  69.5306510   3.6199230  99.9921060  69.2465790   3.0723120
  99.5195910  69.2919790   4.5098610  98.4217030  65.6471240   3.6245560
  97.7925910  66.1156340   4.1731390  98.5364860  64.8020460   4.0591750
 106.9708600  51.6784430  19.4112020 106.8574050  51.9979040  20.3063540
 107.7878340  52.0796940  19.1149300 109.7507090  68.8255960  18.8930710
 110.5432410  68.3305190  18.6856670 110.0440240  69.5046100  19.5006320
 105.8766750  40.9233410  64.8720720 105.7960800  40.0088020  64.6012430
 105.4631170  41.4200480  64.1660430 104.0084790  42.7012430  66.7529990
 103.2326890  42.2212870  67.0428560 104.6597720  42.0218080  66.5786150
  98.0250620  43.0132240  67.6305750  97.1935500  42.7580950  68.0302260
  98.6331600  43.0843010  68.3663670 108.0292220  47.1072620  65.5329120
 107.5673750  46.3359860  65.8616290 108.8417770  47.1338690  66.0381570
  98.0051880  47.0472330  67.8263770  98.3079920  46.1570070  67.6473990
  98.7495470  47.6042550  67.5986020  96.4342570  37.9734130  61.4148140
  95.5459270  38.3150100  61.3128020  96.7183760  37.7734450  60.5228970
  94.3975580  40.5739780  67.2987840  94.9691690  39.8061980  67.2991480
  94.3977120  40.8728540  66.3894450 104.2555530  49.3930630  65.1533110
 103.6366970  49.8488130  64.5827550 105.1107310  49.5482090  64.7522810
 103.4493780  45.3769620  66.7600150 103.3802060  44.4359560  66.5989280
 104.2113640  45.4671030  67.3322720  95.6400450  35.9824140  69.0856770
  95.4603290  35.0849890  69.3659530  95.2380530  36.5296010  69.7603720
 104.4798950  38.1840000  66.9869080 104.8563770  37.3111880  66.8742750
 104.3818460  38.5198700  66.0959520  98.6103960  36.5565630  62.4486520
  98.7170710  37.4569360  62.7555280  97.6996320  36.5083600  62.1581170
 108.2623070  35.6790440  63.9197420 109.0832690  35.1887010  63.9622900
 108.2957150  36.2688100  64.6729260  96.2587120  38.4784640  67.6939110
  96.9397230  38.7423010  68.3126510  95.9435170  37.6385510  68.0277120
 100.4511690  39.5252000  66.7811700 100.9589910  40.0232970  67.4216720
 100.9824930  38.7487200  66.6051060  98.7347790  34.1650560  71.0475120
  98.7366230  34.6822950  70.2421020  97.9052100  33.6880740  71.0245050
 105.1218880  44.2769870  62.5465020 104.5036150  44.7419320  61.9827740
 105.6342130  44.9697350  62.9634530  99.9850640  43.8045740  69.2248620
  99.6520020  44.4314660  69.8669690 100.1617320  44.3307620  68.4450290
 108.4984550  37.6190820  66.6924960 107.7940120  37.9075710  67.2728070
 108.8596710  38.4290930  66.3324520  98.4163120  35.8760520  69.0545570
  98.7579930  36.7202570  68.7599440  97.4778930  36.0244260  69.1710910
  99.1969740  45.7726540  71.0397800  99.8143740  46.4477620  70.7582250
  98.3362860  46.1814520  70.9485300  94.4902080  44.9626400  59.9204650
  94.1130060  45.4513500  59.1889550  94.7475150  45.6351680  60.5511180
 110.1147330  47.2365950  68.9552440 109.4310850  47.9065060  68.9469110
 110.6541620  47.4346600  68.1897300 102.0991010  33.3642790  65.3790160
 102.4065990  32.8089680  64.6625660 101.1691710  33.4987250  65.1963150
 107.6506070  49.0810080  67.6697620 107.6633230  48.6772370  66.8019880
 107.0981290  49.8557370  67.5659050 108.9451490  45.8026300  62.7587790
 108.8347820  44.8600630  62.8837210 108.9419740  46.1641940  63.6450550
 107.0491510  43.9839920  68.9980230 107.4660300  43.7700030  68.1633690
 107.7731330  44.2412710  69.5688850 104.4871770  41.4291620  62.1150280
 103.5601050  41.3629000  62.3438750 104.6396590  42.3671750  62.0005520
 104.4740850  37.7008620  59.1117440 103.5344520  37.8622580  59.1969900
 104.7924110  38.4194300  58.5653430 108.5169060  42.9911920  62.6185530
 107.8981480  42.6531470  61.9711830 108.4993510  42.3471680  63.3264720
 107.9595620  39.1696460  70.0351340 107.5466800  39.9950170  70.2891330
 107.2271570  38.5841500  69.8427700 100.0928410  41.9556360  64.8970010
  99.6885410  41.2433610  64.4015910 100.1791530  41.6109600  65.7858050
 100.5610110  45.6423920  67.0609220 100.2638400  45.0369390  66.3817000
 101.5109930  45.6801230  66.9498580  98.8057030  38.7299570  68.6769050
  99.3571620  38.8394910  67.9022300  99.3200540  39.1037170  69.3924280
 108.6495720  49.2155790  70.7232320 108.1726280  50.0227980  70.5304930
 107.9657510  48.5634120  70.8758530  99.6528540  45.3805610  73.7117020
  98.7557070  45.6045580  73.9590420  99.6781410  45.5040550  72.7628420
 106.6933760  42.2298730  59.6258280 107.1327040  41.3921160  59.4796100
 107.4062180  42.8628130  59.7122420  98.4799760  42.2518930  72.2874390
  98.3407530  43.1241730  72.6561790  97.5981120  41.9091740  72.1422330
 104.8029140  47.1694800  63.5939520 105.2425050  47.9119130  63.1794910
 104.7416030  47.4121370  64.5178480 100.2780110  48.1940630  74.4959540
 100.2495540  48.5983580  73.6287970 100.1145080  47.2650990  74.3331140
 110.2750900  33.4841540  57.9399320 109.9623560  33.5768370  58.8398390
 111.0363370  34.0622570  57.8896750  96.7933040  40.8501340  62.3976660
  96.6730640  41.5763430  61.7857930  96.4833930  40.0804250  61.9204570
  94.4318410  44.0216480  68.2045300  94.5098830  44.1565250  67.2601020
  95.0460090  43.3132370  68.3973420  95.6766040  45.7216670  64.6151480
  95.2694120  45.8631260  63.7605080  96.5679050  45.4376830  64.4122690
 105.4944920  49.8708580  71.5218530 106.0089590  49.7816590  72.3240960
 104.6514000  50.2168280  71.8146440 107.4699320  50.1563920  60.9502530
 107.3100460  49.8666860  61.8484360 107.3046030  49.3804050  60.4147760
  99.9487700  49.9362450  62.7274150  99.7730180  49.0197990  62.5141950
  99.0943440  50.2949740  62.9671950 107.1725450  47.6651480  59.5100530
 106.4790610  47.6628770  58.8502810 107.9148310  47.2410800  59.0794700
 106.7375380  49.2914190  63.5849020 107.1932330  48.5103570  63.8987640
 107.0767900  50.0021010  64.1290200  94.4877930  45.0630650  70.7439760
  94.6508970  44.5936010  69.9259130  94.9530380  44.5554210  71.4088600
  99.2596700  34.1936410  65.7800330  98.8164850  34.9745950  65.4484850
  99.8181690  34.5166300  66.4871270 103.5466510  37.0604930  71.3835650
 103.0845880  37.2687950  72.1955590 103.1444620  36.2464280  71.0806320
 108.5471020  38.2813880  72.5132310 107.6964610  37.9819630  72.8341380
 108.3872810  38.5255890  71.6016130 105.6420730  39.7815630  74.6131100
 105.9674140  38.9479380  74.2733330 106.4301060  40.3044150  74.7609430
 102.3755520  33.8147110  60.6606160 101.7509700  33.8106980  61.3859470
 102.2885640  32.9478070  60.2642130 101.2972600  34.7383740  67.6389930
 101.5944930  35.6446570  67.5581950 101.8458160  34.2502520  67.0249500
  99.0510920  39.3169980  63.5081580  98.8251840  39.1007150  64.4128200
  98.2703450  39.7498440  63.1627550 106.2808680  39.3233350  62.1072230
 105.6817570  40.0469150  61.9235850 106.8288290  39.2610130  61.3248680
 101.4910130  40.2155560  74.1741850 101.3953730  39.2750290  74.0242250
 102.3342110  40.4370630  73.7789920 104.8873550  37.9596890  64.1375510
 105.2803120  38.2769090  63.3244200 105.2490400  37.0808770  64.2520030
  96.6220670  36.6269230  72.3275630  96.2284060  37.4744440  72.5348410
  95.9339070  35.9895600  72.5184270  93.9237720  34.5497690  66.3605710
  93.6350770  35.1200550  67.0730690  94.6683480  34.0702140  66.7236940
  94.1107950  38.4917810  57.5708430  94.0282620  39.4348570  57.7123420
  93.7591010  38.3492720  56.6920780 105.4728690  40.5502640  68.2326290
 104.7409810  41.0589450  68.5816390 105.0753030  39.7332620  67.9315070
 101.9106080  37.2256840  66.6378780 101.9142140  36.7846790  65.7883320
 102.8057200  37.5474170  66.7450600  97.7608460  37.1083330  65.5972990
  97.4208510  37.5858560  66.3540040  96.9985780  36.6548450  65.2374090
 101.9726230  38.2268920  59.6285540 102.0939050  38.1855400  60.5771360
 101.5874740  39.0893070  59.4732270 105.9354600  36.0036320  67.6449230
 105.9527340  36.4544970  68.4891080 105.6870180  35.1041960  67.8582670
 100.9847730  40.5370060  59.0268840 100.4164630  40.0888310  58.4004750
 101.6936730  40.8962840  58.4933990 109.3625350  33.4168500  73.4835610
 109.6871120  32.6858160  74.0093590 109.3981860  33.0982140  72.5816600
  96.0616910  44.4382080  72.9035570  95.6771700  43.7975750  73.5018530
  96.3729100  45.1418200  73.4730300 102.2114050  41.2858620  68.3844190
 102.5784180  40.8117190  69.1305530 102.0219110  42.1600190  68.7252530
  95.0754540  36.0302310  64.5137660  94.7901460  35.6657980  65.3516280
  95.0133400  35.2982770  63.9000800 100.0013420  40.3267260  70.7028400
  99.6970490  41.2059240  70.9278760 100.9559880  40.3867050  70.7385840
  98.5295210  44.5328250  61.2995250  97.7557470  43.9925870  61.1393970
  99.2589840  44.0134860  60.9613010 109.2883190  43.5293610  67.0921640
 110.0082310  44.0248900  66.7017750 109.0865010  42.8511500  66.4475510
 104.7493130  34.9231570  61.2351030 103.9357740  34.4244740  61.1596340
 104.5555080  35.7629820  60.8187380 104.6701990  43.6002670  72.9790640
 104.6039300  42.6798340  72.7248230 104.0407130  43.6978110  73.6935280
 107.4641520  39.2951220  59.5313190 108.3521140  39.6068450  59.3564530
 107.4346610  38.4223470  59.1393770  98.5732610  44.2008630  64.9374060
  99.0911280  43.3976890  64.8830950  98.1216630  44.1387770  65.7790890
 103.4602110  45.4674910  60.2101360 103.8017810  46.2117140  59.7144680
 102.6314820  45.7806030  60.5726190  96.0577150  41.1670000  71.8499760
  95.6992090  41.8323850  72.4373100  95.7631710  40.3353550  72.2212380
  99.2590270  41.6254240  74.7339310  98.9590410  41.7711420  73.8367130
 100.0301510  41.0659530  74.6412700 104.6018720  46.4223240  72.7294440
 104.6163260  45.4904200  72.5113350 103.8943820  46.5083000  73.3684210
 109.7355790  40.6063060  58.9993050 109.6519510  41.0377280  58.1489490
 110.4549980  41.0661410  59.4319870 110.7643040  47.4605320  61.7275180
 110.1219200  46.8060940  62.0018900 110.3773700  47.8660410  60.9515850
 106.3429520  44.7890750  65.5746870 106.6953340  44.1918880  64.9148240
 105.4591850  44.4634980  65.7455120 102.4292800  45.5488440  62.9817280
 103.1163930  46.0957650  63.3624870 101.6425220  46.0929170  63.0166890
  94.5685200  41.1661260  58.4734360  95.4380050  41.4486060  58.7570280
  94.0775520  41.9797130  58.3583170 101.7320010  42.5534470  62.5942640
 102.1882790  43.3639720  62.8202830 101.3808220  42.2357610  63.4261130
 104.0352620  48.0640810  69.8234940 104.6794840  48.2700190  70.5008360
 104.3982060  47.3029210  69.3705790  97.6331790  32.8972120  63.0665160
  97.5046420  32.8890020  64.0150080  96.8093810  33.2355210  62.7156170
 105.3084700  46.0673160  68.5412390 105.9506930  45.3666320  68.6544560
 105.8334050  46.8471600  68.3609280 109.1540420  46.3521780  58.2651530
 108.9278000  45.6352220  58.8576170 108.7636620  46.1034220  57.4273280
 107.0822320  46.8668060  71.7448450 107.4178560  47.4534750  72.4226370
 106.1622660  46.7360770  71.9746240  94.9356450  50.3788640  59.0395990
  95.2954090  50.9777980  58.3853260  94.7948790  50.9248530  59.8131020
  94.6325720  34.6563240  72.5271860  93.9184240  34.8560160  73.1324470
  95.0520760  33.8802810  72.8986660 108.7356670  44.2693720  59.9265690
 108.4478370  44.7306410  60.7143570 109.5308840  43.8091490  60.1949910
  94.9198310  48.6443500  73.5138390  95.0289430  47.7038240  73.3733780
  94.2678870  48.9098250  72.8652120 100.9525070  47.7619840  59.8569660
 100.9435170  48.4949530  59.2414170 100.0323430  47.5151420  59.9496620
  96.5531710  42.9834730  60.6016420  95.9459660  43.7233630  60.6111720
  97.0281060  43.0734090  59.7754620 106.1264500  37.1485550  70.2773310
 106.4945320  36.3280760  70.6052880 105.2662700  37.2087440  70.6928960
 109.4926530  36.1042490  61.0860870 108.8639690  36.2088160  60.3719100
 108.9978450  36.3239270  61.8754750 103.9384670  47.8248080  58.5194850
 104.0396650  47.6212070  57.5896830 103.0386410  47.5706360  58.7242630
 101.4610560  38.3828440  62.5018750 100.7526710  38.8514780  62.9432360
 101.7455040  37.7250450  63.1363940 103.0866490  39.8025140  70.5011280
 103.5851740  40.2770960  71.1663130 103.2289440  38.8788660  70.7081310
 105.4925990  35.1079100  63.9414540 105.3693770  35.1265230  62.9924050
 106.4410550  35.1558040  64.0612940 102.5802780  50.3434400  63.2142520
 102.8344280  50.3055790  62.2921890 101.6315260  50.2167730  63.2070770
  99.6645580  36.6913520  59.8769460 100.5136110  37.1283670  59.8109650
  99.2976850  37.0033780  60.7041520 110.2933350  36.0193100  71.3439670
 109.7906950  36.7598500  71.6833480 111.1090010  36.4077100  71.0276460
 108.5855360  41.2626280  64.7901030 107.6445500  41.2776510  64.9648720
 108.8999430  40.4762240  65.2361330  98.5637000  42.9445880  58.3504990
  99.3300270  42.8327240  58.9130420  98.6411690  42.2483850  57.6981760
  97.2583760  40.3770950  59.0337880  97.3387350  39.4298460  59.1455280
  98.1503510  40.7077830  59.1398540  98.0598470  50.5266340  66.1372420
  98.7960950  49.9781800  66.4080990  98.4439390  51.3922350  65.9978410
  94.9443950  46.5939910  62.0113930  94.0183730  46.8361050  62.0019340
  95.4100380  47.4214170  61.8898680 101.1700780  49.6996650  57.9597990
 101.9629390  49.9885480  57.5079780 100.6505130  49.2688820  57.2810470
 107.3321750  49.5472570  73.8842820 108.2843500  49.4630590  73.8343060
 107.1849970  50.2114280  74.5576610 110.2230950  48.9266780  59.3834730
 109.9372460  48.5131920  58.5688910 110.0250500  49.8554490  59.2635250
  94.7854560  42.1985870  74.2694050  95.2893580  41.6193150  74.8410280
  94.0461980  42.4826100  74.8070420 101.6878180  44.9200060  57.8240340
 101.5828820  44.3052410  58.5501720 101.5202400  44.3965950  57.0403350
 101.8392500  43.6056860  73.8029570 101.0738170  44.1741860  73.7184240
 102.0208460  43.3133070  72.9097800 104.9280910  43.9820090  58.4282330
 104.3791010  44.4289390  59.0725070 105.5500170  43.4769340  58.9520000
 108.9815850  45.3362190  74.3604590 109.7225320  45.6737950  73.8572050
 108.2188530  45.5054250  73.8074360 100.5956030  42.9411010  60.3247630
 101.0172450  42.7750880  61.1679020 100.7206870  42.1311240  59.8302770
  98.7583450  38.9207560  73.1318610  98.2279910  38.4298510  72.5041950
  99.4271520  39.3491760  72.5976540 103.1083670  41.9648620  57.5724730
 103.6289330  41.2497640  57.2065880 103.7552070  42.6034490  57.8725240
 107.6561510  43.3877020  72.8959800 108.0702530  43.5422100  73.7450220
 106.7212510  43.5132240  73.0585580 108.1283680  40.7273180  74.8998950
 108.7104450  39.9725500  74.8119430 108.3045450  41.2580620  74.1230430
  99.2455750  35.8869930  73.2115900  99.1512620  35.2690680  72.4866770
  98.6653140  36.6136220  72.9845810 102.0117190  34.4443170  70.2443290
 101.5634490  34.4667430  69.3988840 101.3782390  34.0462190  70.8413590
 102.4176740  43.3397500  70.8655730 102.8364850  44.1830230  70.6931970
 101.4985370  43.4769540  70.6362510 104.7540640  41.0713680  72.2493570
 104.8736850  40.4754820  72.9888410 105.6134640  41.1083370  71.8294870
 107.0928540  41.6250870  70.8256080 106.5663760  42.1493490  70.2221220
 107.4359880  42.2578260  71.4565810  99.4914930  39.0144240  57.2705790
  99.2903990  38.1511600  57.6319130  99.3206980  38.9277600  56.3327390
 100.2684160  49.6450510  71.9813460  99.7305250  50.3696570  71.6622160
 100.5218120  49.1680850  71.1910800 101.5209410  37.6135030  73.5069390
 102.1109100  37.3050880  74.1947210 100.7029650  37.1414780  73.6629290
 106.3402840  37.2300840  73.7402410 105.6518360  36.5682380  73.6752400
 107.0608860  36.7839110  74.1850870 106.9703240  33.8252470  59.7992670
 107.2505530  32.9820370  60.1552090 106.1968970  34.0575580  60.3131420
  98.2897730  36.1144860  57.2583670  98.5923630  36.1212290  56.3502820
  99.0292320  35.7642720  57.7551330 103.1246370  50.8801720  72.2400110
 103.0505070  51.7836860  72.5472480 102.2225210  50.5613620  72.2122180
 101.5082660  35.0579480  58.2439870 101.1604660  34.3803470  57.6642320
 101.7095430  34.5968990  59.0583260 103.6731700  50.0460230  59.8626470
 104.5682490  50.3845200  59.8845230 103.7049330  49.3239640  59.2350750
  97.3127860  45.4187280  58.0913470  97.7502730  45.9616950  58.7471050
  97.7975590  44.5934230  58.1009810  94.5273660  48.2076310  65.5433730
  94.8576670  47.3397370  65.3112370  94.9564660  48.4134830  66.3738690
  99.1235580  46.5385320  63.2035700  98.8231120  46.4150290  64.1039610
  99.0173070  45.6793910  62.7951430  95.0163870  49.0746900  68.2815360
  94.5794860  49.2547700  69.1139510  95.5841550  49.8321520  68.1397080
 110.6526050  48.5763900  72.5692670 110.0528040  48.6356460  71.8256590
 110.7819950  47.6368880  72.6989520  94.8488300  41.5867130  64.6404240
  94.1937140  41.3178770  63.9963940  95.6866250  41.4771610  64.1906220
 109.3377690  45.3015880  70.6668830 108.5237530  45.7313040  70.9294620
 109.7451890  45.9134290  70.0537880 107.7978740  36.3808420  58.8622730
 108.2163620  36.1939400  58.0219390 107.4914800  35.5287470  59.1725660
  95.8864230  41.9719700  69.1807580  96.2537270  41.8847100  70.0603600
  95.3175050  41.2086250  69.0814440 110.6868090  40.4404080  72.1938050
 110.4554180  40.2116830  71.2936000 110.9472640  41.3603630  72.1482940
  95.4380230  38.8828790  73.0866000  94.5436280  38.8495550  73.4259710
  95.9777780  39.0815580  73.8517250  94.0626380  38.7966060  60.5829570
  93.1590460  39.0596260  60.4081230  94.5467000  39.0677230  59.8029530
 110.5719430  39.5190050  65.8605770 111.0956910  39.0252700  65.2295940
 111.1578850  39.6540410  66.6053340 110.7509150  39.6029920  69.3825320
 109.8011860  39.5693460  69.4970310 110.9322160  40.5130030  69.1475090
  96.6053590  37.8531600  58.4923950  97.3145290  37.4314820  58.0071230
  95.8893530  37.9206830  57.8607300  96.2527750  33.9070930  57.5326600
  96.9755880  34.4479870  57.8507820  96.5252270  33.6334350  56.6568140
 110.0619400  38.7763400  61.7998180 110.5578520  38.5434270  62.5847060
 109.8635470  37.9375240  61.3835820  95.9419940  33.1577120  67.4349220
  96.5896130  32.6074500  66.9944380  96.3621780  33.4120270  68.2565030
 109.8372280  33.3518480  70.7918860 110.4744500  33.9652620  71.1578050
 109.9847170  33.3879140  69.8468090 109.3953740  50.0534480  64.1937100
 109.9912810  49.7319050  63.5171520 109.6531890  49.5806300  64.9850370
  95.6951940  33.3132790  70.1774540  95.3466760  33.7696610  70.9432720
  95.3639640  32.4189920  70.2596970 101.0022340  48.0411980  69.9437450
 100.7613700  48.3086540  69.0567970 101.9424980  48.2117710  69.9988310
 103.2076760  34.5044670  73.6993960 103.1465650  35.0966500  74.4489370
 104.1477140  34.3970630  73.5544220 105.8451320  34.1614730  73.3386250
 106.4591730  34.4794020  72.6767330 106.3900880  33.6763320  73.9582110
  96.3672580  32.8408990  73.4525310  96.9155570  32.6597040  72.6891420
  96.4327890  32.0503100  73.9881620  97.1404340  49.4314640  71.4625510
  96.5464660  49.2999340  72.2015550  97.1328180  48.5952780  70.9967610
 106.5859360  32.7246870  69.6655540 105.7119200  33.0581980  69.4628470
 106.4770110  32.2520050  70.4907410 107.4931340  34.9317740  71.0497260
 107.1644700  34.1169500  70.6698990 108.4413640  34.8887550  70.9262950
 109.9465950  50.7029780  68.0234830 109.4868920  51.4545590  67.6492850
 109.3178410  49.9836250  67.9649630  96.7716570  46.7973020  70.4133550
  96.0450630  46.1778310  70.3459500  96.8325720  47.1913630  69.5431630
 100.3761670  49.0118020  67.1982960 100.8926690  48.4005380  66.6731220
 101.0259050  49.5146800  67.6893970 103.1157170  49.9026510  68.0251940
 103.4034980  49.6480810  67.1484950 103.6280390  49.3503870  68.6157510
 104.3334180  33.6416710  68.6048450 103.5505970  34.1162210  68.8845210
 104.0397110  32.7371540  68.4961630 108.8855250  34.3439810  66.6497540
 109.3263340  34.2884910  65.8019140 108.6162840  35.2597820  66.7207720
  95.0546570  50.1147410  63.6230310  94.8868610  49.4818090  64.3212200
  94.1881080  50.3206810  63.2724500  95.6774590  33.9464190  61.1262170
  96.4353950  34.0593070  60.5526200  95.2151760  34.7833390  61.0805600
 102.2188400  36.0603460  64.1164480 101.4062910  35.6860350  63.7760360
 102.7230040  35.3048540  64.4185670 106.7213380  32.7245910  65.3547550
 107.3242750  33.2966120  65.8296070 105.9806370  33.2885350  65.1321450
 109.8647980  33.1267470  60.6287830 110.0598610  34.0250920  60.8955260
 109.0777850  32.8954550  61.1220780  96.6609270  48.8080640  61.0680450
  96.1356890  49.1888670  60.3642410  96.5853850  49.4331410  61.7890160
  98.0499740  34.4728240  59.6664140  98.5792500  33.6858040  59.5372090
  98.6828060  35.1519430  59.8999670 100.2437580  34.2103380  62.7209530
  99.6140320  33.5090690  62.8879660  99.7042720  34.9707510  62.5042690
  99.2602240  50.7563020  59.9429700  99.9921060  50.4722300  59.3953590
  99.5195910  50.5176300  60.8329080  98.4217030  46.8727750  59.9476030
  97.7925910  47.3412850  60.4961860  98.5364860  46.0276970  60.3822220
 105.8766750  40.9233410  46.0977230 105.7960800  40.0088020  45.8268940
 105.4631170  41.4200480  45.3916940 104.0084790  42.7012430  47.9786500
 103.2326890  42.2212870  48.2685070 104.6597720  42.0218080  47.8042660
  98.0250620  43.0132240  48.8562260  97.1935500  42.7580950  49.2558770
  98.6331600  43.0843010  49.5920180 108.0292220  47.1072620  46.7585630
 107.5673750  46.3359860  47.0872800 108.8417770  47.1338690  47.2638080
  98.0051880  47.0472330  49.0520280  98.3079920  46.1570070  48.8730500
  98.7495470  47.6042550  48.8242530  96.4342570  37.9734130  42.6404650
  95.5459270  38.3150100  42.5384530  96.7183760  37.7734450  41.7485480
  94.3975580  40.5739780  48.5244350  94.9691690  39.8061980  48.5247990
  94.3977120  40.8728540  47.6150960 104.2555530  49.3930630  46.3789620
 103.6366970  49.8488130  45.8084060 105.1107310  49.5482090  45.9779320
 103.4493780  45.3769620  47.9856660 103.3802060  44.4359560  47.8245790
 104.2113640  45.4671030  48.5579230  95.6400450  35.9824140  50.3113280
  95.4603290  35.0849890  50.5916040  95.2380530  36.5296010  50.9860230
 104.4798950  38.1840000  48.2125590 104.8563770  37.3111880  48.0999260
 104.3818460  38.5198700  47.3216030  98.6103960  36.5565630  43.6743030
  98.7170710  37.4569360  43.9811790  97.6996320  36.5083600  43.3837680
 108.2623070  35.6790440  45.1453930 109.0832690  35.1887010  45.1879410
 108.2957150  36.2688100  45.8985770  96.2587120  38.4784640  48.9195620
  96.9397230  38.7423010  49.5383020  95.9435170  37.6385510  49.2533630
 100.4511690  39.5252000  48.0068210 100.9589910  40.0232970  48.6473230
 100.9824930  38.7487200  47.8307570  98.7347790  34.1650560  52.2731630
  98.7366230  34.6822950  51.4677530  97.9052100  33.6880740  52.2501560
 105.1218880  44.2769870  43.7721530 104.5036150  44.7419320  43.2084250
 105.6342130  44.9697350  44.1891040  99.9850640  43.8045740  50.4505130
  99.6520020  44.4314660  51.0926200 100.1617320  44.3307620  49.6706800
 108.4984550  37.6190820  47.9181470 107.7940120  37.9075710  48.4984580
 108.8596710  38.4290930  47.5581030  98.4163120  35.8760520  50.2802080
  98.7579930  36.7202570  49.9855950  97.4778930  36.0244260  50.3967420
  99.1969740  45.7726540  52.2654310  99.8143740  46.4477620  51.9838760
  98.3362860  46.1814520  52.1741810  94.4902080  44.9626400  41.1461160
  94.1130060  45.4513500  40.4146060  94.7475150  45.6351680  41.7767690
 110.1147330  47.2365950  50.1808950 109.4310850  47.9065060  50.1725620
 110.6541620  47.4346600  49.4153810 102.0991010  33.3642790  46.6046670
 102.4065990  32.8089680  45.8882170 101.1691710  33.4987250  46.4219660
 107.6506070  49.0810080  48.8954130 107.6633230  48.6772370  48.0276390
 107.0981290  49.8557370  48.7915560 108.9451490  45.8026300  43.9844300
 108.8347820  44.8600630  44.1093720 108.9419740  46.1641940  44.8707060
 107.0491510  43.9839920  50.2236740 107.4660300  43.7700030  49.3890200
 107.7731330  44.2412710  50.7945360 104.4871770  41.4291620  43.3406790
 103.5601050  41.3629000  43.5695260 104.6396590  42.3671750  43.2262030
 104.4740850  37.7008620  40.3373950 103.5344520  37.8622580  40.4226410
 104.7924110  38.4194300  39.7909940 108.5169060  42.9911920  43.8442040
 107.8981480  42.6531470  43.1968340 108.4993510  42.3471680  44.5521230
 107.9595620  39.1696460  51.2607850 107.5466800  39.9950170  51.5147840
 107.2271570  38.5841500  51.0684210 100.0928410  41.9556360  46.1226520
  99.6885410  41.2433610  45.6272420 100.1791530  41.6109600  47.0114560
 100.5610110  45.6423920  48.2865730 100.2638400  45.0369390  47.6073510
 101.5109930  45.6801230  48.1755090  98.8057030  38.7299570  49.9025560
  99.3571620  38.8394910  49.1278810  99.3200540  39.1037170  50.6180790
 108.6495720  49.2155790  51.9488830 108.1726280  50.0227980  51.7561440
 107.9657510  48.5634120  52.1015040  99.6528540  45.3805610  54.9373530
  98.7557070  45.6045580  55.1846930  99.6781410  45.5040550  53.9884930
 106.6933760  42.2298730  40.8514790 107.1327040  41.3921160  40.7052610
 107.4062180  42.8628130  40.9378930  98.4799760  42.2518930  53.5130900
  98.3407530  43.1241730  53.8818300  97.5981120  41.9091740  53.3678840
 104.8029140  47.1694800  44.8196030 105.2425050  47.9119130  44.4051420
 104.7416030  47.4121370  45.7434990 100.2780110  48.1940630  55.7216050
 100.2495540  48.5983580  54.8544480 100.1145080  47.2650990  55.5587650
 110.2750900  33.4841540  39.1655830 109.9623560  33.5768370  40.0654900
 111.0363370  34.0622570  39.1153260  96.7933040  40.8501340  43.6233170
  96.6730640  41.5763430  43.0114440  96.4833930  40.0804250  43.1461080
  94.4318410  44.0216480  49.4301810  94.5098830  44.1565250  48.4857530
  95.0460090  43.3132370  49.6229930  95.6766040  45.7216670  45.8407990
  95.2694120  45.8631260  44.9861590  96.5679050  45.4376830  45.6379200
 105.4944920  49.8708580  52.7475040 106.0089590  49.7816590  53.5497470
 104.6514000  50.2168280  53.0402950 107.4699320  50.1563920  42.1759040
 107.3100460  49.8666860  43.0740870 107.3046030  49.3804050  41.6404270
  99.9487700  49.9362450  43.9530660  99.7730180  49.0197990  43.7398460
  99.0943440  50.2949740  44.1928460 107.1725450  47.6651480  40.7357040
 106.4790610  47.6628770  40.0759320 107.9148310  47.2410800  40.3051210
 106.7375380  49.2914190  44.8105530 107.1932330  48.5103570  45.1244150
 107.0767900  50.0021010  45.3546710  94.4877930  45.0630650  51.9696270
  94.6508970  44.5936010  51.1515640  94.9530380  44.5554210  52.6345110
  99.2596700  34.1936410  47.0056840  98.8164850  34.9745950  46.6741360
  99.8181690  34.5166300  47.7127780 103.5466510  37.0604930  52.6092160
 103.0845880  37.2687950  53.4212100 103.1444620  36.2464280  52.3062830
 108.5471020  38.2813880  53.7388820 107.6964610  37.9819630  54.0597890
 108.3872810  38.5255890  52.8272640 105.6420730  39.7815630  55.8387610
 105.9674140  38.9479380  55.4989840 106.4301060  40.3044150  55.9865940
 102.3755520  33.8147110  41.8862670 101.7509700  33.8106980  42.6115980
 102.2885640  32.9478070  41.4898640 101.2972600  34.7383740  48.8646440
 101.5944930  35.6446570  48.7838460 101.8458160  34.2502520  48.2506010
  99.0510920  39.3169980  44.7338090  98.8251840  39.1007150  45.6384710
  98.2703450  39.7498440  44.3884060 106.2808680  39.3233350  43.3328740
 105.6817570  40.0469150  43.1492360 106.8288290  39.2610130  42.5505190
 101.4910130  40.2155560  55.3998360 101.3953730  39.2750290  55.2498760
 102.3342110  40.4370630  55.0046430 104.8873550  37.9596890  45.3632020
 105.2803120  38.2769090  44.5500710 105.2490400  37.0808770  45.4776540
  96.6220670  36.6269230  53.5532140  96.2284060  37.4744440  53.7604920
  95.9339070  35.9895600  53.7440780 103.1965720  36.7104200  56.6228880
 102.5064040  36.5176400  57.2574970 103.9398020  36.9938840  57.1553180
  93.9237720  34.5497690  47.5862220  93.6350770  35.1200550  48.2987200
  94.6683480  34.0702140  47.9493450  94.1107950  38.4917810  38.7964940
  94.0282620  39.4348570  38.9379930  93.7591010  38.3492720  37.9177290
 105.4728690  40.5502640  49.4582800 104.7409810  41.0589450  49.8072900
 105.0753030  39.7332620  49.1571580 101.9106080  37.2256840  47.8635290
 101.9142140  36.7846790  47.0139830 102.8057200  37.5474170  47.9707110
  97.7608460  37.1083330  46.8229500  97.4208510  37.5858560  47.5796550
  96.9985780  36.6548450  46.4630600 101.9726230  38.2268920  40.8542050
 102.0939050  38.1855400  41.8027870 101.5874740  39.0893070  40.6988780
 105.9354600  36.0036320  48.8705740 105.9527340  36.4544970  49.7147590
 105.6870180  35.1041960  49.0839180 100.9847730  40.5370060  40.2525350
 100.4164630  40.0888310  39.6261260 101.6936730  40.8962840  39.7190500
 109.3625350  33.4168500  54.7092120 109.6871120  32.6858160  55.2350100
 109.3981860  33.0982140  53.8073110  96.0616910  44.4382080  54.1292080
  95.6771700  43.7975750  54.7275040  96.3729100  45.1418200  54.6986810
 102.2114050  41.2858620  49.6100700 102.5784180  40.8117190  50.3562040
 102.0219110  42.1600190  49.9509040  95.0754540  36.0302310  45.7394170
  94.7901460  35.6657980  46.5772790  95.0133400  35.2982770  45.1257310
 100.0013420  40.3267260  51.9284910  99.6970490  41.2059240  52.1535270
 100.9559880  40.3867050  51.9642350  98.5295210  44.5328250  42.5251760
  97.7557470  43.9925870  42.3650480  99.2589840  44.0134860  42.1869520
 109.2883190  43.5293610  48.3178150 110.0082310  44.0248900  47.9274260
 109.0865010  42.8511500  47.6732020 104.7493130  34.9231570  42.4607540
 103.9357740  34.4244740  42.3852850 104.5555080  35.7629820  42.0443890
 104.6701990  43.6002670  54.2047150 104.6039300  42.6798340  53.9504740
 104.0407130  43.6978110  54.9191790 107.4641520  39.2951220  40.7569700
 108.3521140  39.6068450  40.5821040 107.4346610  38.4223470  40.3650280
  98.5732610  44.2008630  46.1630570  99.0911280  43.3976890  46.1087460
  98.1216630  44.1387770  47.0047400 103.4602110  45.4674910  41.4357870
 103.8017810  46.2117140  40.9401190 102.6314820  45.7806030  41.7982700
  96.0577150  41.1670000  53.0756270  95.6992090  41.8323850  53.6629610
  95.7631710  40.3353550  53.4468890  99.2590270  41.6254240  55.9595820
  98.9590410  41.7711420  55.0623640 100.0301510  41.0659530  55.8669210
 104.6018720  46.4223240  53.9550950 104.6163260  45.4904200  53.7369860
 103.8943820  46.5083000  54.5940720 109.7355790  40.6063060  40.2249560
 109.6519510  41.0377280  39.3746000 110.4549980  41.0661410  40.6576380
 110.7643040  47.4605320  42.9531690 110.1219200  46.8060940  43.2275410
 110.3773700  47.8660410  42.1772360 106.3429520  44.7890750  46.8003380
 106.6953340  44.1918880  46.1404750 105.4591850  44.4634980  46.9711630
 102.4292800  45.5488440  44.2073790 103.1163930  46.0957650  44.5881380
 101.6425220  46.0929170  44.2423400  94.5685200  41.1661260  39.6990870
  95.4380050  41.4486060  39.9826790  94.0775520  41.9797130  39.5839680
 101.7320010  42.5534470  43.8199150 102.1882790  43.3639720  44.0459340
 101.3808220  42.2357610  44.6517640 104.0352620  48.0640810  51.0491450
 104.6794840  48.2700190  51.7264870 104.3982060  47.3029210  50.5962300
  97.6331790  32.8972120  44.2921670  97.5046420  32.8890020  45.2406590
  96.8093810  33.2355210  43.9412680 105.3084700  46.0673160  49.7668900
 105.9506930  45.3666320  49.8801070 105.8334050  46.8471600  49.5865790
 109.1540420  46.3521780  39.4908040 108.9278000  45.6352220  40.0832680
 108.7636620  46.1034220  38.6529790 107.0822320  46.8668060  52.9704960
 107.4178560  47.4534750  53.6482880 106.1622660  46.7360770  53.2002750
  94.9356450  50.3788640  40.2652500  95.2954090  50.9777980  39.6109770
  94.7948790  50.9248530  41.0387530  94.6325720  34.6563240  53.7528370
  93.9184240  34.8560160  54.3580980  95.0520760  33.8802810  54.1243170
 108.7356670  44.2693720  41.1522200 108.4478370  44.7306410  41.9400080
 109.5308840  43.8091490  41.4206420  94.9198310  48.6443500  54.7394900
  95.0289430  47.7038240  54.5990290  94.2678870  48.9098250  54.0908630
 102.9110900  46.9159390  56.1393020 102.5907770  46.1968630  56.6838710
 102.2369260  47.5914460  56.2129080 100.9525070  47.7619840  41.0826170
 100.9435170  48.4949530  40.4670680 100.0323430  47.5151420  41.1753130
  96.5531710  42.9834730  41.8272930  95.9459660  43.7233630  41.8368230
  97.0281060  43.0734090  41.0011130 106.1264500  37.1485550  51.5029820
 106.4945320  36.3280760  51.8309390 105.2662700  37.2087440  51.9185470
 109.4926530  36.1042490  42.3117380 108.8639690  36.2088160  41.5975610
 108.9978450  36.3239270  43.1011260 103.9384670  47.8248080  39.7451360
 104.0396650  47.6212070  38.8153340 103.0386410  47.5706360  39.9499140
 101.4610560  38.3828440  43.7275260 100.7526710  38.8514780  44.1688870
 101.7455040  37.7250450  44.3620450 103.0866490  39.8025140  51.7267790
 103.5851740  40.2770960  52.3919640 103.2289440  38.8788660  51.9337820
 105.4925990  35.1079100  45.1671050 105.3693770  35.1265230  44.2180560
 106.4410550  35.1558040  45.2869450 102.5802780  50.3434400  44.4399030
 102.8344280  50.3055790  43.5178400 101.6315260  50.2167730  44.4327280
  99.6645580  36.6913520  41.1025970 100.5136110  37.1283670  41.0366160
  99.2976850  37.0033780  41.9298030 110.2933350  36.0193100  52.5696180
 109.7906950  36.7598500  52.9089990 111.1090010  36.4077100  52.2532970
 108.5855360  41.2626280  46.0157540 107.6445500  41.2776510  46.1905230
 108.8999430  40.4762240  46.4617840  98.5637000  42.9445880  39.5761500
  99.3300270  42.8327240  40.1386930  98.6411690  42.2483850  38.9238270
  97.2583760  40.3770950  40.2594390  97.3387350  39.4298460  40.3711790
  98.1503510  40.7077830  40.3655050  98.0598470  50.5266340  47.3628930
  98.7960950  49.9781800  47.6337500  98.4439390  51.3922350  47.2234920
  94.9443950  46.5939910  43.2370440  94.0183730  46.8361050  43.2275850
  95.4100380  47.4214170  43.1155190  97.0656750  49.7112410  56.5514510
  97.8669480  50.0324460  56.9649910  96.5508570  49.3507990  57.2734420
 101.1700780  49.6996650  39.1854500 101.9629390  49.9885480  38.7336290
 100.6505130  49.2688820  38.5066980 105.9021380  45.8192280  56.4989920
 105.2959540  45.8423880  55.7585670 105.5975490  45.0875320  57.0357170
 107.3321750  49.5472570  55.1099330 108.2843500  49.4630590  55.0599570
 107.1849970  50.2114280  55.7833120 110.2230950  48.9266780  40.6091240
 109.9372460  48.5131920  39.7945420 110.0250500  49.8554490  40.4891760
  94.7854560  42.1985870  55.4950560  95.2893580  41.6193150  56.0666790
  94.0461980  42.4826100  56.0326930 101.6878180  44.9200060  39.0496850
 101.5828820  44.3052410  39.7758230 101.5202400  44.3965950  38.2659860
 101.8392500  43.6056860  55.0286080 101.0738170  44.1741860  54.9440750
 102.0208460  43.3133070  54.1354310 104.9280910  43.9820090  39.6538840
 104.3791010  44.4289390  40.2981580 105.5500170  43.4769340  40.1776510
 108.9815850  45.3362190  55.5861100 109.7225320  45.6737950  55.0828560
 108.2188530  45.5054250  55.0330870  96.8177640  40.3415460  56.3900630
  96.8582980  40.0429330  57.2985860  97.6723140  40.7423070  56.2308150
 100.5956030  42.9411010  41.5504140 101.0172450  42.7750880  42.3935530
 100.7206870  42.1311240  41.0559280  98.7583450  38.9207560  54.3575120
  98.2279910  38.4298510  53.7298460  99.4271520  39.3491760  53.8233050
 103.1083670  41.9648620  38.7981240 103.6289330  41.2497640  38.4322390
 103.7552070  42.6034490  39.0981750 107.6561510  43.3877020  54.1216310
 108.0702530  43.5422100  54.9706730 106.7212510  43.5132240  54.2842090
 108.1283680  40.7273180  56.1255460 108.7104450  39.9725500  56.0375940
 108.3045450  41.2580620  55.3486940  99.2455750  35.8869930  54.4372410
  99.1512620  35.2690680  53.7123280  98.6653140  36.6136220  54.2102320
 102.0117190  34.4443170  51.4699800 101.5634490  34.4667430  50.6245350
 101.3782390  34.0462190  52.0670100 102.4176740  43.3397500  52.0912240
 102.8364850  44.1830230  51.9188480 101.4985370  43.4769540  51.8619020
 104.7540640  41.0713680  53.4750080 104.8736850  40.4754820  54.2144920
 105.6134640  41.1083370  53.0551380 107.0928540  41.6250870  52.0512590
 106.5663760  42.1493490  51.4477730 107.4359880  42.2578260  52.6822320
  99.4914930  39.0144240  38.4962300  99.2903990  38.1511600  38.8575640
  99.3206980  38.9277600  37.5583900 100.2684160  49.6450510  53.2069970
  99.7305250  50.3696570  52.8878670 100.5218120  49.1680850  52.4167310
 101.5209410  37.6135030  54.7325900 102.1109100  37.3050880  55.4203720
 100.7029650  37.1414780  54.8885800 106.3402840  37.2300840  54.9658920
 105.6518360  36.5682380  54.9008910 107.0608860  36.7839110  55.4107380
 106.9703240  33.8252470  41.0249180 107.2505530  32.9820370  41.3808600
 106.1968970  34.0575580  41.5387930  98.2897730  36.1144860  38.4840180
  98.5923630  36.1212290  37.5759330  99.0292320  35.7642720  38.9807840
 103.1246370  50.8801720  53.4656620 103.0505070  51.7836860  53.7728990
 102.2225210  50.5613620  53.4378690 101.5082660  35.0579480  39.4696380
 101.1604660  34.3803470  38.8898830 101.7095430  34.5968990  40.2839770
 103.6731700  50.0460230  41.0882980 104.5682490  50.3845200  41.1101740
 103.7049330  49.3239640  40.4607260  97.3127860  45.4187280  39.3169980
  97.7502730  45.9616950  39.9727560  97.7975590  44.5934230  39.3266320
  94.5273660  48.2076310  46.7690240  94.8576670  47.3397370  46.5368880
  94.9564660  48.4134830  47.5995200  99.1235580  46.5385320  44.4292210
  98.8231120  46.4150290  45.3296120  99.0173070  45.6793910  44.0207940
  95.0163870  49.0746900  49.5071870  94.5794860  49.2547700  50.3396020
  95.5841550  49.8321520  49.3653590 110.6526050  48.5763900  53.7949180
 110.0528040  48.6356460  53.0513100 110.7819950  47.6368880  53.9246030
  94.8488300  41.5867130  45.8660750  94.1937140  41.3178770  45.2220450
  95.6866250  41.4771610  45.4162730 109.3377690  45.3015880  51.8925340
 108.5237530  45.7313040  52.1551130 109.7451890  45.9134290  51.2794390
 107.7978740  36.3808420  40.0879240 108.2163620  36.1939400  39.2475900
 107.4914800  35.5287470  40.3982170  95.8864230  41.9719700  50.4064090
  96.2537270  41.8847100  51.2860110  95.3175050  41.2086250  50.3070950
 110.6868090  40.4404080  53.4194560 110.4554180  40.2116830  52.5192510
 110.9472640  41.3603630  53.3739450  95.4380230  38.8828790  54.3122510
  94.5436280  38.8495550  54.6516220  95.9777780  39.0815580  55.0773760
 109.1256160  35.6660510  56.1974260 110.0026340  35.6743910  56.5808260
 109.1377000  34.9291350  55.5866610  94.0626380  38.7966060  41.8086080
  93.1590460  39.0596260  41.6337740  94.5467000  39.0677230  41.0286040
 110.5719430  39.5190050  47.0862280 111.0956910  39.0252700  46.4552450
 111.1578850  39.6540410  47.8309850 110.7509150  39.6029920  50.6081830
 109.8011860  39.5693460  50.7226820 110.9322160  40.5130030  50.3731600
  96.6053590  37.8531600  39.7180460  97.3145290  37.4314820  39.2327740
  95.8893530  37.9206830  39.0863810  96.2527750  33.9070930  38.7583110
  96.9755880  34.4479870  39.0764330  96.5252270  33.6334350  37.8824650
 110.0619400  38.7763400  43.0254690 110.5578520  38.5434270  43.8103570
 109.8635470  37.9375240  42.6092330  95.9419940  33.1577120  48.6605730
  96.5896130  32.6074500  48.2200890  96.3621780  33.4120270  49.4821540
 109.8372280  33.3518480  52.0175370 110.4744500  33.9652620  52.3834560
 109.9847170  33.3879140  51.0724600 109.3953740  50.0534480  45.4193610
 109.9912810  49.7319050  44.7428030 109.6531890  49.5806300  46.2106880
  95.6951940  33.3132790  51.4031050  95.3466760  33.7696610  52.1689230
  95.3639640  32.4189920  51.4853480  97.3016310  46.4852390  55.5684240
  97.2585940  46.1145300  56.4498700  97.4327320  47.4229960  55.7086060
 101.0022340  48.0411980  51.1693960 100.7613700  48.3086540  50.2824480
 101.9424980  48.2117710  51.2244820 103.2076760  34.5044670  54.9250470
 103.1465650  35.0966500  55.6745880 104.1477140  34.3970630  54.7800730
 105.8451320  34.1614730  54.5642760 106.4591730  34.4794020  53.9023840
 106.3900880  33.6763320  55.1838620  96.3672580  32.8408990  54.6781820
  96.9155570  32.6597040  53.9147930  96.4327890  32.0503100  55.2138130
  97.1404340  49.4314640  52.6882020  96.5464660  49.2999340  53.4272060
  97.1328180  48.5952780  52.2224120 106.5859360  32.7246870  50.8912050
 105.7119200  33.0581980  50.6884980 106.4770110  32.2520050  51.7163920
 107.4931340  34.9317740  52.2753770 107.1644700  34.1169500  51.8955500
 108.4413640  34.8887550  52.1519460 109.9465950  50.7029780  49.2491340
 109.4868920  51.4545590  48.8749360 109.3178410  49.9836250  49.1906140
  96.7716570  46.7973020  51.6390060  96.0450630  46.1778310  51.5716010
  96.8325720  47.1913630  50.7688140 100.3761670  49.0118020  48.4239470
 100.8926690  48.4005380  47.8987730 101.0259050  49.5146800  48.9150480
 103.1157170  49.9026510  49.2508450 103.4034980  49.6480810  48.3741460
 103.6280390  49.3503870  49.8414020 104.3334180  33.6416710  49.8304960
 103.5505970  34.1162210  50.1101720 104.0397110  32.7371540  49.7218140
 108.8855250  34.3439810  47.8754050 109.3263340  34.2884910  47.0275650
 108.6162840  35.2597820  47.9464230  95.0546570  50.1147410  44.8486820
  94.8868610  49.4818090  45.5468710  94.1881080  50.3206810  44.4981010
  95.6774590  33.9464190  42.3518680  96.4353950  34.0593070  41.7782710
  95.2151760  34.7833390  42.3062110 102.2188400  36.0603460  45.3420990
 101.4062910  35.6860350  45.0016870 102.7230040  35.3048540  45.6442180
 106.7213380  32.7245910  46.5804060 107.3242750  33.2966120  47.0552580
 105.9806370  33.2885350  46.3577960 109.8647980  33.1267470  41.8544340
 110.0598610  34.0250920  42.1211770 109.0777850  32.8954550  42.3477290
  96.6609270  48.8080640  42.2936960  96.1356890  49.1888670  41.5898920
  96.5853850  49.4331410  43.0146670  98.0499740  34.4728240  40.8920650
  98.5792500  33.6858040  40.7628600  98.6828060  35.1519430  41.1256180
 100.2437580  34.2103380  43.9466040  99.6140320  33.5090690  44.1136170
  99.7042720  34.9707510  43.7299200 103.1829530  50.8242610  56.6176650
 104.1096840  50.5886880  56.6612610 103.1679960  51.6514610  56.1362680
 100.3693140  33.4887360  56.3818530 100.0877410  33.9920960  55.6179350
 100.7512840  32.6909110  56.0160660  99.2602240  50.7563020  41.1686210
  99.9921060  50.4722300  40.6210100  99.5195910  50.5176300  42.0585590
  98.4217030  46.8727750  41.1732540  97.7925910  47.3412850  41.7218370
  98.5364860  46.0276970  41.6078730 106.9708600  32.9040940  56.9599000
 106.8574050  33.2235550  57.8550520 107.7878340  33.3053450  56.6636280
 109.7507090  50.0512470  56.4417690 110.5432410  49.5561700  56.2343650
 110.0440240  50.7302610  57.0493300 105.8766750  40.9233410  27.3233740
 105.7960800  40.0088020  27.0525450 105.4631170  41.4200480  26.6173450
 104.0084790  42.7012430  29.2043010 103.2326890  42.2212870  29.4941580
 104.6597720  42.0218080  29.0299170  98.0250620  43.0132240  30.0818770
  97.1935500  42.7580950  30.4815280  98.6331600  43.0843010  30.8176690
 108.0292220  47.1072620  27.9842140 107.5673750  46.3359860  28.3129310
 108.8417770  47.1338690  28.4894590  98.0051880  47.0472330  30.2776790
  98.3079920  46.1570070  30.0987010  98.7495470  47.6042550  30.0499040
  94.3975580  40.5739780  29.7500860  94.9691690  39.8061980  29.7504500
  94.3977120  40.8728540  28.8407470 104.2555530  49.3930630  27.6046130
 103.6366970  49.8488130  27.0340570 105.1107310  49.5482090  27.2035830
 103.4493780  45.3769620  29.2113170 103.3802060  44.4359560  29.0502300
 104.2113640  45.4671030  29.7835740  95.6400450  35.9824140  31.5369790
  95.4603290  35.0849890  31.8172550  95.2380530  36.5296010  32.2116740
 104.4798950  38.1840000  29.4382100 104.8563770  37.3111880  29.3255770
 104.3818460  38.5198700  28.5472540 108.2623070  35.6790440  26.3710440
 109.0832690  35.1887010  26.4135920 108.2957150  36.2688100  27.1242280
  96.2587120  38.4784640  30.1452130  96.9397230  38.7423010  30.7639530
  95.9435170  37.6385510  30.4790140 100.4511690  39.5252000  29.2324720
 100.9589910  40.0232970  29.8729740 100.9824930  38.7487200  29.0564080
  98.7347790  34.1650560  33.4988140  98.7366230  34.6822950  32.6934040
  97.9052100  33.6880740  33.4758070 105.1218880  44.2769870  24.9978040
 104.5036150  44.7419320  24.4340760 105.6342130  44.9697350  25.4147550
  99.9850640  43.8045740  31.6761640  99.6520020  44.4314660  32.3182710
 100.1617320  44.3307620  30.8963310 108.4984550  37.6190820  29.1437980
 107.7940120  37.9075710  29.7241090 108.8596710  38.4290930  28.7837540
  98.4163120  35.8760520  31.5058590  98.7579930  36.7202570  31.2112460
  97.4778930  36.0244260  31.6223930  99.1969740  45.7726540  33.4910820
  99.8143740  46.4477620  33.2095270  98.3362860  46.1814520  33.3998320
  94.4902080  44.9626400  22.3717670  94.1130060  45.4513500  21.6402570
  94.7475150  45.6351680  23.0024200 110.1147330  47.2365950  31.4065460
 109.4310850  47.9065060  31.3982130 110.6541620  47.4346600  30.6410320
 102.0991010  33.3642790  27.8303180 102.4065990  32.8089680  27.1138680
 101.1691710  33.4987250  27.6476170 107.6506070  49.0810080  30.1210640
 107.6633230  48.6772370  29.2532900 107.0981290  49.8557370  30.0172070
 108.9451490  45.8026300  25.2100810 108.8347820  44.8600630  25.3350230
 108.9419740  46.1641940  26.0963570 107.0491510  43.9839920  31.4493250
 107.4660300  43.7700030  30.6146710 107.7731330  44.2412710  32.0201870
 104.4871770  41.4291620  24.5663300 103.5601050  41.3629000  24.7951770
 104.6396590  42.3671750  24.4518540 104.4740850  37.7008620  21.5630460
 103.5344520  37.8622580  21.6482920 104.7924110  38.4194300  21.0166450
 108.5169060  42.9911920  25.0698550 107.8981480  42.6531470  24.4224850
 108.4993510  42.3471680  25.7777740 107.9595620  39.1696460  32.4864360
 107.5466800  39.9950170  32.7404350 107.2271570  38.5841500  32.2940720
 100.0928410  41.9556360  27.3483030  99.6885410  41.2433610  26.8528930
 100.1791530  41.6109600  28.2371070 100.5610110  45.6423920  29.5122240
 100.2638400  45.0369390  28.8330020 101.5109930  45.6801230  29.4011600
  98.8057030  38.7299570  31.1282070  99.3571620  38.8394910  30.3535320
  99.3200540  39.1037170  31.8437300 108.6495720  49.2155790  33.1745340
 108.1726280  50.0227980  32.9817950 107.9657510  48.5634120  33.3271550
  99.6528540  45.3805610  36.1630040  98.7557070  45.6045580  36.4103440
  99.6781410  45.5040550  35.2141440 106.6933760  42.2298730  22.0771300
 107.1327040  41.3921160  21.9309120 107.4062180  42.8628130  22.1635440
  98.4799760  42.2518930  34.7387410  98.3407530  43.1241730  35.1074810
  97.5981120  41.9091740  34.5935350 104.8029140  47.1694800  26.0452540
 105.2425050  47.9119130  25.6307930 104.7416030  47.4121370  26.9691500
 100.2780110  48.1940630  36.9472560 100.2495540  48.5983580  36.0800990
 100.1145080  47.2650990  36.7844160 110.2750900  33.4841540  20.3912340
 109.9623560  33.5768370  21.2911410 111.0363370  34.0622570  20.3409770
  94.4318410  44.0216480  30.6558320  94.5098830  44.1565250  29.7114040
  95.0460090  43.3132370  30.8486440  95.6766040  45.7216670  27.0664500
  95.2694120  45.8631260  26.2118100  96.5679050  45.4376830  26.8635710
 105.4944920  49.8708580  33.9731550 106.0089590  49.7816590  34.7753980
 104.6514000  50.2168280  34.2659460 107.4699320  50.1563920  23.4015550
 107.3100460  49.8666860  24.2997380 107.3046030  49.3804050  22.8660780
  99.9487700  49.9362450  25.1787170  99.7730180  49.0197990  24.9654970
  99.0943440  50.2949740  25.4184970 107.1725450  47.6651480  21.9613550
 106.4790610  47.6628770  21.3015830 107.9148310  47.2410800  21.5307720
 106.7375380  49.2914190  26.0362040 107.1932330  48.5103570  26.3500660
 107.0767900  50.0021010  26.5803220  94.4877930  45.0630650  33.1952780
  94.6508970  44.5936010  32.3772150  94.9530380  44.5554210  33.8601620
  99.2596700  34.1936410  28.2313350  98.8164850  34.9745950  27.8997870
  99.8181690  34.5166300  28.9384290 103.5466510  37.0604930  33.8348670
 103.0845880  37.2687950  34.6468610 103.1444620  36.2464280  33.5319340
 108.5471020  38.2813880  34.9645330 107.6964610  37.9819630  35.2854400
 108.3872810  38.5255890  34.0529150 105.6420730  39.7815630  37.0644120
 105.9674140  38.9479380  36.7246350 106.4301060  40.3044150  37.2122450
 102.3755520  33.8147110  23.1119180 101.7509700  33.8106980  23.8372490
 102.2885640  32.9478070  22.7155150 101.2972600  34.7383740  30.0902950
 101.5944930  35.6446570  30.0094970 101.8458160  34.2502520  29.4762520
 106.2808680  39.3233350  24.5585250 105.6817570  40.0469150  24.3748870
 106.8288290  39.2610130  23.7761700 101.4910130  40.2155560  36.6254870
 101.3953730  39.2750290  36.4755270 102.3342110  40.4370630  36.2302940
 104.8873550  37.9596890  26.5888530 105.2803120  38.2769090  25.7757220
 105.2490400  37.0808770  26.7033050  96.6220670  36.6269230  34.7788650
  96.2284060  37.4744440  34.9861430  95.9339070  35.9895600  34.9697290
 103.1965720  36.7104200  37.8485390 102.5064040  36.5176400  38.4831480
 103.9398020  36.9938840  38.3809690 105.4728690  40.5502640  30.6839310
 104.7409810  41.0589450  31.0329410 105.0753030  39.7332620  30.3828090
 101.9106080  37.2256840  29.0891800 101.9142140  36.7846790  28.2396340
 102.8057200  37.5474170  29.1963620  97.7608460  37.1083330  28.0486010
  97.4208510  37.5858560  28.8053060  96.9985780  36.6548450  27.6887110
 101.9726230  38.2268920  22.0798560 102.0939050  38.1855400  23.0284380
 101.5874740  39.0893070  21.9245290 105.9354600  36.0036320  30.0962250
 105.9527340  36.4544970  30.9404100 105.6870180  35.1041960  30.3095690
 100.9847730  40.5370060  21.4781860 100.4164630  40.0888310  20.8517770
 101.6936730  40.8962840  20.9447010 109.3625350  33.4168500  35.9348630
 109.6871120  32.6858160  36.4606610 109.3981860  33.0982140  35.0329620
  96.0616910  44.4382080  35.3548590  95.6771700  43.7975750  35.9531550
  96.3729100  45.1418200  35.9243320 102.2114050  41.2858620  30.8357210
 102.5784180  40.8117190  31.5818550 102.0219110  42.1600190  31.1765550
 100.0013420  40.3267260  33.1541420  99.6970490  41.2059240  33.3791780
 100.9559880  40.3867050  33.1898860  98.5295210  44.5328250  23.7508270
  97.7557470  43.9925870  23.5906990  99.2589840  44.0134860  23.4126030
 109.2883190  43.5293610  29.5434660 110.0082310  44.0248900  29.1530770
 109.0865010  42.8511500  28.8988530 104.7493130  34.9231570  23.6864050
 103.9357740  34.4244740  23.6109360 104.5555080  35.7629820  23.2700400
 104.6701990  43.6002670  35.4303660 104.6039300  42.6798340  35.1761250
 104.0407130  43.6978110  36.1448300 107.4641520  39.2951220  21.9826210
 108.3521140  39.6068450  21.8077550 107.4346610  38.4223470  21.5906790
  98.5732610  44.2008630  27.3887080  99.0911280  43.3976890  27.3343970
  98.1216630  44.1387770  28.2303910 103.4602110  45.4674910  22.6614380
 103.8017810  46.2117140  22.1657700 102.6314820  45.7806030  23.0239210
  96.0577150  41.1670000  34.3012780  95.6992090  41.8323850  34.8886120
  95.7631710  40.3353550  34.6725400  99.2590270  41.6254240  37.1852330
  98.9590410  41.7711420  36.2880150 100.0301510  41.0659530  37.0925720
 104.6018720  46.4223240  35.1807460 104.6163260  45.4904200  34.9626370
 103.8943820  46.5083000  35.8197230 109.7355790  40.6063060  21.4506070
 109.6519510  41.0377280  20.6002510 110.4549980  41.0661410  21.8832890
 110.7643040  47.4605320  24.1788200 110.1219200  46.8060940  24.4531920
 110.3773700  47.8660410  23.4028870 106.3429520  44.7890750  28.0259890
 106.6953340  44.1918880  27.3661260 105.4591850  44.4634980  28.1968140
 102.4292800  45.5488440  25.4330300 103.1163930  46.0957650  25.8137890
 101.6425220  46.0929170  25.4679910 101.7320010  42.5534470  25.0455660
 102.1882790  43.3639720  25.2715850 101.3808220  42.2357610  25.8774150
 104.0352620  48.0640810  32.2747960 104.6794840  48.2700190  32.9521380
 104.3982060  47.3029210  31.8218810 105.3084700  46.0673160  30.9925410
 105.9506930  45.3666320  31.1057580 105.8334050  46.8471600  30.8122300
 109.1540420  46.3521780  20.7164550 108.9278000  45.6352220  21.3089190
 108.7636620  46.1034220  19.8786300 107.0822320  46.8668060  34.1961470
 107.4178560  47.4534750  34.8739390 106.1622660  46.7360770  34.4259260
  94.9356450  50.3788640  21.4909010  95.2954090  50.9777980  20.8366280
  94.7948790  50.9248530  22.2644040  94.6325720  34.6563240  34.9784880
  93.9184240  34.8560160  35.5837490  95.0520760  33.8802810  35.3499680
 108.7356670  44.2693720  22.3778710 108.4478370  44.7306410  23.1656590
 109.5308840  43.8091490  22.6462930  94.9198310  48.6443500  35.9651410
  95.0289430  47.7038240  35.8246800  94.2678870  48.9098250  35.3165140
 102.9110900  46.9159390  37.3649530 102.5907770  46.1968630  37.9095220
 102.2369260  47.5914460  37.4385590 100.9525070  47.7619840  22.3082680
 100.9435170  48.4949530  21.6927190 100.0323430  47.5151420  22.4009640
  96.5531710  42.9834730  23.0529440  95.9459660  43.7233630  23.0624740
  97.0281060  43.0734090  22.2267640 106.1264500  37.1485550  32.7286330
 106.4945320  36.3280760  33.0565900 105.2662700  37.2087440  33.1441980
 109.4926530  36.1042490  23.5373890 108.8639690  36.2088160  22.8232120
 108.9978450  36.3239270  24.3267770 103.9384670  47.8248080  20.9707870
 104.0396650  47.6212070  20.0409850 103.0386410  47.5706360  21.1755650
 101.4610560  38.3828440  24.9531770 100.7526710  38.8514780  25.3945380
 101.7455040  37.7250450  25.5876960 103.0866490  39.8025140  32.9524300
 103.5851740  40.2770960  33.6176150 103.2289440  38.8788660  33.1594330
 105.4925990  35.1079100  26.3927560 105.3693770  35.1265230  25.4437070
 106.4410550  35.1558040  26.5125960 102.5802780  50.3434400  25.6655540
 102.8344280  50.3055790  24.7434910 101.6315260  50.2167730  25.6583790
 110.2933350  36.0193100  33.7952690 109.7906950  36.7598500  34.1346500
 111.1090010  36.4077100  33.4789480 108.5855360  41.2626280  27.2414050
 107.6445500  41.2776510  27.4161740 108.8999430  40.4762240  27.6874350
  98.5637000  42.9445880  20.8018010  99.3300270  42.8327240  21.3643440
  98.6411690  42.2483850  20.1494780  98.0598470  50.5266340  28.5885440
  98.7960950  49.9781800  28.8594010  98.4439390  51.3922350  28.4491430
  94.9443950  46.5939910  24.4626950  94.0183730  46.8361050  24.4532360
  95.4100380  47.4214170  24.3411700  97.0656750  49.7112410  37.7771020
  97.8669480  50.0324460  38.1906420  96.5508570  49.3507990  38.4990930
 101.1700780  49.6996650  20.4111010 101.9629390  49.9885480  19.9592800
 100.6505130  49.2688820  19.7323490 105.9021380  45.8192280  37.7246430
 105.2959540  45.8423880  36.9842180 105.5975490  45.0875320  38.2613680
 107.3321750  49.5472570  36.3355840 108.2843500  49.4630590  36.2856080
 107.1849970  50.2114280  37.0089630 110.2230950  48.9266780  21.8347750
 109.9372460  48.5131920  21.0201930 110.0250500  49.8554490  21.7148270
  94.7854560  42.1985870  36.7207070  95.2893580  41.6193150  37.2923300
  94.0461980  42.4826100  37.2583440 101.6878180  44.9200060  20.2753360
 101.5828820  44.3052410  21.0014740 101.5202400  44.3965950  19.4916370
 101.8392500  43.6056860  36.2542590 101.0738170  44.1741860  36.1697260
 102.0208460  43.3133070  35.3610820 104.9280910  43.9820090  20.8795350
 104.3791010  44.4289390  21.5238090 105.5500170  43.4769340  21.4033020
 108.9815850  45.3362190  36.8117610 109.7225320  45.6737950  36.3085070
 108.2188530  45.5054250  36.2587380  96.8177640  40.3415460  37.6157140
  96.8582980  40.0429330  38.5242370  97.6723140  40.7423070  37.4564660
 100.5956030  42.9411010  22.7760650 101.0172450  42.7750880  23.6192040
 100.7206870  42.1311240  22.2815790  98.7583450  38.9207560  35.5831630
  98.2279910  38.4298510  34.9554970  99.4271520  39.3491760  35.0489560
 103.1083670  41.9648620  20.0237750 103.6289330  41.2497640  19.6578900
 103.7552070  42.6034490  20.3238260 107.6561510  43.3877020  35.3472820
 108.0702530  43.5422100  36.1963240 106.7212510  43.5132240  35.5098600
 108.1283680  40.7273180  37.3511970 108.7104450  39.9725500  37.2632450
 108.3045450  41.2580620  36.5743450  99.2455750  35.8869930  35.6628920
  99.1512620  35.2690680  34.9379790  98.6653140  36.6136220  35.4358830
 102.0117190  34.4443170  32.6956310 101.5634490  34.4667430  31.8501860
 101.3782390  34.0462190  33.2926610 102.4176740  43.3397500  33.3168750
 102.8364850  44.1830230  33.1444990 101.4985370  43.4769540  33.0875530
 104.7540640  41.0713680  34.7006590 104.8736850  40.4754820  35.4401430
 105.6134640  41.1083370  34.2807890 107.0928540  41.6250870  33.2769100
 106.5663760  42.1493490  32.6734240 107.4359880  42.2578260  33.9078830
 100.2684160  49.6450510  34.4326480  99.7305250  50.3696570  34.1135180
 100.5218120  49.1680850  33.6423820 101.5209410  37.6135030  35.9582410
 102.1109100  37.3050880  36.6460230 100.7029650  37.1414780  36.1142310
 106.3402840  37.2300840  36.1915430 105.6518360  36.5682380  36.1265420
 107.0608860  36.7839110  36.6363890 106.9703240  33.8252470  22.2505690
 107.2505530  32.9820370  22.6065110 106.1968970  34.0575580  22.7644440
 103.1246370  50.8801720  34.6913130 103.0505070  51.7836860  34.9985500
 102.2225210  50.5613620  34.6635200 101.5082660  35.0579480  20.6952890
 101.1604660  34.3803470  20.1155340 101.7095430  34.5968990  21.5096280
 103.6731700  50.0460230  22.3139490 104.5682490  50.3845200  22.3358250
 103.7049330  49.3239640  21.6863770  97.3127860  45.4187280  20.5426490
  97.7502730  45.9616950  21.1984070  97.7975590  44.5934230  20.5522830
  94.5273660  48.2076310  27.9946750  94.8576670  47.3397370  27.7625390
  94.9564660  48.4134830  28.8251710  99.1235580  46.5385320  25.6548720
  98.8231120  46.4150290  26.5552630  99.0173070  45.6793910  25.2464450
  95.0163870  49.0746900  30.7328380  94.5794860  49.2547700  31.5652530
  95.5841550  49.8321520  30.5910100 110.6526050  48.5763900  35.0205690
 110.0528040  48.6356460  34.2769610 110.7819950  47.6368880  35.1502540
 109.3377690  45.3015880  33.1181850 108.5237530  45.7313040  33.3807640
 109.7451890  45.9134290  32.5050900 107.7978740  36.3808420  21.3135750
 108.2163620  36.1939400  20.4732410 107.4914800  35.5287470  21.6238680
  95.8864230  41.9719700  31.6320600  96.2537270  41.8847100  32.5116620
  95.3175050  41.2086250  31.5327460 110.6868090  40.4404080  34.6451070
 110.4554180  40.2116830  33.7449020 110.9472640  41.3603630  34.5995960
  95.4380230  38.8828790  35.5379020  94.5436280  38.8495550  35.8772730
  95.9777780  39.0815580  36.3030270 109.1256160  35.6660510  37.4230770
 110.0026340  35.6743910  37.8064770 109.1377000  34.9291350  36.8123120
 110.5719430  39.5190050  28.3118790 111.0956910  39.0252700  27.6808960
 111.1578850  39.6540410  29.0566360 110.7509150  39.6029920  31.8338340
 109.8011860  39.5693460  31.9483330 110.9322160  40.5130030  31.5988110
 110.0619400  38.7763400  24.2511200 110.5578520  38.5434270  25.0360080
 109.8635470  37.9375240  23.8348840  95.9419940  33.1577120  29.8862240
  96.5896130  32.6074500  29.4457400  96.3621780  33.4120270  30.7078050
 109.8372280  33.3518480  33.2431880 110.4744500  33.9652620  33.6091070
 109.9847170  33.3879140  32.2981110 109.3953740  50.0534480  26.6450120
 109.9912810  49.7319050  25.9684540 109.6531890  49.5806300  27.4363390
  95.6951940  33.3132790  32.6287560  95.3466760  33.7696610  33.3945740
  95.3639640  32.4189920  32.7109990  97.3016310  46.4852390  36.7940750
  97.2585940  46.1145300  37.6755210  97.4327320  47.4229960  36.9342570
 101.0022340  48.0411980  32.3950470 100.7613700  48.3086540  31.5080990
 101.9424980  48.2117710  32.4501330 103.2076760  34.5044670  36.1506980
 103.1465650  35.0966500  36.9002390 104.1477140  34.3970630  36.0057240
 105.8451320  34.1614730  35.7899270 106.4591730  34.4794020  35.1280350
 106.3900880  33.6763320  36.4095130  96.3672580  32.8408990  35.9038330
  96.9155570  32.6597040  35.1404440  96.4327890  32.0503100  36.4394640
  97.1404340  49.4314640  33.9138530  96.5464660  49.2999340  34.6528570
  97.1328180  48.5952780  33.4480630 106.5859360  32.7246870  32.1168560
 105.7119200  33.0581980  31.9141490 106.4770110  32.2520050  32.9420430
 107.4931340  34.9317740  33.5010280 107.1644700  34.1169500  33.1212010
 108.4413640  34.8887550  33.3775970 109.9465950  50.7029780  30.4747850
 109.4868920  51.4545590  30.1005870 109.3178410  49.9836250  30.4162650
  96.7716570  46.7973020  32.8646570  96.0450630  46.1778310  32.7972520
  96.8325720  47.1913630  31.9944650 100.3761670  49.0118020  29.6495980
 100.8926690  48.4005380  29.1244240 101.0259050  49.5146800  30.1406990
 103.1157170  49.9026510  30.4764960 103.4034980  49.6480810  29.5997970
 103.6280390  49.3503870  31.0670530 104.3334180  33.6416710  31.0561470
 103.5505970  34.1162210  31.3358230 104.0397110  32.7371540  30.9474650
 108.8855250  34.3439810  29.1010560 109.3263340  34.2884910  28.2532160
 108.6162840  35.2597820  29.1720740  95.0546570  50.1147410  26.0743330
  94.8868610  49.4818090  26.7725220  94.1881080  50.3206810  25.7237520
 102.2188400  36.0603460  26.5677500 101.4062910  35.6860350  26.2273380
 102.7230040  35.3048540  26.8698690 106.7213380  32.7245910  27.8060570
 107.3242750  33.2966120  28.2809090 105.9806370  33.2885350  27.5834470
 109.8647980  33.1267470  23.0800850 110.0598610  34.0250920  23.3468280
 109.0777850  32.8954550  23.5733800  96.6609270  48.8080640  23.5193470
  96.1356890  49.1888670  22.8155430  96.5853850  49.4331410  24.2403180
 100.2437580  34.2103380  25.1722550  99.6140320  33.5090690  25.3392680
  99.7042720  34.9707510  24.9555710 103.1829530  50.8242610  37.8433160
 104.1096840  50.5886880  37.8869120 103.1679960  51.6514610  37.3619190
 100.3693140  33.4887360  37.6075040 100.0877410  33.9920960  36.8435860
 100.7512840  32.6909110  37.2417170  99.2602240  50.7563020  22.3942720
  99.9921060  50.4722300  21.8466610  99.5195910  50.5176300  23.2842100
  98.4217030  46.8727750  22.3989050  97.7925910  47.3412850  22.9474880
  98.5364860  46.0276970  22.8335240 106.9708600  32.9040940  38.1855510
 106.8574050  33.2235550  39.0807030 107.7878340  33.3053450  37.8892790
 109.7507090  50.0512470  37.6674200 110.5432410  49.5561700  37.4600160
 110.0440240  50.7302610  38.2749810 105.8766750  40.9233410   8.5490250
 105.7960800  40.0088020   8.2781960 105.4631170  41.4200480   7.8429960
 104.0084790  42.7012430  10.4299520 103.2326890  42.2212870  10.7198090
 104.6597720  42.0218080  10.2555680  98.0250620  43.0132240  11.3075280
  97.1935500  42.7580950  11.7071790  98.6331600  43.0843010  12.0433200
 108.0292220  47.1072620   9.2098650 107.5673750  46.3359860   9.5385820
 108.8417770  47.1338690   9.7151100  98.0051880  47.0472330  11.5033300
  98.3079920  46.1570070  11.3243520  98.7495470  47.6042550  11.2755550
  96.4342570  37.9734130   5.0917670  95.5459270  38.3150100   4.9897550
  96.7183760  37.7734450   4.1998500  94.3975580  40.5739780  10.9757370
  94.9691690  39.8061980  10.9761010  94.3977120  40.8728540  10.0663980
 104.2555530  49.3930630   8.8302640 103.6366970  49.8488130   8.2597080
 105.1107310  49.5482090   8.4292340 103.4493780  45.3769620  10.4369680
 103.3802060  44.4359560  10.2758810 104.2113640  45.4671030  11.0092250
  95.6400450  35.9824140  12.7626300  95.4603290  35.0849890  13.0429060
  95.2380530  36.5296010  13.4373250 104.4798950  38.1840000  10.6638610
 104.8563770  37.3111880  10.5512280 104.3818460  38.5198700   9.7729050
  98.6103960  36.5565630   6.1256050  98.7170710  37.4569360   6.4324810
  97.6996320  36.5083600   5.8350700 108.2623070  35.6790440   7.5966950
 109.0832690  35.1887010   7.6392430 108.2957150  36.2688100   8.3498790
  96.2587120  38.4784640  11.3708640  96.9397230  38.7423010  11.9896040
  95.9435170  37.6385510  11.7046650 100.4511690  39.5252000  10.4581230
 100.9589910  40.0232970  11.0986250 100.9824930  38.7487200  10.2820590
  98.7347790  34.1650560  14.7244650  98.7366230  34.6822950  13.9190550
  97.9052100  33.6880740  14.7014580 105.1218880  44.2769870   6.2234550
 104.5036150  44.7419320   5.6597270 105.6342130  44.9697350   6.6404060
  99.9850640  43.8045740  12.9018150  99.6520020  44.4314660  13.5439220
 100.1617320  44.3307620  12.1219820 108.4984550  37.6190820  10.3694490
 107.7940120  37.9075710  10.9497600 108.8596710  38.4290930  10.0094050
  98.4163120  35.8760520  12.7315100  98.7579930  36.7202570  12.4368970
  97.4778930  36.0244260  12.8480440  99.1969740  45.7726540  14.7167330
  99.8143740  46.4477620  14.4351780  98.3362860  46.1814520  14.6254830
  94.4902080  44.9626400   3.5974180  94.1130060  45.4513500   2.8659080
  94.7475150  45.6351680   4.2280710 110.1147330  47.2365950  12.6321970
 109.4310850  47.9065060  12.6238640 110.6541620  47.4346600  11.8666830
 102.0991010  33.3642790   9.0559690 102.4065990  32.8089680   8.3395190
 101.1691710  33.4987250   8.8732680 107.6506070  49.0810080  11.3467150
 107.6633230  48.6772370  10.4789410 107.0981290  49.8557370  11.2428580
 108.9451490  45.8026300   6.4357320 108.8347820  44.8600630   6.5606740
 108.9419740  46.1641940   7.3220080 107.0491510  43.9839920  12.6749760
 107.4660300  43.7700030  11.8403220 107.7731330  44.2412710  13.2458380
 104.4871770  41.4291620   5.7919810 103.5601050  41.3629000   6.0208280
 104.6396590  42.3671750   5.6775050 104.4740850  37.7008620   2.7886970
 103.5344520  37.8622580   2.8739430 104.7924110  38.4194300   2.2422960
 108.5169060  42.9911920   6.2955060 107.8981480  42.6531470   5.6481360
 108.4993510  42.3471680   7.0034250 107.9595620  39.1696460  13.7120870
 107.5466800  39.9950170  13.9660860 107.2271570  38.5841500  13.5197230
 100.0928410  41.9556360   8.5739540  99.6885410  41.2433610   8.0785440
 100.1791530  41.6109600   9.4627580 100.5610110  45.6423920  10.7378750
 100.2638400  45.0369390  10.0586530 101.5109930  45.6801230  10.6268110
  98.8057030  38.7299570  12.3538580  99.3571620  38.8394910  11.5791830
  99.3200540  39.1037170  13.0693810 108.6495720  49.2155790  14.4001850
 108.1726280  50.0227980  14.2074460 107.9657510  48.5634120  14.5528060
  99.6528540  45.3805610  17.3886550  98.7557070  45.6045580  17.6359950
  99.6781410  45.5040550  16.4397950 106.6933760  42.2298730   3.3027810
 107.1327040  41.3921160   3.1565630 107.4062180  42.8628130   3.3891950
  98.4799760  42.2518930  15.9643920  98.3407530  43.1241730  16.3331320
  97.5981120  41.9091740  15.8191860 104.8029140  47.1694800   7.2709050
 105.2425050  47.9119130   6.8564440 104.7416030  47.4121370   8.1948010
 100.2780110  48.1940630  18.1729070 100.2495540  48.5983580  17.3057500
 100.1145080  47.2650990  18.0100670  96.7933040  40.8501340   6.0746190
  96.6730640  41.5763430   5.4627460  96.4833930  40.0804250   5.5974100
  94.4318410  44.0216480  11.8814830  94.5098830  44.1565250  10.9370550
  95.0460090  43.3132370  12.0742950  95.6766040  45.7216670   8.2921010
  95.2694120  45.8631260   7.4374610  96.5679050  45.4376830   8.0892220
 105.4944920  49.8708580  15.1988060 106.0089590  49.7816590  16.0010490
 104.6514000  50.2168280  15.4915970 107.4699320  50.1563920   4.6272060
 107.3100460  49.8666860   5.5253890 107.3046030  49.3804050   4.0917290
  99.9487700  49.9362450   6.4043680  99.7730180  49.0197990   6.1911480
  99.0943440  50.2949740   6.6441480 107.1725450  47.6651480   3.1870060
 106.4790610  47.6628770   2.5272340 107.9148310  47.2410800   2.7564230
 106.7375380  49.2914190   7.2618550 107.1932330  48.5103570   7.5757170
 107.0767900  50.0021010   7.8059730  94.4877930  45.0630650  14.4209290
  94.6508970  44.5936010  13.6028660  94.9530380  44.5554210  15.0858130
  99.2596700  34.1936410   9.4569860  98.8164850  34.9745950   9.1254380
  99.8181690  34.5166300  10.1640800 103.5466510  37.0604930  15.0605180
 103.0845880  37.2687950  15.8725120 103.1444620  36.2464280  14.7575850
 108.5471020  38.2813880  16.1901840 107.6964610  37.9819630  16.5110910
 108.3872810  38.5255890  15.2785660 105.6420730  39.7815630  18.2900630
 105.9674140  38.9479380  17.9502860 106.4301060  40.3044150  18.4378960
 102.3755520  33.8147110   4.3375690 101.7509700  33.8106980   5.0629000
 102.2885640  32.9478070   3.9411660 101.2972600  34.7383740  11.3159460
 101.5944930  35.6446570  11.2351480 101.8458160  34.2502520  10.7019030
  99.0510920  39.3169980   7.1851110  98.8251840  39.1007150   8.0897730
  98.2703450  39.7498440   6.8397080 106.2808680  39.3233350   5.7841760
 105.6817570  40.0469150   5.6005380 106.8288290  39.2610130   5.0018210
 101.4910130  40.2155560  17.8511380 101.3953730  39.2750290  17.7011780
 102.3342110  40.4370630  17.4559450 104.8873550  37.9596890   7.8145040
 105.2803120  38.2769090   7.0013730 105.2490400  37.0808770   7.9289560
  96.6220670  36.6269230  16.0045160  96.2284060  37.4744440  16.2117940
  95.9339070  35.9895600  16.1953800 103.1965720  36.7104200  19.0741900
 102.5064040  36.5176400  19.7087990 103.9398020  36.9938840  19.6066200
  93.9237720  34.5497690  10.0375240  93.6350770  35.1200550  10.7500220
  94.6683480  34.0702140  10.4006470 105.4728690  40.5502640  11.9095820
 104.7409810  41.0589450  12.2585920 105.0753030  39.7332620  11.6084600
 101.9106080  37.2256840  10.3148310 101.9142140  36.7846790   9.4652850
 102.8057200  37.5474170  10.4220130  97.7608460  37.1083330   9.2742520
  97.4208510  37.5858560  10.0309570  96.9985780  36.6548450   8.9143620
 101.9726230  38.2268920   3.3055070 102.0939050  38.1855400   4.2540890
 101.5874740  39.0893070   3.1501800 105.9354600  36.0036320  11.3218760
 105.9527340  36.4544970  12.1660610 105.6870180  35.1041960  11.5352200
 100.9847730  40.5370060   2.7038370 100.4164630  40.0888310   2.0774280
 101.6936730  40.8962840   2.1703520 109.3625350  33.4168500  17.1605140
 109.6871120  32.6858160  17.6863120 109.3981860  33.0982140  16.2586130
  96.0616910  44.4382080  16.5805100  95.6771700  43.7975750  17.1788060
  96.3729100  45.1418200  17.1499830 102.2114050  41.2858620  12.0613720
 102.5784180  40.8117190  12.8075060 102.0219110  42.1600190  12.4022060
  95.0754540  36.0302310   8.1907190  94.7901460  35.6657980   9.0285810
  95.0133400  35.2982770   7.5770330 100.0013420  40.3267260  14.3797930
  99.6970490  41.2059240  14.6048290 100.9559880  40.3867050  14.4155370
  98.5295210  44.5328250   4.9764780  97.7557470  43.9925870   4.8163500
  99.2589840  44.0134860   4.6382540 109.2883190  43.5293610  10.7691170
 110.0082310  44.0248900  10.3787280 109.0865010  42.8511500  10.1245040
 104.7493130  34.9231570   4.9120560 103.9357740  34.4244740   4.8365870
 104.5555080  35.7629820   4.4956910 104.6701990  43.6002670  16.6560170
 104.6039300  42.6798340  16.4017760 104.0407130  43.6978110  17.3704810
 107.4641520  39.2951220   3.2082720 108.3521140  39.6068450   3.0334060
 107.4346610  38.4223470   2.8163300  98.5732610  44.2008630   8.6143590
  99.0911280  43.3976890   8.5600480  98.1216630  44.1387770   9.4560420
 103.4602110  45.4674910   3.8870890 103.8017810  46.2117140   3.3914210
 102.6314820  45.7806030   4.2495720  96.0577150  41.1670000  15.5269290
  95.6992090  41.8323850  16.1142630  95.7631710  40.3353550  15.8981910
  99.2590270  41.6254240  18.4108840  98.9590410  41.7711420  17.5136660
 100.0301510  41.0659530  18.3182230 104.6018720  46.4223240  16.4063970
 104.6163260  45.4904200  16.1882880 103.8943820  46.5083000  17.0453740
 109.7355790  40.6063060   2.6762580 109.6519510  41.0377280   1.8259020
 110.4549980  41.0661410   3.1089400 110.7643040  47.4605320   5.4044710
 110.1219200  46.8060940   5.6788430 110.3773700  47.8660410   4.6285380
 106.3429520  44.7890750   9.2516400 106.6953340  44.1918880   8.5917770
 105.4591850  44.4634980   9.4224650 102.4292800  45.5488440   6.6586810
 103.1163930  46.0957650   7.0394400 101.6425220  46.0929170   6.6936420
  94.5685200  41.1661260   2.1503890  95.4380050  41.4486060   2.4339810
  94.0775520  41.9797130   2.0352700 101.7320010  42.5534470   6.2712170
 102.1882790  43.3639720   6.4972360 101.3808220  42.2357610   7.1030660
 104.0352620  48.0640810  13.5004470 104.6794840  48.2700190  14.1777890
 104.3982060  47.3029210  13.0475320  97.6331790  32.8972120   6.7434690
  97.5046420  32.8890020   7.6919610  96.8093810  33.2355210   6.3925700
 105.3084700  46.0673160  12.2181920 105.9506930  45.3666320  12.3314090
 105.8334050  46.8471600  12.0378810 107.0822320  46.8668060  15.4217980
 107.4178560  47.4534750  16.0995900 106.1622660  46.7360770  15.6515770
  94.9356450  50.3788640   2.7165520  95.2954090  50.9777980   2.0622790
  94.7948790  50.9248530   3.4900550  94.6325720  34.6563240  16.2041390
  93.9184240  34.8560160  16.8094000  95.0520760  33.8802810  16.5756190
 108.7356670  44.2693720   3.6035220 108.4478370  44.7306410   4.3913100
 109.5308840  43.8091490   3.8719440  94.9198310  48.6443500  17.1907920
  95.0289430  47.7038240  17.0503310  94.2678870  48.9098250  16.5421650
 102.9110900  46.9159390  18.5906040 102.5907770  46.1968630  19.1351730
 102.2369260  47.5914460  18.6642100 100.9525070  47.7619840   3.5339190
 100.9435170  48.4949530   2.9183700 100.0323430  47.5151420   3.6266150
  96.5531710  42.9834730   4.2785950  95.9459660  43.7233630   4.2881250
  97.0281060  43.0734090   3.4524150 106.1264500  37.1485550  13.9542840
 106.4945320  36.3280760  14.2822410 105.2662700  37.2087440  14.3698490
 109.4926530  36.1042490   4.7630400 108.8639690  36.2088160   4.0488630
 108.9978450  36.3239270   5.5524280 101.4610560  38.3828440   6.1788280
 100.7526710  38.8514780   6.6201890 101.7455040  37.7250450   6.8133470
 103.0866490  39.8025140  14.1780810 103.5851740  40.2770960  14.8432660
 103.2289440  38.8788660  14.3850840 105.4925990  35.1079100   7.6184070
 105.3693770  35.1265230   6.6693580 106.4410550  35.1558040   7.7382470
 102.5802780  50.3434400   6.8912050 102.8344280  50.3055790   5.9691420
 101.6315260  50.2167730   6.8840300  99.6645580  36.6913520   3.5538990
 100.5136110  37.1283670   3.4879180  99.2976850  37.0033780   4.3811050
 110.2933350  36.0193100  15.0209200 109.7906950  36.7598500  15.3603010
 111.1090010  36.4077100  14.7045990 108.5855360  41.2626280   8.4670560
 107.6445500  41.2776510   8.6418250 108.8999430  40.4762240   8.9130860
  97.2583760  40.3770950   2.7107410  97.3387350  39.4298460   2.8224810
  98.1503510  40.7077830   2.8168070  98.0598470  50.5266340   9.8141950
  98.7960950  49.9781800  10.0850520  98.4439390  51.3922350   9.6747940
  94.9443950  46.5939910   5.6883460  94.0183730  46.8361050   5.6788870
  95.4100380  47.4214170   5.5668210  97.0656750  49.7112410  19.0027530
  97.8669480  50.0324460  19.4162930  96.5508570  49.3507990  19.7247440
 105.9021380  45.8192280  18.9502940 105.2959540  45.8423880  18.2098690
 105.5975490  45.0875320  19.4870190 107.3321750  49.5472570  17.5612350
 108.2843500  49.4630590  17.5112590 107.1849970  50.2114280  18.2346140
 110.2230950  48.9266780   3.0604260 109.9372460  48.5131920   2.2458440
 110.0250500  49.8554490   2.9404780  94.7854560  42.1985870  17.9463580
  95.2893580  41.6193150  18.5179810  94.0461980  42.4826100  18.4839950
 101.8392500  43.6056860  17.4799100 101.0738170  44.1741860  17.3953770
 102.0208460  43.3133070  16.5867330 104.9280910  43.9820090   2.1051860
 104.3791010  44.4289390   2.7494600 105.5500170  43.4769340   2.6289530
 108.9815850  45.3362190  18.0374120 109.7225320  45.6737950  17.5341580
 108.2188530  45.5054250  17.4843890 100.5956030  42.9411010   4.0017160
 101.0172450  42.7750880   4.8448550 100.7206870  42.1311240   3.5072300
  98.7583450  38.9207560  16.8088140  98.2279910  38.4298510  16.1811480
  99.4271520  39.3491760  16.2746070 107.6561510  43.3877020  16.5729330
 108.0702530  43.5422100  17.4219750 106.7212510  43.5132240  16.7355110
 108.1283680  40.7273180  18.5768480 108.7104450  39.9725500  18.4888960
 108.3045450  41.2580620  17.7999960  99.2455750  35.8869930  16.8885430
  99.1512620  35.2690680  16.1636300  98.6653140  36.6136220  16.6615340
 102.0117190  34.4443170  13.9212820 101.5634490  34.4667430  13.0758370
 101.3782390  34.0462190  14.5183120 102.4176740  43.3397500  14.5425260
 102.8364850  44.1830230  14.3701500 101.4985370  43.4769540  14.3132040
 104.7540640  41.0713680  15.9263100 104.8736850  40.4754820  16.6657940
 105.6134640  41.1083370  15.5064400 107.0928540  41.6250870  14.5025610
 106.5663760  42.1493490  13.8990750 107.4359880  42.2578260  15.1335340
 100.2684160  49.6450510  15.6582990  99.7305250  50.3696570  15.3391690
 100.5218120  49.1680850  14.8680330 101.5209410  37.6135030  17.1838920
 102.1109100  37.3050880  17.8716740 100.7029650  37.1414780  17.3398820
 106.3402840  37.2300840  17.4171940 105.6518360  36.5682380  17.3521930
 107.0608860  36.7839110  17.8620400 106.9703240  33.8252470   3.4762200
 107.2505530  32.9820370   3.8321620 106.1968970  34.0575580   3.9900950
 103.1246370  50.8801720  15.9169640 103.0505070  51.7836860  16.2242010
 102.2225210  50.5613620  15.8891710 103.6731700  50.0460230   3.5396000
 104.5682490  50.3845200   3.5614760 103.7049330  49.3239640   2.9120280
  97.3127860  45.4187280   1.7683000  97.7502730  45.9616950   2.4240580
  97.7975590  44.5934230   1.7779340  94.5273660  48.2076310   9.2203260
  94.8576670  47.3397370   8.9881900  94.9564660  48.4134830  10.0508220
  99.1235580  46.5385320   6.8805230  98.8231120  46.4150290   7.7809140
  99.0173070  45.6793910   6.4720960  95.0163870  49.0746900  11.9584890
  94.5794860  49.2547700  12.7909040  95.5841550  49.8321520  11.8166610
 110.6526050  48.5763900  16.2462200 110.0528040  48.6356460  15.5026120
 110.7819950  47.6368880  16.3759050  94.8488300  41.5867130   8.3173770
  94.1937140  41.3178770   7.6733470  95.6866250  41.4771610   7.8675750
 109.3377690  45.3015880  14.3438360 108.5237530  45.7313040  14.6064150
 109.7451890  45.9134290  13.7307410 107.7978740  36.3808420   2.5392260
 108.2163620  36.1939400   1.6988920 107.4914800  35.5287470   2.8495190
  95.8864230  41.9719700  12.8577110  96.2537270  41.8847100  13.7373130
  95.3175050  41.2086250  12.7583970 110.6868090  40.4404080  15.8707580
 110.4554180  40.2116830  14.9705530 110.9472640  41.3603630  15.8252470
 109.1256160  35.6660510  18.6487280 110.0026340  35.6743910  19.0321280
 109.1377000  34.9291350  18.0379630  94.0626380  38.7966060   4.2599100
  93.1590460  39.0596260   4.0850760  94.5467000  39.0677230   3.4799060
 110.5719430  39.5190050   9.5375300 111.0956910  39.0252700   8.9065470
 111.1578850  39.6540410  10.2822870 110.7509150  39.6029920  13.0594850
 109.8011860  39.5693460  13.1739840 110.9322160  40.5130030  12.8244620
 110.0619400  38.7763400   5.4767710 110.5578520  38.5434270   6.2616590
 109.8635470  37.9375240   5.0605350  95.9419940  33.1577120  11.1118750
  96.5896130  32.6074500  10.6713910  96.3621780  33.4120270  11.9334560
 109.8372280  33.3518480  14.4688390 110.4744500  33.9652620  14.8347580
 109.9847170  33.3879140  13.5237620 109.3953740  50.0534480   7.8706630
 109.9912810  49.7319050   7.1941050 109.6531890  49.5806300   8.6619900
  95.6951940  33.3132790  13.8544070  95.3466760  33.7696610  14.6202250
  95.3639640  32.4189920  13.9366500  97.3016310  46.4852390  18.0197260
  97.2585940  46.1145300  18.9011720  97.4327320  47.4229960  18.1599080
 101.0022340  48.0411980  13.6206980 100.7613700  48.3086540  12.7337500
 101.9424980  48.2117710  13.6757840 103.2076760  34.5044670  17.3763490
 103.1465650  35.0966500  18.1258900 104.1477140  34.3970630  17.2313750
 105.8451320  34.1614730  17.0155780 106.4591730  34.4794020  16.3536860
 106.3900880  33.6763320  17.6351640  96.3672580  32.8408990  17.1294840
  96.9155570  32.6597040  16.3660950  96.4327890  32.0503100  17.6651150
  97.1404340  49.4314640  15.1395040  96.5464660  49.2999340  15.8785080
  97.1328180  48.5952780  14.6737140 106.5859360  32.7246870  13.3425070
 105.7119200  33.0581980  13.1398000 106.4770110  32.2520050  14.1676940
 107.4931340  34.9317740  14.7266790 107.1644700  34.1169500  14.3468520
 108.4413640  34.8887550  14.6032480 109.9465950  50.7029780  11.7004360
 109.4868920  51.4545590  11.3262380 109.3178410  49.9836250  11.6419160
  96.7716570  46.7973020  14.0903080  96.0450630  46.1778310  14.0229030
  96.8325720  47.1913630  13.2201160 100.3761670  49.0118020  10.8752490
 100.8926690  48.4005380  10.3500750 101.0259050  49.5146800  11.3663500
 103.1157170  49.9026510  11.7021470 103.4034980  49.6480810  10.8254480
 103.6280390  49.3503870  12.2927040 104.3334180  33.6416710  12.2817980
 103.5505970  34.1162210  12.5614740 104.0397110  32.7371540  12.1731160
 108.8855250  34.3439810  10.3267070 109.3263340  34.2884910   9.4788670
 108.6162840  35.2597820  10.3977250  95.0546570  50.1147410   7.2999840
  94.8868610  49.4818090   7.9981730  94.1881080  50.3206810   6.9494030
  95.6774590  33.9464190   4.8031700  96.4353950  34.0593070   4.2295730
  95.2151760  34.7833390   4.7575130 102.2188400  36.0603460   7.7934010
 101.4062910  35.6860350   7.4529890 102.7230040  35.3048540   8.0955200
 106.7213380  32.7245910   9.0317080 107.3242750  33.2966120   9.5065600
 105.9806370  33.2885350   8.8090980 109.8647980  33.1267470   4.3057360
 110.0598610  34.0250920   4.5724790 109.0777850  32.8954550   4.7990310
  96.6609270  48.8080640   4.7449980  96.1356890  49.1888670   4.0411940
  96.5853850  49.4331410   5.4659690  98.0499740  34.4728240   3.3433670
  98.5792500  33.6858040   3.2141620  98.6828060  35.1519430   3.5769200
 100.2437580  34.2103380   6.3979060  99.6140320  33.5090690   6.5649190
  99.7042720  34.9707510   6.1812220 103.1829530  50.8242610  19.0689670
 104.1096840  50.5886880  19.1125630 103.1679960  51.6514610  18.5875700
 100.3693140  33.4887360  18.8331550 100.0877410  33.9920960  18.0692370
 100.7512840  32.6909110  18.4673680  99.2602240  50.7563020   3.6199230
  99.9921060  50.4722300   3.0723120  99.5195910  50.5176300   4.5098610
  98.4217030  46.8727750   3.6245560  97.7925910  47.3412850   4.1731390
  98.5364860  46.0276970   4.0591750 106.9708600  32.9040940  19.4112020
 106.8574050  33.2235550  20.3063540 107.7878340  33.3053450  19.1149300
 109.7507090  50.0512470  18.8930710 110.5432410  49.5561700  18.6856670
 110.0440240  50.7302610  19.5006320 105.8766750  22.1489920  64.8720720
 105.7960800  21.2344530  64.6012430 105.4631170  22.6456990  64.1660430
 104.0084790  23.9268940  66.7529990 103.2326890  23.4469380  67.0428560
 104.6597720  23.2474590  66.5786150  98.0250620  24.2388750  67.6305750
  97.1935500  23.9837460  68.0302260  98.6331600  24.3099520  68.3663670
 108.0292220  28.3329130  65.5329120 107.5673750  27.5616370  65.8616290
 108.8417770  28.3595200  66.0381570  98.0051880  28.2728840  67.8263770
  98.3079920  27.3826580  67.6473990  98.7495470  28.8299060  67.5986020
  96.4342570  19.1990640  61.4148140  95.5459270  19.5406610  61.3128020
  96.7183760  18.9990960  60.5228970  94.3975580  21.7996290  67.2987840
  94.9691690  21.0318490  67.2991480  94.3977120  22.0985050  66.3894450
 104.2555530  30.6187140  65.1533110 103.6366970  31.0744640  64.5827550
 105.1107310  30.7738600  64.7522810 103.4493780  26.6026130  66.7600150
 103.3802060  25.6616070  66.5989280 104.2113640  26.6927540  67.3322720
  95.6400450  17.2080650  69.0856770  95.4603290  16.3106400  69.3659530
  95.2380530  17.7552520  69.7603720 104.4798950  19.4096510  66.9869080
 104.8563770  18.5368390  66.8742750 104.3818460  19.7455210  66.0959520
  98.6103960  17.7822140  62.4486520  98.7170710  18.6825870  62.7555280
  97.6996320  17.7340110  62.1581170 108.2623070  16.9046950  63.9197420
 109.0832690  16.4143520  63.9622900 108.2957150  17.4944610  64.6729260
  96.2587120  19.7041150  67.6939110  96.9397230  19.9679520  68.3126510
  95.9435170  18.8642020  68.0277120 100.4511690  20.7508510  66.7811700
 100.9589910  21.2489480  67.4216720 100.9824930  19.9743710  66.6051060
  98.7347790  15.3907070  71.0475120  98.7366230  15.9079460  70.2421020
  97.9052100  14.9137250  71.0245050 105.1218880  25.5026380  62.5465020
 104.5036150  25.9675830  61.9827740 105.6342130  26.1953860  62.9634530
  99.9850640  25.0302250  69.2248620  99.6520020  25.6571170  69.8669690
 100.1617320  25.5564130  68.4450290 108.4984550  18.8447330  66.6924960
 107.7940120  19.1332220  67.2728070 108.8596710  19.6547440  66.3324520
  98.4163120  17.1017030  69.0545570  98.7579930  17.9459080  68.7599440
  97.4778930  17.2500770  69.1710910  99.1969740  26.9983050  71.0397800
  99.8143740  27.6734130  70.7582250  98.3362860  27.4071030  70.9485300
  94.4902080  26.1882910  59.9204650  94.1130060  26.6770010  59.1889550
  94.7475150  26.8608190  60.5511180 110.1147330  28.4622460  68.9552440
 109.4310850  29.1321570  68.9469110 110.6541620  28.6603110  68.1897300
 102.0991010  14.5899300  65.3790160 102.4065990  14.0346190  64.6625660
 101.1691710  14.7243760  65.1963150 107.6506070  30.3066590  67.6697620
 107.6633230  29.9028880  66.8019880 107.0981290  31.0813880  67.5659050
 108.9451490  27.0282810  62.7587790 108.8347820  26.0857140  62.8837210
 108.9419740  27.3898450  63.6450550 107.0491510  25.2096430  68.9980230
 107.4660300  24.9956540  68.1633690 107.7731330  25.4669220  69.5688850
 104.4871770  22.6548130  62.1150280 103.5601050  22.5885510  62.3438750
 104.6396590  23.5928260  62.0005520 104.4740850  18.9265130  59.1117440
 103.5344520  19.0879090  59.1969900 104.7924110  19.6450810  58.5653430
 108.5169060  24.2168430  62.6185530 107.8981480  23.8787980  61.9711830
 108.4993510  23.5728190  63.3264720 107.9595620  20.3952970  70.0351340
 107.5466800  21.2206680  70.2891330 107.2271570  19.8098010  69.8427700
 100.0928410  23.1812870  64.8970010  99.6885410  22.4690120  64.4015910
 100.1791530  22.8366110  65.7858050 100.5610110  26.8680430  67.0609220
 100.2638400  26.2625900  66.3817000 101.5109930  26.9057740  66.9498580
  98.8057030  19.9556080  68.6769050  99.3571620  20.0651420  67.9022300
  99.3200540  20.3293680  69.3924280 108.6495720  30.4412300  70.7232320
 108.1726280  31.2484490  70.5304930 107.9657510  29.7890630  70.8758530
  99.6528540  26.6062120  73.7117020  98.7557070  26.8302090  73.9590420
  99.6781410  26.7297060  72.7628420 106.6933760  23.4555240  59.6258280
 107.1327040  22.6177670  59.4796100 107.4062180  24.0884640  59.7122420
  98.4799760  23.4775440  72.2874390  98.3407530  24.3498240  72.6561790
  97.5981120  23.1348250  72.1422330 104.8029140  28.3951310  63.5939520
 105.2425050  29.1375640  63.1794910 104.7416030  28.6377880  64.5178480
 100.2780110  29.4197140  74.4959540 100.2495540  29.8240090  73.6287970
 100.1145080  28.4907500  74.3331140 110.2750900  14.7098050  57.9399320
 109.9623560  14.8024880  58.8398390 111.0363370  15.2879080  57.8896750
  96.7933040  22.0757850  62.3976660  96.6730640  22.8019940  61.7857930
  96.4833930  21.3060760  61.9204570  94.4318410  25.2472990  68.2045300
  94.5098830  25.3821760  67.2601020  95.0460090  24.5388880  68.3973420
  95.6766040  26.9473180  64.6151480  95.2694120  27.0887770  63.7605080
  96.5679050  26.6633340  64.4122690 105.4944920  31.0965090  71.5218530
 106.0089590  31.0073100  72.3240960 104.6514000  31.4424790  71.8146440
 107.4699320  31.3820430  60.9502530 107.3100460  31.0923370  61.8484360
 107.3046030  30.6060560  60.4147760  99.9487700  31.1618960  62.7274150
  99.7730180  30.2454500  62.5141950  99.0943440  31.5206250  62.9671950
 107.1725450  28.8907990  59.5100530 106.4790610  28.8885280  58.8502810
 107.9148310  28.4667310  59.0794700 106.7375380  30.5170700  63.5849020
 107.1932330  29.7360080  63.8987640 107.0767900  31.2277520  64.1290200
  94.4877930  26.2887160  70.7439760  94.6508970  25.8192520  69.9259130
  94.9530380  25.7810720  71.4088600  99.2596700  15.4192920  65.7800330
  98.8164850  16.2002460  65.4484850  99.8181690  15.7422810  66.4871270
 103.5466510  18.2861440  71.3835650 103.0845880  18.4944460  72.1955590
 103.1444620  17.4720790  71.0806320 108.5471020  19.5070390  72.5132310
 107.6964610  19.2076140  72.8341380 108.3872810  19.7512400  71.6016130
 105.6420730  21.0072140  74.6131100 105.9674140  20.1735890  74.2733330
 106.4301060  21.5300660  74.7609430 102.3755520  15.0403620  60.6606160
 101.7509700  15.0363490  61.3859470 102.2885640  14.1734580  60.2642130
 101.2972600  15.9640250  67.6389930 101.5944930  16.8703080  67.5581950
 101.8458160  15.4759030  67.0249500  99.0510920  20.5426490  63.5081580
  98.8251840  20.3263660  64.4128200  98.2703450  20.9754950  63.1627550
 106.2808680  20.5489860  62.1072230 105.6817570  21.2725660  61.9235850
 106.8288290  20.4866640  61.3248680 101.4910130  21.4412070  74.1741850
 101.3953730  20.5006800  74.0242250 102.3342110  21.6627140  73.7789920
 104.8873550  19.1853400  64.1375510 105.2803120  19.5025600  63.3244200
 105.2490400  18.3065280  64.2520030  96.6220670  17.8525740  72.3275630
  96.2284060  18.7000950  72.5348410  95.9339070  17.2152110  72.5184270
  93.9237720  15.7754200  66.3605710  93.6350770  16.3457060  67.0730690
  94.6683480  15.2958650  66.7236940  94.1107950  19.7174320  57.5708430
  94.0282620  20.6605080  57.7123420  93.7591010  19.5749230  56.6920780
 105.4728690  21.7759150  68.2326290 104.7409810  22.2845960  68.5816390
 105.0753030  20.9589130  67.9315070 101.9106080  18.4513350  66.6378780
 101.9142140  18.0103300  65.7883320 102.8057200  18.7730680  66.7450600
  97.7608460  18.3339840  65.5972990  97.4208510  18.8115070  66.3540040
  96.9985780  17.8804960  65.2374090 101.9726230  19.4525430  59.6285540
 102.0939050  19.4111910  60.5771360 101.5874740  20.3149580  59.4732270
 105.9354600  17.2292830  67.6449230 105.9527340  17.6801480  68.4891080
 105.6870180  16.3298470  67.8582670 100.9847730  21.7626570  59.0268840
 100.4164630  21.3144820  58.4004750 101.6936730  22.1219350  58.4933990
 109.3625350  14.6425010  73.4835610 109.6871120  13.9114670  74.0093590
 109.3981860  14.3238650  72.5816600  96.0616910  25.6638590  72.9035570
  95.6771700  25.0232260  73.5018530  96.3729100  26.3674710  73.4730300
 102.2114050  22.5115130  68.3844190 102.5784180  22.0373700  69.1305530
 102.0219110  23.3856700  68.7252530  95.0754540  17.2558820  64.5137660
  94.7901460  16.8914490  65.3516280  95.0133400  16.5239280  63.9000800
 100.0013420  21.5523770  70.7028400  99.6970490  22.4315750  70.9278760
 100.9559880  21.6123560  70.7385840  98.5295210  25.7584760  61.2995250
  97.7557470  25.2182380  61.1393970  99.2589840  25.2391370  60.9613010
 109.2883190  24.7550120  67.0921640 110.0082310  25.2505410  66.7017750
 109.0865010  24.0768010  66.4475510 104.7493130  16.1488080  61.2351030
 103.9357740  15.6501250  61.1596340 104.5555080  16.9886330  60.8187380
 104.6701990  24.8259180  72.9790640 104.6039300  23.9054850  72.7248230
 104.0407130  24.9234620  73.6935280 107.4641520  20.5207730  59.5313190
 108.3521140  20.8324960  59.3564530 107.4346610  19.6479980  59.1393770
  98.5732610  25.4265140  64.9374060  99.0911280  24.6233400  64.8830950
  98.1216630  25.3644280  65.7790890 103.4602110  26.6931420  60.2101360
 103.8017810  27.4373650  59.7144680 102.6314820  27.0062540  60.5726190
  96.0577150  22.3926510  71.8499760  95.6992090  23.0580360  72.4373100
  95.7631710  21.5610060  72.2212380  99.2590270  22.8510750  74.7339310
  98.9590410  22.9967930  73.8367130 100.0301510  22.2916040  74.6412700
 104.6018720  27.6479750  72.7294440 104.6163260  26.7160710  72.5113350
 103.8943820  27.7339510  73.3684210 109.7355790  21.8319570  58.9993050
 109.6519510  22.2633790  58.1489490 110.4549980  22.2917920  59.4319870
 110.7643040  28.6861830  61.7275180 110.1219200  28.0317450  62.0018900
 110.3773700  29.0916920  60.9515850 106.3429520  26.0147260  65.5746870
 106.6953340  25.4175390  64.9148240 105.4591850  25.6891490  65.7455120
 102.4292800  26.7744950  62.9817280 103.1163930  27.3214160  63.3624870
 101.6425220  27.3185680  63.0166890  94.5685200  22.3917770  58.4734360
  95.4380050  22.6742570  58.7570280  94.0775520  23.2053640  58.3583170
 101.7320010  23.7790980  62.5942640 102.1882790  24.5896230  62.8202830
 101.3808220  23.4614120  63.4261130 104.0352620  29.2897320  69.8234940
 104.6794840  29.4956700  70.5008360 104.3982060  28.5285720  69.3705790
  97.6331790  14.1228630  63.0665160  97.5046420  14.1146530  64.0150080
  96.8093810  14.4611720  62.7156170 105.3084700  27.2929670  68.5412390
 105.9506930  26.5922830  68.6544560 105.8334050  28.0728110  68.3609280
 109.1540420  27.5778290  58.2651530 108.9278000  26.8608730  58.8576170
 108.7636620  27.3290730  57.4273280 107.0822320  28.0924570  71.7448450
 107.4178560  28.6791260  72.4226370 106.1622660  27.9617280  71.9746240
  94.9356450  31.6045150  59.0395990  95.2954090  32.2034490  58.3853260
  94.7948790  32.1505040  59.8131020  94.6325720  15.8819750  72.5271860
  93.9184240  16.0816670  73.1324470  95.0520760  15.1059320  72.8986660
 108.7356670  25.4950230  59.9265690 108.4478370  25.9562920  60.7143570
 109.5308840  25.0348000  60.1949910  94.9198310  29.8700010  73.5138390
  95.0289430  28.9294750  73.3733780  94.2678870  30.1354760  72.8652120
 100.9525070  28.9876350  59.8569660 100.9435170  29.7206040  59.2414170
 100.0323430  28.7407930  59.9496620  96.5531710  24.2091240  60.6016420
  95.9459660  24.9490140  60.6111720  97.0281060  24.2990600  59.7754620
 106.1264500  18.3742060  70.2773310 106.4945320  17.5537270  70.6052880
 105.2662700  18.4343950  70.6928960 109.4926530  17.3299000  61.0860870
 108.8639690  17.4344670  60.3719100 108.9978450  17.5495780  61.8754750
 103.9384670  29.0504590  58.5194850 104.0396650  28.8468580  57.5896830
 103.0386410  28.7962870  58.7242630 101.4610560  19.6084950  62.5018750
 100.7526710  20.0771290  62.9432360 101.7455040  18.9506960  63.1363940
 103.0866490  21.0281650  70.5011280 103.5851740  21.5027470  71.1663130
 103.2289440  20.1045170  70.7081310 105.4925990  16.3335610  63.9414540
 105.3693770  16.3521740  62.9924050 106.4410550  16.3814550  64.0612940
 102.5802780  31.5690910  63.2142520 102.8344280  31.5312300  62.2921890
 101.6315260  31.4424240  63.2070770  99.6645580  17.9170030  59.8769460
 100.5136110  18.3540180  59.8109650  99.2976850  18.2290290  60.7041520
 110.2933350  17.2449610  71.3439670 109.7906950  17.9855010  71.6833480
 111.1090010  17.6333610  71.0276460 108.5855360  22.4882790  64.7901030
 107.6445500  22.5033020  64.9648720 108.8999430  21.7018750  65.2361330
  98.5637000  24.1702390  58.3504990  99.3300270  24.0583750  58.9130420
  98.6411690  23.4740360  57.6981760  97.2583760  21.6027460  59.0337880
  97.3387350  20.6554970  59.1455280  98.1503510  21.9334340  59.1398540
  98.0598470  31.7522850  66.1372420  98.7960950  31.2038310  66.4080990
  98.4439390  32.6178860  65.9978410  94.9443950  27.8196420  62.0113930
  94.0183730  28.0617560  62.0019340  95.4100380  28.6470680  61.8898680
 101.1700780  30.9253160  57.9597990 101.9629390  31.2141990  57.5079780
 100.6505130  30.4945330  57.2810470 107.3321750  30.7729080  73.8842820
 108.2843500  30.6887100  73.8343060 107.1849970  31.4370790  74.5576610
 110.2230950  30.1523290  59.3834730 109.9372460  29.7388430  58.5688910
 110.0250500  31.0811000  59.2635250  94.7854560  23.4242380  74.2694050
  95.2893580  22.8449660  74.8410280  94.0461980  23.7082610  74.8070420
 101.6878180  26.1456570  57.8240340 101.5828820  25.5308920  58.5501720
 101.5202400  25.6222460  57.0403350 101.8392500  24.8313370  73.8029570
 101.0738170  25.3998370  73.7184240 102.0208460  24.5389580  72.9097800
 104.9280910  25.2076600  58.4282330 104.3791010  25.6545900  59.0725070
 105.5500170  24.7025850  58.9520000 108.9815850  26.5618700  74.3604590
 109.7225320  26.8994460  73.8572050 108.2188530  26.7310760  73.8074360
 100.5956030  24.1667520  60.3247630 101.0172450  24.0007390  61.1679020
 100.7206870  23.3567750  59.8302770  98.7583450  20.1464070  73.1318610
  98.2279910  19.6555020  72.5041950  99.4271520  20.5748270  72.5976540
 103.1083670  23.1905130  57.5724730 103.6289330  22.4754150  57.2065880
 103.7552070  23.8291000  57.8725240 107.6561510  24.6133530  72.8959800
 108.0702530  24.7678610  73.7450220 106.7212510  24.7388750  73.0585580
 108.1283680  21.9529690  74.8998950 108.7104450  21.1982010  74.8119430
 108.3045450  22.4837130  74.1230430  99.2455750  17.1126440  73.2115900
  99.1512620  16.4947190  72.4866770  98.6653140  17.8392730  72.9845810
 102.0117190  15.6699680  70.2443290 101.5634490  15.6923940  69.3988840
 101.3782390  15.2718700  70.8413590 102.4176740  24.5654010  70.8655730
 102.8364850  25.4086740  70.6931970 101.4985370  24.7026050  70.6362510
 104.7540640  22.2970190  72.2493570 104.8736850  21.7011330  72.9888410
 105.6134640  22.3339880  71.8294870 107.0928540  22.8507380  70.8256080
 106.5663760  23.3750000  70.2221220 107.4359880  23.4834770  71.4565810
  99.4914930  20.2400750  57.2705790  99.2903990  19.3768110  57.6319130
  99.3206980  20.1534110  56.3327390 100.2684160  30.8707020  71.9813460
  99.7305250  31.5953080  71.6622160 100.5218120  30.3937360  71.1910800
 101.5209410  18.8391540  73.5069390 102.1109100  18.5307390  74.1947210
 100.7029650  18.3671290  73.6629290 106.3402840  18.4557350  73.7402410
 105.6518360  17.7938890  73.6752400 107.0608860  18.0095620  74.1850870
 106.9703240  15.0508980  59.7992670 107.2505530  14.2076880  60.1552090
 106.1968970  15.2832090  60.3131420  98.2897730  17.3401370  57.2583670
  98.5923630  17.3468800  56.3502820  99.0292320  16.9899230  57.7551330
 103.1246370  32.1058230  72.2400110 103.0505070  33.0093370  72.5472480
 102.2225210  31.7870130  72.2122180 101.5082660  16.2835990  58.2439870
 101.1604660  15.6059980  57.6642320 101.7095430  15.8225500  59.0583260
 103.6731700  31.2716740  59.8626470 104.5682490  31.6101710  59.8845230
 103.7049330  30.5496150  59.2350750  97.3127860  26.6443790  58.0913470
  97.7502730  27.1873460  58.7471050  97.7975590  25.8190740  58.1009810
  94.5273660  29.4332820  65.5433730  94.8576670  28.5653880  65.3112370
  94.9564660  29.6391340  66.3738690  99.1235580  27.7641830  63.2035700
  98.8231120  27.6406800  64.1039610  99.0173070  26.9050420  62.7951430
  95.0163870  30.3003410  68.2815360  94.5794860  30.4804210  69.1139510
  95.5841550  31.0578030  68.1397080 110.6526050  29.8020410  72.5692670
 110.0528040  29.8612970  71.8256590 110.7819950  28.8625390  72.6989520
  94.8488300  22.8123640  64.6404240  94.1937140  22.5435280  63.9963940
  95.6866250  22.7028120  64.1906220 109.3377690  26.5272390  70.6668830
 108.5237530  26.9569550  70.9294620 109.7451890  27.1390800  70.0537880
 107.7978740  17.6064930  58.8622730 108.2163620  17.4195910  58.0219390
 107.4914800  16.7543980  59.1725660  95.8864230  23.1976210  69.1807580
  96.2537270  23.1103610  70.0603600  95.3175050  22.4342760  69.0814440
 110.6868090  21.6660590  72.1938050 110.4554180  21.4373340  71.2936000
 110.9472640  22.5860140  72.1482940  95.4380230  20.1085300  73.0866000
  94.5436280  20.0752060  73.4259710  95.9777780  20.3072090  73.8517250
  94.0626380  20.0222570  60.5829570  93.1590460  20.2852770  60.4081230
  94.5467000  20.2933740  59.8029530 110.5719430  20.7446560  65.8605770
 111.0956910  20.2509210  65.2295940 111.1578850  20.8796920  66.6053340
 110.7509150  20.8286430  69.3825320 109.8011860  20.7949970  69.4970310
 110.9322160  21.7386540  69.1475090  96.6053590  19.0788110  58.4923950
  97.3145290  18.6571330  58.0071230  95.8893530  19.1463340  57.8607300
  96.2527750  15.1327440  57.5326600  96.9755880  15.6736380  57.8507820
  96.5252270  14.8590860  56.6568140 110.0619400  20.0019910  61.7998180
 110.5578520  19.7690780  62.5847060 109.8635470  19.1631750  61.3835820
  95.9419940  14.3833630  67.4349220  96.5896130  13.8331010  66.9944380
  96.3621780  14.6376780  68.2565030 109.8372280  14.5774990  70.7918860
 110.4744500  15.1909130  71.1578050 109.9847170  14.6135650  69.8468090
 109.3953740  31.2790990  64.1937100 109.9912810  30.9575560  63.5171520
 109.6531890  30.8062810  64.9850370  95.6951940  14.5389300  70.1774540
  95.3466760  14.9953120  70.9432720  95.3639640  13.6446430  70.2596970
 101.0022340  29.2668490  69.9437450 100.7613700  29.5343050  69.0567970
 101.9424980  29.4374220  69.9988310 103.2076760  15.7301180  73.6993960
 103.1465650  16.3223010  74.4489370 104.1477140  15.6227140  73.5544220
 105.8451320  15.3871240  73.3386250 106.4591730  15.7050530  72.6767330
 106.3900880  14.9019830  73.9582110  96.3672580  14.0665500  73.4525310
  96.9155570  13.8853550  72.6891420  96.4327890  13.2759610  73.9881620
  97.1404340  30.6571150  71.4625510  96.5464660  30.5255850  72.2015550
  97.1328180  29.8209290  70.9967610 106.5859360  13.9503380  69.6655540
 105.7119200  14.2838490  69.4628470 106.4770110  13.4776560  70.4907410
 107.4931340  16.1574250  71.0497260 107.1644700  15.3426010  70.6698990
 108.4413640  16.1144060  70.9262950 109.9465950  31.9286290  68.0234830
 109.4868920  32.6802100  67.6492850 109.3178410  31.2092760  67.9649630
  96.7716570  28.0229530  70.4133550  96.0450630  27.4034820  70.3459500
  96.8325720  28.4170140  69.5431630 100.3761670  30.2374530  67.1982960
 100.8926690  29.6261890  66.6731220 101.0259050  30.7403310  67.6893970
 103.1157170  31.1283020  68.0251940 103.4034980  30.8737320  67.1484950
 103.6280390  30.5760380  68.6157510 104.3334180  14.8673220  68.6048450
 103.5505970  15.3418720  68.8845210 104.0397110  13.9628050  68.4961630
 108.8855250  15.5696320  66.6497540 109.3263340  15.5141420  65.8019140
 108.6162840  16.4854330  66.7207720  95.0546570  31.3403920  63.6230310
  94.8868610  30.7074600  64.3212200  94.1881080  31.5463320  63.2724500
  95.6774590  15.1720700  61.1262170  96.4353950  15.2849580  60.5526200
  95.2151760  16.0089900  61.0805600 102.2188400  17.2859970  64.1164480
 101.4062910  16.9116860  63.7760360 102.7230040  16.5305050  64.4185670
 106.7213380  13.9502420  65.3547550 107.3242750  14.5222630  65.8296070
 105.9806370  14.5141860  65.1321450 109.8647980  14.3523980  60.6287830
 110.0598610  15.2507430  60.8955260 109.0777850  14.1211060  61.1220780
  96.6609270  30.0337150  61.0680450  96.1356890  30.4145180  60.3642410
  96.5853850  30.6587920  61.7890160  98.0499740  15.6984750  59.6664140
  98.5792500  14.9114550  59.5372090  98.6828060  16.3775940  59.8999670
 100.2437580  15.4359890  62.7209530  99.6140320  14.7347200  62.8879660
  99.7042720  16.1964020  62.5042690  99.2602240  31.9819530  59.9429700
  99.9921060  31.6978810  59.3953590  99.5195910  31.7432810  60.8329080
  98.4217030  28.0984260  59.9476030  97.7925910  28.5669360  60.4961860
  98.5364860  27.2533480  60.3822220 105.8766750  22.1489920  46.0977230
 105.7960800  21.2344530  45.8268940 105.4631170  22.6456990  45.3916940
 104.0084790  23.9268940  47.9786500 103.2326890  23.4469380  48.2685070
 104.6597720  23.2474590  47.8042660  98.0250620  24.2388750  48.8562260
  97.1935500  23.9837460  49.2558770  98.6331600  24.3099520  49.5920180
 108.0292220  28.3329130  46.7585630 107.5673750  27.5616370  47.0872800
 108.8417770  28.3595200  47.2638080  98.0051880  28.2728840  49.0520280
  98.3079920  27.3826580  48.8730500  98.7495470  28.8299060  48.8242530
  96.4342570  19.1990640  42.6404650  95.5459270  19.5406610  42.5384530
  96.7183760  18.9990960  41.7485480  94.3975580  21.7996290  48.5244350
  94.9691690  21.0318490  48.5247990  94.3977120  22.0985050  47.6150960
 104.2555530  30.6187140  46.3789620 103.6366970  31.0744640  45.8084060
 105.1107310  30.7738600  45.9779320 103.4493780  26.6026130  47.9856660
 103.3802060  25.6616070  47.8245790 104.2113640  26.6927540  48.5579230
  95.6400450  17.2080650  50.3113280  95.4603290  16.3106400  50.5916040
  95.2380530  17.7552520  50.9860230 104.4798950  19.4096510  48.2125590
 104.8563770  18.5368390  48.0999260 104.3818460  19.7455210  47.3216030
  98.6103960  17.7822140  43.6743030  98.7170710  18.6825870  43.9811790
  97.6996320  17.7340110  43.3837680 108.2623070  16.9046950  45.1453930
 109.0832690  16.4143520  45.1879410 108.2957150  17.4944610  45.8985770
  96.2587120  19.7041150  48.9195620  96.9397230  19.9679520  49.5383020
  95.9435170  18.8642020  49.2533630 100.4511690  20.7508510  48.0068210
 100.9589910  21.2489480  48.6473230 100.9824930  19.9743710  47.8307570
  98.7347790  15.3907070  52.2731630  98.7366230  15.9079460  51.4677530
  97.9052100  14.9137250  52.2501560 105.1218880  25.5026380  43.7721530
 104.5036150  25.9675830  43.2084250 105.6342130  26.1953860  44.1891040
  99.9850640  25.0302250  50.4505130  99.6520020  25.6571170  51.0926200
 100.1617320  25.5564130  49.6706800 108.4984550  18.8447330  47.9181470
 107.7940120  19.1332220  48.4984580 108.8596710  19.6547440  47.5581030
  98.4163120  17.1017030  50.2802080  98.7579930  17.9459080  49.9855950
  97.4778930  17.2500770  50.3967420  99.1969740  26.9983050  52.2654310
  99.8143740  27.6734130  51.9838760  98.3362860  27.4071030  52.1741810
  94.4902080  26.1882910  41.1461160  94.1130060  26.6770010  40.4146060
  94.7475150  26.8608190  41.7767690 110.1147330  28.4622460  50.1808950
 109.4310850  29.1321570  50.1725620 110.6541620  28.6603110  49.4153810
 102.0991010  14.5899300  46.6046670 102.4065990  14.0346190  45.8882170
 101.1691710  14.7243760  46.4219660 107.6506070  30.3066590  48.8954130
 107.6633230  29.9028880  48.0276390 107.0981290  31.0813880  48.7915560
 108.9451490  27.0282810  43.9844300 108.8347820  26.0857140  44.1093720
 108.9419740  27.3898450  44.8707060 107.0491510  25.2096430  50.2236740
 107.4660300  24.9956540  49.3890200 107.7731330  25.4669220  50.7945360
 104.4871770  22.6548130  43.3406790 103.5601050  22.5885510  43.5695260
 104.6396590  23.5928260  43.2262030 104.4740850  18.9265130  40.3373950
 103.5344520  19.0879090  40.4226410 104.7924110  19.6450810  39.7909940
 108.5169060  24.2168430  43.8442040 107.8981480  23.8787980  43.1968340
 108.4993510  23.5728190  44.5521230 107.9595620  20.3952970  51.2607850
 107.5466800  21.2206680  51.5147840 107.2271570  19.8098010  51.0684210
 100.0928410  23.1812870  46.1226520  99.6885410  22.4690120  45.6272420
 100.1791530  22.8366110  47.0114560 100.5610110  26.8680430  48.2865730
 100.2638400  26.2625900  47.6073510 101.5109930  26.9057740  48.1755090
  98.8057030  19.9556080  49.9025560  99.3571620  20.0651420  49.1278810
  99.3200540  20.3293680  50.6180790 108.6495720  30.4412300  51.9488830
 108.1726280  31.2484490  51.7561440 107.9657510  29.7890630  52.1015040
  99.6528540  26.6062120  54.9373530  98.7557070  26.8302090  55.1846930
  99.6781410  26.7297060  53.9884930 106.6933760  23.4555240  40.8514790
 107.1327040  22.6177670  40.7052610 107.4062180  24.0884640  40.9378930
  98.4799760  23.4775440  53.5130900  98.3407530  24.3498240  53.8818300
  97.5981120  23.1348250  53.3678840 104.8029140  28.3951310  44.8196030
 105.2425050  29.1375640  44.4051420 104.7416030  28.6377880  45.7434990
 100.2780110  29.4197140  55.7216050 100.2495540  29.8240090  54.8544480
 100.1145080  28.4907500  55.5587650 110.2750900  14.7098050  39.1655830
 109.9623560  14.8024880  40.0654900 111.0363370  15.2879080  39.1153260
  96.7933040  22.0757850  43.6233170  96.6730640  22.8019940  43.0114440
  96.4833930  21.3060760  43.1461080  94.4318410  25.2472990  49.4301810
  94.5098830  25.3821760  48.4857530  95.0460090  24.5388880  49.6229930
  95.6766040  26.9473180  45.8407990  95.2694120  27.0887770  44.9861590
  96.5679050  26.6633340  45.6379200 105.4944920  31.0965090  52.7475040
 106.0089590  31.0073100  53.5497470 104.6514000  31.4424790  53.0402950
 107.4699320  31.3820430  42.1759040 107.3100460  31.0923370  43.0740870
 107.3046030  30.6060560  41.6404270  99.9487700  31.1618960  43.9530660
  99.7730180  30.2454500  43.7398460  99.0943440  31.5206250  44.1928460
 107.1725450  28.8907990  40.7357040 106.4790610  28.8885280  40.0759320
 107.9148310  28.4667310  40.3051210 106.7375380  30.5170700  44.8105530
 107.1932330  29.7360080  45.1244150 107.0767900  31.2277520  45.3546710
  94.4877930  26.2887160  51.9696270  94.6508970  25.8192520  51.1515640
  94.9530380  25.7810720  52.6345110  99.2596700  15.4192920  47.0056840
  98.8164850  16.2002460  46.6741360  99.8181690  15.7422810  47.7127780
 103.5466510  18.2861440  52.6092160 103.0845880  18.4944460  53.4212100
 103.1444620  17.4720790  52.3062830 108.5471020  19.5070390  53.7388820
 107.6964610  19.2076140  54.0597890 108.3872810  19.7512400  52.8272640
 105.6420730  21.0072140  55.8387610 105.9674140  20.1735890  55.4989840
 106.4301060  21.5300660  55.9865940 102.3755520  15.0403620  41.8862670
 101.7509700  15.0363490  42.6115980 102.2885640  14.1734580  41.4898640
 101.2972600  15.9640250  48.8646440 101.5944930  16.8703080  48.7838460
 101.8458160  15.4759030  48.2506010  99.0510920  20.5426490  44.7338090
  98.8251840  20.3263660  45.6384710  98.2703450  20.9754950  44.3884060
 106.2808680  20.5489860  43.3328740 105.6817570  21.2725660  43.1492360
 106.8288290  20.4866640  42.5505190 101.4910130  21.4412070  55.3998360
 101.3953730  20.5006800  55.2498760 102.3342110  21.6627140  55.0046430
 104.8873550  19.1853400  45.3632020 105.2803120  19.5025600  44.5500710
 105.2490400  18.3065280  45.4776540  96.6220670  17.8525740  53.5532140
  96.2284060  18.7000950  53.7604920  95.9339070  17.2152110  53.7440780
 103.1965720  17.9360710  56.6228880 102.5064040  17.7432910  57.2574970
 103.9398020  18.2195350  57.1553180  93.9237720  15.7754200  47.5862220
  93.6350770  16.3457060  48.2987200  94.6683480  15.2958650  47.9493450
  94.1107950  19.7174320  38.7964940  94.0282620  20.6605080  38.9379930
  93.7591010  19.5749230  37.9177290 105.4728690  21.7759150  49.4582800
 104.7409810  22.2845960  49.8072900 105.0753030  20.9589130  49.1571580
 101.9106080  18.4513350  47.8635290 101.9142140  18.0103300  47.0139830
 102.8057200  18.7730680  47.9707110  97.7608460  18.3339840  46.8229500
  97.4208510  18.8115070  47.5796550  96.9985780  17.8804960  46.4630600
 101.9726230  19.4525430  40.8542050 102.0939050  19.4111910  41.8027870
 101.5874740  20.3149580  40.6988780 105.9354600  17.2292830  48.8705740
 105.9527340  17.6801480  49.7147590 105.6870180  16.3298470  49.0839180
 100.9847730  21.7626570  40.2525350 100.4164630  21.3144820  39.6261260
 101.6936730  22.1219350  39.7190500 109.3625350  14.6425010  54.7092120
 109.6871120  13.9114670  55.2350100 109.3981860  14.3238650  53.8073110
  96.0616910  25.6638590  54.1292080  95.6771700  25.0232260  54.7275040
  96.3729100  26.3674710  54.6986810 102.2114050  22.5115130  49.6100700
 102.5784180  22.0373700  50.3562040 102.0219110  23.3856700  49.9509040
  95.0754540  17.2558820  45.7394170  94.7901460  16.8914490  46.5772790
  95.0133400  16.5239280  45.1257310 100.0013420  21.5523770  51.9284910
  99.6970490  22.4315750  52.1535270 100.9559880  21.6123560  51.9642350
  98.5295210  25.7584760  42.5251760  97.7557470  25.2182380  42.3650480
  99.2589840  25.2391370  42.1869520 109.2883190  24.7550120  48.3178150
 110.0082310  25.2505410  47.9274260 109.0865010  24.0768010  47.6732020
 104.7493130  16.1488080  42.4607540 103.9357740  15.6501250  42.3852850
 104.5555080  16.9886330  42.0443890 104.6701990  24.8259180  54.2047150
 104.6039300  23.9054850  53.9504740 104.0407130  24.9234620  54.9191790
 107.4641520  20.5207730  40.7569700 108.3521140  20.8324960  40.5821040
 107.4346610  19.6479980  40.3650280  98.5732610  25.4265140  46.1630570
  99.0911280  24.6233400  46.1087460  98.1216630  25.3644280  47.0047400
 103.4602110  26.6931420  41.4357870 103.8017810  27.4373650  40.9401190
 102.6314820  27.0062540  41.7982700  96.0577150  22.3926510  53.0756270
  95.6992090  23.0580360  53.6629610  95.7631710  21.5610060  53.4468890
  99.2590270  22.8510750  55.9595820  98.9590410  22.9967930  55.0623640
 100.0301510  22.2916040  55.8669210 104.6018720  27.6479750  53.9550950
 104.6163260  26.7160710  53.7369860 103.8943820  27.7339510  54.5940720
 109.7355790  21.8319570  40.2249560 109.6519510  22.2633790  39.3746000
 110.4549980  22.2917920  40.6576380 110.7643040  28.6861830  42.9531690
 110.1219200  28.0317450  43.2275410 110.3773700  29.0916920  42.1772360
 106.3429520  26.0147260  46.8003380 106.6953340  25.4175390  46.1404750
 105.4591850  25.6891490  46.9711630 102.4292800  26.7744950  44.2073790
 103.1163930  27.3214160  44.5881380 101.6425220  27.3185680  44.2423400
  94.5685200  22.3917770  39.6990870  95.4380050  22.6742570  39.9826790
  94.0775520  23.2053640  39.5839680 101.7320010  23.7790980  43.8199150
 102.1882790  24.5896230  44.0459340 101.3808220  23.4614120  44.6517640
 104.0352620  29.2897320  51.0491450 104.6794840  29.4956700  51.7264870
 104.3982060  28.5285720  50.5962300  97.6331790  14.1228630  44.2921670
  97.5046420  14.1146530  45.2406590  96.8093810  14.4611720  43.9412680
 105.3084700  27.2929670  49.7668900 105.9506930  26.5922830  49.8801070
 105.8334050  28.0728110  49.5865790 109.1540420  27.5778290  39.4908040
 108.9278000  26.8608730  40.0832680 108.7636620  27.3290730  38.6529790
 107.0822320  28.0924570  52.9704960 107.4178560  28.6791260  53.6482880
 106.1622660  27.9617280  53.2002750  94.9356450  31.6045150  40.2652500
  95.2954090  32.2034490  39.6109770  94.7948790  32.1505040  41.0387530
  94.6325720  15.8819750  53.7528370  93.9184240  16.0816670  54.3580980
  95.0520760  15.1059320  54.1243170 108.7356670  25.4950230  41.1522200
 108.4478370  25.9562920  41.9400080 109.5308840  25.0348000  41.4206420
  94.9198310  29.8700010  54.7394900  95.0289430  28.9294750  54.5990290
  94.2678870  30.1354760  54.0908630 102.9110900  28.1415900  56.1393020
 102.5907770  27.4225140  56.6838710 102.2369260  28.8170970  56.2129080
 100.9525070  28.9876350  41.0826170 100.9435170  29.7206040  40.4670680
 100.0323430  28.7407930  41.1753130  96.5531710  24.2091240  41.8272930
  95.9459660  24.9490140  41.8368230  97.0281060  24.2990600  41.0011130
 106.1264500  18.3742060  51.5029820 106.4945320  17.5537270  51.8309390
 105.2662700  18.4343950  51.9185470 109.4926530  17.3299000  42.3117380
 108.8639690  17.4344670  41.5975610 108.9978450  17.5495780  43.1011260
 103.9384670  29.0504590  39.7451360 104.0396650  28.8468580  38.8153340
 103.0386410  28.7962870  39.9499140 101.4610560  19.6084950  43.7275260
 100.7526710  20.0771290  44.1688870 101.7455040  18.9506960  44.3620450
 103.0866490  21.0281650  51.7267790 103.5851740  21.5027470  52.3919640
 103.2289440  20.1045170  51.9337820 105.4925990  16.3335610  45.1671050
 105.3693770  16.3521740  44.2180560 106.4410550  16.3814550  45.2869450
 102.5802780  31.5690910  44.4399030 102.8344280  31.5312300  43.5178400
 101.6315260  31.4424240  44.4327280  99.6645580  17.9170030  41.1025970
 100.5136110  18.3540180  41.0366160  99.2976850  18.2290290  41.9298030
 110.2933350  17.2449610  52.5696180 109.7906950  17.9855010  52.9089990
 111.1090010  17.6333610  52.2532970 108.5855360  22.4882790  46.0157540
 107.6445500  22.5033020  46.1905230 108.8999430  21.7018750  46.4617840
  98.5637000  24.1702390  39.5761500  99.3300270  24.0583750  40.1386930
  98.6411690  23.4740360  38.9238270  97.2583760  21.6027460  40.2594390
  97.3387350  20.6554970  40.3711790  98.1503510  21.9334340  40.3655050
  98.0598470  31.7522850  47.3628930  98.7960950  31.2038310  47.6337500
  98.4439390  32.6178860  47.2234920  94.9443950  27.8196420  43.2370440
  94.0183730  28.0617560  43.2275850  95.4100380  28.6470680  43.1155190
  97.0656750  30.9368920  56.5514510  97.8669480  31.2580970  56.9649910
  96.5508570  30.5764500  57.2734420 101.1700780  30.9253160  39.1854500
 101.9629390  31.2141990  38.7336290 100.6505130  30.4945330  38.5066980
 105.9021380  27.0448790  56.4989920 105.2959540  27.0680390  55.7585670
 105.5975490  26.3131830  57.0357170 107.3321750  30.7729080  55.1099330
 108.2843500  30.6887100  55.0599570 107.1849970  31.4370790  55.7833120
 110.2230950  30.1523290  40.6091240 109.9372460  29.7388430  39.7945420
 110.0250500  31.0811000  40.4891760  94.7854560  23.4242380  55.4950560
  95.2893580  22.8449660  56.0666790  94.0461980  23.7082610  56.0326930
 101.6878180  26.1456570  39.0496850 101.5828820  25.5308920  39.7758230
 101.5202400  25.6222460  38.2659860 101.8392500  24.8313370  55.0286080
 101.0738170  25.3998370  54.9440750 102.0208460  24.5389580  54.1354310
 104.9280910  25.2076600  39.6538840 104.3791010  25.6545900  40.2981580
 105.5500170  24.7025850  40.1776510 108.9815850  26.5618700  55.5861100
 109.7225320  26.8994460  55.0828560 108.2188530  26.7310760  55.0330870
  96.8177640  21.5671970  56.3900630  96.8582980  21.2685840  57.2985860
  97.6723140  21.9679580  56.2308150 100.5956030  24.1667520  41.5504140
 101.0172450  24.0007390  42.3935530 100.7206870  23.3567750  41.0559280
  98.7583450  20.1464070  54.3575120  98.2279910  19.6555020  53.7298460
  99.4271520  20.5748270  53.8233050 103.1083670  23.1905130  38.7981240
 103.6289330  22.4754150  38.4322390 103.7552070  23.8291000  39.0981750
 107.6561510  24.6133530  54.1216310 108.0702530  24.7678610  54.9706730
 106.7212510  24.7388750  54.2842090 108.1283680  21.9529690  56.1255460
 108.7104450  21.1982010  56.0375940 108.3045450  22.4837130  55.3486940
  99.2455750  17.1126440  54.4372410  99.1512620  16.4947190  53.7123280
  98.6653140  17.8392730  54.2102320 102.0117190  15.6699680  51.4699800
 101.5634490  15.6923940  50.6245350 101.3782390  15.2718700  52.0670100
 102.4176740  24.5654010  52.0912240 102.8364850  25.4086740  51.9188480
 101.4985370  24.7026050  51.8619020 104.7540640  22.2970190  53.4750080
 104.8736850  21.7011330  54.2144920 105.6134640  22.3339880  53.0551380
 107.0928540  22.8507380  52.0512590 106.5663760  23.3750000  51.4477730
 107.4359880  23.4834770  52.6822320  99.4914930  20.2400750  38.4962300
  99.2903990  19.3768110  38.8575640  99.3206980  20.1534110  37.5583900
 100.2684160  30.8707020  53.2069970  99.7305250  31.5953080  52.8878670
 100.5218120  30.3937360  52.4167310 101.5209410  18.8391540  54.7325900
 102.1109100  18.5307390  55.4203720 100.7029650  18.3671290  54.8885800
 106.3402840  18.4557350  54.9658920 105.6518360  17.7938890  54.9008910
 107.0608860  18.0095620  55.4107380 106.9703240  15.0508980  41.0249180
 107.2505530  14.2076880  41.3808600 106.1968970  15.2832090  41.5387930
  98.2897730  17.3401370  38.4840180  98.5923630  17.3468800  37.5759330
  99.0292320  16.9899230  38.9807840 103.1246370  32.1058230  53.4656620
 103.0505070  33.0093370  53.7728990 102.2225210  31.7870130  53.4378690
 101.5082660  16.2835990  39.4696380 101.1604660  15.6059980  38.8898830
 101.7095430  15.8225500  40.2839770 103.6731700  31.2716740  41.0882980
 104.5682490  31.6101710  41.1101740 103.7049330  30.5496150  40.4607260
  97.3127860  26.6443790  39.3169980  97.7502730  27.1873460  39.9727560
  97.7975590  25.8190740  39.3266320  94.5273660  29.4332820  46.7690240
  94.8576670  28.5653880  46.5368880  94.9564660  29.6391340  47.5995200
  99.1235580  27.7641830  44.4292210  98.8231120  27.6406800  45.3296120
  99.0173070  26.9050420  44.0207940  95.0163870  30.3003410  49.5071870
  94.5794860  30.4804210  50.3396020  95.5841550  31.0578030  49.3653590
 110.6526050  29.8020410  53.7949180 110.0528040  29.8612970  53.0513100
 110.7819950  28.8625390  53.9246030  94.8488300  22.8123640  45.8660750
  94.1937140  22.5435280  45.2220450  95.6866250  22.7028120  45.4162730
 109.3377690  26.5272390  51.8925340 108.5237530  26.9569550  52.1551130
 109.7451890  27.1390800  51.2794390 107.7978740  17.6064930  40.0879240
 108.2163620  17.4195910  39.2475900 107.4914800  16.7543980  40.3982170
  95.8864230  23.1976210  50.4064090  96.2537270  23.1103610  51.2860110
  95.3175050  22.4342760  50.3070950 110.6868090  21.6660590  53.4194560
 110.4554180  21.4373340  52.5192510 110.9472640  22.5860140  53.3739450
  95.4380230  20.1085300  54.3122510  94.5436280  20.0752060  54.6516220
  95.9777780  20.3072090  55.0773760 109.1256160  16.8917020  56.1974260
 110.0026340  16.9000420  56.5808260 109.1377000  16.1547860  55.5866610
  94.0626380  20.0222570  41.8086080  93.1590460  20.2852770  41.6337740
  94.5467000  20.2933740  41.0286040 110.5719430  20.7446560  47.0862280
 111.0956910  20.2509210  46.4552450 111.1578850  20.8796920  47.8309850
 110.7509150  20.8286430  50.6081830 109.8011860  20.7949970  50.7226820
 110.9322160  21.7386540  50.3731600  96.6053590  19.0788110  39.7180460
  97.3145290  18.6571330  39.2327740  95.8893530  19.1463340  39.0863810
  96.2527750  15.1327440  38.7583110  96.9755880  15.6736380  39.0764330
  96.5252270  14.8590860  37.8824650 110.0619400  20.0019910  43.0254690
 110.5578520  19.7690780  43.8103570 109.8635470  19.1631750  42.6092330
  95.9419940  14.3833630  48.6605730  96.5896130  13.8331010  48.2200890
  96.3621780  14.6376780  49.4821540 109.8372280  14.5774990  52.0175370
 110.4744500  15.1909130  52.3834560 109.9847170  14.6135650  51.0724600
 109.3953740  31.2790990  45.4193610 109.9912810  30.9575560  44.7428030
 109.6531890  30.8062810  46.2106880  95.6951940  14.5389300  51.4031050
  95.3466760  14.9953120  52.1689230  95.3639640  13.6446430  51.4853480
  97.3016310  27.7108900  55.5684240  97.2585940  27.3401810  56.4498700
  97.4327320  28.6486470  55.7086060 101.0022340  29.2668490  51.1693960
 100.7613700  29.5343050  50.2824480 101.9424980  29.4374220  51.2244820
 103.2076760  15.7301180  54.9250470 103.1465650  16.3223010  55.6745880
 104.1477140  15.6227140  54.7800730 105.8451320  15.3871240  54.5642760
 106.4591730  15.7050530  53.9023840 106.3900880  14.9019830  55.1838620
  96.3672580  14.0665500  54.6781820  96.9155570  13.8853550  53.9147930
  96.4327890  13.2759610  55.2138130  97.1404340  30.6571150  52.6882020
  96.5464660  30.5255850  53.4272060  97.1328180  29.8209290  52.2224120
 106.5859360  13.9503380  50.8912050 105.7119200  14.2838490  50.6884980
 106.4770110  13.4776560  51.7163920 107.4931340  16.1574250  52.2753770
 107.1644700  15.3426010  51.8955500 108.4413640  16.1144060  52.1519460
 109.9465950  31.9286290  49.2491340 109.4868920  32.6802100  48.8749360
 109.3178410  31.2092760  49.1906140  96.7716570  28.0229530  51.6390060
  96.0450630  27.4034820  51.5716010  96.8325720  28.4170140  50.7688140
 100.3761670  30.2374530  48.4239470 100.8926690  29.6261890  47.8987730
 101.0259050  30.7403310  48.9150480 103.1157170  31.1283020  49.2508450
 103.4034980  30.8737320  48.3741460 103.6280390  30.5760380  49.8414020
 104.3334180  14.8673220  49.8304960 103.5505970  15.3418720  50.1101720
 104.0397110  13.9628050  49.7218140 108.8855250  15.5696320  47.8754050
 109.3263340  15.5141420  47.0275650 108.6162840  16.4854330  47.9464230
  95.0546570  31.3403920  44.8486820  94.8868610  30.7074600  45.5468710
  94.1881080  31.5463320  44.4981010  95.6774590  15.1720700  42.3518680
  96.4353950  15.2849580  41.7782710  95.2151760  16.0089900  42.3062110
 102.2188400  17.2859970  45.3420990 101.4062910  16.9116860  45.0016870
 102.7230040  16.5305050  45.6442180 106.7213380  13.9502420  46.5804060
 107.3242750  14.5222630  47.0552580 105.9806370  14.5141860  46.3577960
 109.8647980  14.3523980  41.8544340 110.0598610  15.2507430  42.1211770
 109.0777850  14.1211060  42.3477290  96.6609270  30.0337150  42.2936960
  96.1356890  30.4145180  41.5898920  96.5853850  30.6587920  43.0146670
  98.0499740  15.6984750  40.8920650  98.5792500  14.9114550  40.7628600
  98.6828060  16.3775940  41.1256180 100.2437580  15.4359890  43.9466040
  99.6140320  14.7347200  44.1136170  99.7042720  16.1964020  43.7299200
 103.1829530  32.0499120  56.6176650 104.1096840  31.8143390  56.6612610
 103.1679960  32.8771120  56.1362680 100.3693140  14.7143870  56.3818530
 100.0877410  15.2177470  55.6179350 100.7512840  13.9165620  56.0160660
  99.2602240  31.9819530  41.1686210  99.9921060  31.6978810  40.6210100
  99.5195910  31.7432810  42.0585590  98.4217030  28.0984260  41.1732540
  97.7925910  28.5669360  41.7218370  98.5364860  27.2533480  41.6078730
 106.9708600  14.1297450  56.9599000 106.8574050  14.4492060  57.8550520
 107.7878340  14.5309960  56.6636280 109.7507090  31.2768980  56.4417690
 110.5432410  30.7818210  56.2343650 110.0440240  31.9559120  57.0493300
 105.8766750  22.1489920  27.3233740 105.7960800  21.2344530  27.0525450
 105.4631170  22.6456990  26.6173450 104.0084790  23.9268940  29.2043010
 103.2326890  23.4469380  29.4941580 104.6597720  23.2474590  29.0299170
  98.0250620  24.2388750  30.0818770  97.1935500  23.9837460  30.4815280
  98.6331600  24.3099520  30.8176690 108.0292220  28.3329130  27.9842140
 107.5673750  27.5616370  28.3129310 108.8417770  28.3595200  28.4894590
  98.0051880  28.2728840  30.2776790  98.3079920  27.3826580  30.0987010
  98.7495470  28.8299060  30.0499040  96.4342570  19.1990640  23.8661160
  95.5459270  19.5406610  23.7641040  96.7183760  18.9990960  22.9741990
  94.3975580  21.7996290  29.7500860  94.9691690  21.0318490  29.7504500
  94.3977120  22.0985050  28.8407470 104.2555530  30.6187140  27.6046130
 103.6366970  31.0744640  27.0340570 105.1107310  30.7738600  27.2035830
 103.4493780  26.6026130  29.2113170 103.3802060  25.6616070  29.0502300
 104.2113640  26.6927540  29.7835740  95.6400450  17.2080650  31.5369790
  95.4603290  16.3106400  31.8172550  95.2380530  17.7552520  32.2116740
 104.4798950  19.4096510  29.4382100 104.8563770  18.5368390  29.3255770
 104.3818460  19.7455210  28.5472540  98.6103960  17.7822140  24.8999540
  98.7170710  18.6825870  25.2068300  97.6996320  17.7340110  24.6094190
 108.2623070  16.9046950  26.3710440 109.0832690  16.4143520  26.4135920
 108.2957150  17.4944610  27.1242280  96.2587120  19.7041150  30.1452130
  96.9397230  19.9679520  30.7639530  95.9435170  18.8642020  30.4790140
 100.4511690  20.7508510  29.2324720 100.9589910  21.2489480  29.8729740
 100.9824930  19.9743710  29.0564080  98.7347790  15.3907070  33.4988140
  98.7366230  15.9079460  32.6934040  97.9052100  14.9137250  33.4758070
 105.1218880  25.5026380  24.9978040 104.5036150  25.9675830  24.4340760
 105.6342130  26.1953860  25.4147550  99.9850640  25.0302250  31.6761640
  99.6520020  25.6571170  32.3182710 100.1617320  25.5564130  30.8963310
 108.4984550  18.8447330  29.1437980 107.7940120  19.1332220  29.7241090
 108.8596710  19.6547440  28.7837540  98.4163120  17.1017030  31.5058590
  98.7579930  17.9459080  31.2112460  97.4778930  17.2500770  31.6223930
  99.1969740  26.9983050  33.4910820  99.8143740  27.6734130  33.2095270
  98.3362860  27.4071030  33.3998320 110.1147330  28.4622460  31.4065460
 109.4310850  29.1321570  31.3982130 110.6541620  28.6603110  30.6410320
 102.0991010  14.5899300  27.8303180 102.4065990  14.0346190  27.1138680
 101.1691710  14.7243760  27.6476170 107.6506070  30.3066590  30.1210640
 107.6633230  29.9028880  29.2532900 107.0981290  31.0813880  30.0172070
 108.9451490  27.0282810  25.2100810 108.8347820  26.0857140  25.3350230
 108.9419740  27.3898450  26.0963570 107.0491510  25.2096430  31.4493250
 107.4660300  24.9956540  30.6146710 107.7731330  25.4669220  32.0201870
 104.4871770  22.6548130  24.5663300 103.5601050  22.5885510  24.7951770
 104.6396590  23.5928260  24.4518540 104.4740850  18.9265130  21.5630460
 103.5344520  19.0879090  21.6482920 104.7924110  19.6450810  21.0166450
 108.5169060  24.2168430  25.0698550 107.8981480  23.8787980  24.4224850
 108.4993510  23.5728190  25.7777740 107.9595620  20.3952970  32.4864360
 107.5466800  21.2206680  32.7404350 107.2271570  19.8098010  32.2940720
 100.0928410  23.1812870  27.3483030  99.6885410  22.4690120  26.8528930
 100.1791530  22.8366110  28.2371070 100.5610110  26.8680430  29.5122240
 100.2638400  26.2625900  28.8330020 101.5109930  26.9057740  29.4011600
  98.8057030  19.9556080  31.1282070  99.3571620  20.0651420  30.3535320
  99.3200540  20.3293680  31.8437300 108.6495720  30.4412300  33.1745340
 108.1726280  31.2484490  32.9817950 107.9657510  29.7890630  33.3271550
  99.6528540  26.6062120  36.1630040  98.7557070  26.8302090  36.4103440
  99.6781410  26.7297060  35.2141440 106.6933760  23.4555240  22.0771300
 107.1327040  22.6177670  21.9309120 107.4062180  24.0884640  22.1635440
  98.4799760  23.4775440  34.7387410  98.3407530  24.3498240  35.1074810
  97.5981120  23.1348250  34.5935350 104.8029140  28.3951310  26.0452540
 105.2425050  29.1375640  25.6307930 104.7416030  28.6377880  26.9691500
 100.2780110  29.4197140  36.9472560 100.2495540  29.8240090  36.0800990
 100.1145080  28.4907500  36.7844160 110.2750900  14.7098050  20.3912340
 109.9623560  14.8024880  21.2911410 111.0363370  15.2879080  20.3409770
  96.7933040  22.0757850  24.8489680  96.6730640  22.8019940  24.2370950
  96.4833930  21.3060760  24.3717590  94.4318410  25.2472990  30.6558320
  94.5098830  25.3821760  29.7114040  95.0460090  24.5388880  30.8486440
  95.6766040  26.9473180  27.0664500  95.2694120  27.0887770  26.2118100
  96.5679050  26.6633340  26.8635710 105.4944920  31.0965090  33.9731550
 106.0089590  31.0073100  34.7753980 104.6514000  31.4424790  34.2659460
 107.4699320  31.3820430  23.4015550 107.3100460  31.0923370  24.2997380
 107.3046030  30.6060560  22.8660780  99.9487700  31.1618960  25.1787170
  99.7730180  30.2454500  24.9654970  99.0943440  31.5206250  25.4184970
 107.1725450  28.8907990  21.9613550 106.4790610  28.8885280  21.3015830
 107.9148310  28.4667310  21.5307720 106.7375380  30.5170700  26.0362040
 107.1932330  29.7360080  26.3500660 107.0767900  31.2277520  26.5803220
  94.4877930  26.2887160  33.1952780  94.6508970  25.8192520  32.3772150
  94.9530380  25.7810720  33.8601620  99.2596700  15.4192920  28.2313350
  98.8164850  16.2002460  27.8997870  99.8181690  15.7422810  28.9384290
 103.5466510  18.2861440  33.8348670 103.0845880  18.4944460  34.6468610
 103.1444620  17.4720790  33.5319340 108.5471020  19.5070390  34.9645330
 107.6964610  19.2076140  35.2854400 108.3872810  19.7512400  34.0529150
 105.6420730  21.0072140  37.0644120 105.9674140  20.1735890  36.7246350
 106.4301060  21.5300660  37.2122450 102.3755520  15.0403620  23.1119180
 101.7509700  15.0363490  23.8372490 102.2885640  14.1734580  22.7155150
 101.2972600  15.9640250  30.0902950 101.5944930  16.8703080  30.0094970
 101.8458160  15.4759030  29.4762520  99.0510920  20.5426490  25.9594600
  98.8251840  20.3263660  26.8641220  98.2703450  20.9754950  25.6140570
 106.2808680  20.5489860  24.5585250 105.6817570  21.2725660  24.3748870
 106.8288290  20.4866640  23.7761700 101.4910130  21.4412070  36.6254870
 101.3953730  20.5006800  36.4755270 102.3342110  21.6627140  36.2302940
 104.8873550  19.1853400  26.5888530 105.2803120  19.5025600  25.7757220
 105.2490400  18.3065280  26.7033050  96.6220670  17.8525740  34.7788650
  96.2284060  18.7000950  34.9861430  95.9339070  17.2152110  34.9697290
 103.1965720  17.9360710  37.8485390 102.5064040  17.7432910  38.4831480
 103.9398020  18.2195350  38.3809690  93.9237720  15.7754200  28.8118730
  93.6350770  16.3457060  29.5243710  94.6683480  15.2958650  29.1749960
  94.1107950  19.7174320  20.0221450  94.0282620  20.6605080  20.1636440
  93.7591010  19.5749230  19.1433800 105.4728690  21.7759150  30.6839310
 104.7409810  22.2845960  31.0329410 105.0753030  20.9589130  30.3828090
 101.9106080  18.4513350  29.0891800 101.9142140  18.0103300  28.2396340
 102.8057200  18.7730680  29.1963620  97.7608460  18.3339840  28.0486010
  97.4208510  18.8115070  28.8053060  96.9985780  17.8804960  27.6887110
 101.9726230  19.4525430  22.0798560 102.0939050  19.4111910  23.0284380
 101.5874740  20.3149580  21.9245290 105.9354600  17.2292830  30.0962250
 105.9527340  17.6801480  30.9404100 105.6870180  16.3298470  30.3095690
 100.9847730  21.7626570  21.4781860 100.4164630  21.3144820  20.8517770
 101.6936730  22.1219350  20.9447010 109.3625350  14.6425010  35.9348630
 109.6871120  13.9114670  36.4606610 109.3981860  14.3238650  35.0329620
  96.0616910  25.6638590  35.3548590  95.6771700  25.0232260  35.9531550
  96.3729100  26.3674710  35.9243320 102.2114050  22.5115130  30.8357210
 102.5784180  22.0373700  31.5818550 102.0219110  23.3856700  31.1765550
  95.0754540  17.2558820  26.9650680  94.7901460  16.8914490  27.8029300
  95.0133400  16.5239280  26.3513820 100.0013420  21.5523770  33.1541420
  99.6970490  22.4315750  33.3791780 100.9559880  21.6123560  33.1898860
  98.5295210  25.7584760  23.7508270  97.7557470  25.2182380  23.5906990
  99.2589840  25.2391370  23.4126030 109.2883190  24.7550120  29.5434660
 110.0082310  25.2505410  29.1530770 109.0865010  24.0768010  28.8988530
 104.7493130  16.1488080  23.6864050 103.9357740  15.6501250  23.6109360
 104.5555080  16.9886330  23.2700400 104.6701990  24.8259180  35.4303660
 104.6039300  23.9054850  35.1761250 104.0407130  24.9234620  36.1448300
 107.4641520  20.5207730  21.9826210 108.3521140  20.8324960  21.8077550
 107.4346610  19.6479980  21.5906790  98.5732610  25.4265140  27.3887080
  99.0911280  24.6233400  27.3343970  98.1216630  25.3644280  28.2303910
 103.4602110  26.6931420  22.6614380 103.8017810  27.4373650  22.1657700
 102.6314820  27.0062540  23.0239210  96.0577150  22.3926510  34.3012780
  95.6992090  23.0580360  34.8886120  95.7631710  21.5610060  34.6725400
  99.2590270  22.8510750  37.1852330  98.9590410  22.9967930  36.2880150
 100.0301510  22.2916040  37.0925720 104.6018720  27.6479750  35.1807460
 104.6163260  26.7160710  34.9626370 103.8943820  27.7339510  35.8197230
 109.7355790  21.8319570  21.4506070 109.6519510  22.2633790  20.6002510
 110.4549980  22.2917920  21.8832890 110.7643040  28.6861830  24.1788200
 110.1219200  28.0317450  24.4531920 110.3773700  29.0916920  23.4028870
 106.3429520  26.0147260  28.0259890 106.6953340  25.4175390  27.3661260
 105.4591850  25.6891490  28.1968140 102.4292800  26.7744950  25.4330300
 103.1163930  27.3214160  25.8137890 101.6425220  27.3185680  25.4679910
  94.5685200  22.3917770  20.9247380  95.4380050  22.6742570  21.2083300
  94.0775520  23.2053640  20.8096190 101.7320010  23.7790980  25.0455660
 102.1882790  24.5896230  25.2715850 101.3808220  23.4614120  25.8774150
 104.0352620  29.2897320  32.2747960 104.6794840  29.4956700  32.9521380
 104.3982060  28.5285720  31.8218810  97.6331790  14.1228630  25.5178180
  97.5046420  14.1146530  26.4663100  96.8093810  14.4611720  25.1669190
 105.3084700  27.2929670  30.9925410 105.9506930  26.5922830  31.1057580
 105.8334050  28.0728110  30.8122300 109.1540420  27.5778290  20.7164550
 108.9278000  26.8608730  21.3089190 108.7636620  27.3290730  19.8786300
 107.0822320  28.0924570  34.1961470 107.4178560  28.6791260  34.8739390
 106.1622660  27.9617280  34.4259260  94.6325720  15.8819750  34.9784880
  93.9184240  16.0816670  35.5837490  95.0520760  15.1059320  35.3499680
 108.7356670  25.4950230  22.3778710 108.4478370  25.9562920  23.1656590
 109.5308840  25.0348000  22.6462930  94.9198310  29.8700010  35.9651410
  95.0289430  28.9294750  35.8246800  94.2678870  30.1354760  35.3165140
 102.9110900  28.1415900  37.3649530 102.5907770  27.4225140  37.9095220
 102.2369260  28.8170970  37.4385590 100.9525070  28.9876350  22.3082680
 100.9435170  29.7206040  21.6927190 100.0323430  28.7407930  22.4009640
  96.5531710  24.2091240  23.0529440  95.9459660  24.9490140  23.0624740
  97.0281060  24.2990600  22.2267640 106.1264500  18.3742060  32.7286330
 106.4945320  17.5537270  33.0565900 105.2662700  18.4343950  33.1441980
 109.4926530  17.3299000  23.5373890 108.8639690  17.4344670  22.8232120
 108.9978450  17.5495780  24.3267770 103.9384670  29.0504590  20.9707870
 104.0396650  28.8468580  20.0409850 103.0386410  28.7962870  21.1755650
 101.4610560  19.6084950  24.9531770 100.7526710  20.0771290  25.3945380
 101.7455040  18.9506960  25.5876960 103.0866490  21.0281650  32.9524300
 103.5851740  21.5027470  33.6176150 103.2289440  20.1045170  33.1594330
 105.4925990  16.3335610  26.3927560 105.3693770  16.3521740  25.4437070
 106.4410550  16.3814550  26.5125960 102.5802780  31.5690910  25.6655540
 102.8344280  31.5312300  24.7434910 101.6315260  31.4424240  25.6583790
  99.6645580  17.9170030  22.3282480 100.5136110  18.3540180  22.2622670
  99.2976850  18.2290290  23.1554540 110.2933350  17.2449610  33.7952690
 109.7906950  17.9855010  34.1346500 111.1090010  17.6333610  33.4789480
 108.5855360  22.4882790  27.2414050 107.6445500  22.5033020  27.4161740
 108.8999430  21.7018750  27.6874350  98.5637000  24.1702390  20.8018010
  99.3300270  24.0583750  21.3643440  98.6411690  23.4740360  20.1494780
  97.2583760  21.6027460  21.4850900  97.3387350  20.6554970  21.5968300
  98.1503510  21.9334340  21.5911560  98.0598470  31.7522850  28.5885440
  98.7960950  31.2038310  28.8594010  98.4439390  32.6178860  28.4491430
  94.9443950  27.8196420  24.4626950  94.0183730  28.0617560  24.4532360
  95.4100380  28.6470680  24.3411700  97.0656750  30.9368920  37.7771020
  97.8669480  31.2580970  38.1906420  96.5508570  30.5764500  38.4990930
 101.1700780  30.9253160  20.4111010 101.9629390  31.2141990  19.9592800
 100.6505130  30.4945330  19.7323490 105.9021380  27.0448790  37.7246430
 105.2959540  27.0680390  36.9842180 105.5975490  26.3131830  38.2613680
 107.3321750  30.7729080  36.3355840 108.2843500  30.6887100  36.2856080
 107.1849970  31.4370790  37.0089630 110.2230950  30.1523290  21.8347750
 109.9372460  29.7388430  21.0201930 110.0250500  31.0811000  21.7148270
  94.7854560  23.4242380  36.7207070  95.2893580  22.8449660  37.2923300
  94.0461980  23.7082610  37.2583440 101.6878180  26.1456570  20.2753360
 101.5828820  25.5308920  21.0014740 101.5202400  25.6222460  19.4916370
 101.8392500  24.8313370  36.2542590 101.0738170  25.3998370  36.1697260
 102.0208460  24.5389580  35.3610820 104.9280910  25.2076600  20.8795350
 104.3791010  25.6545900  21.5238090 105.5500170  24.7025850  21.4033020
 108.9815850  26.5618700  36.8117610 109.7225320  26.8994460  36.3085070
 108.2188530  26.7310760  36.2587380  96.8177640  21.5671970  37.6157140
  96.8582980  21.2685840  38.5242370  97.6723140  21.9679580  37.4564660
 100.5956030  24.1667520  22.7760650 101.0172450  24.0007390  23.6192040
 100.7206870  23.3567750  22.2815790  98.7583450  20.1464070  35.5831630
  98.2279910  19.6555020  34.9554970  99.4271520  20.5748270  35.0489560
 103.1083670  23.1905130  20.0237750 103.6289330  22.4754150  19.6578900
 103.7552070  23.8291000  20.3238260 107.6561510  24.6133530  35.3472820
 108.0702530  24.7678610  36.1963240 106.7212510  24.7388750  35.5098600
 108.1283680  21.9529690  37.3511970 108.7104450  21.1982010  37.2632450
 108.3045450  22.4837130  36.5743450  99.2455750  17.1126440  35.6628920
  99.1512620  16.4947190  34.9379790  98.6653140  17.8392730  35.4358830
 102.0117190  15.6699680  32.6956310 101.5634490  15.6923940  31.8501860
 101.3782390  15.2718700  33.2926610 102.4176740  24.5654010  33.3168750
 102.8364850  25.4086740  33.1444990 101.4985370  24.7026050  33.0875530
 104.7540640  22.2970190  34.7006590 104.8736850  21.7011330  35.4401430
 105.6134640  22.3339880  34.2807890 107.0928540  22.8507380  33.2769100
 106.5663760  23.3750000  32.6734240 107.4359880  23.4834770  33.9078830
  99.4914930  20.2400750  19.7218810  99.2903990  19.3768110  20.0832150
  99.3206980  20.1534110  18.7840410 100.2684160  30.8707020  34.4326480
  99.7305250  31.5953080  34.1135180 100.5218120  30.3937360  33.6423820
 101.5209410  18.8391540  35.9582410 102.1109100  18.5307390  36.6460230
 100.7029650  18.3671290  36.1142310 106.3402840  18.4557350  36.1915430
 105.6518360  17.7938890  36.1265420 107.0608860  18.0095620  36.6363890
 106.9703240  15.0508980  22.2505690 107.2505530  14.2076880  22.6065110
 106.1968970  15.2832090  22.7644440  98.2897730  17.3401370  19.7096690
  98.5923630  17.3468800  18.8015840  99.0292320  16.9899230  20.2064350
 103.1246370  32.1058230  34.6913130 103.0505070  33.0093370  34.9985500
 102.2225210  31.7870130  34.6635200 101.5082660  16.2835990  20.6952890
 101.1604660  15.6059980  20.1155340 101.7095430  15.8225500  21.5096280
 103.6731700  31.2716740  22.3139490 104.5682490  31.6101710  22.3358250
 103.7049330  30.5496150  21.6863770  97.3127860  26.6443790  20.5426490
  97.7502730  27.1873460  21.1984070  97.7975590  25.8190740  20.5522830
  94.5273660  29.4332820  27.9946750  94.8576670  28.5653880  27.7625390
  94.9564660  29.6391340  28.8251710  99.1235580  27.7641830  25.6548720
  98.8231120  27.6406800  26.5552630  99.0173070  26.9050420  25.2464450
  95.0163870  30.3003410  30.7328380  94.5794860  30.4804210  31.5652530
  95.5841550  31.0578030  30.5910100 110.6526050  29.8020410  35.0205690
 110.0528040  29.8612970  34.2769610 110.7819950  28.8625390  35.1502540
  94.8488300  22.8123640  27.0917260  94.1937140  22.5435280  26.4476960
  95.6866250  22.7028120  26.6419240 109.3377690  26.5272390  33.1181850
 108.5237530  26.9569550  33.3807640 109.7451890  27.1390800  32.5050900
 107.7978740  17.6064930  21.3135750 108.2163620  17.4195910  20.4732410
 107.4914800  16.7543980  21.6238680  95.8864230  23.1976210  31.6320600
  96.2537270  23.1103610  32.5116620  95.3175050  22.4342760  31.5327460
 110.6868090  21.6660590  34.6451070 110.4554180  21.4373340  33.7449020
 110.9472640  22.5860140  34.5995960  95.4380230  20.1085300  35.5379020
  94.5436280  20.0752060  35.8772730  95.9777780  20.3072090  36.3030270
 109.1256160  16.8917020  37.4230770 110.0026340  16.9000420  37.8064770
 109.1377000  16.1547860  36.8123120  94.0626380  20.0222570  23.0342590
  93.1590460  20.2852770  22.8594250  94.5467000  20.2933740  22.2542550
 110.5719430  20.7446560  28.3118790 111.0956910  20.2509210  27.6808960
 111.1578850  20.8796920  29.0566360 110.7509150  20.8286430  31.8338340
 109.8011860  20.7949970  31.9483330 110.9322160  21.7386540  31.5988110
  96.6053590  19.0788110  20.9436970  97.3145290  18.6571330  20.4584250
  95.8893530  19.1463340  20.3120320  96.2527750  15.1327440  19.9839620
  96.9755880  15.6736380  20.3020840  96.5252270  14.8590860  19.1081160
 110.0619400  20.0019910  24.2511200 110.5578520  19.7690780  25.0360080
 109.8635470  19.1631750  23.8348840  95.9419940  14.3833630  29.8862240
  96.5896130  13.8331010  29.4457400  96.3621780  14.6376780  30.7078050
 109.8372280  14.5774990  33.2431880 110.4744500  15.1909130  33.6091070
 109.9847170  14.6135650  32.2981110 109.3953740  31.2790990  26.6450120
 109.9912810  30.9575560  25.9684540 109.6531890  30.8062810  27.4363390
  95.6951940  14.5389300  32.6287560  95.3466760  14.9953120  33.3945740
  95.3639640  13.6446430  32.7109990  97.3016310  27.7108900  36.7940750
  97.2585940  27.3401810  37.6755210  97.4327320  28.6486470  36.9342570
 101.0022340  29.2668490  32.3950470 100.7613700  29.5343050  31.5080990
 101.9424980  29.4374220  32.4501330 103.2076760  15.7301180  36.1506980
 103.1465650  16.3223010  36.9002390 104.1477140  15.6227140  36.0057240
 105.8451320  15.3871240  35.7899270 106.4591730  15.7050530  35.1280350
 106.3900880  14.9019830  36.4095130  96.3672580  14.0665500  35.9038330
  96.9155570  13.8853550  35.1404440  96.4327890  13.2759610  36.4394640
  97.1404340  30.6571150  33.9138530  96.5464660  30.5255850  34.6528570
  97.1328180  29.8209290  33.4480630 106.5859360  13.9503380  32.1168560
 105.7119200  14.2838490  31.9141490 106.4770110  13.4776560  32.9420430
 107.4931340  16.1574250  33.5010280 107.1644700  15.3426010  33.1212010
 108.4413640  16.1144060  33.3775970 109.9465950  31.9286290  30.4747850
 109.4868920  32.6802100  30.1005870 109.3178410  31.2092760  30.4162650
  96.7716570  28.0229530  32.8646570  96.0450630  27.4034820  32.7972520
  96.8325720  28.4170140  31.9944650 100.3761670  30.2374530  29.6495980
 100.8926690  29.6261890  29.1244240 101.0259050  30.7403310  30.1406990
 103.1157170  31.1283020  30.4764960 103.4034980  30.8737320  29.5997970
 103.6280390  30.5760380  31.0670530 104.3334180  14.8673220  31.0561470
 103.5505970  15.3418720  31.3358230 104.0397110  13.9628050  30.9474650
 108.8855250  15.5696320  29.1010560 109.3263340  15.5141420  28.2532160
 108.6162840  16.4854330  29.1720740  95.6774590  15.1720700  23.5775190
  96.4353950  15.2849580  23.0039220  95.2151760  16.0089900  23.5318620
 102.2188400  17.2859970  26.5677500 101.4062910  16.9116860  26.2273380
 102.7230040  16.5305050  26.8698690 106.7213380  13.9502420  27.8060570
 107.3242750  14.5222630  28.2809090 105.9806370  14.5141860  27.5834470
 109.8647980  14.3523980  23.0800850 110.0598610  15.2507430  23.3468280
 109.0777850  14.1211060  23.5733800  98.0499740  15.6984750  22.1177160
  98.5792500  14.9114550  21.9885110  98.6828060  16.3775940  22.3512690
 100.2437580  15.4359890  25.1722550  99.6140320  14.7347200  25.3392680
  99.7042720  16.1964020  24.9555710 103.1829530  32.0499120  37.8433160
 104.1096840  31.8143390  37.8869120 103.1679960  32.8771120  37.3619190
 100.3693140  14.7143870  37.6075040 100.0877410  15.2177470  36.8435860
 100.7512840  13.9165620  37.2417170  99.2602240  31.9819530  22.3942720
  99.9921060  31.6978810  21.8466610  99.5195910  31.7432810  23.2842100
  98.4217030  28.0984260  22.3989050  97.7925910  28.5669360  22.9474880
  98.5364860  27.2533480  22.8335240 106.9708600  14.1297450  38.1855510
 106.8574050  14.4492060  39.0807030 107.7878340  14.5309960  37.8892790
 109.7507090  31.2768980  37.6674200 110.5432410  30.7818210  37.4600160
 110.0440240  31.9559120  38.2749810 105.8766750  22.1489920   8.5490250
 105.7960800  21.2344530   8.2781960 105.4631170  22.6456990   7.8429960
 104.0084790  23.9268940  10.4299520 103.2326890  23.4469380  10.7198090
 104.6597720  23.2474590  10.2555680  98.0250620  24.2388750  11.3075280
  97.1935500  23.9837460  11.7071790  98.6331600  24.3099520  12.0433200
 108.0292220  28.3329130   9.2098650 107.5673750  27.5616370   9.5385820
 108.8417770  28.3595200   9.7151100  98.0051880  28.2728840  11.5033300
  98.3079920  27.3826580  11.3243520  98.7495470  28.8299060  11.2755550
  96.4342570  19.1990640   5.0917670  95.5459270  19.5406610   4.9897550
  96.7183760  18.9990960   4.1998500  94.3975580  21.7996290  10.9757370
  94.9691690  21.0318490  10.9761010  94.3977120  22.0985050  10.0663980
 104.2555530  30.6187140   8.8302640 103.6366970  31.0744640   8.2597080
 105.1107310  30.7738600   8.4292340 103.4493780  26.6026130  10.4369680
 103.3802060  25.6616070  10.2758810 104.2113640  26.6927540  11.0092250
  95.6400450  17.2080650  12.7626300  95.4603290  16.3106400  13.0429060
  95.2380530  17.7552520  13.4373250 104.4798950  19.4096510  10.6638610
 104.8563770  18.5368390  10.5512280 104.3818460  19.7455210   9.7729050
  98.6103960  17.7822140   6.1256050  98.7170710  18.6825870   6.4324810
  97.6996320  17.7340110   5.8350700 108.2623070  16.9046950   7.5966950
 109.0832690  16.4143520   7.6392430 108.2957150  17.4944610   8.3498790
  96.2587120  19.7041150  11.3708640  96.9397230  19.9679520  11.9896040
  95.9435170  18.8642020  11.7046650 100.4511690  20.7508510  10.4581230
 100.9589910  21.2489480  11.0986250 100.9824930  19.9743710  10.2820590
  98.7347790  15.3907070  14.7244650  98.7366230  15.9079460  13.9190550
  97.9052100  14.9137250  14.7014580 105.1218880  25.5026380   6.2234550
 104.5036150  25.9675830   5.6597270 105.6342130  26.1953860   6.6404060
  99.9850640  25.0302250  12.9018150  99.6520020  25.6571170  13.5439220
 100.1617320  25.5564130  12.1219820 108.4984550  18.8447330  10.3694490
 107.7940120  19.1332220  10.9497600 108.8596710  19.6547440  10.0094050
  98.4163120  17.1017030  12.7315100  98.7579930  17.9459080  12.4368970
  97.4778930  17.2500770  12.8480440  99.1969740  26.9983050  14.7167330
  99.8143740  27.6734130  14.4351780  98.3362860  27.4071030  14.6254830
  94.4902080  26.1882910   3.5974180  94.1130060  26.6770010   2.8659080
  94.7475150  26.8608190   4.2280710 110.1147330  28.4622460  12.6321970
 109.4310850  29.1321570  12.6238640 110.6541620  28.6603110  11.8666830
 102.0991010  14.5899300   9.0559690 102.4065990  14.0346190   8.3395190
 101.1691710  14.7243760   8.8732680 107.6506070  30.3066590  11.3467150
 107.6633230  29.9028880  10.4789410 107.0981290  31.0813880  11.2428580
 108.9451490  27.0282810   6.4357320 108.8347820  26.0857140   6.5606740
 108.9419740  27.3898450   7.3220080 107.0491510  25.2096430  12.6749760
 107.4660300  24.9956540  11.8403220 107.7731330  25.4669220  13.2458380
 104.4871770  22.6548130   5.7919810 103.5601050  22.5885510   6.0208280
 104.6396590  23.5928260   5.6775050 104.4740850  18.9265130   2.7886970
 103.5344520  19.0879090   2.8739430 104.7924110  19.6450810   2.2422960
 108.5169060  24.2168430   6.2955060 107.8981480  23.8787980   5.6481360
 108.4993510  23.5728190   7.0034250 107.9595620  20.3952970  13.7120870
 107.5466800  21.2206680  13.9660860 107.2271570  19.8098010  13.5197230
 100.0928410  23.1812870   8.5739540  99.6885410  22.4690120   8.0785440
 100.1791530  22.8366110   9.4627580 100.5610110  26.8680430  10.7378750
 100.2638400  26.2625900  10.0586530 101.5109930  26.9057740  10.6268110
  98.8057030  19.9556080  12.3538580  99.3571620  20.0651420  11.5791830
  99.3200540  20.3293680  13.0693810 108.6495720  30.4412300  14.4001850
 108.1726280  31.2484490  14.2074460 107.9657510  29.7890630  14.5528060
  99.6528540  26.6062120  17.3886550  98.7557070  26.8302090  17.6359950
  99.6781410  26.7297060  16.4397950 106.6933760  23.4555240   3.3027810
 107.1327040  22.6177670   3.1565630 107.4062180  24.0884640   3.3891950
  98.4799760  23.4775440  15.9643920  98.3407530  24.3498240  16.3331320
  97.5981120  23.1348250  15.8191860 104.8029140  28.3951310   7.2709050
 105.2425050  29.1375640   6.8564440 104.7416030  28.6377880   8.1948010
 100.2780110  29.4197140  18.1729070 100.2495540  29.8240090  17.3057500
 100.1145080  28.4907500  18.0100670  96.7933040  22.0757850   6.0746190
  96.6730640  22.8019940   5.4627460  96.4833930  21.3060760   5.5974100
  94.4318410  25.2472990  11.8814830  94.5098830  25.3821760  10.9370550
  95.0460090  24.5388880  12.0742950  95.6766040  26.9473180   8.2921010
  95.2694120  27.0887770   7.4374610  96.5679050  26.6633340   8.0892220
 105.4944920  31.0965090  15.1988060 106.0089590  31.0073100  16.0010490
 104.6514000  31.4424790  15.4915970 107.4699320  31.3820430   4.6272060
 107.3100460  31.0923370   5.5253890 107.3046030  30.6060560   4.0917290
  99.9487700  31.1618960   6.4043680  99.7730180  30.2454500   6.1911480
  99.0943440  31.5206250   6.6441480 107.1725450  28.8907990   3.1870060
 106.4790610  28.8885280   2.5272340 107.9148310  28.4667310   2.7564230
 106.7375380  30.5170700   7.2618550 107.1932330  29.7360080   7.5757170
 107.0767900  31.2277520   7.8059730  99.2596700  15.4192920   9.4569860
  98.8164850  16.2002460   9.1254380  99.8181690  15.7422810  10.1640800
 103.5466510  18.2861440  15.0605180 103.0845880  18.4944460  15.8725120
 103.1444620  17.4720790  14.7575850 108.5471020  19.5070390  16.1901840
 107.6964610  19.2076140  16.5110910 108.3872810  19.7512400  15.2785660
 105.6420730  21.0072140  18.2900630 105.9674140  20.1735890  17.9502860
 106.4301060  21.5300660  18.4378960 102.3755520  15.0403620   4.3375690
 101.7509700  15.0363490   5.0629000 102.2885640  14.1734580   3.9411660
 101.2972600  15.9640250  11.3159460 101.5944930  16.8703080  11.2351480
 101.8458160  15.4759030  10.7019030  99.0510920  20.5426490   7.1851110
  98.8251840  20.3263660   8.0897730  98.2703450  20.9754950   6.8397080
 106.2808680  20.5489860   5.7841760 105.6817570  21.2725660   5.6005380
 106.8288290  20.4866640   5.0018210 101.4910130  21.4412070  17.8511380
 101.3953730  20.5006800  17.7011780 102.3342110  21.6627140  17.4559450
 104.8873550  19.1853400   7.8145040 105.2803120  19.5025600   7.0013730
 105.2490400  18.3065280   7.9289560  96.6220670  17.8525740  16.0045160
  96.2284060  18.7000950  16.2117940  95.9339070  17.2152110  16.1953800
 103.1965720  17.9360710  19.0741900 102.5064040  17.7432910  19.7087990
 103.9398020  18.2195350  19.6066200  93.9237720  15.7754200  10.0375240
  93.6350770  16.3457060  10.7500220  94.6683480  15.2958650  10.4006470
 105.4728690  21.7759150  11.9095820 104.7409810  22.2845960  12.2585920
 105.0753030  20.9589130  11.6084600 101.9106080  18.4513350  10.3148310
 101.9142140  18.0103300   9.4652850 102.8057200  18.7730680  10.4220130
  97.7608460  18.3339840   9.2742520  97.4208510  18.8115070  10.0309570
  96.9985780  17.8804960   8.9143620 101.9726230  19.4525430   3.3055070
 102.0939050  19.4111910   4.2540890 101.5874740  20.3149580   3.1501800
 105.9354600  17.2292830  11.3218760 105.9527340  17.6801480  12.1660610
 105.6870180  16.3298470  11.5352200 100.9847730  21.7626570   2.7038370
 100.4164630  21.3144820   2.0774280 101.6936730  22.1219350   2.1703520
 109.3625350  14.6425010  17.1605140 109.6871120  13.9114670  17.6863120
 109.3981860  14.3238650  16.2586130 102.2114050  22.5115130  12.0613720
 102.5784180  22.0373700  12.8075060 102.0219110  23.3856700  12.4022060
  95.0754540  17.2558820   8.1907190  94.7901460  16.8914490   9.0285810
  95.0133400  16.5239280   7.5770330 100.0013420  21.5523770  14.3797930
  99.6970490  22.4315750  14.6048290 100.9559880  21.6123560  14.4155370
  98.5295210  25.7584760   4.9764780  97.7557470  25.2182380   4.8163500
  99.2589840  25.2391370   4.6382540 109.2883190  24.7550120  10.7691170
 110.0082310  25.2505410  10.3787280 109.0865010  24.0768010  10.1245040
 104.7493130  16.1488080   4.9120560 103.9357740  15.6501250   4.8365870
 104.5555080  16.9886330   4.4956910 104.6701990  24.8259180  16.6560170
 104.6039300  23.9054850  16.4017760 104.0407130  24.9234620  17.3704810
 107.4641520  20.5207730   3.2082720 108.3521140  20.8324960   3.0334060
 107.4346610  19.6479980   2.8163300  98.5732610  25.4265140   8.6143590
  99.0911280  24.6233400   8.5600480  98.1216630  25.3644280   9.4560420
 103.4602110  26.6931420   3.8870890 103.8017810  27.4373650   3.3914210
 102.6314820  27.0062540   4.2495720  96.0577150  22.3926510  15.5269290
  95.6992090  23.0580360  16.1142630  95.7631710  21.5610060  15.8981910
  99.2590270  22.8510750  18.4108840  98.9590410  22.9967930  17.5136660
 100.0301510  22.2916040  18.3182230 104.6018720  27.6479750  16.4063970
 104.6163260  26.7160710  16.1882880 103.8943820  27.7339510  17.0453740
 109.7355790  21.8319570   2.6762580 109.6519510  22.2633790   1.8259020
 110.4549980  22.2917920   3.1089400 110.7643040  28.6861830   5.4044710
 110.1219200  28.0317450   5.6788430 110.3773700  29.0916920   4.6285380
 106.3429520  26.0147260   9.2516400 106.6953340  25.4175390   8.5917770
 105.4591850  25.6891490   9.4224650 102.4292800  26.7744950   6.6586810
 103.1163930  27.3214160   7.0394400 101.6425220  27.3185680   6.6936420
  94.5685200  22.3917770   2.1503890  95.4380050  22.6742570   2.4339810
  94.0775520  23.2053640   2.0352700 101.7320010  23.7790980   6.2712170
 102.1882790  24.5896230   6.4972360 101.3808220  23.4614120   7.1030660
 104.0352620  29.2897320  13.5004470 104.6794840  29.4956700  14.1777890
 104.3982060  28.5285720  13.0475320  97.6331790  14.1228630   6.7434690
  97.5046420  14.1146530   7.6919610  96.8093810  14.4611720   6.3925700
 105.3084700  27.2929670  12.2181920 105.9506930  26.5922830  12.3314090
 105.8334050  28.0728110  12.0378810 107.0822320  28.0924570  15.4217980
 107.4178560  28.6791260  16.0995900 106.1622660  27.9617280  15.6515770
  94.9356450  31.6045150   2.7165520  95.2954090  32.2034490   2.0622790
  94.7948790  32.1505040   3.4900550  94.6325720  15.8819750  16.2041390
  93.9184240  16.0816670  16.8094000  95.0520760  15.1059320  16.5756190
 108.7356670  25.4950230   3.6035220 108.4478370  25.9562920   4.3913100
 109.5308840  25.0348000   3.8719440 102.9110900  28.1415900  18.5906040
 102.5907770  27.4225140  19.1351730 102.2369260  28.8170970  18.6642100
 100.9525070  28.9876350   3.5339190 100.9435170  29.7206040   2.9183700
 100.0323430  28.7407930   3.6266150  96.5531710  24.2091240   4.2785950
  95.9459660  24.9490140   4.2881250  97.0281060  24.2990600   3.4524150
 106.1264500  18.3742060  13.9542840 106.4945320  17.5537270  14.2822410
 105.2662700  18.4343950  14.3698490 109.4926530  17.3299000   4.7630400
 108.8639690  17.4344670   4.0488630 108.9978450  17.5495780   5.5524280
 101.4610560  19.6084950   6.1788280 100.7526710  20.0771290   6.6201890
 101.7455040  18.9506960   6.8133470 103.0866490  21.0281650  14.1780810
 103.5851740  21.5027470  14.8432660 103.2289440  20.1045170  14.3850840
 105.4925990  16.3335610   7.6184070 105.3693770  16.3521740   6.6693580
 106.4410550  16.3814550   7.7382470 102.5802780  31.5690910   6.8912050
 102.8344280  31.5312300   5.9691420 101.6315260  31.4424240   6.8840300
  99.6645580  17.9170030   3.5538990 100.5136110  18.3540180   3.4879180
  99.2976850  18.2290290   4.3811050 110.2933350  17.2449610  15.0209200
 109.7906950  17.9855010  15.3603010 111.1090010  17.6333610  14.7045990
 108.5855360  22.4882790   8.4670560 107.6445500  22.5033020   8.6418250
 108.8999430  21.7018750   8.9130860  97.2583760  21.6027460   2.7107410
  97.3387350  20.6554970   2.8224810  98.1503510  21.9334340   2.8168070
  98.0598470  31.7522850   9.8141950  98.7960950  31.2038310  10.0850520
  98.4439390  32.6178860   9.6747940  94.9443950  27.8196420   5.6883460
  94.0183730  28.0617560   5.6788870  95.4100380  28.6470680   5.5668210
  97.0656750  30.9368920  19.0027530  97.8669480  31.2580970  19.4162930
  96.5508570  30.5764500  19.7247440 105.9021380  27.0448790  18.9502940
 105.2959540  27.0680390  18.2098690 105.5975490  26.3131830  19.4870190
 107.3321750  30.7729080  17.5612350 108.2843500  30.6887100  17.5112590
 107.1849970  31.4370790  18.2346140 110.2230950  30.1523290   3.0604260
 109.9372460  29.7388430   2.2458440 110.0250500  31.0811000   2.9404780
  94.7854560  23.4242380  17.9463580  95.2893580  22.8449660  18.5179810
  94.0461980  23.7082610  18.4839950 101.8392500  24.8313370  17.4799100
 101.0738170  25.3998370  17.3953770 102.0208460  24.5389580  16.5867330
 104.9280910  25.2076600   2.1051860 104.3791010  25.6545900   2.7494600
 105.5500170  24.7025850   2.6289530 108.9815850  26.5618700  18.0374120
 109.7225320  26.8994460  17.5341580 108.2188530  26.7310760  17.4843890
  96.8177640  21.5671970  18.8413650  96.8582980  21.2685840  19.7498880
  97.6723140  21.9679580  18.6821170 100.5956030  24.1667520   4.0017160
 101.0172450  24.0007390   4.8448550 100.7206870  23.3567750   3.5072300
  98.7583450  20.1464070  16.8088140  98.2279910  19.6555020  16.1811480
  99.4271520  20.5748270  16.2746070 107.6561510  24.6133530  16.5729330
 108.0702530  24.7678610  17.4219750 106.7212510  24.7388750  16.7355110
 108.1283680  21.9529690  18.5768480 108.7104450  21.1982010  18.4888960
 108.3045450  22.4837130  17.7999960  99.2455750  17.1126440  16.8885430
  99.1512620  16.4947190  16.1636300  98.6653140  17.8392730  16.6615340
 102.0117190  15.6699680  13.9212820 101.5634490  15.6923940  13.0758370
 101.3782390  15.2718700  14.5183120 102.4176740  24.5654010  14.5425260
 102.8364850  25.4086740  14.3701500 101.4985370  24.7026050  14.3132040
 104.7540640  22.2970190  15.9263100 104.8736850  21.7011330  16.6657940
 105.6134640  22.3339880  15.5064400 107.0928540  22.8507380  14.5025610
 106.5663760  23.3750000  13.8990750 107.4359880  23.4834770  15.1335340
 100.2684160  30.8707020  15.6582990  99.7305250  31.5953080  15.3391690
 100.5218120  30.3937360  14.8680330 101.5209410  18.8391540  17.1838920
 102.1109100  18.5307390  17.8716740 100.7029650  18.3671290  17.3398820
 106.3402840  18.4557350  17.4171940 105.6518360  17.7938890  17.3521930
 107.0608860  18.0095620  17.8620400 106.9703240  15.0508980   3.4762200
 107.2505530  14.2076880   3.8321620 106.1968970  15.2832090   3.9900950
 103.1246370  32.1058230  15.9169640 103.0505070  33.0093370  16.2242010
 102.2225210  31.7870130  15.8891710 103.6731700  31.2716740   3.5396000
 104.5682490  31.6101710   3.5614760 103.7049330  30.5496150   2.9120280
  97.3127860  26.6443790   1.7683000  97.7502730  27.1873460   2.4240580
  97.7975590  25.8190740   1.7779340  94.5273660  29.4332820   9.2203260
  94.8576670  28.5653880   8.9881900  94.9564660  29.6391340  10.0508220
  99.1235580  27.7641830   6.8805230  98.8231120  27.6406800   7.7809140
  99.0173070  26.9050420   6.4720960  95.0163870  30.3003410  11.9584890
  94.5794860  30.4804210  12.7909040  95.5841550  31.0578030  11.8166610
 110.6526050  29.8020410  16.2462200 110.0528040  29.8612970  15.5026120
 110.7819950  28.8625390  16.3759050  94.8488300  22.8123640   8.3173770
  94.1937140  22.5435280   7.6733470  95.6866250  22.7028120   7.8675750
 109.3377690  26.5272390  14.3438360 108.5237530  26.9569550  14.6064150
 109.7451890  27.1390800  13.7307410 107.7978740  17.6064930   2.5392260
 108.2163620  17.4195910   1.6988920 107.4914800  16.7543980   2.8495190
  95.8864230  23.1976210  12.8577110  96.2537270  23.1103610  13.7373130
  95.3175050  22.4342760  12.7583970 110.6868090  21.6660590  15.8707580
 110.4554180  21.4373340  14.9705530 110.9472640  22.5860140  15.8252470
  95.4380230  20.1085300  16.7635530  94.5436280  20.0752060  17.1029240
  95.9777780  20.3072090  17.5286780 109.1256160  16.8917020  18.6487280
 110.0026340  16.9000420  19.0321280 109.1377000  16.1547860  18.0379630
  94.0626380  20.0222570   4.2599100  93.1590460  20.2852770   4.0850760
  94.5467000  20.2933740   3.4799060 110.5719430  20.7446560   9.5375300
 111.0956910  20.2509210   8.9065470 111.1578850  20.8796920  10.2822870
 110.7509150  20.8286430  13.0594850 109.8011860  20.7949970  13.1739840
 110.9322160  21.7386540  12.8244620 110.0619400  20.0019910   5.4767710
 110.5578520  19.7690780   6.2616590 109.8635470  19.1631750   5.0605350
  95.9419940  14.3833630  11.1118750  96.5896130  13.8331010  10.6713910
  96.3621780  14.6376780  11.9334560 109.8372280  14.5774990  14.4688390
 110.4744500  15.1909130  14.8347580 109.9847170  14.6135650  13.5237620
 109.3953740  31.2790990   7.8706630 109.9912810  30.9575560   7.1941050
 109.6531890  30.8062810   8.6619900  95.6951940  14.5389300  13.8544070
  95.3466760  14.9953120  14.6202250  95.3639640  13.6446430  13.9366500
 101.0022340  29.2668490  13.6206980 100.7613700  29.5343050  12.7337500
 101.9424980  29.4374220  13.6757840 103.2076760  15.7301180  17.3763490
 103.1465650  16.3223010  18.1258900 104.1477140  15.6227140  17.2313750
 105.8451320  15.3871240  17.0155780 106.4591730  15.7050530  16.3536860
 106.3900880  14.9019830  17.6351640  96.3672580  14.0665500  17.1294840
  96.9155570  13.8853550  16.3660950  96.4327890  13.2759610  17.6651150
  97.1404340  30.6571150  15.1395040  96.5464660  30.5255850  15.8785080
  97.1328180  29.8209290  14.6737140 106.5859360  13.9503380  13.3425070
 105.7119200  14.2838490  13.1398000 106.4770110  13.4776560  14.1676940
 107.4931340  16.1574250  14.7266790 107.1644700  15.3426010  14.3468520
 108.4413640  16.1144060  14.6032480 109.9465950  31.9286290  11.7004360
 109.4868920  32.6802100  11.3262380 109.3178410  31.2092760  11.6419160
  96.7716570  28.0229530  14.0903080  96.0450630  27.4034820  14.0229030
  96.8325720  28.4170140  13.2201160 100.3761670  30.2374530  10.8752490
 100.8926690  29.6261890  10.3500750 101.0259050  30.7403310  11.3663500
 103.1157170  31.1283020  11.7021470 103.4034980  30.8737320  10.8254480
 103.6280390  30.5760380  12.2927040 104.3334180  14.8673220  12.2817980
 103.5505970  15.3418720  12.5614740 104.0397110  13.9628050  12.1731160
 108.8855250  15.5696320  10.3267070 109.3263340  15.5141420   9.4788670
 108.6162840  16.4854330  10.3977250  95.0546570  31.3403920   7.2999840
  94.8868610  30.7074600   7.9981730  94.1881080  31.5463320   6.9494030
  95.6774590  15.1720700   4.8031700  96.4353950  15.2849580   4.2295730
  95.2151760  16.0089900   4.7575130 102.2188400  17.2859970   7.7934010
 101.4062910  16.9116860   7.4529890 102.7230040  16.5305050   8.0955200
 106.7213380  13.9502420   9.0317080 107.3242750  14.5222630   9.5065600
 105.9806370  14.5141860   8.8090980 109.8647980  14.3523980   4.3057360
 110.0598610  15.2507430   4.5724790 109.0777850  14.1211060   4.7990310
  96.6609270  30.0337150   4.7449980  96.1356890  30.4145180   4.0411940
  96.5853850  30.6587920   5.4659690  98.0499740  15.6984750   3.3433670
  98.5792500  14.9114550   3.2141620  98.6828060  16.3775940   3.5769200
 100.2437580  15.4359890   6.3979060  99.6140320  14.7347200   6.5649190
  99.7042720  16.1964020   6.1812220 103.1829530  32.0499120  19.0689670
 104.1096840  31.8143390  19.1125630 103.1679960  32.8771120  18.5875700
 100.3693140  14.7143870  18.8331550 100.0877410  15.2177470  18.0692370
 100.7512840  13.9165620  18.4673680  99.2602240  31.9819530   3.6199230
  99.9921060  31.6978810   3.0723120  99.5195910  31.7432810   4.5098610
  98.4217030  28.0984260   3.6245560  97.7925910  28.5669360   4.1731390
  98.5364860  27.2533480   4.0591750 106.9708600  14.1297450  19.4112020
 106.8574050  14.4492060  20.3063540 107.7878340  14.5309960  19.1149300
 109.7507090  31.2768980  18.8930710 110.5432410  30.7818210  18.6856670
 110.0440240  31.9559120  19.5006320 105.8766750   3.3746430  64.8720720
 105.7960800   2.4601040  64.6012430 105.4631170   3.8713500  64.1660430
 104.0084790   5.1525450  66.7529990 103.2326890   4.6725890  67.0428560
 104.6597720   4.4731100  66.5786150  98.0250620   5.4645260  67.6305750
  97.1935500   5.2093970  68.0302260  98.6331600   5.5356030  68.3663670
 108.0292220   9.5585640  65.5329120 107.5673750   8.7872880  65.8616290
 108.8417770   9.5851710  66.0381570  98.0051880   9.4985350  67.8263770
  98.3079920   8.6083090  67.6473990  98.7495470  10.0555570  67.5986020
  94.3975580   3.0252800  67.2987840  94.9691690   2.2575000  67.2991480
  94.3977120   3.3241560  66.3894450 104.2555530  11.8443650  65.1533110
 103.6366970  12.3001150  64.5827550 105.1107310  11.9995110  64.7522810
 103.4493780   7.8282640  66.7600150 103.3802060   6.8872580  66.5989280
 104.2113640   7.9184050  67.3322720 105.1218880   6.7282890  62.5465020
 104.5036150   7.1932340  61.9827740 105.6342130   7.4210370  62.9634530
  99.9850640   6.2558760  69.2248620  99.6520020   6.8827680  69.8669690
 100.1617320   6.7820640  68.4450290  99.1969740   8.2239560  71.0397800
  99.8143740   8.8990640  70.7582250  98.3362860   8.6327540  70.9485300
  94.4902080   7.4139420  59.9204650  94.1130060   7.9026520  59.1889550
  94.7475150   8.0864700  60.5511180 110.1147330   9.6878970  68.9552440
 109.4310850  10.3578080  68.9469110 110.6541620   9.8859620  68.1897300
 107.6506070  11.5323100  67.6697620 107.6633230  11.1285390  66.8019880
 107.0981290  12.3070390  67.5659050 108.9451490   8.2539320  62.7587790
 108.8347820   7.3113650  62.8837210 108.9419740   8.6154960  63.6450550
 107.0491510   6.4352940  68.9980230 107.4660300   6.2213050  68.1633690
 107.7731330   6.6925730  69.5688850 104.4871770   3.8804640  62.1150280
 103.5601050   3.8142020  62.3438750 104.6396590   4.8184770  62.0005520
 108.5169060   5.4424940  62.6185530 107.8981480   5.1044490  61.9711830
 108.4993510   4.7984700  63.3264720 100.0928410   4.4069380  64.8970010
  99.6885410   3.6946630  64.4015910 100.1791530   4.0622620  65.7858050
 100.5610110   8.0936940  67.0609220 100.2638400   7.4882410  66.3817000
 101.5109930   8.1314250  66.9498580 108.6495720  11.6668810  70.7232320
 108.1726280  12.4741000  70.5304930 107.9657510  11.0147140  70.8758530
  99.6528540   7.8318630  73.7117020  98.7557070   8.0558600  73.9590420
  99.6781410   7.9553570  72.7628420 106.6933760   4.6811750  59.6258280
 107.1327040   3.8434180  59.4796100 107.4062180   5.3141150  59.7122420
  98.4799760   4.7031950  72.2874390  98.3407530   5.5754750  72.6561790
  97.5981120   4.3604760  72.1422330 104.8029140   9.6207820  63.5939520
 105.2425050  10.3632150  63.1794910 104.7416030   9.8634390  64.5178480
 100.2780110  10.6453650  74.4959540 100.2495540  11.0496600  73.6287970
 100.1145080   9.7164010  74.3331140  96.7933040   3.3014360  62.3976660
  96.6730640   4.0276450  61.7857930  96.4833930   2.5317270  61.9204570
  94.4318410   6.4729500  68.2045300  94.5098830   6.6078270  67.2601020
  95.0460090   5.7645390  68.3973420  95.6766040   8.1729690  64.6151480
  95.2694120   8.3144280  63.7605080  96.5679050   7.8889850  64.4122690
 105.4944920  12.3221600  71.5218530 106.0089590  12.2329610  72.3240960
 104.6514000  12.6681300  71.8146440 107.4699320  12.6076940  60.9502530
 107.3100460  12.3179880  61.8484360 107.3046030  11.8317070  60.4147760
  99.9487700  12.3875470  62.7274150  99.7730180  11.4711010  62.5141950
  99.0943440  12.7462760  62.9671950 107.1725450  10.1164500  59.5100530
 106.4790610  10.1141790  58.8502810 107.9148310   9.6923820  59.0794700
 106.7375380  11.7427210  63.5849020 107.1932330  10.9616590  63.8987640
 107.0767900  12.4534030  64.1290200  94.4877930   7.5143670  70.7439760
  94.6508970   7.0449030  69.9259130  94.9530380   7.0067230  71.4088600
 105.6420730   2.2328650  74.6131100 105.9674140   1.3992400  74.2733330
 106.4301060   2.7557170  74.7609430  99.0510920   1.7683000  63.5081580
  98.8251840   1.5520170  64.4128200  98.2703450   2.2011460  63.1627550
 106.2808680   1.7746370  62.1072230 105.6817570   2.4982170  61.9235850
 106.8288290   1.7123150  61.3248680 101.4910130   2.6668580  74.1741850
 101.3953730   1.7263310  74.0242250 102.3342110   2.8883650  73.7789920
 105.4728690   3.0015660  68.2326290 104.7409810   3.5102470  68.5816390
 105.0753030   2.1845640  67.9315070 100.9847730   2.9883080  59.0268840
 100.4164630   2.5401330  58.4004750 101.6936730   3.3475860  58.4933990
  96.0616910   6.8895100  72.9035570  95.6771700   6.2488770  73.5018530
  96.3729100   7.5931220  73.4730300 102.2114050   3.7371640  68.3844190
 102.5784180   3.2630210  69.1305530 102.0219110   4.6113210  68.7252530
 100.0013420   2.7780280  70.7028400  99.6970490   3.6572260  70.9278760
 100.9559880   2.8380070  70.7385840  98.5295210   6.9841270  61.2995250
  97.7557470   6.4438890  61.1393970  99.2589840   6.4647880  60.9613010
 109.2883190   5.9806630  67.0921640 110.0082310   6.4761920  66.7017750
 109.0865010   5.3024520  66.4475510 104.6701990   6.0515690  72.9790640
 104.6039300   5.1311360  72.7248230 104.0407130   6.1491130  73.6935280
  98.5732610   6.6521650  64.9374060  99.0911280   5.8489910  64.8830950
  98.1216630   6.5900790  65.7790890 103.4602110   7.9187930  60.2101360
 103.8017810   8.6630160  59.7144680 102.6314820   8.2319050  60.5726190
  96.0577150   3.6183020  71.8499760  95.6992090   4.2836870  72.4373100
  95.7631710   2.7866570  72.2212380  99.2590270   4.0767260  74.7339310
  98.9590410   4.2224440  73.8367130 100.0301510   3.5172550  74.6412700
 104.6018720   8.8736260  72.7294440 104.6163260   7.9417220  72.5113350
 103.8943820   8.9596020  73.3684210 109.7355790   3.0576080  58.9993050
 109.6519510   3.4890300  58.1489490 110.4549980   3.5174430  59.4319870
 110.7643040   9.9118340  61.7275180 110.1219200   9.2573960  62.0018900
 110.3773700  10.3173430  60.9515850 106.3429520   7.2403770  65.5746870
 106.6953340   6.6431900  64.9148240 105.4591850   6.9148000  65.7455120
 102.4292800   8.0001460  62.9817280 103.1163930   8.5470670  63.3624870
 101.6425220   8.5442190  63.0166890  94.5685200   3.6174280  58.4734360
  95.4380050   3.8999080  58.7570280  94.0775520   4.4310150  58.3583170
 101.7320010   5.0047490  62.5942640 102.1882790   5.8152740  62.8202830
 101.3808220   4.6870630  63.4261130 104.0352620  10.5153830  69.8234940
 104.6794840  10.7213210  70.5008360 104.3982060   9.7542230  69.3705790
 105.3084700   8.5186180  68.5412390 105.9506930   7.8179340  68.6544560
 105.8334050   9.2984620  68.3609280 109.1540420   8.8034800  58.2651530
 108.9278000   8.0865240  58.8576170 108.7636620   8.5547240  57.4273280
 107.0822320   9.3181080  71.7448450 107.4178560   9.9047770  72.4226370
 106.1622660   9.1873790  71.9746240  94.9356450  12.8301660  59.0395990
  95.2954090  13.4291000  58.3853260  94.7948790  13.3761550  59.8131020
 108.7356670   6.7206740  59.9265690 108.4478370   7.1819430  60.7143570
 109.5308840   6.2604510  60.1949910  94.9198310  11.0956520  73.5138390
  95.0289430  10.1551260  73.3733780  94.2678870  11.3611270  72.8652120
 100.9525070  10.2132860  59.8569660 100.9435170  10.9462550  59.2414170
 100.0323430   9.9664440  59.9496620  96.5531710   5.4347750  60.6016420
  95.9459660   6.1746650  60.6111720  97.0281060   5.5247110  59.7754620
 103.9384670  10.2761100  58.5194850 104.0396650  10.0725090  57.5896830
 103.0386410  10.0219380  58.7242630 103.0866490   2.2538160  70.5011280
 103.5851740   2.7283980  71.1663130 103.2289440   1.3301680  70.7081310
 102.5802780  12.7947420  63.2142520 102.8344280  12.7568810  62.2921890
 101.6315260  12.6680750  63.2070770 108.5855360   3.7139300  64.7901030
 107.6445500   3.7289530  64.9648720 108.8999430   2.9275260  65.2361330
  98.5637000   5.3958900  58.3504990  99.3300270   5.2840260  58.9130420
  98.6411690   4.6996870  57.6981760  97.2583760   2.8283970  59.0337880
  97.3387350   1.8811480  59.1455280  98.1503510   3.1590850  59.1398540
  98.0598470  12.9779360  66.1372420  98.7960950  12.4294820  66.4080990
  98.4439390  13.8435370  65.9978410  94.9443950   9.0452930  62.0113930
  94.0183730   9.2874070  62.0019340  95.4100380   9.8727190  61.8898680
 101.1700780  12.1509670  57.9597990 101.9629390  12.4398500  57.5079780
 100.6505130  11.7201840  57.2810470 107.3321750  11.9985590  73.8842820
 108.2843500  11.9143610  73.8343060 107.1849970  12.6627300  74.5576610
 110.2230950  11.3779800  59.3834730 109.9372460  10.9644940  58.5688910
 110.0250500  12.3067510  59.2635250  94.7854560   4.6498890  74.2694050
  95.2893580   4.0706170  74.8410280  94.0461980   4.9339120  74.8070420
 101.6878180   7.3713080  57.8240340 101.5828820   6.7565430  58.5501720
 101.5202400   6.8478970  57.0403350 101.8392500   6.0569880  73.8029570
 101.0738170   6.6254880  73.7184240 102.0208460   5.7646090  72.9097800
 104.9280910   6.4333110  58.4282330 104.3791010   6.8802410  59.0725070
 105.5500170   5.9282360  58.9520000 108.9815850   7.7875210  74.3604590
 109.7225320   8.1250970  73.8572050 108.2188530   7.9567270  73.8074360
 100.5956030   5.3924030  60.3247630 101.0172450   5.2263900  61.1679020
 100.7206870   4.5824260  59.8302770 103.1083670   4.4161640  57.5724730
 103.6289330   3.7010660  57.2065880 103.7552070   5.0547510  57.8725240
 107.6561510   5.8390040  72.8959800 108.0702530   5.9935120  73.7450220
 106.7212510   5.9645260  73.0585580 108.1283680   3.1786200  74.8998950
 108.7104450   2.4238520  74.8119430 108.3045450   3.7093640  74.1230430
 102.4176740   5.7910520  70.8655730 102.8364850   6.6343250  70.6931970
 101.4985370   5.9282560  70.6362510 104.7540640   3.5226700  72.2493570
 104.8736850   2.9267840  72.9888410 105.6134640   3.5596390  71.8294870
 107.0928540   4.0763890  70.8256080 106.5663760   4.6006510  70.2221220
 107.4359880   4.7091280  71.4565810 100.2684160  12.0963530  71.9813460
  99.7305250  12.8209590  71.6622160 100.5218120  11.6193870  71.1910800
 103.1246370  13.3314740  72.2400110 103.0505070  14.2349880  72.5472480
 102.2225210  13.0126640  72.2122180 103.6731700  12.4973250  59.8626470
 104.5682490  12.8358220  59.8845230 103.7049330  11.7752660  59.2350750
  97.3127860   7.8700300  58.0913470  97.7502730   8.4129970  58.7471050
  97.7975590   7.0447250  58.1009810  94.5273660  10.6589330  65.5433730
  94.8576670   9.7910390  65.3112370  94.9564660  10.8647850  66.3738690
  99.1235580   8.9898340  63.2035700  98.8231120   8.8663310  64.1039610
  99.0173070   8.1306930  62.7951430  95.0163870  11.5259920  68.2815360
  94.5794860  11.7060720  69.1139510  95.5841550  12.2834540  68.1397080
 110.6526050  11.0276920  72.5692670 110.0528040  11.0869480  71.8256590
 110.7819950  10.0881900  72.6989520  94.8488300   4.0380150  64.6404240
  94.1937140   3.7691790  63.9963940  95.6866250   3.9284630  64.1906220
 109.3377690   7.7528900  70.6668830 108.5237530   8.1826060  70.9294620
 109.7451890   8.3647310  70.0537880  95.8864230   4.4232720  69.1807580
  96.2537270   4.3360120  70.0603600  95.3175050   3.6599270  69.0814440
 110.6868090   2.8917100  72.1938050 110.4554180   2.6629850  71.2936000
 110.9472640   3.8116650  72.1482940 110.5719430   1.9703070  65.8605770
 111.0956910   1.4765720  65.2295940 111.1578850   2.1053430  66.6053340
 110.7509150   2.0542940  69.3825320 109.8011860   2.0206480  69.4970310
 110.9322160   2.9643050  69.1475090 109.3953740  12.5047500  64.1937100
 109.9912810  12.1832070  63.5171520 109.6531890  12.0319320  64.9850370
 101.0022340  10.4925000  69.9437450 100.7613700  10.7599560  69.0567970
 101.9424980  10.6630730  69.9988310  97.1404340  11.8827660  71.4625510
  96.5464660  11.7512360  72.2015550  97.1328180  11.0465800  70.9967610
 109.9465950  13.1542800  68.0234830 109.4868920  13.9058610  67.6492850
 109.3178410  12.4349270  67.9649630  96.7716570   9.2486040  70.4133550
  96.0450630   8.6291330  70.3459500  96.8325720   9.6426650  69.5431630
 100.3761670  11.4631040  67.1982960 100.8926690  10.8518400  66.6731220
 101.0259050  11.9659820  67.6893970 103.1157170  12.3539530  68.0251940
 103.4034980  12.0993830  67.1484950 103.6280390  11.8016890  68.6157510
  95.0546570  12.5660430  63.6230310  94.8868610  11.9331110  64.3212200
  94.1881080  12.7719830  63.2724500  96.6609270  11.2593660  61.0680450
  96.1356890  11.6401690  60.3642410  96.5853850  11.8844430  61.7890160
  99.2602240  13.2076040  59.9429700  99.9921060  12.9235320  59.3953590
  99.5195910  12.9689320  60.8329080  98.4217030   9.3240770  59.9476030
  97.7925910   9.7925870  60.4961860  98.5364860   8.4789990  60.3822220
 105.8766750   3.3746430  46.0977230 105.7960800   2.4601040  45.8268940
 105.4631170   3.8713500  45.3916940 104.0084790   5.1525450  47.9786500
 103.2326890   4.6725890  48.2685070 104.6597720   4.4731100  47.8042660
  98.0250620   5.4645260  48.8562260  97.1935500   5.2093970  49.2558770
  98.6331600   5.5356030  49.5920180 108.0292220   9.5585640  46.7585630
 107.5673750   8.7872880  47.0872800 108.8417770   9.5851710  47.2638080
  98.0051880   9.4985350  49.0520280  98.3079920   8.6083090  48.8730500
  98.7495470  10.0555570  48.8242530  94.3975580   3.0252800  48.5244350
  94.9691690   2.2575000  48.5247990  94.3977120   3.3241560  47.6150960
 104.2555530  11.8443650  46.3789620 103.6366970  12.3001150  45.8084060
 105.1107310  11.9995110  45.9779320 103.4493780   7.8282640  47.9856660
 103.3802060   6.8872580  47.8245790 104.2113640   7.9184050  48.5579230
 105.1218880   6.7282890  43.7721530 104.5036150   7.1932340  43.2084250
 105.6342130   7.4210370  44.1891040  99.9850640   6.2558760  50.4505130
  99.6520020   6.8827680  51.0926200 100.1617320   6.7820640  49.6706800
  99.1969740   8.2239560  52.2654310  99.8143740   8.8990640  51.9838760
  98.3362860   8.6327540  52.1741810  94.4902080   7.4139420  41.1461160
  94.1130060   7.9026520  40.4146060  94.7475150   8.0864700  41.7767690
 110.1147330   9.6878970  50.1808950 109.4310850  10.3578080  50.1725620
 110.6541620   9.8859620  49.4153810 107.6506070  11.5323100  48.8954130
 107.6633230  11.1285390  48.0276390 107.0981290  12.3070390  48.7915560
 108.9451490   8.2539320  43.9844300 108.8347820   7.3113650  44.1093720
 108.9419740   8.6154960  44.8707060 107.0491510   6.4352940  50.2236740
 107.4660300   6.2213050  49.3890200 107.7731330   6.6925730  50.7945360
 104.4871770   3.8804640  43.3406790 103.5601050   3.8142020  43.5695260
 104.6396590   4.8184770  43.2262030 108.5169060   5.4424940  43.8442040
 107.8981480   5.1044490  43.1968340 108.4993510   4.7984700  44.5521230
 100.0928410   4.4069380  46.1226520  99.6885410   3.6946630  45.6272420
 100.1791530   4.0622620  47.0114560 100.5610110   8.0936940  48.2865730
 100.2638400   7.4882410  47.6073510 101.5109930   8.1314250  48.1755090
 108.6495720  11.6668810  51.9488830 108.1726280  12.4741000  51.7561440
 107.9657510  11.0147140  52.1015040  99.6528540   7.8318630  54.9373530
  98.7557070   8.0558600  55.1846930  99.6781410   7.9553570  53.9884930
 106.6933760   4.6811750  40.8514790 107.1327040   3.8434180  40.7052610
 107.4062180   5.3141150  40.9378930  98.4799760   4.7031950  53.5130900
  98.3407530   5.5754750  53.8818300  97.5981120   4.3604760  53.3678840
 104.8029140   9.6207820  44.8196030 105.2425050  10.3632150  44.4051420
 104.7416030   9.8634390  45.7434990 100.2780110  10.6453650  55.7216050
 100.2495540  11.0496600  54.8544480 100.1145080   9.7164010  55.5587650
  96.7933040   3.3014360  43.6233170  96.6730640   4.0276450  43.0114440
  96.4833930   2.5317270  43.1461080  94.4318410   6.4729500  49.4301810
  94.5098830   6.6078270  48.4857530  95.0460090   5.7645390  49.6229930
  95.6766040   8.1729690  45.8407990  95.2694120   8.3144280  44.9861590
  96.5679050   7.8889850  45.6379200 105.4944920  12.3221600  52.7475040
 106.0089590  12.2329610  53.5497470 104.6514000  12.6681300  53.0402950
 107.4699320  12.6076940  42.1759040 107.3100460  12.3179880  43.0740870
 107.3046030  11.8317070  41.6404270  99.9487700  12.3875470  43.9530660
  99.7730180  11.4711010  43.7398460  99.0943440  12.7462760  44.1928460
 107.1725450  10.1164500  40.7357040 106.4790610  10.1141790  40.0759320
 107.9148310   9.6923820  40.3051210 106.7375380  11.7427210  44.8105530
 107.1932330  10.9616590  45.1244150 107.0767900  12.4534030  45.3546710
  94.4877930   7.5143670  51.9696270  94.6508970   7.0449030  51.1515640
  94.9530380   7.0067230  52.6345110 105.6420730   2.2328650  55.8387610
 105.9674140   1.3992400  55.4989840 106.4301060   2.7557170  55.9865940
  99.0510920   1.7683000  44.7338090  98.8251840   1.5520170  45.6384710
  98.2703450   2.2011460  44.3884060 106.2808680   1.7746370  43.3328740
 105.6817570   2.4982170  43.1492360 106.8288290   1.7123150  42.5505190
 101.4910130   2.6668580  55.3998360 101.3953730   1.7263310  55.2498760
 102.3342110   2.8883650  55.0046430 105.4728690   3.0015660  49.4582800
 104.7409810   3.5102470  49.8072900 105.0753030   2.1845640  49.1571580
 100.9847730   2.9883080  40.2525350 100.4164630   2.5401330  39.6261260
 101.6936730   3.3475860  39.7190500  96.0616910   6.8895100  54.1292080
  95.6771700   6.2488770  54.7275040  96.3729100   7.5931220  54.6986810
 102.2114050   3.7371640  49.6100700 102.5784180   3.2630210  50.3562040
 102.0219110   4.6113210  49.9509040 100.0013420   2.7780280  51.9284910
  99.6970490   3.6572260  52.1535270 100.9559880   2.8380070  51.9642350
  98.5295210   6.9841270  42.5251760  97.7557470   6.4438890  42.3650480
  99.2589840   6.4647880  42.1869520 109.2883190   5.9806630  48.3178150
 110.0082310   6.4761920  47.9274260 109.0865010   5.3024520  47.6732020
 104.6701990   6.0515690  54.2047150 104.6039300   5.1311360  53.9504740
 104.0407130   6.1491130  54.9191790  98.5732610   6.6521650  46.1630570
  99.0911280   5.8489910  46.1087460  98.1216630   6.5900790  47.0047400
 103.4602110   7.9187930  41.4357870 103.8017810   8.6630160  40.9401190
 102.6314820   8.2319050  41.7982700  96.0577150   3.6183020  53.0756270
  95.6992090   4.2836870  53.6629610  95.7631710   2.7866570  53.4468890
  99.2590270   4.0767260  55.9595820  98.9590410   4.2224440  55.0623640
 100.0301510   3.5172550  55.8669210 104.6018720   8.8736260  53.9550950
 104.6163260   7.9417220  53.7369860 103.8943820   8.9596020  54.5940720
 109.7355790   3.0576080  40.2249560 109.6519510   3.4890300  39.3746000
 110.4549980   3.5174430  40.6576380 110.7643040   9.9118340  42.9531690
 110.1219200   9.2573960  43.2275410 110.3773700  10.3173430  42.1772360
 106.3429520   7.2403770  46.8003380 106.6953340   6.6431900  46.1404750
 105.4591850   6.9148000  46.9711630 102.4292800   8.0001460  44.2073790
 103.1163930   8.5470670  44.5881380 101.6425220   8.5442190  44.2423400
  94.5685200   3.6174280  39.6990870  95.4380050   3.8999080  39.9826790
  94.0775520   4.4310150  39.5839680 101.7320010   5.0047490  43.8199150
 102.1882790   5.8152740  44.0459340 101.3808220   4.6870630  44.6517640
 104.0352620  10.5153830  51.0491450 104.6794840  10.7213210  51.7264870
 104.3982060   9.7542230  50.5962300 105.3084700   8.5186180  49.7668900
 105.9506930   7.8179340  49.8801070 105.8334050   9.2984620  49.5865790
 109.1540420   8.8034800  39.4908040 108.9278000   8.0865240  40.0832680
 108.7636620   8.5547240  38.6529790 107.0822320   9.3181080  52.9704960
 107.4178560   9.9047770  53.6482880 106.1622660   9.1873790  53.2002750
  94.9356450  12.8301660  40.2652500  95.2954090  13.4291000  39.6109770
  94.7948790  13.3761550  41.0387530 108.7356670   6.7206740  41.1522200
 108.4478370   7.1819430  41.9400080 109.5308840   6.2604510  41.4206420
  94.9198310  11.0956520  54.7394900  95.0289430  10.1551260  54.5990290
  94.2678870  11.3611270  54.0908630 102.9110900   9.3672410  56.1393020
 102.5907770   8.6481650  56.6838710 102.2369260  10.0427480  56.2129080
 100.9525070  10.2132860  41.0826170 100.9435170  10.9462550  40.4670680
 100.0323430   9.9664440  41.1753130  96.5531710   5.4347750  41.8272930
  95.9459660   6.1746650  41.8368230  97.0281060   5.5247110  41.0011130
 103.9384670  10.2761100  39.7451360 104.0396650  10.0725090  38.8153340
 103.0386410  10.0219380  39.9499140 103.0866490   2.2538160  51.7267790
 103.5851740   2.7283980  52.3919640 103.2289440   1.3301680  51.9337820
 102.5802780  12.7947420  44.4399030 102.8344280  12.7568810  43.5178400
 101.6315260  12.6680750  44.4327280 108.5855360   3.7139300  46.0157540
 107.6445500   3.7289530  46.1905230 108.8999430   2.9275260  46.4617840
  98.5637000   5.3958900  39.5761500  99.3300270   5.2840260  40.1386930
  98.6411690   4.6996870  38.9238270  97.2583760   2.8283970  40.2594390
  97.3387350   1.8811480  40.3711790  98.1503510   3.1590850  40.3655050
  98.0598470  12.9779360  47.3628930  98.7960950  12.4294820  47.6337500
  98.4439390  13.8435370  47.2234920  94.9443950   9.0452930  43.2370440
  94.0183730   9.2874070  43.2275850  95.4100380   9.8727190  43.1155190
  97.0656750  12.1625430  56.5514510  97.8669480  12.4837480  56.9649910
  96.5508570  11.8021010  57.2734420 101.1700780  12.1509670  39.1854500
 101.9629390  12.4398500  38.7336290 100.6505130  11.7201840  38.5066980
 105.9021380   8.2705300  56.4989920 105.2959540   8.2936900  55.7585670
 105.5975490   7.5388340  57.0357170 107.3321750  11.9985590  55.1099330
 108.2843500  11.9143610  55.0599570 107.1849970  12.6627300  55.7833120
 110.2230950  11.3779800  40.6091240 109.9372460  10.9644940  39.7945420
 110.0250500  12.3067510  40.4891760  94.7854560   4.6498890  55.4950560
  95.2893580   4.0706170  56.0666790  94.0461980   4.9339120  56.0326930
 101.6878180   7.3713080  39.0496850 101.5828820   6.7565430  39.7758230
 101.5202400   6.8478970  38.2659860 101.8392500   6.0569880  55.0286080
 101.0738170   6.6254880  54.9440750 102.0208460   5.7646090  54.1354310
 104.9280910   6.4333110  39.6538840 104.3791010   6.8802410  40.2981580
 105.5500170   5.9282360  40.1776510 108.9815850   7.7875210  55.5861100
 109.7225320   8.1250970  55.0828560 108.2188530   7.9567270  55.0330870
  96.8177640   2.7928480  56.3900630  96.8582980   2.4942350  57.2985860
  97.6723140   3.1936090  56.2308150 100.5956030   5.3924030  41.5504140
 101.0172450   5.2263900  42.3935530 100.7206870   4.5824260  41.0559280
 103.1083670   4.4161640  38.7981240 103.6289330   3.7010660  38.4322390
 103.7552070   5.0547510  39.0981750 107.6561510   5.8390040  54.1216310
 108.0702530   5.9935120  54.9706730 106.7212510   5.9645260  54.2842090
 108.1283680   3.1786200  56.1255460 108.7104450   2.4238520  56.0375940
 108.3045450   3.7093640  55.3486940 102.4176740   5.7910520  52.0912240
 102.8364850   6.6343250  51.9188480 101.4985370   5.9282560  51.8619020
 104.7540640   3.5226700  53.4750080 104.8736850   2.9267840  54.2144920
 105.6134640   3.5596390  53.0551380 107.0928540   4.0763890  52.0512590
 106.5663760   4.6006510  51.4477730 107.4359880   4.7091280  52.6822320
 100.2684160  12.0963530  53.2069970  99.7305250  12.8209590  52.8878670
 100.5218120  11.6193870  52.4167310 103.1246370  13.3314740  53.4656620
 103.0505070  14.2349880  53.7728990 102.2225210  13.0126640  53.4378690
 103.6731700  12.4973250  41.0882980 104.5682490  12.8358220  41.1101740
 103.7049330  11.7752660  40.4607260  97.3127860   7.8700300  39.3169980
  97.7502730   8.4129970  39.9727560  97.7975590   7.0447250  39.3266320
  94.5273660  10.6589330  46.7690240  94.8576670   9.7910390  46.5368880
  94.9564660  10.8647850  47.5995200  99.1235580   8.9898340  44.4292210
  98.8231120   8.8663310  45.3296120  99.0173070   8.1306930  44.0207940
  95.0163870  11.5259920  49.5071870  94.5794860  11.7060720  50.3396020
  95.5841550  12.2834540  49.3653590 110.6526050  11.0276920  53.7949180
 110.0528040  11.0869480  53.0513100 110.7819950  10.0881900  53.9246030
  94.8488300   4.0380150  45.8660750  94.1937140   3.7691790  45.2220450
  95.6866250   3.9284630  45.4162730 109.3377690   7.7528900  51.8925340
 108.5237530   8.1826060  52.1551130 109.7451890   8.3647310  51.2794390
  95.8864230   4.4232720  50.4064090  96.2537270   4.3360120  51.2860110
  95.3175050   3.6599270  50.3070950 110.6868090   2.8917100  53.4194560
 110.4554180   2.6629850  52.5192510 110.9472640   3.8116650  53.3739450
 110.5719430   1.9703070  47.0862280 111.0956910   1.4765720  46.4552450
 111.1578850   2.1053430  47.8309850 110.7509150   2.0542940  50.6081830
 109.8011860   2.0206480  50.7226820 110.9322160   2.9643050  50.3731600
 109.3953740  12.5047500  45.4193610 109.9912810  12.1832070  44.7428030
 109.6531890  12.0319320  46.2106880  97.3016310   8.9365410  55.5684240
  97.2585940   8.5658320  56.4498700  97.4327320   9.8742980  55.7086060
 101.0022340  10.4925000  51.1693960 100.7613700  10.7599560  50.2824480
 101.9424980  10.6630730  51.2244820  97.1404340  11.8827660  52.6882020
  96.5464660  11.7512360  53.4272060  97.1328180  11.0465800  52.2224120
 109.9465950  13.1542800  49.2491340 109.4868920  13.9058610  48.8749360
 109.3178410  12.4349270  49.1906140  96.7716570   9.2486040  51.6390060
  96.0450630   8.6291330  51.5716010  96.8325720   9.6426650  50.7688140
 100.3761670  11.4631040  48.4239470 100.8926690  10.8518400  47.8987730
 101.0259050  11.9659820  48.9150480 103.1157170  12.3539530  49.2508450
 103.4034980  12.0993830  48.3741460 103.6280390  11.8016890  49.8414020
  95.0546570  12.5660430  44.8486820  94.8868610  11.9331110  45.5468710
  94.1881080  12.7719830  44.4981010  96.6609270  11.2593660  42.2936960
  96.1356890  11.6401690  41.5898920  96.5853850  11.8844430  43.0146670
 103.1829530  13.2755630  56.6176650 104.1096840  13.0399900  56.6612610
 103.1679960  14.1027630  56.1362680  99.2602240  13.2076040  41.1686210
  99.9921060  12.9235320  40.6210100  99.5195910  12.9689320  42.0585590
  98.4217030   9.3240770  41.1732540  97.7925910   9.7925870  41.7218370
  98.5364860   8.4789990  41.6078730 109.7507090  12.5025490  56.4417690
 110.5432410  12.0074720  56.2343650 110.0440240  13.1815630  57.0493300
 105.8766750   3.3746430  27.3233740 105.7960800   2.4601040  27.0525450
 105.4631170   3.8713500  26.6173450 104.0084790   5.1525450  29.2043010
 103.2326890   4.6725890  29.4941580 104.6597720   4.4731100  29.0299170
  98.0250620   5.4645260  30.0818770  97.1935500   5.2093970  30.4815280
  98.6331600   5.5356030  30.8176690 108.0292220   9.5585640  27.9842140
 107.5673750   8.7872880  28.3129310 108.8417770   9.5851710  28.4894590
  98.0051880   9.4985350  30.2776790  98.3079920   8.6083090  30.0987010
  98.7495470  10.0555570  30.0499040  94.3975580   3.0252800  29.7500860
  94.9691690   2.2575000  29.7504500  94.3977120   3.3241560  28.8407470
 104.2555530  11.8443650  27.6046130 103.6366970  12.3001150  27.0340570
 105.1107310  11.9995110  27.2035830 103.4493780   7.8282640  29.2113170
 103.3802060   6.8872580  29.0502300 104.2113640   7.9184050  29.7835740
 105.1218880   6.7282890  24.9978040 104.5036150   7.1932340  24.4340760
 105.6342130   7.4210370  25.4147550  99.9850640   6.2558760  31.6761640
  99.6520020   6.8827680  32.3182710 100.1617320   6.7820640  30.8963310
  99.1969740   8.2239560  33.4910820  99.8143740   8.8990640  33.2095270
  98.3362860   8.6327540  33.3998320  94.4902080   7.4139420  22.3717670
  94.1130060   7.9026520  21.6402570  94.7475150   8.0864700  23.0024200
 110.1147330   9.6878970  31.4065460 109.4310850  10.3578080  31.3982130
 110.6541620   9.8859620  30.6410320 107.6506070  11.5323100  30.1210640
 107.6633230  11.1285390  29.2532900 107.0981290  12.3070390  30.0172070
 108.9451490   8.2539320  25.2100810 108.8347820   7.3113650  25.3350230
 108.9419740   8.6154960  26.0963570 107.0491510   6.4352940  31.4493250
 107.4660300   6.2213050  30.6146710 107.7731330   6.6925730  32.0201870
 104.4871770   3.8804640  24.5663300 103.5601050   3.8142020  24.7951770
 104.6396590   4.8184770  24.4518540 108.5169060   5.4424940  25.0698550
 107.8981480   5.1044490  24.4224850 108.4993510   4.7984700  25.7777740
 100.0928410   4.4069380  27.3483030  99.6885410   3.6946630  26.8528930
 100.1791530   4.0622620  28.2371070 100.5610110   8.0936940  29.5122240
 100.2638400   7.4882410  28.8330020 101.5109930   8.1314250  29.4011600
 108.6495720  11.6668810  33.1745340 108.1726280  12.4741000  32.9817950
 107.9657510  11.0147140  33.3271550  99.6528540   7.8318630  36.1630040
  98.7557070   8.0558600  36.4103440  99.6781410   7.9553570  35.2141440
 106.6933760   4.6811750  22.0771300 107.1327040   3.8434180  21.9309120
 107.4062180   5.3141150  22.1635440  98.4799760   4.7031950  34.7387410
  98.3407530   5.5754750  35.1074810  97.5981120   4.3604760  34.5935350
 104.8029140   9.6207820  26.0452540 105.2425050  10.3632150  25.6307930
 104.7416030   9.8634390  26.9691500 100.2780110  10.6453650  36.9472560
 100.2495540  11.0496600  36.0800990 100.1145080   9.7164010  36.7844160
  96.7933040   3.3014360  24.8489680  96.6730640   4.0276450  24.2370950
  96.4833930   2.5317270  24.3717590  94.4318410   6.4729500  30.6558320
  94.5098830   6.6078270  29.7114040  95.0460090   5.7645390  30.8486440
  95.6766040   8.1729690  27.0664500  95.2694120   8.3144280  26.2118100
  96.5679050   7.8889850  26.8635710 105.4944920  12.3221600  33.9731550
 106.0089590  12.2329610  34.7753980 104.6514000  12.6681300  34.2659460
 107.4699320  12.6076940  23.4015550 107.3100460  12.3179880  24.2997380
 107.3046030  11.8317070  22.8660780  99.9487700  12.3875470  25.1787170
  99.7730180  11.4711010  24.9654970  99.0943440  12.7462760  25.4184970
 107.1725450  10.1164500  21.9613550 106.4790610  10.1141790  21.3015830
 107.9148310   9.6923820  21.5307720 106.7375380  11.7427210  26.0362040
 107.1932330  10.9616590  26.3500660 107.0767900  12.4534030  26.5803220
  94.4877930   7.5143670  33.1952780  94.6508970   7.0449030  32.3772150
  94.9530380   7.0067230  33.8601620 105.6420730   2.2328650  37.0644120
 105.9674140   1.3992400  36.7246350 106.4301060   2.7557170  37.2122450
  99.0510920   1.7683000  25.9594600  98.8251840   1.5520170  26.8641220
  98.2703450   2.2011460  25.6140570 106.2808680   1.7746370  24.5585250
 105.6817570   2.4982170  24.3748870 106.8288290   1.7123150  23.7761700
 101.4910130   2.6668580  36.6254870 101.3953730   1.7263310  36.4755270
 102.3342110   2.8883650  36.2302940 105.4728690   3.0015660  30.6839310
 104.7409810   3.5102470  31.0329410 105.0753030   2.1845640  30.3828090
 100.9847730   2.9883080  21.4781860 100.4164630   2.5401330  20.8517770
 101.6936730   3.3475860  20.9447010  96.0616910   6.8895100  35.3548590
  95.6771700   6.2488770  35.9531550  96.3729100   7.5931220  35.9243320
 102.2114050   3.7371640  30.8357210 102.5784180   3.2630210  31.5818550
 102.0219110   4.6113210  31.1765550 100.0013420   2.7780280  33.1541420
  99.6970490   3.6572260  33.3791780 100.9559880   2.8380070  33.1898860
  98.5295210   6.9841270  23.7508270  97.7557470   6.4438890  23.5906990
  99.2589840   6.4647880  23.4126030 109.2883190   5.9806630  29.5434660
 110.0082310   6.4761920  29.1530770 109.0865010   5.3024520  28.8988530
 104.6701990   6.0515690  35.4303660 104.6039300   5.1311360  35.1761250
 104.0407130   6.1491130  36.1448300  98.5732610   6.6521650  27.3887080
  99.0911280   5.8489910  27.3343970  98.1216630   6.5900790  28.2303910
 103.4602110   7.9187930  22.6614380 103.8017810   8.6630160  22.1657700
 102.6314820   8.2319050  23.0239210  96.0577150   3.6183020  34.3012780
  95.6992090   4.2836870  34.8886120  95.7631710   2.7866570  34.6725400
  99.2590270   4.0767260  37.1852330  98.9590410   4.2224440  36.2880150
 100.0301510   3.5172550  37.0925720 104.6018720   8.8736260  35.1807460
 104.6163260   7.9417220  34.9626370 103.8943820   8.9596020  35.8197230
 109.7355790   3.0576080  21.4506070 109.6519510   3.4890300  20.6002510
 110.4549980   3.5174430  21.8832890 110.7643040   9.9118340  24.1788200
 110.1219200   9.2573960  24.4531920 110.3773700  10.3173430  23.4028870
 106.3429520   7.2403770  28.0259890 106.6953340   6.6431900  27.3661260
 105.4591850   6.9148000  28.1968140 102.4292800   8.0001460  25.4330300
 103.1163930   8.5470670  25.8137890 101.6425220   8.5442190  25.4679910
  94.5685200   3.6174280  20.9247380  95.4380050   3.8999080  21.2083300
  94.0775520   4.4310150  20.8096190 101.7320010   5.0047490  25.0455660
 102.1882790   5.8152740  25.2715850 101.3808220   4.6870630  25.8774150
 104.0352620  10.5153830  32.2747960 104.6794840  10.7213210  32.9521380
 104.3982060   9.7542230  31.8218810 105.3084700   8.5186180  30.9925410
 105.9506930   7.8179340  31.1057580 105.8334050   9.2984620  30.8122300
 109.1540420   8.8034800  20.7164550 108.9278000   8.0865240  21.3089190
 108.7636620   8.5547240  19.8786300 107.0822320   9.3181080  34.1961470
 107.4178560   9.9047770  34.8739390 106.1622660   9.1873790  34.4259260
  94.9356450  12.8301660  21.4909010  95.2954090  13.4291000  20.8366280
  94.7948790  13.3761550  22.2644040 108.7356670   6.7206740  22.3778710
 108.4478370   7.1819430  23.1656590 109.5308840   6.2604510  22.6462930
  94.9198310  11.0956520  35.9651410  95.0289430  10.1551260  35.8246800
  94.2678870  11.3611270  35.3165140 102.9110900   9.3672410  37.3649530
 102.5907770   8.6481650  37.9095220 102.2369260  10.0427480  37.4385590
 100.9525070  10.2132860  22.3082680 100.9435170  10.9462550  21.6927190
 100.0323430   9.9664440  22.4009640  96.5531710   5.4347750  23.0529440
  95.9459660   6.1746650  23.0624740  97.0281060   5.5247110  22.2267640
 103.9384670  10.2761100  20.9707870 104.0396650  10.0725090  20.0409850
 103.0386410  10.0219380  21.1755650 103.0866490   2.2538160  32.9524300
 103.5851740   2.7283980  33.6176150 103.2289440   1.3301680  33.1594330
 102.5802780  12.7947420  25.6655540 102.8344280  12.7568810  24.7434910
 101.6315260  12.6680750  25.6583790 108.5855360   3.7139300  27.2414050
 107.6445500   3.7289530  27.4161740 108.8999430   2.9275260  27.6874350
  98.5637000   5.3958900  20.8018010  99.3300270   5.2840260  21.3643440
  98.6411690   4.6996870  20.1494780  97.2583760   2.8283970  21.4850900
  97.3387350   1.8811480  21.5968300  98.1503510   3.1590850  21.5911560
  98.0598470  12.9779360  28.5885440  98.7960950  12.4294820  28.8594010
  98.4439390  13.8435370  28.4491430  94.9443950   9.0452930  24.4626950
  94.0183730   9.2874070  24.4532360  95.4100380   9.8727190  24.3411700
  97.0656750  12.1625430  37.7771020  97.8669480  12.4837480  38.1906420
  96.5508570  11.8021010  38.4990930 101.1700780  12.1509670  20.4111010
 101.9629390  12.4398500  19.9592800 100.6505130  11.7201840  19.7323490
 105.9021380   8.2705300  37.7246430 105.2959540   8.2936900  36.9842180
 105.5975490   7.5388340  38.2613680 107.3321750  11.9985590  36.3355840
 108.2843500  11.9143610  36.2856080 107.1849970  12.6627300  37.0089630
 110.2230950  11.3779800  21.8347750 109.9372460  10.9644940  21.0201930
 110.0250500  12.3067510  21.7148270  94.7854560   4.6498890  36.7207070
  95.2893580   4.0706170  37.2923300  94.0461980   4.9339120  37.2583440
 101.6878180   7.3713080  20.2753360 101.5828820   6.7565430  21.0014740
 101.5202400   6.8478970  19.4916370 101.8392500   6.0569880  36.2542590
 101.0738170   6.6254880  36.1697260 102.0208460   5.7646090  35.3610820
 104.9280910   6.4333110  20.8795350 104.3791010   6.8802410  21.5238090
 105.5500170   5.9282360  21.4033020 108.9815850   7.7875210  36.8117610
 109.7225320   8.1250970  36.3085070 108.2188530   7.9567270  36.2587380
  96.8177640   2.7928480  37.6157140  96.8582980   2.4942350  38.5242370
  97.6723140   3.1936090  37.4564660 100.5956030   5.3924030  22.7760650
 101.0172450   5.2263900  23.6192040 100.7206870   4.5824260  22.2815790
 103.1083670   4.4161640  20.0237750 103.6289330   3.7010660  19.6578900
 103.7552070   5.0547510  20.3238260 107.6561510   5.8390040  35.3472820
 108.0702530   5.9935120  36.1963240 106.7212510   5.9645260  35.5098600
 108.1283680   3.1786200  37.3511970 108.7104450   2.4238520  37.2632450
 108.3045450   3.7093640  36.5743450 102.4176740   5.7910520  33.3168750
 102.8364850   6.6343250  33.1444990 101.4985370   5.9282560  33.0875530
 104.7540640   3.5226700  34.7006590 104.8736850   2.9267840  35.4401430
 105.6134640   3.5596390  34.2807890 107.0928540   4.0763890  33.2769100
 106.5663760   4.6006510  32.6734240 107.4359880   4.7091280  33.9078830
 100.2684160  12.0963530  34.4326480  99.7305250  12.8209590  34.1135180
 100.5218120  11.6193870  33.6423820 103.1246370  13.3314740  34.6913130
 103.0505070  14.2349880  34.9985500 102.2225210  13.0126640  34.6635200
 103.6731700  12.4973250  22.3139490 104.5682490  12.8358220  22.3358250
 103.7049330  11.7752660  21.6863770  97.3127860   7.8700300  20.5426490
  97.7502730   8.4129970  21.1984070  97.7975590   7.0447250  20.5522830
  94.5273660  10.6589330  27.9946750  94.8576670   9.7910390  27.7625390
  94.9564660  10.8647850  28.8251710  99.1235580   8.9898340  25.6548720
  98.8231120   8.8663310  26.5552630  99.0173070   8.1306930  25.2464450
  95.0163870  11.5259920  30.7328380  94.5794860  11.7060720  31.5652530
  95.5841550  12.2834540  30.5910100 110.6526050  11.0276920  35.0205690
 110.0528040  11.0869480  34.2769610 110.7819950  10.0881900  35.1502540
  94.8488300   4.0380150  27.0917260  94.1937140   3.7691790  26.4476960
  95.6866250   3.9284630  26.6419240 109.3377690   7.7528900  33.1181850
 108.5237530   8.1826060  33.3807640 109.7451890   8.3647310  32.5050900
  95.8864230   4.4232720  31.6320600  96.2537270   4.3360120  32.5116620
  95.3175050   3.6599270  31.5327460 110.6868090   2.8917100  34.6451070
 110.4554180   2.6629850  33.7449020 110.9472640   3.8116650  34.5995960
 110.5719430   1.9703070  28.3118790 111.0956910   1.4765720  27.6808960
 111.1578850   2.1053430  29.0566360 110.7509150   2.0542940  31.8338340
 109.8011860   2.0206480  31.9483330 110.9322160   2.9643050  31.5988110
 109.3953740  12.5047500  26.6450120 109.9912810  12.1832070  25.9684540
 109.6531890  12.0319320  27.4363390  97.3016310   8.9365410  36.7940750
  97.2585940   8.5658320  37.6755210  97.4327320   9.8742980  36.9342570
 101.0022340  10.4925000  32.3950470 100.7613700  10.7599560  31.5080990
 101.9424980  10.6630730  32.4501330  97.1404340  11.8827660  33.9138530
  96.5464660  11.7512360  34.6528570  97.1328180  11.0465800  33.4480630
 109.9465950  13.1542800  30.4747850 109.4868920  13.9058610  30.1005870
 109.3178410  12.4349270  30.4162650  96.7716570   9.2486040  32.8646570
  96.0450630   8.6291330  32.7972520  96.8325720   9.6426650  31.9944650
 100.3761670  11.4631040  29.6495980 100.8926690  10.8518400  29.1244240
 101.0259050  11.9659820  30.1406990 103.1157170  12.3539530  30.4764960
 103.4034980  12.0993830  29.5997970 103.6280390  11.8016890  31.0670530
  95.0546570  12.5660430  26.0743330  94.8868610  11.9331110  26.7725220
  94.1881080  12.7719830  25.7237520  96.6609270  11.2593660  23.5193470
  96.1356890  11.6401690  22.8155430  96.5853850  11.8844430  24.2403180
 103.1829530  13.2755630  37.8433160 104.1096840  13.0399900  37.8869120
 103.1679960  14.1027630  37.3619190  99.2602240  13.2076040  22.3942720
  99.9921060  12.9235320  21.8466610  99.5195910  12.9689320  23.2842100
  98.4217030   9.3240770  22.3989050  97.7925910   9.7925870  22.9474880
  98.5364860   8.4789990  22.8335240 109.7507090  12.5025490  37.6674200
 110.5432410  12.0074720  37.4600160 110.0440240  13.1815630  38.2749810
 105.8766750   3.3746430   8.5490250 105.7960800   2.4601040   8.2781960
 105.4631170   3.8713500   7.8429960 104.0084790   5.1525450  10.4299520
 103.2326890   4.6725890  10.7198090 104.6597720   4.4731100  10.2555680
  98.0250620   5.4645260  11.3075280  97.1935500   5.2093970  11.7071790
  98.6331600   5.5356030  12.0433200 108.0292220   9.5585640   9.2098650
 107.5673750   8.7872880   9.5385820 108.8417770   9.5851710   9.7151100
  98.0051880   9.4985350  11.5033300  98.3079920   8.6083090  11.3243520
  98.7495470  10.0555570  11.2755550  94.3975580   3.0252800  10.9757370
  94.9691690   2.2575000  10.9761010  94.3977120   3.3241560  10.0663980
 104.2555530  11.8443650   8.8302640 103.6366970  12.3001150   8.2597080
 105.1107310  11.9995110   8.4292340 103.4493780   7.8282640  10.4369680
 103.3802060   6.8872580  10.2758810 104.2113640   7.9184050  11.0092250
 105.1218880   6.7282890   6.2234550 104.5036150   7.1932340   5.6597270
 105.6342130   7.4210370   6.6404060  99.9850640   6.2558760  12.9018150
  99.6520020   6.8827680  13.5439220 100.1617320   6.7820640  12.1219820
  99.1969740   8.2239560  14.7167330  99.8143740   8.8990640  14.4351780
  98.3362860   8.6327540  14.6254830  94.4902080   7.4139420   3.5974180
  94.1130060   7.9026520   2.8659080  94.7475150   8.0864700   4.2280710
 110.1147330   9.6878970  12.6321970 109.4310850  10.3578080  12.6238640
 110.6541620   9.8859620  11.8666830 107.6506070  11.5323100  11.3467150
 107.6633230  11.1285390  10.4789410 107.0981290  12.3070390  11.2428580
 108.9451490   8.2539320   6.4357320 108.8347820   7.3113650   6.5606740
 108.9419740   8.6154960   7.3220080 107.0491510   6.4352940  12.6749760
 107.4660300   6.2213050  11.8403220 107.7731330   6.6925730  13.2458380
 104.4871770   3.8804640   5.7919810 103.5601050   3.8142020   6.0208280
 104.6396590   4.8184770   5.6775050 108.5169060   5.4424940   6.2955060
 107.8981480   5.1044490   5.6481360 108.4993510   4.7984700   7.0034250
 100.0928410   4.4069380   8.5739540  99.6885410   3.6946630   8.0785440
 100.1791530   4.0622620   9.4627580 100.5610110   8.0936940  10.7378750
 100.2638400   7.4882410  10.0586530 101.5109930   8.1314250  10.6268110
 108.6495720  11.6668810  14.4001850 108.1726280  12.4741000  14.2074460
 107.9657510  11.0147140  14.5528060  99.6528540   7.8318630  17.3886550
  98.7557070   8.0558600  17.6359950  99.6781410   7.9553570  16.4397950
 106.6933760   4.6811750   3.3027810 107.1327040   3.8434180   3.1565630
 107.4062180   5.3141150   3.3891950  98.4799760   4.7031950  15.9643920
  98.3407530   5.5754750  16.3331320  97.5981120   4.3604760  15.8191860
 104.8029140   9.6207820   7.2709050 105.2425050  10.3632150   6.8564440
 104.7416030   9.8634390   8.1948010 100.2780110  10.6453650  18.1729070
 100.2495540  11.0496600  17.3057500 100.1145080   9.7164010  18.0100670
  96.7933040   3.3014360   6.0746190  96.6730640   4.0276450   5.4627460
  96.4833930   2.5317270   5.5974100  94.4318410   6.4729500  11.8814830
  94.5098830   6.6078270  10.9370550  95.0460090   5.7645390  12.0742950
  95.6766040   8.1729690   8.2921010  95.2694120   8.3144280   7.4374610
  96.5679050   7.8889850   8.0892220 105.4944920  12.3221600  15.1988060
 106.0089590  12.2329610  16.0010490 104.6514000  12.6681300  15.4915970
 107.4699320  12.6076940   4.6272060 107.3100460  12.3179880   5.5253890
 107.3046030  11.8317070   4.0917290  99.9487700  12.3875470   6.4043680
  99.7730180  11.4711010   6.1911480  99.0943440  12.7462760   6.6441480
 107.1725450  10.1164500   3.1870060 106.4790610  10.1141790   2.5272340
 107.9148310   9.6923820   2.7564230 106.7375380  11.7427210   7.2618550
 107.1932330  10.9616590   7.5757170 107.0767900  12.4534030   7.8059730
  94.4877930   7.5143670  14.4209290  94.6508970   7.0449030  13.6028660
  94.9530380   7.0067230  15.0858130 105.6420730   2.2328650  18.2900630
 105.9674140   1.3992400  17.9502860 106.4301060   2.7557170  18.4378960
  99.0510920   1.7683000   7.1851110  98.8251840   1.5520170   8.0897730
  98.2703450   2.2011460   6.8397080 106.2808680   1.7746370   5.7841760
 105.6817570   2.4982170   5.6005380 106.8288290   1.7123150   5.0018210
 101.4910130   2.6668580  17.8511380 101.3953730   1.7263310  17.7011780
 102.3342110   2.8883650  17.4559450 105.4728690   3.0015660  11.9095820
 104.7409810   3.5102470  12.2585920 105.0753030   2.1845640  11.6084600
 100.9847730   2.9883080   2.7038370 100.4164630   2.5401330   2.0774280
 101.6936730   3.3475860   2.1703520  96.0616910   6.8895100  16.5805100
  95.6771700   6.2488770  17.1788060  96.3729100   7.5931220  17.1499830
 102.2114050   3.7371640  12.0613720 102.5784180   3.2630210  12.8075060
 102.0219110   4.6113210  12.4022060 100.0013420   2.7780280  14.3797930
  99.6970490   3.6572260  14.6048290 100.9559880   2.8380070  14.4155370
  98.5295210   6.9841270   4.9764780  97.7557470   6.4438890   4.8163500
  99.2589840   6.4647880   4.6382540 109.2883190   5.9806630  10.7691170
 110.0082310   6.4761920  10.3787280 109.0865010   5.3024520  10.1245040
 104.6701990   6.0515690  16.6560170 104.6039300   5.1311360  16.4017760
 104.0407130   6.1491130  17.3704810  98.5732610   6.6521650   8.6143590
  99.0911280   5.8489910   8.5600480  98.1216630   6.5900790   9.4560420
 103.4602110   7.9187930   3.8870890 103.8017810   8.6630160   3.3914210
 102.6314820   8.2319050   4.2495720  96.0577150   3.6183020  15.5269290
  95.6992090   4.2836870  16.1142630  95.7631710   2.7866570  15.8981910
  99.2590270   4.0767260  18.4108840  98.9590410   4.2224440  17.5136660
 100.0301510   3.5172550  18.3182230 104.6018720   8.8736260  16.4063970
 104.6163260   7.9417220  16.1882880 103.8943820   8.9596020  17.0453740
 109.7355790   3.0576080   2.6762580 109.6519510   3.4890300   1.8259020
 110.4549980   3.5174430   3.1089400 110.7643040   9.9118340   5.4044710
 110.1219200   9.2573960   5.6788430 110.3773700  10.3173430   4.6285380
 106.3429520   7.2403770   9.2516400 106.6953340   6.6431900   8.5917770
 105.4591850   6.9148000   9.4224650 102.4292800   8.0001460   6.6586810
 103.1163930   8.5470670   7.0394400 101.6425220   8.5442190   6.6936420
  94.5685200   3.6174280   2.1503890  95.4380050   3.8999080   2.4339810
  94.0775520   4.4310150   2.0352700 101.7320010   5.0047490   6.2712170
 102.1882790   5.8152740   6.4972360 101.3808220   4.6870630   7.1030660
 104.0352620  10.5153830  13.5004470 104.6794840  10.7213210  14.1777890
 104.3982060   9.7542230  13.0475320 105.3084700   8.5186180  12.2181920
 105.9506930   7.8179340  12.3314090 105.8334050   9.2984620  12.0378810
 107.0822320   9.3181080  15.4217980 107.4178560   9.9047770  16.0995900
 106.1622660   9.1873790  15.6515770  94.9356450  12.8301660   2.7165520
  95.2954090  13.4291000   2.0622790  94.7948790  13.3761550   3.4900550
 108.7356670   6.7206740   3.6035220 108.4478370   7.1819430   4.3913100
 109.5308840   6.2604510   3.8719440  94.9198310  11.0956520  17.1907920
  95.0289430  10.1551260  17.0503310  94.2678870  11.3611270  16.5421650
 102.9110900   9.3672410  18.5906040 102.5907770   8.6481650  19.1351730
 102.2369260  10.0427480  18.6642100 100.9525070  10.2132860   3.5339190
 100.9435170  10.9462550   2.9183700 100.0323430   9.9664440   3.6266150
  96.5531710   5.4347750   4.2785950  95.9459660   6.1746650   4.2881250
  97.0281060   5.5247110   3.4524150 103.0866490   2.2538160  14.1780810
 103.5851740   2.7283980  14.8432660 103.2289440   1.3301680  14.3850840
 102.5802780  12.7947420   6.8912050 102.8344280  12.7568810   5.9691420
 101.6315260  12.6680750   6.8840300 108.5855360   3.7139300   8.4670560
 107.6445500   3.7289530   8.6418250 108.8999430   2.9275260   8.9130860
  97.2583760   2.8283970   2.7107410  97.3387350   1.8811480   2.8224810
  98.1503510   3.1590850   2.8168070  98.0598470  12.9779360   9.8141950
  98.7960950  12.4294820  10.0850520  98.4439390  13.8435370   9.6747940
  94.9443950   9.0452930   5.6883460  94.0183730   9.2874070   5.6788870
  95.4100380   9.8727190   5.5668210  97.0656750  12.1625430  19.0027530
  97.8669480  12.4837480  19.4162930  96.5508570  11.8021010  19.7247440
 105.9021380   8.2705300  18.9502940 105.2959540   8.2936900  18.2098690
 105.5975490   7.5388340  19.4870190 107.3321750  11.9985590  17.5612350
 108.2843500  11.9143610  17.5112590 107.1849970  12.6627300  18.2346140
 110.2230950  11.3779800   3.0604260 109.9372460  10.9644940   2.2458440
 110.0250500  12.3067510   2.9404780  94.7854560   4.6498890  17.9463580
  95.2893580   4.0706170  18.5179810  94.0461980   4.9339120  18.4839950
 101.8392500   6.0569880  17.4799100 101.0738170   6.6254880  17.3953770
 102.0208460   5.7646090  16.5867330 104.9280910   6.4333110   2.1051860
 104.3791010   6.8802410   2.7494600 105.5500170   5.9282360   2.6289530
 108.9815850   7.7875210  18.0374120 109.7225320   8.1250970  17.5341580
 108.2188530   7.9567270  17.4843890  96.8177640   2.7928480  18.8413650
  96.8582980   2.4942350  19.7498880  97.6723140   3.1936090  18.6821170
 100.5956030   5.3924030   4.0017160 101.0172450   5.2263900   4.8448550
 100.7206870   4.5824260   3.5072300 107.6561510   5.8390040  16.5729330
 108.0702530   5.9935120  17.4219750 106.7212510   5.9645260  16.7355110
 108.1283680   3.1786200  18.5768480 108.7104450   2.4238520  18.4888960
 108.3045450   3.7093640  17.7999960 102.4176740   5.7910520  14.5425260
 102.8364850   6.6343250  14.3701500 101.4985370   5.9282560  14.3132040
 104.7540640   3.5226700  15.9263100 104.8736850   2.9267840  16.6657940
 105.6134640   3.5596390  15.5064400 107.0928540   4.0763890  14.5025610
 106.5663760   4.6006510  13.8990750 107.4359880   4.7091280  15.1335340
 100.2684160  12.0963530  15.6582990  99.7305250  12.8209590  15.3391690
 100.5218120  11.6193870  14.8680330 103.1246370  13.3314740  15.9169640
 103.0505070  14.2349880  16.2242010 102.2225210  13.0126640  15.8891710
 103.6731700  12.4973250   3.5396000 104.5682490  12.8358220   3.5614760
 103.7049330  11.7752660   2.9120280  97.3127860   7.8700300   1.7683000
  97.7502730   8.4129970   2.4240580  97.7975590   7.0447250   1.7779340
  94.5273660  10.6589330   9.2203260  94.8576670   9.7910390   8.9881900
  94.9564660  10.8647850  10.0508220  99.1235580   8.9898340   6.8805230
  98.8231120   8.8663310   7.7809140  99.0173070   8.1306930   6.4720960
  95.0163870  11.5259920  11.9584890  94.5794860  11.7060720  12.7909040
  95.5841550  12.2834540  11.8166610 110.6526050  11.0276920  16.2462200
 110.0528040  11.0869480  15.5026120 110.7819950  10.0881900  16.3759050
  94.8488300   4.0380150   8.3173770  94.1937140   3.7691790   7.6733470
  95.6866250   3.9284630   7.8675750 109.3377690   7.7528900  14.3438360
 108.5237530   8.1826060  14.6064150 109.7451890   8.3647310  13.7307410
  95.8864230   4.4232720  12.8577110  96.2537270   4.3360120  13.7373130
  95.3175050   3.6599270  12.7583970 110.6868090   2.8917100  15.8707580
 110.4554180   2.6629850  14.9705530 110.9472640   3.8116650  15.8252470
 110.5719430   1.9703070   9.5375300 111.0956910   1.4765720   8.9065470
 111.1578850   2.1053430  10.2822870 110.7509150   2.0542940  13.0594850
 109.8011860   2.0206480  13.1739840 110.9322160   2.9643050  12.8244620
 109.3953740  12.5047500   7.8706630 109.9912810  12.1832070   7.1941050
 109.6531890  12.0319320   8.6619900  97.3016310   8.9365410  18.0197260
  97.2585940   8.5658320  18.9011720  97.4327320   9.8742980  18.1599080
 101.0022340  10.4925000  13.6206980 100.7613700  10.7599560  12.7337500
 101.9424980  10.6630730  13.6757840  97.1404340  11.8827660  15.1395040
  96.5464660  11.7512360  15.8785080  97.1328180  11.0465800  14.6737140
 109.9465950  13.1542800  11.7004360 109.4868920  13.9058610  11.3262380
 109.3178410  12.4349270  11.6419160  96.7716570   9.2486040  14.0903080
  96.0450630   8.6291330  14.0229030  96.8325720   9.6426650  13.2201160
 100.3761670  11.4631040  10.8752490 100.8926690  10.8518400  10.3500750
 101.0259050  11.9659820  11.3663500 103.1157170  12.3539530  11.7021470
 103.4034980  12.0993830  10.8254480 103.6280390  11.8016890  12.2927040
  95.0546570  12.5660430   7.2999840  94.8868610  11.9331110   7.9981730
  94.1881080  12.7719830   6.9494030  96.6609270  11.2593660   4.7449980
  96.1356890  11.6401690   4.0411940  96.5853850  11.8844430   5.4659690
 103.1829530  13.2755630  19.0689670 104.1096840  13.0399900  19.1125630
 103.1679960  14.1027630  18.5875700  99.2602240  13.2076040   3.6199230
  99.9921060  12.9235320   3.0723120  99.5195910  12.9689320   4.5098610
  98.4217030   9.3240770   3.6245560  97.7925910   9.7925870   4.1731390
  98.5364860   8.4789990   4.0591750 109.7507090  12.5025490  18.8930710
 110.5432410  12.0074720  18.6856670 110.0440240  13.1815630  19.5006320
  87.1023260  97.2463880  64.8720720  87.0217310  96.3318490  64.6012430
  86.6887680  97.7430950  64.1660430  85.2341300  99.0242900  66.7529990
  84.4583400  98.5443340  67.0428560  85.8854230  98.3448550  66.5786150
  79.2507130  99.3362710  67.6305750  78.4192010  99.0811420  68.0302260
  79.8588110  99.4073480  68.3663670  77.6599080  94.2964600  61.4148140
  76.7715780  94.6380570  61.3128020  77.9440270  94.0964920  60.5228970
  75.6232090  96.8970250  67.2987840  76.1948200  96.1292450  67.2991480
  75.6233630  97.1959010  66.3894450  76.8656960  92.3054610  69.0856770
  76.6859800  91.4080360  69.3659530  76.4637040  92.8526480  69.7603720
  85.7055460  94.5070470  66.9869080  86.0820280  93.6342350  66.8742750
  85.6074970  94.8429170  66.0959520  79.8360470  92.8796100  62.4486520
  79.9427220  93.7799830  62.7555280  78.9252830  92.8314070  62.1581170
  89.4879580  92.0020910  63.9197420  90.3089200  91.5117480  63.9622900
  89.5213660  92.5918570  64.6729260  77.4843630  94.8015110  67.6939110
  78.1653740  95.0653480  68.3126510  77.1691680  93.9615980  68.0277120
  81.6768200  95.8482470  66.7811700  82.1846420  96.3463440  67.4216720
  82.2081440  95.0717670  66.6051060  93.7779130  94.0187660  70.4841050
  93.0731300  94.4069370  69.9656160  94.0437050  94.7137950  71.0861980
  79.9604300  90.4881030  71.0475120  79.9622740  91.0053420  70.2421020
  79.1308610  90.0111210  71.0245050  81.2107150 100.1276210  69.2248620
  80.8776530 100.7545130  69.8669690  81.3873830 100.6538090  68.4450290
  89.7241060  93.9421290  66.6924960  89.0196630  94.2306180  67.2728070
  90.0853220  94.7521400  66.3324520  79.6419630  92.1990990  69.0545570
  79.9836440  93.0433040  68.7599440  78.7035440  92.3474730  69.1710910
  92.7927980  93.3876080  67.0834170  91.8452890  93.4215060  67.2149600
  93.1177970  94.2015030  67.4683530  83.3247520  89.6873260  65.3790160
  83.6322500  89.1320150  64.6625660  82.3948220  89.8217720  65.1963150
  88.2748020 100.3070390  68.9980230  88.6916810 100.0930500  68.1633690
  88.9987840 100.5643180  69.5688850  85.7128280  97.7522090  62.1150280
  84.7857560  97.6859470  62.3438750  85.8653100  98.6902220  62.0005520
  85.6997360  94.0239090  59.1117440  84.7601030  94.1853050  59.1969900
  86.0180620  94.7424770  58.5653430  92.2210120  98.7057610  69.0896470
  91.3928750  98.7750700  68.6146600  92.8160600  99.2911920  68.6212300
  89.7425570  99.3142390  62.6185530  89.1237990  98.9761940  61.9711830
  89.7250020  98.6702150  63.3264720  89.1852130  95.4926930  70.0351340
  88.7723310  96.3180640  70.2891330  88.4528080  94.9071970  69.8427700
  81.3184920  98.2786830  64.8970010  80.9141920  97.5664080  64.4015910
  81.4048040  97.9340070  65.7858050  80.0313540  95.0530040  68.6769050
  80.5828130  95.1625380  67.9022300  80.5457050  95.4267640  69.3924280
  87.9190270  98.5529200  59.6258280  88.3583550  97.7151630  59.4796100
  88.6318690  99.1858600  59.7122420  79.7056270  98.5749400  72.2874390
  79.5664040  99.4472200  72.6561790  78.8237630  98.2322210  72.1422330
  91.5007410  89.8072010  57.9399320  91.1880070  89.8998840  58.8398390
  92.2619880  90.3853040  57.8896750  78.0189550  97.1731810  62.3976660
  77.8987150  97.8993900  61.7857930  77.7090440  96.4034720  61.9204570
  75.6574920 100.3446950  68.2045300  75.7355340 100.4795720  67.2601020
  76.2716600  99.6362840  68.3973420  92.7108700  94.5443510  73.9173460
  92.0952970  95.0523180  73.3888920  92.3905120  93.6441840  73.8599400
  80.4853210  90.5166880  65.7800330  80.0421360  91.2976420  65.4484850
  81.0438200  90.8396770  66.4871270  84.7723020  93.3835400  71.3835650
  84.3102390  93.5918420  72.1955590  84.3701130  92.5694750  71.0806320
  89.7727530  94.6044350  72.5132310  88.9221120  94.3050100  72.8341380
  89.6129320  94.8486360  71.6016130  86.8677240  96.1046100  74.6131100
  87.1930650  95.2709850  74.2733330  87.6557570  96.6274620  74.7609430
  83.6012030  90.1377580  60.6606160  82.9766210  90.1337450  61.3859470
  83.5142150  89.2708540  60.2642130  82.5229110  91.0614210  67.6389930
  82.8201440  91.9677040  67.5581950  83.0714670  90.5732990  67.0249500
  80.2767430  95.6400450  63.5081580  80.0508350  95.4237620  64.4128200
  79.4959960  96.0728910  63.1627550  87.5065190  95.6463820  62.1072230
  86.9074080  96.3699620  61.9235850  88.0544800  95.5840600  61.3248680
  82.7166640  96.5386030  74.1741850  82.6210240  95.5980760  74.0242250
  83.5598620  96.7601100  73.7789920  86.1130060  94.2827360  64.1375510
  86.5059630  94.5999560  63.3244200  86.4746910  93.4039240  64.2520030
  77.8477180  92.9499700  72.3275630  77.4540570  93.7974910  72.5348410
  77.1595580  92.3126070  72.5184270  75.1494230  90.8728160  66.3605710
  74.8607280  91.4431020  67.0730690  75.8939990  90.3932610  66.7236940
  75.3364460  94.8148280  57.5708430  75.2539130  95.7579040  57.7123420
  74.9847520  94.6723190  56.6920780  86.6985200  96.8733110  68.2326290
  85.9666320  97.3819920  68.5816390  86.3009540  96.0563090  67.9315070
  83.1362590  93.5487310  66.6378780  83.1398650  93.1077260  65.7883320
  84.0313710  93.8704640  66.7450600  78.9864970  93.4313800  65.5972990
  78.6465020  93.9089030  66.3540040  78.2242290  92.9778920  65.2374090
  83.1982740  94.5499390  59.6285540  83.3195560  94.5085870  60.5771360
  82.8131250  95.4123540  59.4732270  87.1611110  92.3266790  67.6449230
  87.1783850  92.7775440  68.4891080  86.9126690  91.4272430  67.8582670
  82.2104240  96.8600530  59.0268840  81.6421140  96.4118780  58.4004750
  82.9193240  97.2193310  58.4933990  90.5881860  89.7398970  73.4835610
  90.9127630  89.0088630  74.0093590  90.6238370  89.4212610  72.5816600
  83.4370560  97.6089090  68.3844190  83.8040690  97.1347660  69.1305530
  83.2475620  98.4830660  68.7252530  76.3011050  92.3532780  64.5137660
  76.0157970  91.9888450  65.3516280  76.2389910  91.6213240  63.9000800
  81.2269930  96.6497730  70.7028400  80.9227000  97.5289710  70.9278760
  82.1816390  96.7097520  70.7385840  79.7551720 100.8558720  61.2995250
  78.9813980 100.3156340  61.1393970  80.4846350 100.3365330  60.9613010
  90.5139700  99.8524080  67.0921640  91.2338820 100.3479370  66.7017750
  90.3121520  99.1741970  66.4475510  85.9749640  91.2462040  61.2351030
  85.1614250  90.7475210  61.1596340  85.7811590  92.0860290  60.8187380
  85.8958500  99.9233140  72.9790640  85.8295810  99.0028810  72.7248230
  85.2663640 100.0208580  73.6935280  88.6898030  95.6181690  59.5313190
  89.5777650  95.9298920  59.3564530  88.6603120  94.7453940  59.1393770
  79.7989120 100.5239100  64.9374060  80.3167790  99.7207360  64.8830950
  79.3473140 100.4618240  65.7790890  77.2833660  97.4900470  71.8499760
  76.9248600  98.1554320  72.4373100  76.9888220  96.6584020  72.2212380
  80.4846780  97.9484710  74.7339310  80.1846920  98.0941890  73.8367130
  81.2558020  97.3890000  74.6412700  90.9612300  96.9293530  58.9993050
  90.8776020  97.3607750  58.1489490  91.6806490  97.3891880  59.4319870
  92.0386440  99.3861050  72.0763020  91.3134630  99.9789830  71.8792410
  92.5661900  99.3784590  71.2776390  75.7941710  97.4891730  58.4734360
  76.6636560  97.7716530  58.7570280  75.3032030  98.3027600  58.3583170
  82.9576520  98.8764940  62.5942640  83.4139300  99.6870190  62.8202830
  82.6064730  98.5588080  63.4261130  78.8588300  89.2202590  63.0665160
  78.7302930  89.2120490  64.0150080  78.0350320  89.5585680  62.7156170
  75.8582230  90.9793710  72.5271860  75.1440750  91.1790630  73.1324470
  76.2777270  90.2033280  72.8986660  77.7788220  99.3065200  60.6016420
  77.1716170 100.0464100  60.6111720  78.2537570  99.3964560  59.7754620
  87.3521010  93.4716020  70.2773310  87.7201830  92.6511230  70.6052880
  86.4919210  93.5317910  70.6928960  90.7183040  92.4272960  61.0860870
  90.0896200  92.5318630  60.3719100  90.2234960  92.6469740  61.8754750
  82.6867070  94.7058910  62.5018750  81.9783220  95.1745250  62.9432360
  82.9711550  94.0480920  63.1363940  84.3123000  96.1255610  70.5011280
  84.8108250  96.6001430  71.1663130  84.4545950  95.2019130  70.7081310
  86.7182500  91.4309570  63.9414540  86.5950280  91.4495700  62.9924050
  87.6667060  91.4788510  64.0612940  80.8902090  93.0143990  59.8769460
  81.7392620  93.4514140  59.8109650  80.5233360  93.3264250  60.7041520
  91.5189860  92.3423570  71.3439670  91.0163460  93.0828970  71.6833480
  92.3346520  92.7307570  71.0276460  89.8111870  97.5856750  64.7901030
  88.8702010  97.6006980  64.9648720  90.1255940  96.7992710  65.2361330
  79.7893510  99.2676350  58.3504990  80.5556780  99.1557710  58.9130420
  79.8668200  98.5714320  57.6981760  78.4840270  96.7001420  59.0337880
  78.5643860  95.7528930  59.1455280  79.3760020  97.0308300  59.1398540
  76.0111070  98.5216340  74.2694050  76.5150090  97.9423620  74.8410280
  75.2718490  98.8056570  74.8070420  83.0649010  99.9287330  73.8029570
  82.2994680 100.4972330  73.7184240  83.2464970  99.6363540  72.9097800
  86.1537420 100.3050560  58.4282330  85.6047520 100.7519860  59.0725070
  86.7756680  99.7999810  58.9520000  81.8212540  99.2641480  60.3247630
  82.2428960  99.0981350  61.1679020  81.9463380  98.4541710  59.8302770
  79.9839960  95.2438030  73.1318610  79.4536420  94.7528980  72.5041950
  80.6528030  95.6722230  72.5976540  84.3340180  98.2879090  57.5724730
  84.8545840  97.5728110  57.2065880  84.9808580  98.9264960  57.8725240
  88.8818020  99.7107490  72.8959800  89.2959040  99.8652570  73.7450220
  87.9469020  99.8362710  73.0585580  89.3540190  97.0503650  74.8998950
  89.9360960  96.2955970  74.8119430  89.5301960  97.5811090  74.1230430
  80.4712260  92.2100400  73.2115900  80.3769130  91.5921150  72.4866770
  79.8909650  92.9366690  72.9845810  83.2373700  90.7673640  70.2443290
  82.7891000  90.7897900  69.3988840  82.6038900  90.3692660  70.8413590
  83.6433250  99.6627970  70.8655730  84.0621360 100.5060700  70.6931970
  82.7241880  99.8000010  70.6362510  85.9797150  97.3944150  72.2493570
  86.0993360  96.7985290  72.9888410  86.8391150  97.4313840  71.8294870
  88.3185050  97.9481340  70.8256080  87.7920270  98.4723960  70.2221220
  88.6616390  98.5808730  71.4565810  80.7171440  95.3374710  57.2705790
  80.5160500  94.4742070  57.6319130  80.5463490  95.2508070  56.3327390
  82.7465920  93.9365500  73.5069390  83.3365610  93.6281350  74.1947210
  81.9286160  93.4645250  73.6629290  87.5659350  93.5531310  73.7402410
  86.8774870  92.8912850  73.6752400  88.2865370  93.1069580  74.1850870
  88.1959750  90.1482940  59.7992670  88.4762040  89.3050840  60.1552090
  87.4225480  90.3806050  60.3131420  79.5154240  92.4375330  57.2583670
  79.8180140  92.4442760  56.3502820  80.2548830  92.0873190  57.7551330
  82.7339170  91.3809950  58.2439870  82.3861170  90.7033940  57.6642320
  82.9351940  90.9199460  59.0583260  92.5740470  99.3859670  60.4096580
  93.3359380  99.9556320  60.5156270  92.5894840  98.8186870  61.1804890
  76.0744810  97.9097600  64.6404240  75.4193650  97.6409240  63.9963940
  76.9122760  97.8002080  64.1906220  92.6259640  99.6794040  57.5669100
  92.9008480 100.5872920  57.4388320  92.4370380  99.6156570  58.5031090
  89.0235250  92.7038890  58.8622730  89.4420130  92.5169870  58.0219390
  88.7171310  91.8517940  59.1725660  92.5224980  97.6163030  62.5598530
  92.1468580  96.8490960  62.1279820  91.7928100  97.9985730  63.0473460
  77.1120740  98.2950170  69.1807580  77.4793780  98.2077570  70.0603600
  76.5431560  97.5316720  69.0814440  91.9124600  96.7634550  72.1938050
  91.6810690  96.5347300  71.2936000  92.1729150  97.6834100  72.1482940
  76.6636740  95.2059260  73.0866000  75.7692790  95.1726020  73.4259710
  77.2034290  95.4046050  73.8517250  75.2882890  95.1196530  60.5829570
  74.3846970  95.3826730  60.4081230  75.7723510  95.3907700  59.8029530
  91.7975940  95.8420520  65.8605770  92.3213420  95.3483170  65.2295940
  92.3835360  95.9770880  66.6053340  91.9765660  95.9260390  69.3825320
  91.0268370  95.8923930  69.4970310  92.1578670  96.8360500  69.1475090
  77.8310100  94.1762070  58.4923950  78.5401800  93.7545290  58.0071230
  77.1150040  94.2437300  57.8607300  77.4784260  90.2301400  57.5326600
  78.2012390  90.7710340  57.8507820  77.7508780  89.9564820  56.6568140
  91.2875910  95.0993870  61.7998180  91.7835030  94.8664740  62.5847060
  91.0891980  94.2605710  61.3835820  77.1676450  89.4807590  67.4349220
  77.8152640  88.9304970  66.9944380  77.5878290  89.7350740  68.2565030
  92.7163070  93.7354820  64.3335860  92.6062350  93.5810860  65.2718130
  93.4770660  93.2075760  64.0911270  91.0628790  89.6748950  70.7918860
  91.7001010  90.2883090  71.1578050  91.2103680  89.7109610  69.8468090
  93.6053340  91.5662740  57.5742000  94.5302650  91.4343920  57.3660290
  93.5829130  91.6455560  58.5278450  93.6791830  92.3373400  60.1998710
  92.8843330  92.2718520  60.7291620  93.8835110  93.2724040  60.1884060
  76.9208450  89.6363260  70.1774540  76.5723270  90.0927080  70.9432720
  76.5896150  88.7420390  70.2596970  84.4333270  90.8275140  73.6993960
  84.3722160  91.4196970  74.4489370  85.3733650  90.7201100  73.5544220
  87.0707830  90.4845200  73.3386250  87.6848240  90.8024490  72.6767330
  87.6157390  89.9993790  73.9582110  77.5929090  89.1639460  73.4525310
  78.1412080  88.9827510  72.6891420  77.6584400  88.3733570  73.9881620
  87.8115870  89.0477340  69.6655540  86.9375710  89.3812450  69.4628470
  87.7026620  88.5750520  70.4907410  88.7187850  91.2548210  71.0497260
  88.3901210  90.4399970  70.6698990  89.6670150  91.2118020  70.9262950
  85.5590690  89.9647180  68.6048450  84.7762480  90.4392680  68.8845210
  85.2653620  89.0602010  68.4961630  90.1111760  90.6670280  66.6497540
  90.5519850  90.6115380  65.8019140  89.8419350  91.5828290  66.7207720
  91.9750330  90.2985520  64.6606360  91.9138730  89.3546740  64.5137380
  92.7542360  90.4065610  65.2059820  76.9031100  90.2694660  61.1262170
  77.6610460  90.3823540  60.5526200  76.4408270  91.1063860  61.0805600
  83.4444910  92.3833930  64.1164480  82.6319420  92.0090820  63.7760360
  83.9486550  91.6279010  64.4185670  87.9469890  89.0476380  65.3547550
  88.5499260  89.6196590  65.8296070  87.2062880  89.6115820  65.1321450
  91.0904490  89.4497940  60.6287830  91.2855120  90.3481390  60.8955260
  90.3034360  89.2185020  61.1220780  79.2756250  90.7958710  59.6664140
  79.8049010  90.0088510  59.5372090  79.9084570  91.4749900  59.8999670
  81.4694090  90.5333850  62.7209530  80.8396830  89.8321160  62.8879660
  80.9299230  91.2937980  62.5042690  87.1023260  97.2463880  46.0977230
  87.0217310  96.3318490  45.8268940  86.6887680  97.7430950  45.3916940
  85.2341300  99.0242900  47.9786500  84.4583400  98.5443340  48.2685070
  85.8854230  98.3448550  47.8042660  79.2507130  99.3362710  48.8562260
  78.4192010  99.0811420  49.2558770  79.8588110  99.4073480  49.5920180
  77.6599080  94.2964600  42.6404650  76.7715780  94.6380570  42.5384530
  77.9440270  94.0964920  41.7485480  75.6232090  96.8970250  48.5244350
  76.1948200  96.1292450  48.5247990  75.6233630  97.1959010  47.6150960
  76.8656960  92.3054610  50.3113280  76.6859800  91.4080360  50.5916040
  76.4637040  92.8526480  50.9860230  85.7055460  94.5070470  48.2125590
  86.0820280  93.6342350  48.0999260  85.6074970  94.8429170  47.3216030
  79.8360470  92.8796100  43.6743030  79.9427220  93.7799830  43.9811790
  78.9252830  92.8314070  43.3837680  89.4879580  92.0020910  45.1453930
  90.3089200  91.5117480  45.1879410  89.5213660  92.5918570  45.8985770
  77.4843630  94.8015110  48.9195620  78.1653740  95.0653480  49.5383020
  77.1691680  93.9615980  49.2533630  81.6768200  95.8482470  48.0068210
  82.1846420  96.3463440  48.6473230  82.2081440  95.0717670  47.8307570
  93.7779130  94.0187660  51.7097560  93.0731300  94.4069370  51.1912670
  94.0437050  94.7137950  52.3118490  79.9604300  90.4881030  52.2731630
  79.9622740  91.0053420  51.4677530  79.1308610  90.0111210  52.2501560
  81.2107150 100.1276210  50.4505130  80.8776530 100.7545130  51.0926200
  81.3873830 100.6538090  49.6706800  89.7241060  93.9421290  47.9181470
  89.0196630  94.2306180  48.4984580  90.0853220  94.7521400  47.5581030
  79.6419630  92.1990990  50.2802080  79.9836440  93.0433040  49.9855950
  78.7035440  92.3474730  50.3967420  92.7927980  93.3876080  48.3090680
  91.8452890  93.4215060  48.4406110  93.1177970  94.2015030  48.6940040
  83.3247520  89.6873260  46.6046670  83.6322500  89.1320150  45.8882170
  82.3948220  89.8217720  46.4219660  88.2748020 100.3070390  50.2236740
  88.6916810 100.0930500  49.3890200  88.9987840 100.5643180  50.7945360
  85.7128280  97.7522090  43.3406790  84.7857560  97.6859470  43.5695260
  85.8653100  98.6902220  43.2262030  85.6997360  94.0239090  40.3373950
  84.7601030  94.1853050  40.4226410  86.0180620  94.7424770  39.7909940
  92.2210120  98.7057610  50.3152980  91.3928750  98.7750700  49.8403110
  92.8160600  99.2911920  49.8468810  89.7425570  99.3142390  43.8442040
  89.1237990  98.9761940  43.1968340  89.7250020  98.6702150  44.5521230
  89.1852130  95.4926930  51.2607850  88.7723310  96.3180640  51.5147840
  88.4528080  94.9071970  51.0684210  81.3184920  98.2786830  46.1226520
  80.9141920  97.5664080  45.6272420  81.4048040  97.9340070  47.0114560
  80.0313540  95.0530040  49.9025560  80.5828130  95.1625380  49.1278810
  80.5457050  95.4267640  50.6180790  87.9190270  98.5529200  40.8514790
  88.3583550  97.7151630  40.7052610  88.6318690  99.1858600  40.9378930
  79.7056270  98.5749400  53.5130900  79.5664040  99.4472200  53.8818300
  78.8237630  98.2322210  53.3678840  91.5007410  89.8072010  39.1655830
  91.1880070  89.8998840  40.0654900  92.2619880  90.3853040  39.1153260
  78.0189550  97.1731810  43.6233170  77.8987150  97.8993900  43.0114440
  77.7090440  96.4034720  43.1461080  75.6574920 100.3446950  49.4301810
  75.7355340 100.4795720  48.4857530  76.2716600  99.6362840  49.6229930
  92.7108700  94.5443510  55.1429970  92.0952970  95.0523180  54.6145430
  92.3905120  93.6441840  55.0855910  80.4853210  90.5166880  47.0056840
  80.0421360  91.2976420  46.6741360  81.0438200  90.8396770  47.7127780
  84.7723020  93.3835400  52.6092160  84.3102390  93.5918420  53.4212100
  84.3701130  92.5694750  52.3062830  89.7727530  94.6044350  53.7388820
  88.9221120  94.3050100  54.0597890  89.6129320  94.8486360  52.8272640
  86.8677240  96.1046100  55.8387610  87.1930650  95.2709850  55.4989840
  87.6557570  96.6274620  55.9865940  83.6012030  90.1377580  41.8862670
  82.9766210  90.1337450  42.6115980  83.5142150  89.2708540  41.4898640
  82.5229110  91.0614210  48.8646440  82.8201440  91.9677040  48.7838460
  83.0714670  90.5732990  48.2506010  80.2767430  95.6400450  44.7338090
  80.0508350  95.4237620  45.6384710  79.4959960  96.0728910  44.3884060
  87.5065190  95.6463820  43.3328740  86.9074080  96.3699620  43.1492360
  88.0544800  95.5840600  42.5505190  82.7166640  96.5386030  55.3998360
  82.6210240  95.5980760  55.2498760  83.5598620  96.7601100  55.0046430
  86.1130060  94.2827360  45.3632020  86.5059630  94.5999560  44.5500710
  86.4746910  93.4039240  45.4776540  77.8477180  92.9499700  53.5532140
  77.4540570  93.7974910  53.7604920  77.1595580  92.3126070  53.7440780
  84.4222230  93.0334670  56.6228880  83.7320550  92.8406870  57.2574970
  85.1654530  93.3169310  57.1553180  75.1494230  90.8728160  47.5862220
  74.8607280  91.4431020  48.2987200  75.8939990  90.3932610  47.9493450
  75.3364460  94.8148280  38.7964940  75.2539130  95.7579040  38.9379930
  74.9847520  94.6723190  37.9177290  86.6985200  96.8733110  49.4582800
  85.9666320  97.3819920  49.8072900  86.3009540  96.0563090  49.1571580
  83.1362590  93.5487310  47.8635290  83.1398650  93.1077260  47.0139830
  84.0313710  93.8704640  47.9707110  78.9864970  93.4313800  46.8229500
  78.6465020  93.9089030  47.5796550  78.2242290  92.9778920  46.4630600
  83.1982740  94.5499390  40.8542050  83.3195560  94.5085870  41.8027870
  82.8131250  95.4123540  40.6988780  87.1611110  92.3266790  48.8705740
  87.1783850  92.7775440  49.7147590  86.9126690  91.4272430  49.0839180
  82.2104240  96.8600530  40.2525350  81.6421140  96.4118780  39.6261260
  82.9193240  97.2193310  39.7190500  90.5881860  89.7398970  54.7092120
  90.9127630  89.0088630  55.2350100  90.6238370  89.4212610  53.8073110
  83.4370560  97.6089090  49.6100700  83.8040690  97.1347660  50.3562040
  83.2475620  98.4830660  49.9509040  76.3011050  92.3532780  45.7394170
  76.0157970  91.9888450  46.5772790  76.2389910  91.6213240  45.1257310
  81.2269930  96.6497730  51.9284910  80.9227000  97.5289710  52.1535270
  82.1816390  96.7097520  51.9642350  79.7551720 100.8558720  42.5251760
  78.9813980 100.3156340  42.3650480  80.4846350 100.3365330  42.1869520
  90.5139700  99.8524080  48.3178150  91.2338820 100.3479370  47.9274260
  90.3121520  99.1741970  47.6732020  85.9749640  91.2462040  42.4607540
  85.1614250  90.7475210  42.3852850  85.7811590  92.0860290  42.0443890
  85.8958500  99.9233140  54.2047150  85.8295810  99.0028810  53.9504740
  85.2663640 100.0208580  54.9191790  88.6898030  95.6181690  40.7569700
  89.5777650  95.9298920  40.5821040  88.6603120  94.7453940  40.3650280
  79.7989120 100.5239100  46.1630570  80.3167790  99.7207360  46.1087460
  79.3473140 100.4618240  47.0047400  77.2833660  97.4900470  53.0756270
  76.9248600  98.1554320  53.6629610  76.9888220  96.6584020  53.4468890
  80.4846780  97.9484710  55.9595820  80.1846920  98.0941890  55.0623640
  81.2558020  97.3890000  55.8669210  90.9612300  96.9293530  40.2249560
  90.8776020  97.3607750  39.3746000  91.6806490  97.3891880  40.6576380
  92.0386440  99.3861050  53.3019530  91.3134630  99.9789830  53.1048920
  92.5661900  99.3784590  52.5032900  75.7941710  97.4891730  39.6990870
  76.6636560  97.7716530  39.9826790  75.3032030  98.3027600  39.5839680
  82.9576520  98.8764940  43.8199150  83.4139300  99.6870190  44.0459340
  82.6064730  98.5588080  44.6517640  78.8588300  89.2202590  44.2921670
  78.7302930  89.2120490  45.2406590  78.0350320  89.5585680  43.9412680
  75.8582230  90.9793710  53.7528370  75.1440750  91.1790630  54.3580980
  76.2777270  90.2033280  54.1243170  77.7788220  99.3065200  41.8272930
  77.1716170 100.0464100  41.8368230  78.2537570  99.3964560  41.0011130
  87.3521010  93.4716020  51.5029820  87.7201830  92.6511230  51.8309390
  86.4919210  93.5317910  51.9185470  90.7183040  92.4272960  42.3117380
  90.0896200  92.5318630  41.5975610  90.2234960  92.6469740  43.1011260
  82.6867070  94.7058910  43.7275260  81.9783220  95.1745250  44.1688870
  82.9711550  94.0480920  44.3620450  84.3123000  96.1255610  51.7267790
  84.8108250  96.6001430  52.3919640  84.4545950  95.2019130  51.9337820
  86.7182500  91.4309570  45.1671050  86.5950280  91.4495700  44.2180560
  87.6667060  91.4788510  45.2869450  80.8902090  93.0143990  41.1025970
  81.7392620  93.4514140  41.0366160  80.5233360  93.3264250  41.9298030
  91.5189860  92.3423570  52.5696180  91.0163460  93.0828970  52.9089990
  92.3346520  92.7307570  52.2532970  89.8111870  97.5856750  46.0157540
  88.8702010  97.6006980  46.1905230  90.1255940  96.7992710  46.4617840
  79.7893510  99.2676350  39.5761500  80.5556780  99.1557710  40.1386930
  79.8668200  98.5714320  38.9238270  78.4840270  96.7001420  40.2594390
  78.5643860  95.7528930  40.3711790  79.3760020  97.0308300  40.3655050
  76.0111070  98.5216340  55.4950560  76.5150090  97.9423620  56.0666790
  75.2718490  98.8056570  56.0326930  83.0649010  99.9287330  55.0286080
  82.2994680 100.4972330  54.9440750  83.2464970  99.6363540  54.1354310
  86.1537420 100.3050560  39.6538840  85.6047520 100.7519860  40.2981580
  86.7756680  99.7999810  40.1776510  78.0434150  96.6645930  56.3900630
  78.0839490  96.3659800  57.2985860  78.8979650  97.0653540  56.2308150
  81.8212540  99.2641480  41.5504140  82.2428960  99.0981350  42.3935530
  81.9463380  98.4541710  41.0559280  79.9839960  95.2438030  54.3575120
  79.4536420  94.7528980  53.7298460  80.6528030  95.6722230  53.8233050
  84.3340180  98.2879090  38.7981240  84.8545840  97.5728110  38.4322390
  84.9808580  98.9264960  39.0981750  88.8818020  99.7107490  54.1216310
  89.2959040  99.8652570  54.9706730  87.9469020  99.8362710  54.2842090
  89.3540190  97.0503650  56.1255460  89.9360960  96.2955970  56.0375940
  89.5301960  97.5811090  55.3486940  80.4712260  92.2100400  54.4372410
  80.3769130  91.5921150  53.7123280  79.8909650  92.9366690  54.2102320
  83.2373700  90.7673640  51.4699800  82.7891000  90.7897900  50.6245350
  82.6038900  90.3692660  52.0670100  83.6433250  99.6627970  52.0912240
  84.0621360 100.5060700  51.9188480  82.7241880  99.8000010  51.8619020
  85.9797150  97.3944150  53.4750080  86.0993360  96.7985290  54.2144920
  86.8391150  97.4313840  53.0551380  88.3185050  97.9481340  52.0512590
  87.7920270  98.4723960  51.4477730  88.6616390  98.5808730  52.6822320
  80.7171440  95.3374710  38.4962300  80.5160500  94.4742070  38.8575640
  80.5463490  95.2508070  37.5583900  82.7465920  93.9365500  54.7325900
  83.3365610  93.6281350  55.4203720  81.9286160  93.4645250  54.8885800
  87.5659350  93.5531310  54.9658920  86.8774870  92.8912850  54.9008910
  88.2865370  93.1069580  55.4107380  88.1959750  90.1482940  41.0249180
  88.4762040  89.3050840  41.3808600  87.4225480  90.3806050  41.5387930
  79.5154240  92.4375330  38.4840180  79.8180140  92.4442760  37.5759330
  80.2548830  92.0873190  38.9807840  82.7339170  91.3809950  39.4696380
  82.3861170  90.7033940  38.8898830  82.9351940  90.9199460  40.2839770
  92.5740470  99.3859670  41.6353090  93.3359380  99.9556320  41.7412780
  92.5894840  98.8186870  42.4061400  76.0744810  97.9097600  45.8660750
  75.4193650  97.6409240  45.2220450  76.9122760  97.8002080  45.4162730
  92.6259640  99.6794040  38.7925610  92.9008480 100.5872920  38.6644830
  92.4370380  99.6156570  39.7287600  89.0235250  92.7038890  40.0879240
  89.4420130  92.5169870  39.2475900  88.7171310  91.8517940  40.3982170
  92.5224980  97.6163030  43.7855040  92.1468580  96.8490960  43.3536330
  91.7928100  97.9985730  44.2729970  77.1120740  98.2950170  50.4064090
  77.4793780  98.2077570  51.2860110  76.5431560  97.5316720  50.3070950
  91.9124600  96.7634550  53.4194560  91.6810690  96.5347300  52.5192510
  92.1729150  97.6834100  53.3739450  76.6636740  95.2059260  54.3122510
  75.7692790  95.1726020  54.6516220  77.2034290  95.4046050  55.0773760
  90.3512670  91.9890980  56.1974260  91.2282850  91.9974380  56.5808260
  90.3633510  91.2521820  55.5866610  75.2882890  95.1196530  41.8086080
  74.3846970  95.3826730  41.6337740  75.7723510  95.3907700  41.0286040
  91.7975940  95.8420520  47.0862280  92.3213420  95.3483170  46.4552450
  92.3835360  95.9770880  47.8309850  91.9765660  95.9260390  50.6081830
  91.0268370  95.8923930  50.7226820  92.1578670  96.8360500  50.3731600
  77.8310100  94.1762070  39.7180460  78.5401800  93.7545290  39.2327740
  77.1150040  94.2437300  39.0863810  77.4784260  90.2301400  38.7583110
  78.2012390  90.7710340  39.0764330  77.7508780  89.9564820  37.8824650
  91.2875910  95.0993870  43.0254690  91.7835030  94.8664740  43.8103570
  91.0891980  94.2605710  42.6092330  77.1676450  89.4807590  48.6605730
  77.8152640  88.9304970  48.2200890  77.5878290  89.7350740  49.4821540
  92.7163070  93.7354820  45.5592370  92.6062350  93.5810860  46.4974640
  93.4770660  93.2075760  45.3167780  91.0628790  89.6748950  52.0175370
  91.7001010  90.2883090  52.3834560  91.2103680  89.7109610  51.0724600
  93.6053340  91.5662740  38.7998510  94.5302650  91.4343920  38.5916800
  93.5829130  91.6455560  39.7534960  93.6791830  92.3373400  41.4255220
  92.8843330  92.2718520  41.9548130  93.8835110  93.2724040  41.4140570
  76.9208450  89.6363260  51.4031050  76.5723270  90.0927080  52.1689230
  76.5896150  88.7420390  51.4853480  84.4333270  90.8275140  54.9250470
  84.3722160  91.4196970  55.6745880  85.3733650  90.7201100  54.7800730
  87.0707830  90.4845200  54.5642760  87.6848240  90.8024490  53.9023840
  87.6157390  89.9993790  55.1838620  77.5929090  89.1639460  54.6781820
  78.1412080  88.9827510  53.9147930  77.6584400  88.3733570  55.2138130
  87.8115870  89.0477340  50.8912050  86.9375710  89.3812450  50.6884980
  87.7026620  88.5750520  51.7163920  88.7187850  91.2548210  52.2753770
  88.3901210  90.4399970  51.8955500  89.6670150  91.2118020  52.1519460
  85.5590690  89.9647180  49.8304960  84.7762480  90.4392680  50.1101720
  85.2653620  89.0602010  49.7218140  90.1111760  90.6670280  47.8754050
  90.5519850  90.6115380  47.0275650  89.8419350  91.5828290  47.9464230
  91.9750330  90.2985520  45.8862870  91.9138730  89.3546740  45.7393890
  92.7542360  90.4065610  46.4316330  76.9031100  90.2694660  42.3518680
  77.6610460  90.3823540  41.7782710  76.4408270  91.1063860  42.3062110
  83.4444910  92.3833930  45.3420990  82.6319420  92.0090820  45.0016870
  83.9486550  91.6279010  45.6442180  87.9469890  89.0476380  46.5804060
  88.5499260  89.6196590  47.0552580  87.2062880  89.6115820  46.3577960
  91.0904490  89.4497940  41.8544340  91.2855120  90.3481390  42.1211770
  90.3034360  89.2185020  42.3477290  79.2756250  90.7958710  40.8920650
  79.8049010  90.0088510  40.7628600  79.9084570  91.4749900  41.1256180
  81.4694090  90.5333850  43.9466040  80.8396830  89.8321160  44.1136170
  80.9299230  91.2937980  43.7299200  81.5949650  89.8117830  56.3818530
  81.3133920  90.3151430  55.6179350  81.9769350  89.0139580  56.0160660
  88.1965110  89.2271410  56.9599000  88.0830560  89.5466020  57.8550520
  89.0134850  89.6283920  56.6636280  87.1023260  97.2463880  27.3233740
  87.0217310  96.3318490  27.0525450  86.6887680  97.7430950  26.6173450
  85.2341300  99.0242900  29.2043010  84.4583400  98.5443340  29.4941580
  85.8854230  98.3448550  29.0299170  79.2507130  99.3362710  30.0818770
  78.4192010  99.0811420  30.4815280  79.8588110  99.4073480  30.8176690
  77.6599080  94.2964600  23.8661160  76.7715780  94.6380570  23.7641040
  77.9440270  94.0964920  22.9741990  75.6232090  96.8970250  29.7500860
  76.1948200  96.1292450  29.7504500  75.6233630  97.1959010  28.8407470
  76.8656960  92.3054610  31.5369790  76.6859800  91.4080360  31.8172550
  76.4637040  92.8526480  32.2116740  85.7055460  94.5070470  29.4382100
  86.0820280  93.6342350  29.3255770  85.6074970  94.8429170  28.5472540
  79.8360470  92.8796100  24.8999540  79.9427220  93.7799830  25.2068300
  78.9252830  92.8314070  24.6094190  89.4879580  92.0020910  26.3710440
  90.3089200  91.5117480  26.4135920  89.5213660  92.5918570  27.1242280
  77.4843630  94.8015110  30.1452130  78.1653740  95.0653480  30.7639530
  77.1691680  93.9615980  30.4790140  81.6768200  95.8482470  29.2324720
  82.1846420  96.3463440  29.8729740  82.2081440  95.0717670  29.0564080
  93.7779130  94.0187660  32.9354070  93.0731300  94.4069370  32.4169180
  94.0437050  94.7137950  33.5375000  79.9604300  90.4881030  33.4988140
  79.9622740  91.0053420  32.6934040  79.1308610  90.0111210  33.4758070
  81.2107150 100.1276210  31.6761640  80.8776530 100.7545130  32.3182710
  81.3873830 100.6538090  30.8963310  89.7241060  93.9421290  29.1437980
  89.0196630  94.2306180  29.7241090  90.0853220  94.7521400  28.7837540
  79.6419630  92.1990990  31.5058590  79.9836440  93.0433040  31.2112460
  78.7035440  92.3474730  31.6223930  92.7927980  93.3876080  29.5347190
  91.8452890  93.4215060  29.6662620  93.1177970  94.2015030  29.9196550
  83.3247520  89.6873260  27.8303180  83.6322500  89.1320150  27.1138680
  82.3948220  89.8217720  27.6476170  88.2748020 100.3070390  31.4493250
  88.6916810 100.0930500  30.6146710  88.9987840 100.5643180  32.0201870
  85.7128280  97.7522090  24.5663300  84.7857560  97.6859470  24.7951770
  85.8653100  98.6902220  24.4518540  85.6997360  94.0239090  21.5630460
  84.7601030  94.1853050  21.6482920  86.0180620  94.7424770  21.0166450
  92.2210120  98.7057610  31.5409490  91.3928750  98.7750700  31.0659620
  92.8160600  99.2911920  31.0725320  89.7425570  99.3142390  25.0698550
  89.1237990  98.9761940  24.4224850  89.7250020  98.6702150  25.7777740
  89.1852130  95.4926930  32.4864360  88.7723310  96.3180640  32.7404350
  88.4528080  94.9071970  32.2940720  81.3184920  98.2786830  27.3483030
  80.9141920  97.5664080  26.8528930  81.4048040  97.9340070  28.2371070
  80.0313540  95.0530040  31.1282070  80.5828130  95.1625380  30.3535320
  80.5457050  95.4267640  31.8437300  87.9190270  98.5529200  22.0771300
  88.3583550  97.7151630  21.9309120  88.6318690  99.1858600  22.1635440
  79.7056270  98.5749400  34.7387410  79.5664040  99.4472200  35.1074810
  78.8237630  98.2322210  34.5935350  91.5007410  89.8072010  20.3912340
  91.1880070  89.8998840  21.2911410  92.2619880  90.3853040  20.3409770
  78.0189550  97.1731810  24.8489680  77.8987150  97.8993900  24.2370950
  77.7090440  96.4034720  24.3717590  75.6574920 100.3446950  30.6558320
  75.7355340 100.4795720  29.7114040  76.2716600  99.6362840  30.8486440
  92.7108700  94.5443510  36.3686480  92.0952970  95.0523180  35.8401940
  92.3905120  93.6441840  36.3112420  80.4853210  90.5166880  28.2313350
  80.0421360  91.2976420  27.8997870  81.0438200  90.8396770  28.9384290
  84.7723020  93.3835400  33.8348670  84.3102390  93.5918420  34.6468610
  84.3701130  92.5694750  33.5319340  89.7727530  94.6044350  34.9645330
  88.9221120  94.3050100  35.2854400  89.6129320  94.8486360  34.0529150
  86.8677240  96.1046100  37.0644120  87.1930650  95.2709850  36.7246350
  87.6557570  96.6274620  37.2122450  83.6012030  90.1377580  23.1119180
  82.9766210  90.1337450  23.8372490  83.5142150  89.2708540  22.7155150
  82.5229110  91.0614210  30.0902950  82.8201440  91.9677040  30.0094970
  83.0714670  90.5732990  29.4762520  80.2767430  95.6400450  25.9594600
  80.0508350  95.4237620  26.8641220  79.4959960  96.0728910  25.6140570
  87.5065190  95.6463820  24.5585250  86.9074080  96.3699620  24.3748870
  88.0544800  95.5840600  23.7761700  82.7166640  96.5386030  36.6254870
  82.6210240  95.5980760  36.4755270  83.5598620  96.7601100  36.2302940
  86.1130060  94.2827360  26.5888530  86.5059630  94.5999560  25.7757220
  86.4746910  93.4039240  26.7033050  77.8477180  92.9499700  34.7788650
  77.4540570  93.7974910  34.9861430  77.1595580  92.3126070  34.9697290
  84.4222230  93.0334670  37.8485390  83.7320550  92.8406870  38.4831480
  85.1654530  93.3169310  38.3809690  75.1494230  90.8728160  28.8118730
  74.8607280  91.4431020  29.5243710  75.8939990  90.3932610  29.1749960
  75.3364460  94.8148280  20.0221450  75.2539130  95.7579040  20.1636440
  74.9847520  94.6723190  19.1433800  86.6985200  96.8733110  30.6839310
  85.9666320  97.3819920  31.0329410  86.3009540  96.0563090  30.3828090
  83.1362590  93.5487310  29.0891800  83.1398650  93.1077260  28.2396340
  84.0313710  93.8704640  29.1963620  78.9864970  93.4313800  28.0486010
  78.6465020  93.9089030  28.8053060  78.2242290  92.9778920  27.6887110
  83.1982740  94.5499390  22.0798560  83.3195560  94.5085870  23.0284380
  82.8131250  95.4123540  21.9245290  87.1611110  92.3266790  30.0962250
  87.1783850  92.7775440  30.9404100  86.9126690  91.4272430  30.3095690
  82.2104240  96.8600530  21.4781860  81.6421140  96.4118780  20.8517770
  82.9193240  97.2193310  20.9447010  90.5881860  89.7398970  35.9348630
  90.9127630  89.0088630  36.4606610  90.6238370  89.4212610  35.0329620
  83.4370560  97.6089090  30.8357210  83.8040690  97.1347660  31.5818550
  83.2475620  98.4830660  31.1765550  76.3011050  92.3532780  26.9650680
  76.0157970  91.9888450  27.8029300  76.2389910  91.6213240  26.3513820
  81.2269930  96.6497730  33.1541420  80.9227000  97.5289710  33.3791780
  82.1816390  96.7097520  33.1898860  79.7551720 100.8558720  23.7508270
  78.9813980 100.3156340  23.5906990  80.4846350 100.3365330  23.4126030
  90.5139700  99.8524080  29.5434660  91.2338820 100.3479370  29.1530770
  90.3121520  99.1741970  28.8988530  85.9749640  91.2462040  23.6864050
  85.1614250  90.7475210  23.6109360  85.7811590  92.0860290  23.2700400
  85.8958500  99.9233140  35.4303660  85.8295810  99.0028810  35.1761250
  85.2663640 100.0208580  36.1448300  88.6898030  95.6181690  21.9826210
  89.5777650  95.9298920  21.8077550  88.6603120  94.7453940  21.5906790
  79.7989120 100.5239100  27.3887080  80.3167790  99.7207360  27.3343970
  79.3473140 100.4618240  28.2303910  77.2833660  97.4900470  34.3012780
  76.9248600  98.1554320  34.8886120  76.9888220  96.6584020  34.6725400
  80.4846780  97.9484710  37.1852330  80.1846920  98.0941890  36.2880150
  81.2558020  97.3890000  37.0925720  90.9612300  96.9293530  21.4506070
  90.8776020  97.3607750  20.6002510  91.6806490  97.3891880  21.8832890
  92.0386440  99.3861050  34.5276040  91.3134630  99.9789830  34.3305430
  92.5661900  99.3784590  33.7289410  75.7941710  97.4891730  20.9247380
  76.6636560  97.7716530  21.2083300  75.3032030  98.3027600  20.8096190
  82.9576520  98.8764940  25.0455660  83.4139300  99.6870190  25.2715850
  82.6064730  98.5588080  25.8774150  78.8588300  89.2202590  25.5178180
  78.7302930  89.2120490  26.4663100  78.0350320  89.5585680  25.1669190
  75.8582230  90.9793710  34.9784880  75.1440750  91.1790630  35.5837490
  76.2777270  90.2033280  35.3499680  77.7788220  99.3065200  23.0529440
  77.1716170 100.0464100  23.0624740  78.2537570  99.3964560  22.2267640
  87.3521010  93.4716020  32.7286330  87.7201830  92.6511230  33.0565900
  86.4919210  93.5317910  33.1441980  90.7183040  92.4272960  23.5373890
  90.0896200  92.5318630  22.8232120  90.2234960  92.6469740  24.3267770
  82.6867070  94.7058910  24.9531770  81.9783220  95.1745250  25.3945380
  82.9711550  94.0480920  25.5876960  84.3123000  96.1255610  32.9524300
  84.8108250  96.6001430  33.6176150  84.4545950  95.2019130  33.1594330
  86.7182500  91.4309570  26.3927560  86.5950280  91.4495700  25.4437070
  87.6667060  91.4788510  26.5125960  80.8902090  93.0143990  22.3282480
  81.7392620  93.4514140  22.2622670  80.5233360  93.3264250  23.1554540
  91.5189860  92.3423570  33.7952690  91.0163460  93.0828970  34.1346500
  92.3346520  92.7307570  33.4789480  89.8111870  97.5856750  27.2414050
  88.8702010  97.6006980  27.4161740  90.1255940  96.7992710  27.6874350
  79.7893510  99.2676350  20.8018010  80.5556780  99.1557710  21.3643440
  79.8668200  98.5714320  20.1494780  78.4840270  96.7001420  21.4850900
  78.5643860  95.7528930  21.5968300  79.3760020  97.0308300  21.5911560
  76.0111070  98.5216340  36.7207070  76.5150090  97.9423620  37.2923300
  75.2718490  98.8056570  37.2583440  83.0649010  99.9287330  36.2542590
  82.2994680 100.4972330  36.1697260  83.2464970  99.6363540  35.3610820
  86.1537420 100.3050560  20.8795350  85.6047520 100.7519860  21.5238090
  86.7756680  99.7999810  21.4033020  78.0434150  96.6645930  37.6157140
  78.0839490  96.3659800  38.5242370  78.8979650  97.0653540  37.4564660
  81.8212540  99.2641480  22.7760650  82.2428960  99.0981350  23.6192040
  81.9463380  98.4541710  22.2815790  79.9839960  95.2438030  35.5831630
  79.4536420  94.7528980  34.9554970  80.6528030  95.6722230  35.0489560
  84.3340180  98.2879090  20.0237750  84.8545840  97.5728110  19.6578900
  84.9808580  98.9264960  20.3238260  88.8818020  99.7107490  35.3472820
  89.2959040  99.8652570  36.1963240  87.9469020  99.8362710  35.5098600
  89.3540190  97.0503650  37.3511970  89.9360960  96.2955970  37.2632450
  89.5301960  97.5811090  36.5743450  80.4712260  92.2100400  35.6628920
  80.3769130  91.5921150  34.9379790  79.8909650  92.9366690  35.4358830
  83.2373700  90.7673640  32.6956310  82.7891000  90.7897900  31.8501860
  82.6038900  90.3692660  33.2926610  83.6433250  99.6627970  33.3168750
  84.0621360 100.5060700  33.1444990  82.7241880  99.8000010  33.0875530
  85.9797150  97.3944150  34.7006590  86.0993360  96.7985290  35.4401430
  86.8391150  97.4313840  34.2807890  88.3185050  97.9481340  33.2769100
  87.7920270  98.4723960  32.6734240  88.6616390  98.5808730  33.9078830
  80.7171440  95.3374710  19.7218810  80.5160500  94.4742070  20.0832150
  80.5463490  95.2508070  18.7840410  82.7465920  93.9365500  35.9582410
  83.3365610  93.6281350  36.6460230  81.9286160  93.4645250  36.1142310
  87.5659350  93.5531310  36.1915430  86.8774870  92.8912850  36.1265420
  88.2865370  93.1069580  36.6363890  88.1959750  90.1482940  22.2505690
  88.4762040  89.3050840  22.6065110  87.4225480  90.3806050  22.7644440
  79.5154240  92.4375330  19.7096690  79.8180140  92.4442760  18.8015840
  80.2548830  92.0873190  20.2064350  82.7339170  91.3809950  20.6952890
  82.3861170  90.7033940  20.1155340  82.9351940  90.9199460  21.5096280
  92.5740470  99.3859670  22.8609600  93.3359380  99.9556320  22.9669290
  92.5894840  98.8186870  23.6317910  76.0744810  97.9097600  27.0917260
  75.4193650  97.6409240  26.4476960  76.9122760  97.8002080  26.6419240
  92.6259640  99.6794040  20.0182120  92.9008480 100.5872920  19.8901340
  92.4370380  99.6156570  20.9544110  89.0235250  92.7038890  21.3135750
  89.4420130  92.5169870  20.4732410  88.7171310  91.8517940  21.6238680
  92.5224980  97.6163030  25.0111550  92.1468580  96.8490960  24.5792840
  91.7928100  97.9985730  25.4986480  77.1120740  98.2950170  31.6320600
  77.4793780  98.2077570  32.5116620  76.5431560  97.5316720  31.5327460
  91.9124600  96.7634550  34.6451070  91.6810690  96.5347300  33.7449020
  92.1729150  97.6834100  34.5995960  76.6636740  95.2059260  35.5379020
  75.7692790  95.1726020  35.8772730  77.2034290  95.4046050  36.3030270
  90.3512670  91.9890980  37.4230770  91.2282850  91.9974380  37.8064770
  90.3633510  91.2521820  36.8123120  75.2882890  95.1196530  23.0342590
  74.3846970  95.3826730  22.8594250  75.7723510  95.3907700  22.2542550
  91.7975940  95.8420520  28.3118790  92.3213420  95.3483170  27.6808960
  92.3835360  95.9770880  29.0566360  91.9765660  95.9260390  31.8338340
  91.0268370  95.8923930  31.9483330  92.1578670  96.8360500  31.5988110
  77.8310100  94.1762070  20.9436970  78.5401800  93.7545290  20.4584250
  77.1150040  94.2437300  20.3120320  77.4784260  90.2301400  19.9839620
  78.2012390  90.7710340  20.3020840  77.7508780  89.9564820  19.1081160
  91.2875910  95.0993870  24.2511200  91.7835030  94.8664740  25.0360080
  91.0891980  94.2605710  23.8348840  77.1676450  89.4807590  29.8862240
  77.8152640  88.9304970  29.4457400  77.5878290  89.7350740  30.7078050
  92.7163070  93.7354820  26.7848880  92.6062350  93.5810860  27.7231150
  93.4770660  93.2075760  26.5424290  91.0628790  89.6748950  33.2431880
  91.7001010  90.2883090  33.6091070  91.2103680  89.7109610  32.2981110
  93.6053340  91.5662740  20.0255020  94.5302650  91.4343920  19.8173310
  93.5829130  91.6455560  20.9791470  93.6791830  92.3373400  22.6511730
  92.8843330  92.2718520  23.1804640  93.8835110  93.2724040  22.6397080
  76.9208450  89.6363260  32.6287560  76.5723270  90.0927080  33.3945740
  76.5896150  88.7420390  32.7109990  84.4333270  90.8275140  36.1506980
  84.3722160  91.4196970  36.9002390  85.3733650  90.7201100  36.0057240
  87.0707830  90.4845200  35.7899270  87.6848240  90.8024490  35.1280350
  87.6157390  89.9993790  36.4095130  77.5929090  89.1639460  35.9038330
  78.1412080  88.9827510  35.1404440  77.6584400  88.3733570  36.4394640
  87.8115870  89.0477340  32.1168560  86.9375710  89.3812450  31.9141490
  87.7026620  88.5750520  32.9420430  88.7187850  91.2548210  33.5010280
  88.3901210  90.4399970  33.1212010  89.6670150  91.2118020  33.3775970
  85.5590690  89.9647180  31.0561470  84.7762480  90.4392680  31.3358230
  85.2653620  89.0602010  30.9474650  90.1111760  90.6670280  29.1010560
  90.5519850  90.6115380  28.2532160  89.8419350  91.5828290  29.1720740
  91.9750330  90.2985520  27.1119380  91.9138730  89.3546740  26.9650400
  92.7542360  90.4065610  27.6572840  76.9031100  90.2694660  23.5775190
  77.6610460  90.3823540  23.0039220  76.4408270  91.1063860  23.5318620
  83.4444910  92.3833930  26.5677500  82.6319420  92.0090820  26.2273380
  83.9486550  91.6279010  26.8698690  87.9469890  89.0476380  27.8060570
  88.5499260  89.6196590  28.2809090  87.2062880  89.6115820  27.5834470
  91.0904490  89.4497940  23.0800850  91.2855120  90.3481390  23.3468280
  90.3034360  89.2185020  23.5733800  79.2756250  90.7958710  22.1177160
  79.8049010  90.0088510  21.9885110  79.9084570  91.4749900  22.3512690
  81.4694090  90.5333850  25.1722550  80.8396830  89.8321160  25.3392680
  80.9299230  91.2937980  24.9555710  81.5949650  89.8117830  37.6075040
  81.3133920  90.3151430  36.8435860  81.9769350  89.0139580  37.2417170
  88.1965110  89.2271410  38.1855510  88.0830560  89.5466020  39.0807030
  89.0134850  89.6283920  37.8892790  87.1023260  97.2463880   8.5490250
  87.0217310  96.3318490   8.2781960  86.6887680  97.7430950   7.8429960
  85.2341300  99.0242900  10.4299520  84.4583400  98.5443340  10.7198090
  85.8854230  98.3448550  10.2555680  79.2507130  99.3362710  11.3075280
  78.4192010  99.0811420  11.7071790  79.8588110  99.4073480  12.0433200
  77.6599080  94.2964600   5.0917670  76.7715780  94.6380570   4.9897550
  77.9440270  94.0964920   4.1998500  75.6232090  96.8970250  10.9757370
  76.1948200  96.1292450  10.9761010  75.6233630  97.1959010  10.0663980
  76.8656960  92.3054610  12.7626300  76.6859800  91.4080360  13.0429060
  76.4637040  92.8526480  13.4373250  85.7055460  94.5070470  10.6638610
  86.0820280  93.6342350  10.5512280  85.6074970  94.8429170   9.7729050
  79.8360470  92.8796100   6.1256050  79.9427220  93.7799830   6.4324810
  78.9252830  92.8314070   5.8350700  89.4879580  92.0020910   7.5966950
  90.3089200  91.5117480   7.6392430  89.5213660  92.5918570   8.3498790
  77.4843630  94.8015110  11.3708640  78.1653740  95.0653480  11.9896040
  77.1691680  93.9615980  11.7046650  81.6768200  95.8482470  10.4581230
  82.1846420  96.3463440  11.0986250  82.2081440  95.0717670  10.2820590
  93.7779130  94.0187660  14.1610580  93.0731300  94.4069370  13.6425690
  94.0437050  94.7137950  14.7631510  79.9604300  90.4881030  14.7244650
  79.9622740  91.0053420  13.9190550  79.1308610  90.0111210  14.7014580
  81.2107150 100.1276210  12.9018150  80.8776530 100.7545130  13.5439220
  81.3873830 100.6538090  12.1219820  89.7241060  93.9421290  10.3694490
  89.0196630  94.2306180  10.9497600  90.0853220  94.7521400  10.0094050
  79.6419630  92.1990990  12.7315100  79.9836440  93.0433040  12.4368970
  78.7035440  92.3474730  12.8480440  92.7927980  93.3876080  10.7603700
  91.8452890  93.4215060  10.8919130  93.1177970  94.2015030  11.1453060
  83.3247520  89.6873260   9.0559690  83.6322500  89.1320150   8.3395190
  82.3948220  89.8217720   8.8732680  88.2748020 100.3070390  12.6749760
  88.6916810 100.0930500  11.8403220  88.9987840 100.5643180  13.2458380
  85.7128280  97.7522090   5.7919810  84.7857560  97.6859470   6.0208280
  85.8653100  98.6902220   5.6775050  85.6997360  94.0239090   2.7886970
  84.7601030  94.1853050   2.8739430  86.0180620  94.7424770   2.2422960
  92.2210120  98.7057610  12.7666000  91.3928750  98.7750700  12.2916130
  92.8160600  99.2911920  12.2981830  89.7425570  99.3142390   6.2955060
  89.1237990  98.9761940   5.6481360  89.7250020  98.6702150   7.0034250
  89.1852130  95.4926930  13.7120870  88.7723310  96.3180640  13.9660860
  88.4528080  94.9071970  13.5197230  81.3184920  98.2786830   8.5739540
  80.9141920  97.5664080   8.0785440  81.4048040  97.9340070   9.4627580
  80.0313540  95.0530040  12.3538580  80.5828130  95.1625380  11.5791830
  80.5457050  95.4267640  13.0693810  87.9190270  98.5529200   3.3027810
  88.3583550  97.7151630   3.1565630  88.6318690  99.1858600   3.3891950
  79.7056270  98.5749400  15.9643920  79.5664040  99.4472200  16.3331320
  78.8237630  98.2322210  15.8191860  78.0189550  97.1731810   6.0746190
  77.8987150  97.8993900   5.4627460  77.7090440  96.4034720   5.5974100
  75.6574920 100.3446950  11.8814830  75.7355340 100.4795720  10.9370550
  76.2716600  99.6362840  12.0742950  92.7108700  94.5443510  17.5942990
  92.0952970  95.0523180  17.0658450  92.3905120  93.6441840  17.5368930
  80.4853210  90.5166880   9.4569860  80.0421360  91.2976420   9.1254380
  81.0438200  90.8396770  10.1640800  84.7723020  93.3835400  15.0605180
  84.3102390  93.5918420  15.8725120  84.3701130  92.5694750  14.7575850
  89.7727530  94.6044350  16.1901840  88.9221120  94.3050100  16.5110910
  89.6129320  94.8486360  15.2785660  86.8677240  96.1046100  18.2900630
  87.1930650  95.2709850  17.9502860  87.6557570  96.6274620  18.4378960
  83.6012030  90.1377580   4.3375690  82.9766210  90.1337450   5.0629000
  83.5142150  89.2708540   3.9411660  82.5229110  91.0614210  11.3159460
  82.8201440  91.9677040  11.2351480  83.0714670  90.5732990  10.7019030
  80.2767430  95.6400450   7.1851110  80.0508350  95.4237620   8.0897730
  79.4959960  96.0728910   6.8397080  87.5065190  95.6463820   5.7841760
  86.9074080  96.3699620   5.6005380  88.0544800  95.5840600   5.0018210
  82.7166640  96.5386030  17.8511380  82.6210240  95.5980760  17.7011780
  83.5598620  96.7601100  17.4559450  86.1130060  94.2827360   7.8145040
  86.5059630  94.5999560   7.0013730  86.4746910  93.4039240   7.9289560
  77.8477180  92.9499700  16.0045160  77.4540570  93.7974910  16.2117940
  77.1595580  92.3126070  16.1953800  84.4222230  93.0334670  19.0741900
  83.7320550  92.8406870  19.7087990  85.1654530  93.3169310  19.6066200
  75.1494230  90.8728160  10.0375240  74.8607280  91.4431020  10.7500220
  75.8939990  90.3932610  10.4006470  86.6985200  96.8733110  11.9095820
  85.9666320  97.3819920  12.2585920  86.3009540  96.0563090  11.6084600
  83.1362590  93.5487310  10.3148310  83.1398650  93.1077260   9.4652850
  84.0313710  93.8704640  10.4220130  78.9864970  93.4313800   9.2742520
  78.6465020  93.9089030  10.0309570  78.2242290  92.9778920   8.9143620
  83.1982740  94.5499390   3.3055070  83.3195560  94.5085870   4.2540890
  82.8131250  95.4123540   3.1501800  87.1611110  92.3266790  11.3218760
  87.1783850  92.7775440  12.1660610  86.9126690  91.4272430  11.5352200
  82.2104240  96.8600530   2.7038370  81.6421140  96.4118780   2.0774280
  82.9193240  97.2193310   2.1703520  90.5881860  89.7398970  17.1605140
  90.9127630  89.0088630  17.6863120  90.6238370  89.4212610  16.2586130
  83.4370560  97.6089090  12.0613720  83.8040690  97.1347660  12.8075060
  83.2475620  98.4830660  12.4022060  76.3011050  92.3532780   8.1907190
  76.0157970  91.9888450   9.0285810  76.2389910  91.6213240   7.5770330
  81.2269930  96.6497730  14.3797930  80.9227000  97.5289710  14.6048290
  82.1816390  96.7097520  14.4155370  79.7551720 100.8558720   4.9764780
  78.9813980 100.3156340   4.8163500  80.4846350 100.3365330   4.6382540
  90.5139700  99.8524080  10.7691170  91.2338820 100.3479370  10.3787280
  90.3121520  99.1741970  10.1245040  85.9749640  91.2462040   4.9120560
  85.1614250  90.7475210   4.8365870  85.7811590  92.0860290   4.4956910
  85.8958500  99.9233140  16.6560170  85.8295810  99.0028810  16.4017760
  85.2663640 100.0208580  17.3704810  88.6898030  95.6181690   3.2082720
  89.5777650  95.9298920   3.0334060  88.6603120  94.7453940   2.8163300
  79.7989120 100.5239100   8.6143590  80.3167790  99.7207360   8.5600480
  79.3473140 100.4618240   9.4560420  77.2833660  97.4900470  15.5269290
  76.9248600  98.1554320  16.1142630  76.9888220  96.6584020  15.8981910
  80.4846780  97.9484710  18.4108840  80.1846920  98.0941890  17.5136660
  81.2558020  97.3890000  18.3182230  90.9612300  96.9293530   2.6762580
  90.8776020  97.3607750   1.8259020  91.6806490  97.3891880   3.1089400
  92.0386440  99.3861050  15.7532550  91.3134630  99.9789830  15.5561940
  92.5661900  99.3784590  14.9545920  75.7941710  97.4891730   2.1503890
  76.6636560  97.7716530   2.4339810  75.3032030  98.3027600   2.0352700
  82.9576520  98.8764940   6.2712170  83.4139300  99.6870190   6.4972360
  82.6064730  98.5588080   7.1030660  78.8588300  89.2202590   6.7434690
  78.7302930  89.2120490   7.6919610  78.0350320  89.5585680   6.3925700
  75.8582230  90.9793710  16.2041390  75.1440750  91.1790630  16.8094000
  76.2777270  90.2033280  16.5756190  77.7788220  99.3065200   4.2785950
  77.1716170 100.0464100   4.2881250  78.2537570  99.3964560   3.4524150
  87.3521010  93.4716020  13.9542840  87.7201830  92.6511230  14.2822410
  86.4919210  93.5317910  14.3698490  90.7183040  92.4272960   4.7630400
  90.0896200  92.5318630   4.0488630  90.2234960  92.6469740   5.5524280
  82.6867070  94.7058910   6.1788280  81.9783220  95.1745250   6.6201890
  82.9711550  94.0480920   6.8133470  84.3123000  96.1255610  14.1780810
  84.8108250  96.6001430  14.8432660  84.4545950  95.2019130  14.3850840
  86.7182500  91.4309570   7.6184070  86.5950280  91.4495700   6.6693580
  87.6667060  91.4788510   7.7382470  80.8902090  93.0143990   3.5538990
  81.7392620  93.4514140   3.4879180  80.5233360  93.3264250   4.3811050
  91.5189860  92.3423570  15.0209200  91.0163460  93.0828970  15.3603010
  92.3346520  92.7307570  14.7045990  89.8111870  97.5856750   8.4670560
  88.8702010  97.6006980   8.6418250  90.1255940  96.7992710   8.9130860
  78.4840270  96.7001420   2.7107410  78.5643860  95.7528930   2.8224810
  79.3760020  97.0308300   2.8168070  76.0111070  98.5216340  17.9463580
  76.5150090  97.9423620  18.5179810  75.2718490  98.8056570  18.4839950
  83.0649010  99.9287330  17.4799100  82.2994680 100.4972330  17.3953770
  83.2464970  99.6363540  16.5867330  86.1537420 100.3050560   2.1051860
  85.6047520 100.7519860   2.7494600  86.7756680  99.7999810   2.6289530
  78.0434150  96.6645930  18.8413650  78.0839490  96.3659800  19.7498880
  78.8979650  97.0653540  18.6821170  81.8212540  99.2641480   4.0017160
  82.2428960  99.0981350   4.8448550  81.9463380  98.4541710   3.5072300
  79.9839960  95.2438030  16.8088140  79.4536420  94.7528980  16.1811480
  80.6528030  95.6722230  16.2746070  88.8818020  99.7107490  16.5729330
  89.2959040  99.8652570  17.4219750  87.9469020  99.8362710  16.7355110
  89.3540190  97.0503650  18.5768480  89.9360960  96.2955970  18.4888960
  89.5301960  97.5811090  17.7999960  80.4712260  92.2100400  16.8885430
  80.3769130  91.5921150  16.1636300  79.8909650  92.9366690  16.6615340
  83.2373700  90.7673640  13.9212820  82.7891000  90.7897900  13.0758370
  82.6038900  90.3692660  14.5183120  83.6433250  99.6627970  14.5425260
  84.0621360 100.5060700  14.3701500  82.7241880  99.8000010  14.3132040
  85.9797150  97.3944150  15.9263100  86.0993360  96.7985290  16.6657940
  86.8391150  97.4313840  15.5064400  88.3185050  97.9481340  14.5025610
  87.7920270  98.4723960  13.8990750  88.6616390  98.5808730  15.1335340
  82.7465920  93.9365500  17.1838920  83.3365610  93.6281350  17.8716740
  81.9286160  93.4645250  17.3398820  87.5659350  93.5531310  17.4171940
  86.8774870  92.8912850  17.3521930  88.2865370  93.1069580  17.8620400
  88.1959750  90.1482940   3.4762200  88.4762040  89.3050840   3.8321620
  87.4225480  90.3806050   3.9900950  92.5740470  99.3859670   4.0866110
  93.3359380  99.9556320   4.1925800  92.5894840  98.8186870   4.8574420
  76.0744810  97.9097600   8.3173770  75.4193650  97.6409240   7.6733470
  76.9122760  97.8002080   7.8675750  89.0235250  92.7038890   2.5392260
  89.4420130  92.5169870   1.6988920  88.7171310  91.8517940   2.8495190
  92.5224980  97.6163030   6.2368060  92.1468580  96.8490960   5.8049350
  91.7928100  97.9985730   6.7242990  77.1120740  98.2950170  12.8577110
  77.4793780  98.2077570  13.7373130  76.5431560  97.5316720  12.7583970
  91.9124600  96.7634550  15.8707580  91.6810690  96.5347300  14.9705530
  92.1729150  97.6834100  15.8252470  76.6636740  95.2059260  16.7635530
  75.7692790  95.1726020  17.1029240  77.2034290  95.4046050  17.5286780
  90.3512670  91.9890980  18.6487280  91.2282850  91.9974380  19.0321280
  90.3633510  91.2521820  18.0379630  75.2882890  95.1196530   4.2599100
  74.3846970  95.3826730   4.0850760  75.7723510  95.3907700   3.4799060
  91.7975940  95.8420520   9.5375300  92.3213420  95.3483170   8.9065470
  92.3835360  95.9770880  10.2822870  91.9765660  95.9260390  13.0594850
  91.0268370  95.8923930  13.1739840  92.1578670  96.8360500  12.8244620
  91.2875910  95.0993870   5.4767710  91.7835030  94.8664740   6.2616590
  91.0891980  94.2605710   5.0605350  77.1676450  89.4807590  11.1118750
  77.8152640  88.9304970  10.6713910  77.5878290  89.7350740  11.9334560
  92.7163070  93.7354820   8.0105390  92.6062350  93.5810860   8.9487660
  93.4770660  93.2075760   7.7680800  91.0628790  89.6748950  14.4688390
  91.7001010  90.2883090  14.8347580  91.2103680  89.7109610  13.5237620
  93.6791830  92.3373400   3.8768240  92.8843330  92.2718520   4.4061150
  93.8835110  93.2724040   3.8653590  76.9208450  89.6363260  13.8544070
  76.5723270  90.0927080  14.6202250  76.5896150  88.7420390  13.9366500
  84.4333270  90.8275140  17.3763490  84.3722160  91.4196970  18.1258900
  85.3733650  90.7201100  17.2313750  87.0707830  90.4845200  17.0155780
  87.6848240  90.8024490  16.3536860  87.6157390  89.9993790  17.6351640
  77.5929090  89.1639460  17.1294840  78.1412080  88.9827510  16.3660950
  77.6584400  88.3733570  17.6651150  87.8115870  89.0477340  13.3425070
  86.9375710  89.3812450  13.1398000  87.7026620  88.5750520  14.1676940
  88.7187850  91.2548210  14.7266790  88.3901210  90.4399970  14.3468520
  89.6670150  91.2118020  14.6032480  85.5590690  89.9647180  12.2817980
  84.7762480  90.4392680  12.5614740  85.2653620  89.0602010  12.1731160
  90.1111760  90.6670280  10.3267070  90.5519850  90.6115380   9.4788670
  89.8419350  91.5828290  10.3977250  91.9750330  90.2985520   8.3375890
  91.9138730  89.3546740   8.1906910  92.7542360  90.4065610   8.8829350
  76.9031100  90.2694660   4.8031700  77.6610460  90.3823540   4.2295730
  76.4408270  91.1063860   4.7575130  83.4444910  92.3833930   7.7934010
  82.6319420  92.0090820   7.4529890  83.9486550  91.6279010   8.0955200
  87.9469890  89.0476380   9.0317080  88.5499260  89.6196590   9.5065600
  87.2062880  89.6115820   8.8090980  91.0904490  89.4497940   4.3057360
  91.2855120  90.3481390   4.5724790  90.3034360  89.2185020   4.7990310
  79.2756250  90.7958710   3.3433670  79.8049010  90.0088510   3.2141620
  79.9084570  91.4749900   3.5769200  81.4694090  90.5333850   6.3979060
  80.8396830  89.8321160   6.5649190  80.9299230  91.2937980   6.1812220
  81.5949650  89.8117830  18.8331550  81.3133920  90.3151430  18.0692370
  81.9769350  89.0139580  18.4673680  88.1965110  89.2271410  19.4112020
  88.0830560  89.5466020  20.3063540  89.0134850  89.6283920  19.1149300
  87.1023260  78.4720390  64.8720720  87.0217310  77.5575000  64.6012430
  86.6887680  78.9687460  64.1660430  85.2341300  80.2499410  66.7529990
  84.4583400  79.7699850  67.0428560  85.8854230  79.5705060  66.5786150
  79.2507130  80.5619220  67.6305750  78.4192010  80.3067930  68.0302260
  79.8588110  80.6329990  68.3663670  89.2548730  84.6559600  65.5329120
  88.7930260  83.8846840  65.8616290  90.0674280  84.6825670  66.0381570
  79.2308390  84.5959310  67.8263770  79.5336430  83.7057050  67.6473990
  79.9751980  85.1529530  67.5986020  77.6599080  75.5221110  61.4148140
  76.7715780  75.8637080  61.3128020  77.9440270  75.3221430  60.5228970
  75.6232090  78.1226760  67.2987840  76.1948200  77.3548960  67.2991480
  75.6233630  78.4215520  66.3894450  85.4812040  86.9417610  65.1533110
  84.8623480  87.3975110  64.5827550  86.3363820  87.0969070  64.7522810
  84.6750290  82.9256600  66.7600150  84.6058570  81.9846540  66.5989280
  85.4370150  83.0158010  67.3322720  76.8656960  73.5311120  69.0856770
  76.6859800  72.6336870  69.3659530  76.4637040  74.0782990  69.7603720
  85.7055460  75.7326980  66.9869080  86.0820280  74.8598860  66.8742750
  85.6074970  76.0685680  66.0959520  79.8360470  74.1052610  62.4486520
  79.9427220  75.0056340  62.7555280  78.9252830  74.0570580  62.1581170
  89.4879580  73.2277420  63.9197420  90.3089200  72.7373990  63.9622900
  89.5213660  73.8175080  64.6729260  77.4843630  76.0271620  67.6939110
  78.1653740  76.2909990  68.3126510  77.1691680  75.1872490  68.0277120
  81.6768200  77.0738980  66.7811700  82.1846420  77.5719950  67.4216720
  82.2081440  76.2974180  66.6051060  93.7779130  75.2444170  70.4841050
  93.0731300  75.6325880  69.9656160  94.0437050  75.9394460  71.0861980
  79.9604300  71.7137540  71.0475120  79.9622740  72.2309930  70.2421020
  79.1308610  71.2367720  71.0245050  86.3475390  81.8256850  62.5465020
  85.7292660  82.2906300  61.9827740  86.8598640  82.5184330  62.9634530
  81.2107150  81.3532720  69.2248620  80.8776530  81.9801640  69.8669690
  81.3873830  81.8794600  68.4450290  89.7241060  75.1677800  66.6924960
  89.0196630  75.4562690  67.2728070  90.0853220  75.9777910  66.3324520
  79.6419630  73.4247500  69.0545570  79.9836440  74.2689550  68.7599440
  78.7035440  73.5731240  69.1710910  80.4226250  83.3213520  71.0397800
  81.0400250  83.9964600  70.7582250  79.5619370  83.7301500  70.9485300
  75.7158590  82.5113380  59.9204650  75.3386570  83.0000480  59.1889550
  75.9731660  83.1838660  60.5511180  91.3403840  84.7852930  68.9552440
  90.6567360  85.4552040  68.9469110  91.8798130  84.9833580  68.1897300
  92.7927980  74.6132590  67.0834170  91.8452890  74.6471570  67.2149600
  93.1177970  75.4271540  67.4683530  83.3247520  70.9129770  65.3790160
  83.6322500  70.3576660  64.6625660  82.3948220  71.0474230  65.1963150
  88.8762580  86.6297060  67.6697620  88.8889740  86.2259350  66.8019880
  88.3237800  87.4044350  67.5659050  90.1708000  83.3513280  62.7587790
  90.0604330  82.4087610  62.8837210  90.1676250  83.7128920  63.6450550
  88.2748020  81.5326900  68.9980230  88.6916810  81.3187010  68.1633690
  88.9987840  81.7899690  69.5688850  85.7128280  78.9778600  62.1150280
  84.7857560  78.9115980  62.3438750  85.8653100  79.9158730  62.0005520
  85.6997360  75.2495600  59.1117440  84.7601030  75.4109560  59.1969900
  86.0180620  75.9681280  58.5653430  92.2210120  79.9314120  69.0896470
  91.3928750  80.0007210  68.6146600  92.8160600  80.5168430  68.6212300
  89.7425570  80.5398900  62.6185530  89.1237990  80.2018450  61.9711830
  89.7250020  79.8958660  63.3264720  89.1852130  76.7183440  70.0351340
  88.7723310  77.5437150  70.2891330  88.4528080  76.1328480  69.8427700
  81.3184920  79.5043340  64.8970010  80.9141920  78.7920590  64.4015910
  81.4048040  79.1596580  65.7858050  81.7866620  83.1910900  67.0609220
  81.4894910  82.5856370  66.3817000  82.7366440  83.2288210  66.9498580
  80.0313540  76.2786550  68.6769050  80.5828130  76.3881890  67.9022300
  80.5457050  76.6524150  69.3924280  89.8752230  86.7642770  70.7232320
  89.3982790  87.5714960  70.5304930  89.1914020  86.1121100  70.8758530
  80.8785050  82.9292590  73.7117020  79.9813580  83.1532560  73.9590420
  80.9037920  83.0527530  72.7628420  87.9190270  79.7785710  59.6258280
  88.3583550  78.9408140  59.4796100  88.6318690  80.4115110  59.7122420
  79.7056270  79.8005910  72.2874390  79.5664040  80.6728710  72.6561790
  78.8237630  79.4578720  72.1422330  86.0285650  84.7181780  63.5939520
  86.4681560  85.4606110  63.1794910  85.9672540  84.9608350  64.5178480
  81.5036620  85.7427610  74.4959540  81.4752050  86.1470560  73.6287970
  81.3401590  84.8137970  74.3331140  91.5007410  71.0328520  57.9399320
  91.1880070  71.1255350  58.8398390  92.2619880  71.6109550  57.8896750
  78.0189550  78.3988320  62.3976660  77.8987150  79.1250410  61.7857930
  77.7090440  77.6291230  61.9204570  75.6574920  81.5703460  68.2045300
  75.7355340  81.7052230  67.2601020  76.2716600  80.8619350  68.3973420
  76.9022550  83.2703650  64.6151480  76.4950630  83.4118240  63.7605080
  77.7935560  82.9863810  64.4122690  92.8584690  83.7167560  72.9523720
  92.9847750  83.4779440  72.0340900  92.9006070  82.8852100  73.4245800
  86.7201430  87.4195560  71.5218530  87.2346100  87.3303570  72.3240960
  85.8770510  87.7655260  71.8146440  88.6955830  87.7050900  60.9502530
  88.5356970  87.4153840  61.8484360  88.5302540  86.9291030  60.4147760
  81.1744210  87.4849430  62.7274150  80.9986690  86.5684970  62.5141950
  80.3199950  87.8436720  62.9671950  88.3981960  85.2138460  59.5100530
  87.7047120  85.2115750  58.8502810  89.1404820  84.7897780  59.0794700
  87.9631890  86.8401170  63.5849020  88.4188840  86.0590550  63.8987640
  88.3024410  87.5507990  64.1290200  92.7108700  75.7700020  73.9173460
  92.0952970  76.2779690  73.3888920  92.3905120  74.8698350  73.8599400
  75.7134440  82.6117630  70.7439760  75.8765480  82.1422990  69.9259130
  76.1786890  82.1041190  71.4088600  80.4853210  71.7423390  65.7800330
  80.0421360  72.5232930  65.4484850  81.0438200  72.0653280  66.4871270
  84.7723020  74.6091910  71.3835650  84.3102390  74.8174930  72.1955590
  84.3701130  73.7951260  71.0806320  89.7727530  75.8300860  72.5132310
  88.9221120  75.5306610  72.8341380  89.6129320  76.0742870  71.6016130
  86.8677240  77.3302610  74.6131100  87.1930650  76.4966360  74.2733330
  87.6557570  77.8531130  74.7609430  83.6012030  71.3634090  60.6606160
  82.9766210  71.3593960  61.3859470  83.5142150  70.4965050  60.2642130
  82.5229110  72.2870720  67.6389930  82.8201440  73.1933550  67.5581950
  83.0714670  71.7989500  67.0249500  80.2767430  76.8656960  63.5081580
  80.0508350  76.6494130  64.4128200  79.4959960  77.2985420  63.1627550
  87.5065190  76.8720330  62.1072230  86.9074080  77.5956130  61.9235850
  88.0544800  76.8097110  61.3248680  82.7166640  77.7642540  74.1741850
  82.6210240  76.8237270  74.0242250  83.5598620  77.9857610  73.7789920
  86.1130060  75.5083870  64.1375510  86.5059630  75.8256070  63.3244200
  86.4746910  74.6295750  64.2520030  77.8477180  74.1756210  72.3275630
  77.4540570  75.0231420  72.5348410  77.1595580  73.5382580  72.5184270
  75.1494230  72.0984670  66.3605710  74.8607280  72.6687530  67.0730690
  75.8939990  71.6189120  66.7236940  75.3364460  76.0404790  57.5708430
  75.2539130  76.9835550  57.7123420  74.9847520  75.8979700  56.6920780
  86.6985200  78.0989620  68.2326290  85.9666320  78.6076430  68.5816390
  86.3009540  77.2819600  67.9315070  83.1362590  74.7743820  66.6378780
  83.1398650  74.3333770  65.7883320  84.0313710  75.0961150  66.7450600
  78.9864970  74.6570310  65.5972990  78.6465020  75.1345540  66.3540040
  78.2242290  74.2035430  65.2374090  83.1982740  75.7755900  59.6285540
  83.3195560  75.7342380  60.5771360  82.8131250  76.6380050  59.4732270
  87.1611110  73.5523300  67.6449230  87.1783850  74.0031950  68.4891080
  86.9126690  72.6528940  67.8582670  82.2104240  78.0857040  59.0268840
  81.6421140  77.6375290  58.4004750  82.9193240  78.4449820  58.4933990
  90.5881860  70.9655480  73.4835610  90.9127630  70.2345140  74.0093590
  90.6238370  70.6469120  72.5816600  77.2873420  81.9869060  72.9035570
  76.9028210  81.3462730  73.5018530  77.5985610  82.6905180  73.4730300
  83.4370560  78.8345600  68.3844190  83.8040690  78.3604170  69.1305530
  83.2475620  79.7087170  68.7252530  76.3011050  73.5789290  64.5137660
  76.0157970  73.2144960  65.3516280  76.2389910  72.8469750  63.9000800
  81.2269930  77.8754240  70.7028400  80.9227000  78.7546220  70.9278760
  82.1816390  77.9354030  70.7385840  79.7551720  82.0815230  61.2995250
  78.9813980  81.5412850  61.1393970  80.4846350  81.5621840  60.9613010
  90.5139700  81.0780590  67.0921640  91.2338820  81.5735880  66.7017750
  90.3121520  80.3998480  66.4475510  85.9749640  72.4718550  61.2351030
  85.1614250  71.9731720  61.1596340  85.7811590  73.3116800  60.8187380
  85.8958500  81.1489650  72.9790640  85.8295810  80.2285320  72.7248230
  85.2663640  81.2465090  73.6935280  88.6898030  76.8438200  59.5313190
  89.5777650  77.1555430  59.3564530  88.6603120  75.9710450  59.1393770
  79.7989120  81.7495610  64.9374060  80.3167790  80.9463870  64.8830950
  79.3473140  81.6874750  65.7790890  84.6858620  83.0161890  60.2101360
  85.0274320  83.7604120  59.7144680  83.8571330  83.3293010  60.5726190
  77.2833660  78.7156980  71.8499760  76.9248600  79.3810830  72.4373100
  76.9888220  77.8840530  72.2212380  80.4846780  79.1741220  74.7339310
  80.1846920  79.3198400  73.8367130  81.2558020  78.6146510  74.6412700
  85.8275230  83.9710220  72.7294440  85.8419770  83.0391180  72.5113350
  85.1200330  84.0569980  73.3684210  90.9612300  78.1550040  58.9993050
  90.8776020  78.5864260  58.1489490  91.6806490  78.6148390  59.4319870
  92.0386440  80.6117560  72.0763020  91.3134630  81.2046340  71.8792410
  92.5661900  80.6041100  71.2776390  91.9899550  85.0092300  61.7275180
  91.3475710  84.3547920  62.0018900  91.6030210  85.4147390  60.9515850
  87.5686030  82.3377730  65.5746870  87.9209850  81.7405860  64.9148240
  86.6848360  82.0121960  65.7455120  83.6549310  83.0975420  62.9817280
  84.3420440  83.6444630  63.3624870  82.8681730  83.6416150  63.0166890
  75.7941710  78.7148240  58.4734360  76.6636560  78.9973040  58.7570280
  75.3032030  79.5284110  58.3583170  82.9576520  80.1021450  62.5942640
  83.4139300  80.9126700  62.8202830  82.6064730  79.7844590  63.4261130
  85.2609130  85.6127790  69.8234940  85.9051350  85.8187170  70.5008360
  85.6238570  84.8516190  69.3705790  78.8588300  70.4459100  63.0665160
  78.7302930  70.4377000  64.0150080  78.0350320  70.7842190  62.7156170
  86.5341210  83.6160140  68.5412390  87.1763440  82.9153300  68.6544560
  87.0590560  84.3958580  68.3609280  90.3796930  83.9008760  58.2651530
  90.1534510  83.1839200  58.8576170  89.9893130  83.6521200  57.4273280
  88.3078830  84.4155040  71.7448450  88.6435070  85.0021730  72.4226370
  87.3879170  84.2847750  71.9746240  76.1612960  87.9275620  59.0395990
  76.5210600  88.5264960  58.3853260  76.0205300  88.4735510  59.8131020
  75.8582230  72.2050220  72.5271860  75.1440750  72.4047140  73.1324470
  76.2777270  71.4289790  72.8986660  89.9613180  81.8180700  59.9265690
  89.6734880  82.2793390  60.7143570  90.7565350  81.3578470  60.1949910
  76.1454820  86.1930480  73.5138390  76.2545940  85.2525220  73.3733780
  75.4935380  86.4585230  72.8652120  82.1781580  85.3106820  59.8569660
  82.1691680  86.0436510  59.2414170  81.2579940  85.0638400  59.9496620
  77.7788220  80.5321710  60.6016420  77.1716170  81.2720610  60.6111720
  78.2537570  80.6221070  59.7754620  87.3521010  74.6972530  70.2773310
  87.7201830  73.8767740  70.6052880  86.4919210  74.7574420  70.6928960
  90.7183040  73.6529470  61.0860870  90.0896200  73.7575140  60.3719100
  90.2234960  73.8726250  61.8754750  85.1641180  85.3735060  58.5194850
  85.2653160  85.1699050  57.5896830  84.2642920  85.1193340  58.7242630
  82.6867070  75.9315420  62.5018750  81.9783220  76.4001760  62.9432360
  82.9711550  75.2737430  63.1363940  84.3123000  77.3512120  70.5011280
  84.8108250  77.8257940  71.1663130  84.4545950  76.4275640  70.7081310
  86.7182500  72.6566080  63.9414540  86.5950280  72.6752210  62.9924050
  87.6667060  72.7045020  64.0612940  83.8059290  87.8921380  63.2142520
  84.0600790  87.8542770  62.2921890  82.8571770  87.7654710  63.2070770
  80.8902090  74.2400500  59.8769460  81.7392620  74.6770650  59.8109650
  80.5233360  74.5520760  60.7041520  91.5189860  73.5680080  71.3439670
  91.0163460  74.3085480  71.6833480  92.3346520  73.9564080  71.0276460
  89.8111870  78.8113260  64.7901030  88.8702010  78.8263490  64.9648720
  90.1255940  78.0249220  65.2361330  79.7893510  80.4932860  58.3504990
  80.5556780  80.3814220  58.9130420  79.8668200  79.7970830  57.6981760
  78.4840270  77.9257930  59.0337880  78.5643860  76.9785440  59.1455280
  79.3760020  78.2564810  59.1398540  91.8137450  85.9822110  66.4655290
  91.9384870  86.8053280  66.9379100  92.6803010  85.7712840  66.1179440
  79.2854980  88.0753320  66.1372420  80.0217460  87.5268780  66.4080990
  79.6695900  88.9409330  65.9978410  76.1700460  84.1426890  62.0113930
  75.2440240  84.3848030  62.0019340  76.6356890  84.9701150  61.8898680
  82.3957290  87.2483630  57.9597990  83.1885900  87.5372460  57.5079780
  81.8761640  86.8175800  57.2810470  88.5578260  87.0959550  73.8842820
  89.5100010  87.0117570  73.8343060  88.4106480  87.7601260  74.5576610
  91.4487460  86.4753760  59.3834730  91.1628970  86.0618900  58.5688910
  91.2507010  87.4041470  59.2635250  76.0111070  79.7472850  74.2694050
  76.5150090  79.1680130  74.8410280  75.2718490  80.0313080  74.8070420
  82.9134690  82.4687040  57.8240340  82.8085330  81.8539390  58.5501720
  82.7458910  81.9452930  57.0403350  83.0649010  81.1543840  73.8029570
  82.2994680  81.7228840  73.7184240  83.2464970  80.8620050  72.9097800
  86.1537420  81.5307070  58.4282330  85.6047520  81.9776370  59.0725070
  86.7756680  81.0256320  58.9520000  90.2072360  82.8849170  74.3604590
  90.9481830  83.2224930  73.8572050  89.4445040  83.0541230  73.8074360
  81.8212540  80.4897990  60.3247630  82.2428960  80.3237860  61.1679020
  81.9463380  79.6798220  59.8302770  79.9839960  76.4694540  73.1318610
  79.4536420  75.9785490  72.5041950  80.6528030  76.8978740  72.5976540
  84.3340180  79.5135600  57.5724730  84.8545840  78.7984620  57.2065880
  84.9808580  80.1521470  57.8725240  88.8818020  80.9364000  72.8959800
  89.2959040  81.0909080  73.7450220  87.9469020  81.0619220  73.0585580
  89.3540190  78.2760160  74.8998950  89.9360960  77.5212480  74.8119430
  89.5301960  78.8067600  74.1230430  80.4712260  73.4356910  73.2115900
  80.3769130  72.8177660  72.4866770  79.8909650  74.1623200  72.9845810
  83.2373700  71.9930150  70.2443290  82.7891000  72.0154410  69.3988840
  82.6038900  71.5949170  70.8413590  83.6433250  80.8884480  70.8655730
  84.0621360  81.7317210  70.6931970  82.7241880  81.0256520  70.6362510
  85.9797150  78.6200660  72.2493570  86.0993360  78.0241800  72.9888410
  86.8391150  78.6570350  71.8294870  88.3185050  79.1737850  70.8256080
  87.7920270  79.6980470  70.2221220  88.6616390  79.8065240  71.4565810
  80.7171440  76.5631220  57.2705790  80.5160500  75.6998580  57.6319130
  80.5463490  76.4764580  56.3327390  81.4940670  87.1937490  71.9813460
  80.9561760  87.9183550  71.6622160  81.7474630  86.7167830  71.1910800
  82.7465920  75.1622010  73.5069390  83.3365610  74.8537860  74.1947210
  81.9286160  74.6901760  73.6629290  87.5659350  74.7787820  73.7402410
  86.8774870  74.1169360  73.6752400  88.2865370  74.3326090  74.1850870
  88.1959750  71.3739450  59.7992670  88.4762040  70.5307350  60.1552090
  87.4225480  71.6062560  60.3131420  79.5154240  73.6631840  57.2583670
  79.8180140  73.6699270  56.3502820  80.2548830  73.3129700  57.7551330
  84.3502880  88.4288700  72.2400110  84.2761580  89.3323840  72.5472480
  83.4481720  88.1100600  72.2122180  82.7339170  72.6066460  58.2439870
  82.3861170  71.9290450  57.6642320  82.9351940  72.1455970  59.0583260
  84.8988210  87.5947210  59.8626470  85.7939000  87.9332180  59.8845230
  84.9305840  86.8726620  59.2350750  78.5384370  82.9674260  58.0913470
  78.9759240  83.5103930  58.7471050  79.0232100  82.1421210  58.1009810
  75.7530170  85.7563290  65.5433730  76.0833180  84.8884350  65.3112370
  76.1821170  85.9621810  66.3738690  80.3492090  84.0872300  63.2035700
  80.0487630  83.9637270  64.1039610  80.2429580  83.2280890  62.7951430
  76.2420380  86.6233880  68.2815360  75.8051370  86.8034680  69.1139510
  76.8098060  87.3808500  68.1397080  91.8782560  86.1250880  72.5692670
  91.2784550  86.1843440  71.8256590  92.0076460  85.1855860  72.6989520
  93.1184010  83.8668700  57.9062380  92.2876970  83.9345350  58.3769610
  93.2955840  84.7572820  57.6029240  92.5740470  80.6116180  60.4096580
  93.3359380  81.1812830  60.5156270  92.5894840  80.0443380  61.1804890
  76.0744810  79.1354110  64.6404240  75.4193650  78.8665750  63.9963940
  76.9122760  79.0258590  64.1906220  93.5800440  81.4666280  65.2538510
  93.9509270  80.6833600  64.8474480  94.2202370  82.1555380  65.0755810
  90.5634200  82.8502860  70.6668830  89.7494040  83.2800020  70.9294620
  90.9708400  83.4621270  70.0537880  92.6259640  80.9050550  57.5669100
  92.9008480  81.8129430  57.4388320  92.4370380  80.8413080  58.5031090
  89.0235250  73.9295400  58.8622730  89.4420130  73.7426380  58.0219390
  88.7171310  73.0774450  59.1725660  92.5224980  78.8419540  62.5598530
  92.1468580  78.0747470  62.1279820  91.7928100  79.2242240  63.0473460
  77.1120740  79.5206680  69.1807580  77.4793780  79.4334080  70.0603600
  76.5431560  78.7573230  69.0814440  91.9124600  77.9891060  72.1938050
  91.6810690  77.7603810  71.2936000  92.1729150  78.9090610  72.1482940
  76.6636740  76.4315770  73.0866000  75.7692790  76.3982530  73.4259710
  77.2034290  76.6302560  73.8517250  75.2882890  76.3453040  60.5829570
  74.3846970  76.6083240  60.4081230  75.7723510  76.6164210  59.8029530
  91.7975940  77.0677030  65.8605770  92.3213420  76.5739680  65.2295940
  92.3835360  77.2027390  66.6053340  91.9765660  77.1516900  69.3825320
  91.0268370  77.1180440  69.4970310  92.1578670  78.0617010  69.1475090
  77.8310100  75.4018580  58.4923950  78.5401800  74.9801800  58.0071230
  77.1150040  75.4693810  57.8607300  77.4784260  71.4557910  57.5326600
  78.2012390  71.9966850  57.8507820  77.7508780  71.1821330  56.6568140
  91.2875910  76.3250380  61.7998180  91.7835030  76.0921250  62.5847060
  91.0891980  75.4862220  61.3835820  77.1676450  70.7064100  67.4349220
  77.8152640  70.1561480  66.9944380  77.5878290  70.9607250  68.2565030
  92.7163070  74.9611330  64.3335860  92.6062350  74.8067370  65.2718130
  93.4770660  74.4332270  64.0911270  91.0628790  70.9005460  70.7918860
  91.7001010  71.5139600  71.1578050  91.2103680  70.9366120  69.8468090
  93.6053340  72.7919250  57.5742000  94.5302650  72.6600430  57.3660290
  93.5829130  72.8712070  58.5278450  93.6791830  73.5629910  60.1998710
  92.8843330  73.4975030  60.7291620  93.8835110  74.4980550  60.1884060
  90.6210250  87.6021460  64.1937100  91.2169320  87.2806030  63.5171520
  90.8788400  87.1293280  64.9850370  76.9208450  70.8619770  70.1774540
  76.5723270  71.3183590  70.9432720  76.5896150  69.9676900  70.2596970
  82.2278850  85.5898960  69.9437450  81.9870210  85.8573520  69.0567970
  83.1681490  85.7604690  69.9988310  84.4333270  72.0531650  73.6993960
  84.3722160  72.6453480  74.4489370  85.3733650  71.9457610  73.5544220
  87.0707830  71.7101710  73.3386250  87.6848240  72.0281000  72.6767330
  87.6157390  71.2250300  73.9582110  93.4883010  87.6093340  70.7448090
  92.9941290  88.0062210  70.0275220  92.8796300  86.9842550  71.1385370
  77.5929090  70.3895970  73.4525310  78.1412080  70.2084020  72.6891420
  77.6584400  69.5990080  73.9881620  78.3660850  86.9801620  71.4625510
  77.7721170  86.8486320  72.2015550  78.3584690  86.1439760  70.9967610
  87.8115870  70.2733850  69.6655540  86.9375710  70.6068960  69.4628470
  87.7026620  69.8007030  70.4907410  88.7187850  72.4804720  71.0497260
  88.3901210  71.6656480  70.6698990  89.6670150  72.4374530  70.9262950
  91.1722460  88.2516760  68.0234830  90.7125430  89.0032570  67.6492850
  90.5434920  87.5323230  67.9649630  77.9973080  84.3460000  70.4133550
  77.2707140  83.7265290  70.3459500  78.0582230  84.7400610  69.5431630
  81.6018180  86.5605000  67.1982960  82.1183200  85.9492360  66.6731220
  82.2515560  87.0633780  67.6893970  84.3413680  87.4513490  68.0251940
  84.6291490  87.1967790  67.1484950  84.8536900  86.8990850  68.6157510
  85.5590690  71.1903690  68.6048450  84.7762480  71.6649190  68.8845210
  85.2653620  70.2858520  68.4961630  90.1111760  71.8926790  66.6497540
  90.5519850  71.8371890  65.8019140  89.8419350  72.8084800  66.7207720
  91.9750330  71.5242030  64.6606360  91.9138730  70.5803250  64.5137380
  92.7542360  71.6322120  65.2059820  76.2803080  87.6634390  63.6230310
  76.1125120  87.0305070  64.3212200  75.4137590  87.8693790  63.2724500
  76.9031100  71.4951170  61.1262170  77.6610460  71.6080050  60.5526200
  76.4408270  72.3320370  61.0805600  83.4444910  73.6090440  64.1164480
  82.6319420  73.2347330  63.7760360  83.9486550  72.8535520  64.4185670
  87.9469890  70.2732890  65.3547550  88.5499260  70.8453100  65.8296070
  87.2062880  70.8372330  65.1321450  91.0904490  70.6754450  60.6287830
  91.2855120  71.5737900  60.8955260  90.3034360  70.4441530  61.1220780
  77.8865780  86.3567620  61.0680450  77.3613400  86.7375650  60.3642410
  77.8110360  86.9818390  61.7890160  79.2756250  72.0215220  59.6664140
  79.8049010  71.2345020  59.5372090  79.9084570  72.7006410  59.8999670
  81.4694090  71.7590360  62.7209530  80.8396830  71.0577670  62.8879660
  80.9299230  72.5194490  62.5042690  92.6431100  87.9155160  62.3894390
  92.8183290  87.2292900  61.7455310  91.9452670  88.4402210  61.9971060
  80.4858750  88.3050000  59.9429700  81.2177570  88.0209280  59.3953590
  80.7452420  88.0663280  60.8329080  79.6473540  84.4214730  59.9476030
  79.0182420  84.8899830  60.4961860  79.7621370  83.5763950  60.3822220
  87.1023260  78.4720390  46.0977230  87.0217310  77.5575000  45.8268940
  86.6887680  78.9687460  45.3916940  85.2341300  80.2499410  47.9786500
  84.4583400  79.7699850  48.2685070  85.8854230  79.5705060  47.8042660
  79.2507130  80.5619220  48.8562260  78.4192010  80.3067930  49.2558770
  79.8588110  80.6329990  49.5920180  89.2548730  84.6559600  46.7585630
  88.7930260  83.8846840  47.0872800  90.0674280  84.6825670  47.2638080
  79.2308390  84.5959310  49.0520280  79.5336430  83.7057050  48.8730500
  79.9751980  85.1529530  48.8242530  77.6599080  75.5221110  42.6404650
  76.7715780  75.8637080  42.5384530  77.9440270  75.3221430  41.7485480
  75.6232090  78.1226760  48.5244350  76.1948200  77.3548960  48.5247990
  75.6233630  78.4215520  47.6150960  85.4812040  86.9417610  46.3789620
  84.8623480  87.3975110  45.8084060  86.3363820  87.0969070  45.9779320
  84.6750290  82.9256600  47.9856660  84.6058570  81.9846540  47.8245790
  85.4370150  83.0158010  48.5579230  76.8656960  73.5311120  50.3113280
  76.6859800  72.6336870  50.5916040  76.4637040  74.0782990  50.9860230
  85.7055460  75.7326980  48.2125590  86.0820280  74.8598860  48.0999260
  85.6074970  76.0685680  47.3216030  79.8360470  74.1052610  43.6743030
  79.9427220  75.0056340  43.9811790  78.9252830  74.0570580  43.3837680
  89.4879580  73.2277420  45.1453930  90.3089200  72.7373990  45.1879410
  89.5213660  73.8175080  45.8985770  77.4843630  76.0271620  48.9195620
  78.1653740  76.2909990  49.5383020  77.1691680  75.1872490  49.2533630
  81.6768200  77.0738980  48.0068210  82.1846420  77.5719950  48.6473230
  82.2081440  76.2974180  47.8307570  93.7779130  75.2444170  51.7097560
  93.0731300  75.6325880  51.1912670  94.0437050  75.9394460  52.3118490
  79.9604300  71.7137540  52.2731630  79.9622740  72.2309930  51.4677530
  79.1308610  71.2367720  52.2501560  86.3475390  81.8256850  43.7721530
  85.7292660  82.2906300  43.2084250  86.8598640  82.5184330  44.1891040
  81.2107150  81.3532720  50.4505130  80.8776530  81.9801640  51.0926200
  81.3873830  81.8794600  49.6706800  89.7241060  75.1677800  47.9181470
  89.0196630  75.4562690  48.4984580  90.0853220  75.9777910  47.5581030
  79.6419630  73.4247500  50.2802080  79.9836440  74.2689550  49.9855950
  78.7035440  73.5731240  50.3967420  80.4226250  83.3213520  52.2654310
  81.0400250  83.9964600  51.9838760  79.5619370  83.7301500  52.1741810
  75.7158590  82.5113380  41.1461160  75.3386570  83.0000480  40.4146060
  75.9731660  83.1838660  41.7767690  91.3403840  84.7852930  50.1808950
  90.6567360  85.4552040  50.1725620  91.8798130  84.9833580  49.4153810
  92.7927980  74.6132590  48.3090680  91.8452890  74.6471570  48.4406110
  93.1177970  75.4271540  48.6940040  83.3247520  70.9129770  46.6046670
  83.6322500  70.3576660  45.8882170  82.3948220  71.0474230  46.4219660
  88.8762580  86.6297060  48.8954130  88.8889740  86.2259350  48.0276390
  88.3237800  87.4044350  48.7915560  90.1708000  83.3513280  43.9844300
  90.0604330  82.4087610  44.1093720  90.1676250  83.7128920  44.8707060
  88.2748020  81.5326900  50.2236740  88.6916810  81.3187010  49.3890200
  88.9987840  81.7899690  50.7945360  85.7128280  78.9778600  43.3406790
  84.7857560  78.9115980  43.5695260  85.8653100  79.9158730  43.2262030
  85.6997360  75.2495600  40.3373950  84.7601030  75.4109560  40.4226410
  86.0180620  75.9681280  39.7909940  92.2210120  79.9314120  50.3152980
  91.3928750  80.0007210  49.8403110  92.8160600  80.5168430  49.8468810
  89.7425570  80.5398900  43.8442040  89.1237990  80.2018450  43.1968340
  89.7250020  79.8958660  44.5521230  89.1852130  76.7183440  51.2607850
  88.7723310  77.5437150  51.5147840  88.4528080  76.1328480  51.0684210
  81.3184920  79.5043340  46.1226520  80.9141920  78.7920590  45.6272420
  81.4048040  79.1596580  47.0114560  81.7866620  83.1910900  48.2865730
  81.4894910  82.5856370  47.6073510  82.7366440  83.2288210  48.1755090
  80.0313540  76.2786550  49.9025560  80.5828130  76.3881890  49.1278810
  80.5457050  76.6524150  50.6180790  89.8752230  86.7642770  51.9488830
  89.3982790  87.5714960  51.7561440  89.1914020  86.1121100  52.1015040
  80.8785050  82.9292590  54.9373530  79.9813580  83.1532560  55.1846930
  80.9037920  83.0527530  53.9884930  87.9190270  79.7785710  40.8514790
  88.3583550  78.9408140  40.7052610  88.6318690  80.4115110  40.9378930
  79.7056270  79.8005910  53.5130900  79.5664040  80.6728710  53.8818300
  78.8237630  79.4578720  53.3678840  86.0285650  84.7181780  44.8196030
  86.4681560  85.4606110  44.4051420  85.9672540  84.9608350  45.7434990
  81.5036620  85.7427610  55.7216050  81.4752050  86.1470560  54.8544480
  81.3401590  84.8137970  55.5587650  91.5007410  71.0328520  39.1655830
  91.1880070  71.1255350  40.0654900  92.2619880  71.6109550  39.1153260
  78.0189550  78.3988320  43.6233170  77.8987150  79.1250410  43.0114440
  77.7090440  77.6291230  43.1461080  93.4551440  86.5254710  57.0180220
  93.9311160  87.0037600  57.6969300  94.0758600  86.4572200  56.2925720
  75.6574920  81.5703460  49.4301810  75.7355340  81.7052230  48.4857530
  76.2716600  80.8619350  49.6229930  76.9022550  83.2703650  45.8407990
  76.4950630  83.4118240  44.9861590  77.7935560  82.9863810  45.6379200
  92.8584690  83.7167560  54.1780230  92.9847750  83.4779440  53.2597410
  92.9006070  82.8852100  54.6502310  86.7201430  87.4195560  52.7475040
  87.2346100  87.3303570  53.5497470  85.8770510  87.7655260  53.0402950
  88.6955830  87.7050900  42.1759040  88.5356970  87.4153840  43.0740870
  88.5302540  86.9291030  41.6404270  81.1744210  87.4849430  43.9530660
  80.9986690  86.5684970  43.7398460  80.3199950  87.8436720  44.1928460
  88.3981960  85.2138460  40.7357040  87.7047120  85.2115750  40.0759320
  89.1404820  84.7897780  40.3051210  87.9631890  86.8401170  44.8105530
  88.4188840  86.0590550  45.1244150  88.3024410  87.5507990  45.3546710
  92.7108700  75.7700020  55.1429970  92.0952970  76.2779690  54.6145430
  92.3905120  74.8698350  55.0855910  75.7134440  82.6117630  51.9696270
  75.8765480  82.1422990  51.1515640  76.1786890  82.1041190  52.6345110
  80.4853210  71.7423390  47.0056840  80.0421360  72.5232930  46.6741360
  81.0438200  72.0653280  47.7127780  84.7723020  74.6091910  52.6092160
  84.3102390  74.8174930  53.4212100  84.3701130  73.7951260  52.3062830
  89.7727530  75.8300860  53.7388820  88.9221120  75.5306610  54.0597890
  89.6129320  76.0742870  52.8272640  86.8677240  77.3302610  55.8387610
  87.1930650  76.4966360  55.4989840  87.6557570  77.8531130  55.9865940
  83.6012030  71.3634090  41.8862670  82.9766210  71.3593960  42.6115980
  83.5142150  70.4965050  41.4898640  82.5229110  72.2870720  48.8646440
  82.8201440  73.1933550  48.7838460  83.0714670  71.7989500  48.2506010
  80.2767430  76.8656960  44.7338090  80.0508350  76.6494130  45.6384710
  79.4959960  77.2985420  44.3884060  87.5065190  76.8720330  43.3328740
  86.9074080  77.5956130  43.1492360  88.0544800  76.8097110  42.5505190
  82.7166640  77.7642540  55.3998360  82.6210240  76.8237270  55.2498760
  83.5598620  77.9857610  55.0046430  86.1130060  75.5083870  45.3632020
  86.5059630  75.8256070  44.5500710  86.4746910  74.6295750  45.4776540
  77.8477180  74.1756210  53.5532140  77.4540570  75.0231420  53.7604920
  77.1595580  73.5382580  53.7440780  84.4222230  74.2591180  56.6228880
  83.7320550  74.0663380  57.2574970  85.1654530  74.5425820  57.1553180
  75.1494230  72.0984670  47.5862220  74.8607280  72.6687530  48.2987200
  75.8939990  71.6189120  47.9493450  75.3364460  76.0404790  38.7964940
  75.2539130  76.9835550  38.9379930  74.9847520  75.8979700  37.9177290
  86.6985200  78.0989620  49.4582800  85.9666320  78.6076430  49.8072900
  86.3009540  77.2819600  49.1571580  83.1362590  74.7743820  47.8635290
  83.1398650  74.3333770  47.0139830  84.0313710  75.0961150  47.9707110
  78.9864970  74.6570310  46.8229500  78.6465020  75.1345540  47.5796550
  78.2242290  74.2035430  46.4630600  83.1982740  75.7755900  40.8542050
  83.3195560  75.7342380  41.8027870  82.8131250  76.6380050  40.6988780
  87.1611110  73.5523300  48.8705740  87.1783850  74.0031950  49.7147590
  86.9126690  72.6528940  49.0839180  82.2104240  78.0857040  40.2525350
  81.6421140  77.6375290  39.6261260  82.9193240  78.4449820  39.7190500
  90.5881860  70.9655480  54.7092120  90.9127630  70.2345140  55.2350100
  90.6238370  70.6469120  53.8073110  77.2873420  81.9869060  54.1292080
  76.9028210  81.3462730  54.7275040  77.5985610  82.6905180  54.6986810
  83.4370560  78.8345600  49.6100700  83.8040690  78.3604170  50.3562040
  83.2475620  79.7087170  49.9509040  76.3011050  73.5789290  45.7394170
  76.0157970  73.2144960  46.5772790  76.2389910  72.8469750  45.1257310
  81.2269930  77.8754240  51.9284910  80.9227000  78.7546220  52.1535270
  82.1816390  77.9354030  51.9642350  79.7551720  82.0815230  42.5251760
  78.9813980  81.5412850  42.3650480  80.4846350  81.5621840  42.1869520
  90.5139700  81.0780590  48.3178150  91.2338820  81.5735880  47.9274260
  90.3121520  80.3998480  47.6732020  85.9749640  72.4718550  42.4607540
  85.1614250  71.9731720  42.3852850  85.7811590  73.3116800  42.0443890
  85.8958500  81.1489650  54.2047150  85.8295810  80.2285320  53.9504740
  85.2663640  81.2465090  54.9191790  88.6898030  76.8438200  40.7569700
  89.5777650  77.1555430  40.5821040  88.6603120  75.9710450  40.3650280
  79.7989120  81.7495610  46.1630570  80.3167790  80.9463870  46.1087460
  79.3473140  81.6874750  47.0047400  84.6858620  83.0161890  41.4357870
  85.0274320  83.7604120  40.9401190  83.8571330  83.3293010  41.7982700
  77.2833660  78.7156980  53.0756270  76.9248600  79.3810830  53.6629610
  76.9888220  77.8840530  53.4468890  80.4846780  79.1741220  55.9595820
  80.1846920  79.3198400  55.0623640  81.2558020  78.6146510  55.8669210
  85.8275230  83.9710220  53.9550950  85.8419770  83.0391180  53.7369860
  85.1200330  84.0569980  54.5940720  90.9612300  78.1550040  40.2249560
  90.8776020  78.5864260  39.3746000  91.6806490  78.6148390  40.6576380
  92.0386440  80.6117560  53.3019530  91.3134630  81.2046340  53.1048920
  92.5661900  80.6041100  52.5032900  91.9899550  85.0092300  42.9531690
  91.3475710  84.3547920  43.2275410  91.6030210  85.4147390  42.1772360
  87.5686030  82.3377730  46.8003380  87.9209850  81.7405860  46.1404750
  86.6848360  82.0121960  46.9711630  83.6549310  83.0975420  44.2073790
  84.3420440  83.6444630  44.5881380  82.8681730  83.6416150  44.2423400
  75.7941710  78.7148240  39.6990870  76.6636560  78.9973040  39.9826790
  75.3032030  79.5284110  39.5839680  82.9576520  80.1021450  43.8199150
  83.4139300  80.9126700  44.0459340  82.6064730  79.7844590  44.6517640
  85.2609130  85.6127790  51.0491450  85.9051350  85.8187170  51.7264870
  85.6238570  84.8516190  50.5962300  78.8588300  70.4459100  44.2921670
  78.7302930  70.4377000  45.2406590  78.0350320  70.7842190  43.9412680
  86.5341210  83.6160140  49.7668900  87.1763440  82.9153300  49.8801070
  87.0590560  84.3958580  49.5865790  90.3796930  83.9008760  39.4908040
  90.1534510  83.1839200  40.0832680  89.9893130  83.6521200  38.6529790
  88.3078830  84.4155040  52.9704960  88.6435070  85.0021730  53.6482880
  87.3879170  84.2847750  53.2002750  76.1612960  87.9275620  40.2652500
  76.5210600  88.5264960  39.6109770  76.0205300  88.4735510  41.0387530
  75.8582230  72.2050220  53.7528370  75.1440750  72.4047140  54.3580980
  76.2777270  71.4289790  54.1243170  89.9613180  81.8180700  41.1522200
  89.6734880  82.2793390  41.9400080  90.7565350  81.3578470  41.4206420
  76.1454820  86.1930480  54.7394900  76.2545940  85.2525220  54.5990290
  75.4935380  86.4585230  54.0908630  84.1367410  84.4646370  56.1393020
  83.8164280  83.7455610  56.6838710  83.4625770  85.1401440  56.2129080
  82.1781580  85.3106820  41.0826170  82.1691680  86.0436510  40.4670680
  81.2579940  85.0638400  41.1753130  77.7788220  80.5321710  41.8272930
  77.1716170  81.2720610  41.8368230  78.2537570  80.6221070  41.0011130
  87.3521010  74.6972530  51.5029820  87.7201830  73.8767740  51.8309390
  86.4919210  74.7574420  51.9185470  90.7183040  73.6529470  42.3117380
  90.0896200  73.7575140  41.5975610  90.2234960  73.8726250  43.1011260
  85.1641180  85.3735060  39.7451360  85.2653160  85.1699050  38.8153340
  84.2642920  85.1193340  39.9499140  82.6867070  75.9315420  43.7275260
  81.9783220  76.4001760  44.1688870  82.9711550  75.2737430  44.3620450
  84.3123000  77.3512120  51.7267790  84.8108250  77.8257940  52.3919640
  84.4545950  76.4275640  51.9337820  86.7182500  72.6566080  45.1671050
  86.5950280  72.6752210  44.2180560  87.6667060  72.7045020  45.2869450
  83.8059290  87.8921380  44.4399030  84.0600790  87.8542770  43.5178400
  82.8571770  87.7654710  44.4327280  80.8902090  74.2400500  41.1025970
  81.7392620  74.6770650  41.0366160  80.5233360  74.5520760  41.9298030
  91.5189860  73.5680080  52.5696180  91.0163460  74.3085480  52.9089990
  92.3346520  73.9564080  52.2532970  89.8111870  78.8113260  46.0157540
  88.8702010  78.8263490  46.1905230  90.1255940  78.0249220  46.4617840
  79.7893510  80.4932860  39.5761500  80.5556780  80.3814220  40.1386930
  79.8668200  79.7970830  38.9238270  78.4840270  77.9257930  40.2594390
  78.5643860  76.9785440  40.3711790  79.3760020  78.2564810  40.3655050
  91.8137450  85.9822110  47.6911800  91.9384870  86.8053280  48.1635610
  92.6803010  85.7712840  47.3435950  79.2854980  88.0753320  47.3628930
  80.0217460  87.5268780  47.6337500  79.6695900  88.9409330  47.2234920
  76.1700460  84.1426890  43.2370440  75.2440240  84.3848030  43.2275850
  76.6356890  84.9701150  43.1155190  78.2913260  87.2599390  56.5514510
  79.0925990  87.5811440  56.9649910  77.7765080  86.8994970  57.2734420
  82.3957290  87.2483630  39.1854500  83.1885900  87.5372460  38.7336290
  81.8761640  86.8175800  38.5066980  87.1277890  83.3679260  56.4989920
  86.5216050  83.3910860  55.7585670  86.8232000  82.6362300  57.0357170
  88.5578260  87.0959550  55.1099330  89.5100010  87.0117570  55.0599570
  88.4106480  87.7601260  55.7833120  91.4487460  86.4753760  40.6091240
  91.1628970  86.0618900  39.7945420  91.2507010  87.4041470  40.4891760
  76.0111070  79.7472850  55.4950560  76.5150090  79.1680130  56.0666790
  75.2718490  80.0313080  56.0326930  82.9134690  82.4687040  39.0496850
  82.8085330  81.8539390  39.7758230  82.7458910  81.9452930  38.2659860
  83.0649010  81.1543840  55.0286080  82.2994680  81.7228840  54.9440750
  83.2464970  80.8620050  54.1354310  86.1537420  81.5307070  39.6538840
  85.6047520  81.9776370  40.2981580  86.7756680  81.0256320  40.1776510
  90.2072360  82.8849170  55.5861100  90.9481830  83.2224930  55.0828560
  89.4445040  83.0541230  55.0330870  78.0434150  77.8902440  56.3900630
  78.0839490  77.5916310  57.2985860  78.8979650  78.2910050  56.2308150
  81.8212540  80.4897990  41.5504140  82.2428960  80.3237860  42.3935530
  81.9463380  79.6798220  41.0559280  79.9839960  76.4694540  54.3575120
  79.4536420  75.9785490  53.7298460  80.6528030  76.8978740  53.8233050
  84.3340180  79.5135600  38.7981240  84.8545840  78.7984620  38.4322390
  84.9808580  80.1521470  39.0981750  88.8818020  80.9364000  54.1216310
  89.2959040  81.0909080  54.9706730  87.9469020  81.0619220  54.2842090
  89.3540190  78.2760160  56.1255460  89.9360960  77.5212480  56.0375940
  89.5301960  78.8067600  55.3486940  80.4712260  73.4356910  54.4372410
  80.3769130  72.8177660  53.7123280  79.8909650  74.1623200  54.2102320
  83.2373700  71.9930150  51.4699800  82.7891000  72.0154410  50.6245350
  82.6038900  71.5949170  52.0670100  83.6433250  80.8884480  52.0912240
  84.0621360  81.7317210  51.9188480  82.7241880  81.0256520  51.8619020
  85.9797150  78.6200660  53.4750080  86.0993360  78.0241800  54.2144920
  86.8391150  78.6570350  53.0551380  88.3185050  79.1737850  52.0512590
  87.7920270  79.6980470  51.4477730  88.6616390  79.8065240  52.6822320
  80.7171440  76.5631220  38.4962300  80.5160500  75.6998580  38.8575640
  80.5463490  76.4764580  37.5583900  81.4940670  87.1937490  53.2069970
  80.9561760  87.9183550  52.8878670  81.7474630  86.7167830  52.4167310
  82.7465920  75.1622010  54.7325900  83.3365610  74.8537860  55.4203720
  81.9286160  74.6901760  54.8885800  87.5659350  74.7787820  54.9658920
  86.8774870  74.1169360  54.9008910  88.2865370  74.3326090  55.4107380
  88.1959750  71.3739450  41.0249180  88.4762040  70.5307350  41.3808600
  87.4225480  71.6062560  41.5387930  79.5154240  73.6631840  38.4840180
  79.8180140  73.6699270  37.5759330  80.2548830  73.3129700  38.9807840
  84.3502880  88.4288700  53.4656620  84.2761580  89.3323840  53.7728990
  83.4481720  88.1100600  53.4378690  82.7339170  72.6066460  39.4696380
  82.3861170  71.9290450  38.8898830  82.9351940  72.1455970  40.2839770
  84.8988210  87.5947210  41.0882980  85.7939000  87.9332180  41.1101740
  84.9305840  86.8726620  40.4607260  78.5384370  82.9674260  39.3169980
  78.9759240  83.5103930  39.9727560  79.0232100  82.1421210  39.3266320
  75.7530170  85.7563290  46.7690240  76.0833180  84.8884350  46.5368880
  76.1821170  85.9621810  47.5995200  80.3492090  84.0872300  44.4292210
  80.0487630  83.9637270  45.3296120  80.2429580  83.2280890  44.0207940
  76.2420380  86.6233880  49.5071870  75.8051370  86.8034680  50.3396020
  76.8098060  87.3808500  49.3653590  91.8782560  86.1250880  53.7949180
  91.2784550  86.1843440  53.0513100  92.0076460  85.1855860  53.9246030
  93.1184010  83.8668700  39.1318890  92.2876970  83.9345350  39.6026120
  93.2955840  84.7572820  38.8285750  92.5740470  80.6116180  41.6353090
  93.3359380  81.1812830  41.7412780  92.5894840  80.0443380  42.4061400
  76.0744810  79.1354110  45.8660750  75.4193650  78.8665750  45.2220450
  76.9122760  79.0258590  45.4162730  93.5800440  81.4666280  46.4795020
  93.9509270  80.6833600  46.0730990  94.2202370  82.1555380  46.3012320
  90.5634200  82.8502860  51.8925340  89.7494040  83.2800020  52.1551130
  90.9708400  83.4621270  51.2794390  92.6259640  80.9050550  38.7925610
  92.9008480  81.8129430  38.6644830  92.4370380  80.8413080  39.7287600
  89.0235250  73.9295400  40.0879240  89.4420130  73.7426380  39.2475900
  88.7171310  73.0774450  40.3982170  92.5224980  78.8419540  43.7855040
  92.1468580  78.0747470  43.3536330  91.7928100  79.2242240  44.2729970
  77.1120740  79.5206680  50.4064090  77.4793780  79.4334080  51.2860110
  76.5431560  78.7573230  50.3070950  91.9124600  77.9891060  53.4194560
  91.6810690  77.7603810  52.5192510  92.1729150  78.9090610  53.3739450
  76.6636740  76.4315770  54.3122510  75.7692790  76.3982530  54.6516220
  77.2034290  76.6302560  55.0773760  90.3512670  73.2147490  56.1974260
  91.2282850  73.2230890  56.5808260  90.3633510  72.4778330  55.5866610
  75.2882890  76.3453040  41.8086080  74.3846970  76.6083240  41.6337740
  75.7723510  76.6164210  41.0286040  91.7975940  77.0677030  47.0862280
  92.3213420  76.5739680  46.4552450  92.3835360  77.2027390  47.8309850
  91.9765660  77.1516900  50.6081830  91.0268370  77.1180440  50.7226820
  92.1578670  78.0617010  50.3731600  77.8310100  75.4018580  39.7180460
  78.5401800  74.9801800  39.2327740  77.1150040  75.4693810  39.0863810
  77.4784260  71.4557910  38.7583110  78.2012390  71.9966850  39.0764330
  77.7508780  71.1821330  37.8824650  91.2875910  76.3250380  43.0254690
  91.7835030  76.0921250  43.8103570  91.0891980  75.4862220  42.6092330
  77.1676450  70.7064100  48.6605730  77.8152640  70.1561480  48.2200890
  77.5878290  70.9607250  49.4821540  92.7163070  74.9611330  45.5592370
  92.6062350  74.8067370  46.4974640  93.4770660  74.4332270  45.3167780
  91.0628790  70.9005460  52.0175370  91.7001010  71.5139600  52.3834560
  91.2103680  70.9366120  51.0724600  93.6053340  72.7919250  38.7998510
  94.5302650  72.6600430  38.5916800  93.5829130  72.8712070  39.7534960
  93.6791830  73.5629910  41.4255220  92.8843330  73.4975030  41.9548130
  93.8835110  74.4980550  41.4140570  90.6210250  87.6021460  45.4193610
  91.2169320  87.2806030  44.7428030  90.8788400  87.1293280  46.2106880
  76.9208450  70.8619770  51.4031050  76.5723270  71.3183590  52.1689230
  76.5896150  69.9676900  51.4853480  78.5272820  84.0339370  55.5684240
  78.4842450  83.6632280  56.4498700  78.6583830  84.9716940  55.7086060
  82.2278850  85.5898960  51.1693960  81.9870210  85.8573520  50.2824480
  83.1681490  85.7604690  51.2244820  84.4333270  72.0531650  54.9250470
  84.3722160  72.6453480  55.6745880  85.3733650  71.9457610  54.7800730
  87.0707830  71.7101710  54.5642760  87.6848240  72.0281000  53.9023840
  87.6157390  71.2250300  55.1838620  93.4883010  87.6093340  51.9704600
  92.9941290  88.0062210  51.2531730  92.8796300  86.9842550  52.3641880
  77.5929090  70.3895970  54.6781820  78.1412080  70.2084020  53.9147930
  77.6584400  69.5990080  55.2138130  78.3660850  86.9801620  52.6882020
  77.7721170  86.8486320  53.4272060  78.3584690  86.1439760  52.2224120
  87.8115870  70.2733850  50.8912050  86.9375710  70.6068960  50.6884980
  87.7026620  69.8007030  51.7163920  88.7187850  72.4804720  52.2753770
  88.3901210  71.6656480  51.8955500  89.6670150  72.4374530  52.1519460
  91.1722460  88.2516760  49.2491340  90.7125430  89.0032570  48.8749360
  90.5434920  87.5323230  49.1906140  77.9973080  84.3460000  51.6390060
  77.2707140  83.7265290  51.5716010  78.0582230  84.7400610  50.7688140
  81.6018180  86.5605000  48.4239470  82.1183200  85.9492360  47.8987730
  82.2515560  87.0633780  48.9150480  84.3413680  87.4513490  49.2508450
  84.6291490  87.1967790  48.3741460  84.8536900  86.8990850  49.8414020
  85.5590690  71.1903690  49.8304960  84.7762480  71.6649190  50.1101720
  85.2653620  70.2858520  49.7218140  90.1111760  71.8926790  47.8754050
  90.5519850  71.8371890  47.0275650  89.8419350  72.8084800  47.9464230
  91.9750330  71.5242030  45.8862870  91.9138730  70.5803250  45.7393890
  92.7542360  71.6322120  46.4316330  76.2803080  87.6634390  44.8486820
  76.1125120  87.0305070  45.5468710  75.4137590  87.8693790  44.4981010
  76.9031100  71.4951170  42.3518680  77.6610460  71.6080050  41.7782710
  76.4408270  72.3320370  42.3062110  83.4444910  73.6090440  45.3420990
  82.6319420  73.2347330  45.0016870  83.9486550  72.8535520  45.6442180
  87.9469890  70.2732890  46.5804060  88.5499260  70.8453100  47.0552580
  87.2062880  70.8372330  46.3577960  91.0904490  70.6754450  41.8544340
  91.2855120  71.5737900  42.1211770  90.3034360  70.4441530  42.3477290
  77.8865780  86.3567620  42.2936960  77.3613400  86.7375650  41.5898920
  77.8110360  86.9818390  43.0146670  79.2756250  72.0215220  40.8920650
  79.8049010  71.2345020  40.7628600  79.9084570  72.7006410  41.1256180
  81.4694090  71.7590360  43.9466040  80.8396830  71.0577670  44.1136170
  80.9299230  72.5194490  43.7299200  84.4086040  88.3729590  56.6176650
  85.3353350  88.1373860  56.6612610  84.3936470  89.2001590  56.1362680
  92.6431100  87.9155160  43.6150900  92.8183290  87.2292900  42.9711820
  91.9452670  88.4402210  43.2227570  81.5949650  71.0374340  56.3818530
  81.3133920  71.5407940  55.6179350  81.9769350  70.2396090  56.0160660
  80.4858750  88.3050000  41.1686210  81.2177570  88.0209280  40.6210100
  80.7452420  88.0663280  42.0585590  79.6473540  84.4214730  41.1732540
  79.0182420  84.8899830  41.7218370  79.7621370  83.5763950  41.6078730
  88.1965110  70.4527920  56.9599000  88.0830560  70.7722530  57.8550520
  89.0134850  70.8540430  56.6636280  90.9763600  87.5999450  56.4417690
  91.7688920  87.1048680  56.2343650  91.2696750  88.2789590  57.0493300
  87.1023260  78.4720390  27.3233740  87.0217310  77.5575000  27.0525450
  86.6887680  78.9687460  26.6173450  85.2341300  80.2499410  29.2043010
  84.4583400  79.7699850  29.4941580  85.8854230  79.5705060  29.0299170
  79.2507130  80.5619220  30.0818770  78.4192010  80.3067930  30.4815280
  79.8588110  80.6329990  30.8176690  89.2548730  84.6559600  27.9842140
  88.7930260  83.8846840  28.3129310  90.0674280  84.6825670  28.4894590
  79.2308390  84.5959310  30.2776790  79.5336430  83.7057050  30.0987010
  79.9751980  85.1529530  30.0499040  77.6599080  75.5221110  23.8661160
  76.7715780  75.8637080  23.7641040  77.9440270  75.3221430  22.9741990
  75.6232090  78.1226760  29.7500860  76.1948200  77.3548960  29.7504500
  75.6233630  78.4215520  28.8407470  85.4812040  86.9417610  27.6046130
  84.8623480  87.3975110  27.0340570  86.3363820  87.0969070  27.2035830
  84.6750290  82.9256600  29.2113170  84.6058570  81.9846540  29.0502300
  85.4370150  83.0158010  29.7835740  76.8656960  73.5311120  31.5369790
  76.6859800  72.6336870  31.8172550  76.4637040  74.0782990  32.2116740
  85.7055460  75.7326980  29.4382100  86.0820280  74.8598860  29.3255770
  85.6074970  76.0685680  28.5472540  79.8360470  74.1052610  24.8999540
  79.9427220  75.0056340  25.2068300  78.9252830  74.0570580  24.6094190
  89.4879580  73.2277420  26.3710440  90.3089200  72.7373990  26.4135920
  89.5213660  73.8175080  27.1242280  77.4843630  76.0271620  30.1452130
  78.1653740  76.2909990  30.7639530  77.1691680  75.1872490  30.4790140
  81.6768200  77.0738980  29.2324720  82.1846420  77.5719950  29.8729740
  82.2081440  76.2974180  29.0564080  93.7779130  75.2444170  32.9354070
  93.0731300  75.6325880  32.4169180  94.0437050  75.9394460  33.5375000
  79.9604300  71.7137540  33.4988140  79.9622740  72.2309930  32.6934040
  79.1308610  71.2367720  33.4758070  86.3475390  81.8256850  24.9978040
  85.7292660  82.2906300  24.4340760  86.8598640  82.5184330  25.4147550
  81.2107150  81.3532720  31.6761640  80.8776530  81.9801640  32.3182710
  81.3873830  81.8794600  30.8963310  89.7241060  75.1677800  29.1437980
  89.0196630  75.4562690  29.7241090  90.0853220  75.9777910  28.7837540
  79.6419630  73.4247500  31.5058590  79.9836440  74.2689550  31.2112460
  78.7035440  73.5731240  31.6223930  80.4226250  83.3213520  33.4910820
  81.0400250  83.9964600  33.2095270  79.5619370  83.7301500  33.3998320
  75.7158590  82.5113380  22.3717670  75.3386570  83.0000480  21.6402570
  75.9731660  83.1838660  23.0024200  91.3403840  84.7852930  31.4065460
  90.6567360  85.4552040  31.3982130  91.8798130  84.9833580  30.6410320
  92.7927980  74.6132590  29.5347190  91.8452890  74.6471570  29.6662620
  93.1177970  75.4271540  29.9196550  83.3247520  70.9129770  27.8303180
  83.6322500  70.3576660  27.1138680  82.3948220  71.0474230  27.6476170
  88.8762580  86.6297060  30.1210640  88.8889740  86.2259350  29.2532900
  88.3237800  87.4044350  30.0172070  90.1708000  83.3513280  25.2100810
  90.0604330  82.4087610  25.3350230  90.1676250  83.7128920  26.0963570
  88.2748020  81.5326900  31.4493250  88.6916810  81.3187010  30.6146710
  88.9987840  81.7899690  32.0201870  85.7128280  78.9778600  24.5663300
  84.7857560  78.9115980  24.7951770  85.8653100  79.9158730  24.4518540
  85.6997360  75.2495600  21.5630460  84.7601030  75.4109560  21.6482920
  86.0180620  75.9681280  21.0166450  92.2210120  79.9314120  31.5409490
  91.3928750  80.0007210  31.0659620  92.8160600  80.5168430  31.0725320
  89.7425570  80.5398900  25.0698550  89.1237990  80.2018450  24.4224850
  89.7250020  79.8958660  25.7777740  89.1852130  76.7183440  32.4864360
  88.7723310  77.5437150  32.7404350  88.4528080  76.1328480  32.2940720
  81.3184920  79.5043340  27.3483030  80.9141920  78.7920590  26.8528930
  81.4048040  79.1596580  28.2371070  81.7866620  83.1910900  29.5122240
  81.4894910  82.5856370  28.8330020  82.7366440  83.2288210  29.4011600
  80.0313540  76.2786550  31.1282070  80.5828130  76.3881890  30.3535320
  80.5457050  76.6524150  31.8437300  89.8752230  86.7642770  33.1745340
  89.3982790  87.5714960  32.9817950  89.1914020  86.1121100  33.3271550
  80.8785050  82.9292590  36.1630040  79.9813580  83.1532560  36.4103440
  80.9037920  83.0527530  35.2141440  87.9190270  79.7785710  22.0771300
  88.3583550  78.9408140  21.9309120  88.6318690  80.4115110  22.1635440
  79.7056270  79.8005910  34.7387410  79.5664040  80.6728710  35.1074810
  78.8237630  79.4578720  34.5935350  86.0285650  84.7181780  26.0452540
  86.4681560  85.4606110  25.6307930  85.9672540  84.9608350  26.9691500
  81.5036620  85.7427610  36.9472560  81.4752050  86.1470560  36.0800990
  81.3401590  84.8137970  36.7844160  91.5007410  71.0328520  20.3912340
  91.1880070  71.1255350  21.2911410  92.2619880  71.6109550  20.3409770
  78.0189550  78.3988320  24.8489680  77.8987150  79.1250410  24.2370950
  77.7090440  77.6291230  24.3717590  93.4551440  86.5254710  38.2436730
  93.9311160  87.0037600  38.9225810  94.0758600  86.4572200  37.5182230
  75.6574920  81.5703460  30.6558320  75.7355340  81.7052230  29.7114040
  76.2716600  80.8619350  30.8486440  76.9022550  83.2703650  27.0664500
  76.4950630  83.4118240  26.2118100  77.7935560  82.9863810  26.8635710
  92.8584690  83.7167560  35.4036740  92.9847750  83.4779440  34.4853920
  92.9006070  82.8852100  35.8758820  86.7201430  87.4195560  33.9731550
  87.2346100  87.3303570  34.7753980  85.8770510  87.7655260  34.2659460
  88.6955830  87.7050900  23.4015550  88.5356970  87.4153840  24.2997380
  88.5302540  86.9291030  22.8660780  81.1744210  87.4849430  25.1787170
  80.9986690  86.5684970  24.9654970  80.3199950  87.8436720  25.4184970
  88.3981960  85.2138460  21.9613550  87.7047120  85.2115750  21.3015830
  89.1404820  84.7897780  21.5307720  87.9631890  86.8401170  26.0362040
  88.4188840  86.0590550  26.3500660  88.3024410  87.5507990  26.5803220
  92.7108700  75.7700020  36.3686480  92.0952970  76.2779690  35.8401940
  92.3905120  74.8698350  36.3112420  75.7134440  82.6117630  33.1952780
  75.8765480  82.1422990  32.3772150  76.1786890  82.1041190  33.8601620
  80.4853210  71.7423390  28.2313350  80.0421360  72.5232930  27.8997870
  81.0438200  72.0653280  28.9384290  84.7723020  74.6091910  33.8348670
  84.3102390  74.8174930  34.6468610  84.3701130  73.7951260  33.5319340
  89.7727530  75.8300860  34.9645330  88.9221120  75.5306610  35.2854400
  89.6129320  76.0742870  34.0529150  86.8677240  77.3302610  37.0644120
  87.1930650  76.4966360  36.7246350  87.6557570  77.8531130  37.2122450
  83.6012030  71.3634090  23.1119180  82.9766210  71.3593960  23.8372490
  83.5142150  70.4965050  22.7155150  82.5229110  72.2870720  30.0902950
  82.8201440  73.1933550  30.0094970  83.0714670  71.7989500  29.4762520
  80.2767430  76.8656960  25.9594600  80.0508350  76.6494130  26.8641220
  79.4959960  77.2985420  25.6140570  87.5065190  76.8720330  24.5585250
  86.9074080  77.5956130  24.3748870  88.0544800  76.8097110  23.7761700
  82.7166640  77.7642540  36.6254870  82.6210240  76.8237270  36.4755270
  83.5598620  77.9857610  36.2302940  86.1130060  75.5083870  26.5888530
  86.5059630  75.8256070  25.7757220  86.4746910  74.6295750  26.7033050
  77.8477180  74.1756210  34.7788650  77.4540570  75.0231420  34.9861430
  77.1595580  73.5382580  34.9697290  84.4222230  74.2591180  37.8485390
  83.7320550  74.0663380  38.4831480  85.1654530  74.5425820  38.3809690
  75.1494230  72.0984670  28.8118730  74.8607280  72.6687530  29.5243710
  75.8939990  71.6189120  29.1749960  75.3364460  76.0404790  20.0221450
  75.2539130  76.9835550  20.1636440  74.9847520  75.8979700  19.1433800
  86.6985200  78.0989620  30.6839310  85.9666320  78.6076430  31.0329410
  86.3009540  77.2819600  30.3828090  83.1362590  74.7743820  29.0891800
  83.1398650  74.3333770  28.2396340  84.0313710  75.0961150  29.1963620
  78.9864970  74.6570310  28.0486010  78.6465020  75.1345540  28.8053060
  78.2242290  74.2035430  27.6887110  83.1982740  75.7755900  22.0798560
  83.3195560  75.7342380  23.0284380  82.8131250  76.6380050  21.9245290
  87.1611110  73.5523300  30.0962250  87.1783850  74.0031950  30.9404100
  86.9126690  72.6528940  30.3095690  82.2104240  78.0857040  21.4781860
  81.6421140  77.6375290  20.8517770  82.9193240  78.4449820  20.9447010
  90.5881860  70.9655480  35.9348630  90.9127630  70.2345140  36.4606610
  90.6238370  70.6469120  35.0329620  77.2873420  81.9869060  35.3548590
  76.9028210  81.3462730  35.9531550  77.5985610  82.6905180  35.9243320
  83.4370560  78.8345600  30.8357210  83.8040690  78.3604170  31.5818550
  83.2475620  79.7087170  31.1765550  76.3011050  73.5789290  26.9650680
  76.0157970  73.2144960  27.8029300  76.2389910  72.8469750  26.3513820
  81.2269930  77.8754240  33.1541420  80.9227000  78.7546220  33.3791780
  82.1816390  77.9354030  33.1898860  79.7551720  82.0815230  23.7508270
  78.9813980  81.5412850  23.5906990  80.4846350  81.5621840  23.4126030
  90.5139700  81.0780590  29.5434660  91.2338820  81.5735880  29.1530770
  90.3121520  80.3998480  28.8988530  85.9749640  72.4718550  23.6864050
  85.1614250  71.9731720  23.6109360  85.7811590  73.3116800  23.2700400
  85.8958500  81.1489650  35.4303660  85.8295810  80.2285320  35.1761250
  85.2663640  81.2465090  36.1448300  88.6898030  76.8438200  21.9826210
  89.5777650  77.1555430  21.8077550  88.6603120  75.9710450  21.5906790
  79.7989120  81.7495610  27.3887080  80.3167790  80.9463870  27.3343970
  79.3473140  81.6874750  28.2303910  84.6858620  83.0161890  22.6614380
  85.0274320  83.7604120  22.1657700  83.8571330  83.3293010  23.0239210
  77.2833660  78.7156980  34.3012780  76.9248600  79.3810830  34.8886120
  76.9888220  77.8840530  34.6725400  80.4846780  79.1741220  37.1852330
  80.1846920  79.3198400  36.2880150  81.2558020  78.6146510  37.0925720
  85.8275230  83.9710220  35.1807460  85.8419770  83.0391180  34.9626370
  85.1200330  84.0569980  35.8197230  90.9612300  78.1550040  21.4506070
  90.8776020  78.5864260  20.6002510  91.6806490  78.6148390  21.8832890
  92.0386440  80.6117560  34.5276040  91.3134630  81.2046340  34.3305430
  92.5661900  80.6041100  33.7289410  91.9899550  85.0092300  24.1788200
  91.3475710  84.3547920  24.4531920  91.6030210  85.4147390  23.4028870
  87.5686030  82.3377730  28.0259890  87.9209850  81.7405860  27.3661260
  86.6848360  82.0121960  28.1968140  83.6549310  83.0975420  25.4330300
  84.3420440  83.6444630  25.8137890  82.8681730  83.6416150  25.4679910
  75.7941710  78.7148240  20.9247380  76.6636560  78.9973040  21.2083300
  75.3032030  79.5284110  20.8096190  82.9576520  80.1021450  25.0455660
  83.4139300  80.9126700  25.2715850  82.6064730  79.7844590  25.8774150
  85.2609130  85.6127790  32.2747960  85.9051350  85.8187170  32.9521380
  85.6238570  84.8516190  31.8218810  78.8588300  70.4459100  25.5178180
  78.7302930  70.4377000  26.4663100  78.0350320  70.7842190  25.1669190
  86.5341210  83.6160140  30.9925410  87.1763440  82.9153300  31.1057580
  87.0590560  84.3958580  30.8122300  90.3796930  83.9008760  20.7164550
  90.1534510  83.1839200  21.3089190  89.9893130  83.6521200  19.8786300
  88.3078830  84.4155040  34.1961470  88.6435070  85.0021730  34.8739390
  87.3879170  84.2847750  34.4259260  76.1612960  87.9275620  21.4909010
  76.5210600  88.5264960  20.8366280  76.0205300  88.4735510  22.2644040
  75.8582230  72.2050220  34.9784880  75.1440750  72.4047140  35.5837490
  76.2777270  71.4289790  35.3499680  89.9613180  81.8180700  22.3778710
  89.6734880  82.2793390  23.1656590  90.7565350  81.3578470  22.6462930
  76.1454820  86.1930480  35.9651410  76.2545940  85.2525220  35.8246800
  75.4935380  86.4585230  35.3165140  84.1367410  84.4646370  37.3649530
  83.8164280  83.7455610  37.9095220  83.4625770  85.1401440  37.4385590
  82.1781580  85.3106820  22.3082680  82.1691680  86.0436510  21.6927190
  81.2579940  85.0638400  22.4009640  77.7788220  80.5321710  23.0529440
  77.1716170  81.2720610  23.0624740  78.2537570  80.6221070  22.2267640
  87.3521010  74.6972530  32.7286330  87.7201830  73.8767740  33.0565900
  86.4919210  74.7574420  33.1441980  90.7183040  73.6529470  23.5373890
  90.0896200  73.7575140  22.8232120  90.2234960  73.8726250  24.3267770
  85.1641180  85.3735060  20.9707870  85.2653160  85.1699050  20.0409850
  84.2642920  85.1193340  21.1755650  82.6867070  75.9315420  24.9531770
  81.9783220  76.4001760  25.3945380  82.9711550  75.2737430  25.5876960
  84.3123000  77.3512120  32.9524300  84.8108250  77.8257940  33.6176150
  84.4545950  76.4275640  33.1594330  86.7182500  72.6566080  26.3927560
  86.5950280  72.6752210  25.4437070  87.6667060  72.7045020  26.5125960
  83.8059290  87.8921380  25.6655540  84.0600790  87.8542770  24.7434910
  82.8571770  87.7654710  25.6583790  80.8902090  74.2400500  22.3282480
  81.7392620  74.6770650  22.2622670  80.5233360  74.5520760  23.1554540
  91.5189860  73.5680080  33.7952690  91.0163460  74.3085480  34.1346500
  92.3346520  73.9564080  33.4789480  89.8111870  78.8113260  27.2414050
  88.8702010  78.8263490  27.4161740  90.1255940  78.0249220  27.6874350
  79.7893510  80.4932860  20.8018010  80.5556780  80.3814220  21.3643440
  79.8668200  79.7970830  20.1494780  78.4840270  77.9257930  21.4850900
  78.5643860  76.9785440  21.5968300  79.3760020  78.2564810  21.5911560
  91.8137450  85.9822110  28.9168310  91.9384870  86.8053280  29.3892120
  92.6803010  85.7712840  28.5692460  79.2854980  88.0753320  28.5885440
  80.0217460  87.5268780  28.8594010  79.6695900  88.9409330  28.4491430
  76.1700460  84.1426890  24.4626950  75.2440240  84.3848030  24.4532360
  76.6356890  84.9701150  24.3411700  78.2913260  87.2599390  37.7771020
  79.0925990  87.5811440  38.1906420  77.7765080  86.8994970  38.4990930
  82.3957290  87.2483630  20.4111010  83.1885900  87.5372460  19.9592800
  81.8761640  86.8175800  19.7323490  87.1277890  83.3679260  37.7246430
  86.5216050  83.3910860  36.9842180  86.8232000  82.6362300  38.2613680
  88.5578260  87.0959550  36.3355840  89.5100010  87.0117570  36.2856080
  88.4106480  87.7601260  37.0089630  91.4487460  86.4753760  21.8347750
  91.1628970  86.0618900  21.0201930  91.2507010  87.4041470  21.7148270
  76.0111070  79.7472850  36.7207070  76.5150090  79.1680130  37.2923300
  75.2718490  80.0313080  37.2583440  82.9134690  82.4687040  20.2753360
  82.8085330  81.8539390  21.0014740  82.7458910  81.9452930  19.4916370
  83.0649010  81.1543840  36.2542590  82.2994680  81.7228840  36.1697260
  83.2464970  80.8620050  35.3610820  86.1537420  81.5307070  20.8795350
  85.6047520  81.9776370  21.5238090  86.7756680  81.0256320  21.4033020
  90.2072360  82.8849170  36.8117610  90.9481830  83.2224930  36.3085070
  89.4445040  83.0541230  36.2587380  78.0434150  77.8902440  37.6157140
  78.0839490  77.5916310  38.5242370  78.8979650  78.2910050  37.4564660
  81.8212540  80.4897990  22.7760650  82.2428960  80.3237860  23.6192040
  81.9463380  79.6798220  22.2815790  79.9839960  76.4694540  35.5831630
  79.4536420  75.9785490  34.9554970  80.6528030  76.8978740  35.0489560
  84.3340180  79.5135600  20.0237750  84.8545840  78.7984620  19.6578900
  84.9808580  80.1521470  20.3238260  88.8818020  80.9364000  35.3472820
  89.2959040  81.0909080  36.1963240  87.9469020  81.0619220  35.5098600
  89.3540190  78.2760160  37.3511970  89.9360960  77.5212480  37.2632450
  89.5301960  78.8067600  36.5743450  80.4712260  73.4356910  35.6628920
  80.3769130  72.8177660  34.9379790  79.8909650  74.1623200  35.4358830
  83.2373700  71.9930150  32.6956310  82.7891000  72.0154410  31.8501860
  82.6038900  71.5949170  33.2926610  83.6433250  80.8884480  33.3168750
  84.0621360  81.7317210  33.1444990  82.7241880  81.0256520  33.0875530
  85.9797150  78.6200660  34.7006590  86.0993360  78.0241800  35.4401430
  86.8391150  78.6570350  34.2807890  88.3185050  79.1737850  33.2769100
  87.7920270  79.6980470  32.6734240  88.6616390  79.8065240  33.9078830
  80.7171440  76.5631220  19.7218810  80.5160500  75.6998580  20.0832150
  80.5463490  76.4764580  18.7840410  81.4940670  87.1937490  34.4326480
  80.9561760  87.9183550  34.1135180  81.7474630  86.7167830  33.6423820
  82.7465920  75.1622010  35.9582410  83.3365610  74.8537860  36.6460230
  81.9286160  74.6901760  36.1142310  87.5659350  74.7787820  36.1915430
  86.8774870  74.1169360  36.1265420  88.2865370  74.3326090  36.6363890
  88.1959750  71.3739450  22.2505690  88.4762040  70.5307350  22.6065110
  87.4225480  71.6062560  22.7644440  79.5154240  73.6631840  19.7096690
  79.8180140  73.6699270  18.8015840  80.2548830  73.3129700  20.2064350
  84.3502880  88.4288700  34.6913130  84.2761580  89.3323840  34.9985500
  83.4481720  88.1100600  34.6635200  82.7339170  72.6066460  20.6952890
  82.3861170  71.9290450  20.1155340  82.9351940  72.1455970  21.5096280
  84.8988210  87.5947210  22.3139490  85.7939000  87.9332180  22.3358250
  84.9305840  86.8726620  21.6863770  78.5384370  82.9674260  20.5426490
  78.9759240  83.5103930  21.1984070  79.0232100  82.1421210  20.5522830
  75.7530170  85.7563290  27.9946750  76.0833180  84.8884350  27.7625390
  76.1821170  85.9621810  28.8251710  80.3492090  84.0872300  25.6548720
  80.0487630  83.9637270  26.5552630  80.2429580  83.2280890  25.2464450
  76.2420380  86.6233880  30.7328380  75.8051370  86.8034680  31.5652530
  76.8098060  87.3808500  30.5910100  91.8782560  86.1250880  35.0205690
  91.2784550  86.1843440  34.2769610  92.0076460  85.1855860  35.1502540
  93.1184010  83.8668700  20.3575400  92.2876970  83.9345350  20.8282630
  93.2955840  84.7572820  20.0542260  92.5740470  80.6116180  22.8609600
  93.3359380  81.1812830  22.9669290  92.5894840  80.0443380  23.6317910
  76.0744810  79.1354110  27.0917260  75.4193650  78.8665750  26.4476960
  76.9122760  79.0258590  26.6419240  93.5800440  81.4666280  27.7051530
  93.9509270  80.6833600  27.2987500  94.2202370  82.1555380  27.5268830
  90.5634200  82.8502860  33.1181850  89.7494040  83.2800020  33.3807640
  90.9708400  83.4621270  32.5050900  92.6259640  80.9050550  20.0182120
  92.9008480  81.8129430  19.8901340  92.4370380  80.8413080  20.9544110
  89.0235250  73.9295400  21.3135750  89.4420130  73.7426380  20.4732410
  88.7171310  73.0774450  21.6238680  92.5224980  78.8419540  25.0111550
  92.1468580  78.0747470  24.5792840  91.7928100  79.2242240  25.4986480
  77.1120740  79.5206680  31.6320600  77.4793780  79.4334080  32.5116620
  76.5431560  78.7573230  31.5327460  91.9124600  77.9891060  34.6451070
  91.6810690  77.7603810  33.7449020  92.1729150  78.9090610  34.5995960
  76.6636740  76.4315770  35.5379020  75.7692790  76.3982530  35.8772730
  77.2034290  76.6302560  36.3030270  90.3512670  73.2147490  37.4230770
  91.2282850  73.2230890  37.8064770  90.3633510  72.4778330  36.8123120
  75.2882890  76.3453040  23.0342590  74.3846970  76.6083240  22.8594250
  75.7723510  76.6164210  22.2542550  91.7975940  77.0677030  28.3118790
  92.3213420  76.5739680  27.6808960  92.3835360  77.2027390  29.0566360
  91.9765660  77.1516900  31.8338340  91.0268370  77.1180440  31.9483330
  92.1578670  78.0617010  31.5988110  77.8310100  75.4018580  20.9436970
  78.5401800  74.9801800  20.4584250  77.1150040  75.4693810  20.3120320
  77.4784260  71.4557910  19.9839620  78.2012390  71.9966850  20.3020840
  77.7508780  71.1821330  19.1081160  91.2875910  76.3250380  24.2511200
  91.7835030  76.0921250  25.0360080  91.0891980  75.4862220  23.8348840
  77.1676450  70.7064100  29.8862240  77.8152640  70.1561480  29.4457400
  77.5878290  70.9607250  30.7078050  92.7163070  74.9611330  26.7848880
  92.6062350  74.8067370  27.7231150  93.4770660  74.4332270  26.5424290
  91.0628790  70.9005460  33.2431880  91.7001010  71.5139600  33.6091070
  91.2103680  70.9366120  32.2981110  93.6053340  72.7919250  20.0255020
  94.5302650  72.6600430  19.8173310  93.5829130  72.8712070  20.9791470
  93.6791830  73.5629910  22.6511730  92.8843330  73.4975030  23.1804640
  93.8835110  74.4980550  22.6397080  90.6210250  87.6021460  26.6450120
  91.2169320  87.2806030  25.9684540  90.8788400  87.1293280  27.4363390
  76.9208450  70.8619770  32.6287560  76.5723270  71.3183590  33.3945740
  76.5896150  69.9676900  32.7109990  78.5272820  84.0339370  36.7940750
  78.4842450  83.6632280  37.6755210  78.6583830  84.9716940  36.9342570
  82.2278850  85.5898960  32.3950470  81.9870210  85.8573520  31.5080990
  83.1681490  85.7604690  32.4501330  84.4333270  72.0531650  36.1506980
  84.3722160  72.6453480  36.9002390  85.3733650  71.9457610  36.0057240
  87.0707830  71.7101710  35.7899270  87.6848240  72.0281000  35.1280350
  87.6157390  71.2250300  36.4095130  93.4883010  87.6093340  33.1961110
  92.9941290  88.0062210  32.4788240  92.8796300  86.9842550  33.5898390
  77.5929090  70.3895970  35.9038330  78.1412080  70.2084020  35.1404440
  77.6584400  69.5990080  36.4394640  78.3660850  86.9801620  33.9138530
  77.7721170  86.8486320  34.6528570  78.3584690  86.1439760  33.4480630
  87.8115870  70.2733850  32.1168560  86.9375710  70.6068960  31.9141490
  87.7026620  69.8007030  32.9420430  88.7187850  72.4804720  33.5010280
  88.3901210  71.6656480  33.1212010  89.6670150  72.4374530  33.3775970
  91.1722460  88.2516760  30.4747850  90.7125430  89.0032570  30.1005870
  90.5434920  87.5323230  30.4162650  77.9973080  84.3460000  32.8646570
  77.2707140  83.7265290  32.7972520  78.0582230  84.7400610  31.9944650
  81.6018180  86.5605000  29.6495980  82.1183200  85.9492360  29.1244240
  82.2515560  87.0633780  30.1406990  84.3413680  87.4513490  30.4764960
  84.6291490  87.1967790  29.5997970  84.8536900  86.8990850  31.0670530
  85.5590690  71.1903690  31.0561470  84.7762480  71.6649190  31.3358230
  85.2653620  70.2858520  30.9474650  90.1111760  71.8926790  29.1010560
  90.5519850  71.8371890  28.2532160  89.8419350  72.8084800  29.1720740
  91.9750330  71.5242030  27.1119380  91.9138730  70.5803250  26.9650400
  92.7542360  71.6322120  27.6572840  76.2803080  87.6634390  26.0743330
  76.1125120  87.0305070  26.7725220  75.4137590  87.8693790  25.7237520
  76.9031100  71.4951170  23.5775190  77.6610460  71.6080050  23.0039220
  76.4408270  72.3320370  23.5318620  83.4444910  73.6090440  26.5677500
  82.6319420  73.2347330  26.2273380  83.9486550  72.8535520  26.8698690
  87.9469890  70.2732890  27.8060570  88.5499260  70.8453100  28.2809090
  87.2062880  70.8372330  27.5834470  91.0904490  70.6754450  23.0800850
  91.2855120  71.5737900  23.3468280  90.3034360  70.4441530  23.5733800
  77.8865780  86.3567620  23.5193470  77.3613400  86.7375650  22.8155430
  77.8110360  86.9818390  24.2403180  79.2756250  72.0215220  22.1177160
  79.8049010  71.2345020  21.9885110  79.9084570  72.7006410  22.3512690
  81.4694090  71.7590360  25.1722550  80.8396830  71.0577670  25.3392680
  80.9299230  72.5194490  24.9555710  84.4086040  88.3729590  37.8433160
  85.3353350  88.1373860  37.8869120  84.3936470  89.2001590  37.3619190
  92.6431100  87.9155160  24.8407410  92.8183290  87.2292900  24.1968330
  91.9452670  88.4402210  24.4484080  81.5949650  71.0374340  37.6075040
  81.3133920  71.5407940  36.8435860  81.9769350  70.2396090  37.2417170
  80.4858750  88.3050000  22.3942720  81.2177570  88.0209280  21.8466610
  80.7452420  88.0663280  23.2842100  79.6473540  84.4214730  22.3989050
  79.0182420  84.8899830  22.9474880  79.7621370  83.5763950  22.8335240
  88.1965110  70.4527920  38.1855510  88.0830560  70.7722530  39.0807030
  89.0134850  70.8540430  37.8892790  90.9763600  87.5999450  37.6674200
  91.7688920  87.1048680  37.4600160  91.2696750  88.2789590  38.2749810
  87.1023260  78.4720390   8.5490250  87.0217310  77.5575000   8.2781960
  86.6887680  78.9687460   7.8429960  85.2341300  80.2499410  10.4299520
  84.4583400  79.7699850  10.7198090  85.8854230  79.5705060  10.2555680
  79.2507130  80.5619220  11.3075280  78.4192010  80.3067930  11.7071790
  79.8588110  80.6329990  12.0433200  89.2548730  84.6559600   9.2098650
  88.7930260  83.8846840   9.5385820  90.0674280  84.6825670   9.7151100
  79.2308390  84.5959310  11.5033300  79.5336430  83.7057050  11.3243520
  79.9751980  85.1529530  11.2755550  77.6599080  75.5221110   5.0917670
  76.7715780  75.8637080   4.9897550  77.9440270  75.3221430   4.1998500
  75.6232090  78.1226760  10.9757370  76.1948200  77.3548960  10.9761010
  75.6233630  78.4215520  10.0663980  85.4812040  86.9417610   8.8302640
  84.8623480  87.3975110   8.2597080  86.3363820  87.0969070   8.4292340
  84.6750290  82.9256600  10.4369680  84.6058570  81.9846540  10.2758810
  85.4370150  83.0158010  11.0092250  76.8656960  73.5311120  12.7626300
  76.6859800  72.6336870  13.0429060  76.4637040  74.0782990  13.4373250
  85.7055460  75.7326980  10.6638610  86.0820280  74.8598860  10.5512280
  85.6074970  76.0685680   9.7729050  79.8360470  74.1052610   6.1256050
  79.9427220  75.0056340   6.4324810  78.9252830  74.0570580   5.8350700
  89.4879580  73.2277420   7.5966950  90.3089200  72.7373990   7.6392430
  89.5213660  73.8175080   8.3498790  77.4843630  76.0271620  11.3708640
  78.1653740  76.2909990  11.9896040  77.1691680  75.1872490  11.7046650
  81.6768200  77.0738980  10.4581230  82.1846420  77.5719950  11.0986250
  82.2081440  76.2974180  10.2820590  93.7779130  75.2444170  14.1610580
  93.0731300  75.6325880  13.6425690  94.0437050  75.9394460  14.7631510
  79.9604300  71.7137540  14.7244650  79.9622740  72.2309930  13.9190550
  79.1308610  71.2367720  14.7014580  86.3475390  81.8256850   6.2234550
  85.7292660  82.2906300   5.6597270  86.8598640  82.5184330   6.6404060
  81.2107150  81.3532720  12.9018150  80.8776530  81.9801640  13.5439220
  81.3873830  81.8794600  12.1219820  89.7241060  75.1677800  10.3694490
  89.0196630  75.4562690  10.9497600  90.0853220  75.9777910  10.0094050
  79.6419630  73.4247500  12.7315100  79.9836440  74.2689550  12.4368970
  78.7035440  73.5731240  12.8480440  80.4226250  83.3213520  14.7167330
  81.0400250  83.9964600  14.4351780  79.5619370  83.7301500  14.6254830
  75.7158590  82.5113380   3.5974180  75.3386570  83.0000480   2.8659080
  75.9731660  83.1838660   4.2280710  91.3403840  84.7852930  12.6321970
  90.6567360  85.4552040  12.6238640  91.8798130  84.9833580  11.8666830
  92.7927980  74.6132590  10.7603700  91.8452890  74.6471570  10.8919130
  93.1177970  75.4271540  11.1453060  83.3247520  70.9129770   9.0559690
  83.6322500  70.3576660   8.3395190  82.3948220  71.0474230   8.8732680
  88.8762580  86.6297060  11.3467150  88.8889740  86.2259350  10.4789410
  88.3237800  87.4044350  11.2428580  90.1708000  83.3513280   6.4357320
  90.0604330  82.4087610   6.5606740  90.1676250  83.7128920   7.3220080
  88.2748020  81.5326900  12.6749760  88.6916810  81.3187010  11.8403220
  88.9987840  81.7899690  13.2458380  85.7128280  78.9778600   5.7919810
  84.7857560  78.9115980   6.0208280  85.8653100  79.9158730   5.6775050
  85.6997360  75.2495600   2.7886970  84.7601030  75.4109560   2.8739430
  86.0180620  75.9681280   2.2422960  92.2210120  79.9314120  12.7666000
  91.3928750  80.0007210  12.2916130  92.8160600  80.5168430  12.2981830
  89.7425570  80.5398900   6.2955060  89.1237990  80.2018450   5.6481360
  89.7250020  79.8958660   7.0034250  89.1852130  76.7183440  13.7120870
  88.7723310  77.5437150  13.9660860  88.4528080  76.1328480  13.5197230
  81.3184920  79.5043340   8.5739540  80.9141920  78.7920590   8.0785440
  81.4048040  79.1596580   9.4627580  81.7866620  83.1910900  10.7378750
  81.4894910  82.5856370  10.0586530  82.7366440  83.2288210  10.6268110
  80.0313540  76.2786550  12.3538580  80.5828130  76.3881890  11.5791830
  80.5457050  76.6524150  13.0693810  89.8752230  86.7642770  14.4001850
  89.3982790  87.5714960  14.2074460  89.1914020  86.1121100  14.5528060
  80.8785050  82.9292590  17.3886550  79.9813580  83.1532560  17.6359950
  80.9037920  83.0527530  16.4397950  87.9190270  79.7785710   3.3027810
  88.3583550  78.9408140   3.1565630  88.6318690  80.4115110   3.3891950
  79.7056270  79.8005910  15.9643920  79.5664040  80.6728710  16.3331320
  78.8237630  79.4578720  15.8191860  86.0285650  84.7181780   7.2709050
  86.4681560  85.4606110   6.8564440  85.9672540  84.9608350   8.1948010
  81.5036620  85.7427610  18.1729070  81.4752050  86.1470560  17.3057500
  81.3401590  84.8137970  18.0100670  78.0189550  78.3988320   6.0746190
  77.8987150  79.1250410   5.4627460  77.7090440  77.6291230   5.5974100
  93.4551440  86.5254710  19.4693240  93.9311160  87.0037600  20.1482320
  94.0758600  86.4572200  18.7438740  75.6574920  81.5703460  11.8814830
  75.7355340  81.7052230  10.9370550  76.2716600  80.8619350  12.0742950
  76.9022550  83.2703650   8.2921010  76.4950630  83.4118240   7.4374610
  77.7935560  82.9863810   8.0892220  92.8584690  83.7167560  16.6293250
  92.9847750  83.4779440  15.7110430  92.9006070  82.8852100  17.1015330
  86.7201430  87.4195560  15.1988060  87.2346100  87.3303570  16.0010490
  85.8770510  87.7655260  15.4915970  88.6955830  87.7050900   4.6272060
  88.5356970  87.4153840   5.5253890  88.5302540  86.9291030   4.0917290
  81.1744210  87.4849430   6.4043680  80.9986690  86.5684970   6.1911480
  80.3199950  87.8436720   6.6441480  88.3981960  85.2138460   3.1870060
  87.7047120  85.2115750   2.5272340  89.1404820  84.7897780   2.7564230
  87.9631890  86.8401170   7.2618550  88.4188840  86.0590550   7.5757170
  88.3024410  87.5507990   7.8059730  92.7108700  75.7700020  17.5942990
  92.0952970  76.2779690  17.0658450  92.3905120  74.8698350  17.5368930
  75.7134440  82.6117630  14.4209290  75.8765480  82.1422990  13.6028660
  76.1786890  82.1041190  15.0858130  80.4853210  71.7423390   9.4569860
  80.0421360  72.5232930   9.1254380  81.0438200  72.0653280  10.1640800
  84.7723020  74.6091910  15.0605180  84.3102390  74.8174930  15.8725120
  84.3701130  73.7951260  14.7575850  89.7727530  75.8300860  16.1901840
  88.9221120  75.5306610  16.5110910  89.6129320  76.0742870  15.2785660
  86.8677240  77.3302610  18.2900630  87.1930650  76.4966360  17.9502860
  87.6557570  77.8531130  18.4378960  83.6012030  71.3634090   4.3375690
  82.9766210  71.3593960   5.0629000  83.5142150  70.4965050   3.9411660
  82.5229110  72.2870720  11.3159460  82.8201440  73.1933550  11.2351480
  83.0714670  71.7989500  10.7019030  80.2767430  76.8656960   7.1851110
  80.0508350  76.6494130   8.0897730  79.4959960  77.2985420   6.8397080
  87.5065190  76.8720330   5.7841760  86.9074080  77.5956130   5.6005380
  88.0544800  76.8097110   5.0018210  82.7166640  77.7642540  17.8511380
  82.6210240  76.8237270  17.7011780  83.5598620  77.9857610  17.4559450
  86.1130060  75.5083870   7.8145040  86.5059630  75.8256070   7.0013730
  86.4746910  74.6295750   7.9289560  77.8477180  74.1756210  16.0045160
  77.4540570  75.0231420  16.2117940  77.1595580  73.5382580  16.1953800
  84.4222230  74.2591180  19.0741900  83.7320550  74.0663380  19.7087990
  85.1654530  74.5425820  19.6066200  75.1494230  72.0984670  10.0375240
  74.8607280  72.6687530  10.7500220  75.8939990  71.6189120  10.4006470
  86.6985200  78.0989620  11.9095820  85.9666320  78.6076430  12.2585920
  86.3009540  77.2819600  11.6084600  83.1362590  74.7743820  10.3148310
  83.1398650  74.3333770   9.4652850  84.0313710  75.0961150  10.4220130
  78.9864970  74.6570310   9.2742520  78.6465020  75.1345540  10.0309570
  78.2242290  74.2035430   8.9143620  83.1982740  75.7755900   3.3055070
  83.3195560  75.7342380   4.2540890  82.8131250  76.6380050   3.1501800
  87.1611110  73.5523300  11.3218760  87.1783850  74.0031950  12.1660610
  86.9126690  72.6528940  11.5352200  82.2104240  78.0857040   2.7038370
  81.6421140  77.6375290   2.0774280  82.9193240  78.4449820   2.1703520
  90.5881860  70.9655480  17.1605140  90.9127630  70.2345140  17.6863120
  90.6238370  70.6469120  16.2586130  77.2873420  81.9869060  16.5805100
  76.9028210  81.3462730  17.1788060  77.5985610  82.6905180  17.1499830
  83.4370560  78.8345600  12.0613720  83.8040690  78.3604170  12.8075060
  83.2475620  79.7087170  12.4022060  76.3011050  73.5789290   8.1907190
  76.0157970  73.2144960   9.0285810  76.2389910  72.8469750   7.5770330
  81.2269930  77.8754240  14.3797930  80.9227000  78.7546220  14.6048290
  82.1816390  77.9354030  14.4155370  79.7551720  82.0815230   4.9764780
  78.9813980  81.5412850   4.8163500  80.4846350  81.5621840   4.6382540
  90.5139700  81.0780590  10.7691170  91.2338820  81.5735880  10.3787280
  90.3121520  80.3998480  10.1245040  85.9749640  72.4718550   4.9120560
  85.1614250  71.9731720   4.8365870  85.7811590  73.3116800   4.4956910
  85.8958500  81.1489650  16.6560170  85.8295810  80.2285320  16.4017760
  85.2663640  81.2465090  17.3704810  88.6898030  76.8438200   3.2082720
  89.5777650  77.1555430   3.0334060  88.6603120  75.9710450   2.8163300
  79.7989120  81.7495610   8.6143590  80.3167790  80.9463870   8.5600480
  79.3473140  81.6874750   9.4560420  84.6858620  83.0161890   3.8870890
  85.0274320  83.7604120   3.3914210  83.8571330  83.3293010   4.2495720
  77.2833660  78.7156980  15.5269290  76.9248600  79.3810830  16.1142630
  76.9888220  77.8840530  15.8981910  80.4846780  79.1741220  18.4108840
  80.1846920  79.3198400  17.5136660  81.2558020  78.6146510  18.3182230
  85.8275230  83.9710220  16.4063970  85.8419770  83.0391180  16.1882880
  85.1200330  84.0569980  17.0453740  90.9612300  78.1550040   2.6762580
  90.8776020  78.5864260   1.8259020  91.6806490  78.6148390   3.1089400
  92.0386440  80.6117560  15.7532550  91.3134630  81.2046340  15.5561940
  92.5661900  80.6041100  14.9545920  91.9899550  85.0092300   5.4044710
  91.3475710  84.3547920   5.6788430  91.6030210  85.4147390   4.6285380
  87.5686030  82.3377730   9.2516400  87.9209850  81.7405860   8.5917770
  86.6848360  82.0121960   9.4224650  83.6549310  83.0975420   6.6586810
  84.3420440  83.6444630   7.0394400  82.8681730  83.6416150   6.6936420
  75.7941710  78.7148240   2.1503890  76.6636560  78.9973040   2.4339810
  75.3032030  79.5284110   2.0352700  82.9576520  80.1021450   6.2712170
  83.4139300  80.9126700   6.4972360  82.6064730  79.7844590   7.1030660
  85.2609130  85.6127790  13.5004470  85.9051350  85.8187170  14.1777890
  85.6238570  84.8516190  13.0475320  78.8588300  70.4459100   6.7434690
  78.7302930  70.4377000   7.6919610  78.0350320  70.7842190   6.3925700
  86.5341210  83.6160140  12.2181920  87.1763440  82.9153300  12.3314090
  87.0590560  84.3958580  12.0378810  88.3078830  84.4155040  15.4217980
  88.6435070  85.0021730  16.0995900  87.3879170  84.2847750  15.6515770
  76.1612960  87.9275620   2.7165520  76.5210600  88.5264960   2.0622790
  76.0205300  88.4735510   3.4900550  75.8582230  72.2050220  16.2041390
  75.1440750  72.4047140  16.8094000  76.2777270  71.4289790  16.5756190
  89.9613180  81.8180700   3.6035220  89.6734880  82.2793390   4.3913100
  90.7565350  81.3578470   3.8719440  76.1454820  86.1930480  17.1907920
  76.2545940  85.2525220  17.0503310  75.4935380  86.4585230  16.5421650
  84.1367410  84.4646370  18.5906040  83.8164280  83.7455610  19.1351730
  83.4625770  85.1401440  18.6642100  82.1781580  85.3106820   3.5339190
  82.1691680  86.0436510   2.9183700  81.2579940  85.0638400   3.6266150
  77.7788220  80.5321710   4.2785950  77.1716170  81.2720610   4.2881250
  78.2537570  80.6221070   3.4524150  87.3521010  74.6972530  13.9542840
  87.7201830  73.8767740  14.2822410  86.4919210  74.7574420  14.3698490
  90.7183040  73.6529470   4.7630400  90.0896200  73.7575140   4.0488630
  90.2234960  73.8726250   5.5524280  82.6867070  75.9315420   6.1788280
  81.9783220  76.4001760   6.6201890  82.9711550  75.2737430   6.8133470
  84.3123000  77.3512120  14.1780810  84.8108250  77.8257940  14.8432660
  84.4545950  76.4275640  14.3850840  86.7182500  72.6566080   7.6184070
  86.5950280  72.6752210   6.6693580  87.6667060  72.7045020   7.7382470
  83.8059290  87.8921380   6.8912050  84.0600790  87.8542770   5.9691420
  82.8571770  87.7654710   6.8840300  80.8902090  74.2400500   3.5538990
  81.7392620  74.6770650   3.4879180  80.5233360  74.5520760   4.3811050
  91.5189860  73.5680080  15.0209200  91.0163460  74.3085480  15.3603010
  92.3346520  73.9564080  14.7045990  89.8111870  78.8113260   8.4670560
  88.8702010  78.8263490   8.6418250  90.1255940  78.0249220   8.9130860
  78.4840270  77.9257930   2.7107410  78.5643860  76.9785440   2.8224810
  79.3760020  78.2564810   2.8168070  91.8137450  85.9822110  10.1424820
  91.9384870  86.8053280  10.6148630  92.6803010  85.7712840   9.7948970
  79.2854980  88.0753320   9.8141950  80.0217460  87.5268780  10.0850520
  79.6695900  88.9409330   9.6747940  76.1700460  84.1426890   5.6883460
  75.2440240  84.3848030   5.6788870  76.6356890  84.9701150   5.5668210
  78.2913260  87.2599390  19.0027530  79.0925990  87.5811440  19.4162930
  77.7765080  86.8994970  19.7247440  87.1277890  83.3679260  18.9502940
  86.5216050  83.3910860  18.2098690  86.8232000  82.6362300  19.4870190
  88.5578260  87.0959550  17.5612350  89.5100010  87.0117570  17.5112590
  88.4106480  87.7601260  18.2346140  91.4487460  86.4753760   3.0604260
  91.1628970  86.0618900   2.2458440  91.2507010  87.4041470   2.9404780
  76.0111070  79.7472850  17.9463580  76.5150090  79.1680130  18.5179810
  75.2718490  80.0313080  18.4839950  83.0649010  81.1543840  17.4799100
  82.2994680  81.7228840  17.3953770  83.2464970  80.8620050  16.5867330
  86.1537420  81.5307070   2.1051860  85.6047520  81.9776370   2.7494600
  86.7756680  81.0256320   2.6289530  90.2072360  82.8849170  18.0374120
  90.9481830  83.2224930  17.5341580  89.4445040  83.0541230  17.4843890
  78.0434150  77.8902440  18.8413650  78.0839490  77.5916310  19.7498880
  78.8979650  78.2910050  18.6821170  81.8212540  80.4897990   4.0017160
  82.2428960  80.3237860   4.8448550  81.9463380  79.6798220   3.5072300
  79.9839960  76.4694540  16.8088140  79.4536420  75.9785490  16.1811480
  80.6528030  76.8978740  16.2746070  88.8818020  80.9364000  16.5729330
  89.2959040  81.0909080  17.4219750  87.9469020  81.0619220  16.7355110
  89.3540190  78.2760160  18.5768480  89.9360960  77.5212480  18.4888960
  89.5301960  78.8067600  17.7999960  80.4712260  73.4356910  16.8885430
  80.3769130  72.8177660  16.1636300  79.8909650  74.1623200  16.6615340
  83.2373700  71.9930150  13.9212820  82.7891000  72.0154410  13.0758370
  82.6038900  71.5949170  14.5183120  83.6433250  80.8884480  14.5425260
  84.0621360  81.7317210  14.3701500  82.7241880  81.0256520  14.3132040
  85.9797150  78.6200660  15.9263100  86.0993360  78.0241800  16.6657940
  86.8391150  78.6570350  15.5064400  88.3185050  79.1737850  14.5025610
  87.7920270  79.6980470  13.8990750  88.6616390  79.8065240  15.1335340
  81.4940670  87.1937490  15.6582990  80.9561760  87.9183550  15.3391690
  81.7474630  86.7167830  14.8680330  82.7465920  75.1622010  17.1838920
  83.3365610  74.8537860  17.8716740  81.9286160  74.6901760  17.3398820
  87.5659350  74.7787820  17.4171940  86.8774870  74.1169360  17.3521930
  88.2865370  74.3326090  17.8620400  88.1959750  71.3739450   3.4762200
  88.4762040  70.5307350   3.8321620  87.4225480  71.6062560   3.9900950
  84.3502880  88.4288700  15.9169640  84.2761580  89.3323840  16.2242010
  83.4481720  88.1100600  15.8891710  84.8988210  87.5947210   3.5396000
  85.7939000  87.9332180   3.5614760  84.9305840  86.8726620   2.9120280
  78.5384370  82.9674260   1.7683000  78.9759240  83.5103930   2.4240580
  79.0232100  82.1421210   1.7779340  75.7530170  85.7563290   9.2203260
  76.0833180  84.8884350   8.9881900  76.1821170  85.9621810  10.0508220
  80.3492090  84.0872300   6.8805230  80.0487630  83.9637270   7.7809140
  80.2429580  83.2280890   6.4720960  76.2420380  86.6233880  11.9584890
  75.8051370  86.8034680  12.7909040  76.8098060  87.3808500  11.8166610
  91.8782560  86.1250880  16.2462200  91.2784550  86.1843440  15.5026120
  92.0076460  85.1855860  16.3759050  92.5740470  80.6116180   4.0866110
  93.3359380  81.1812830   4.1925800  92.5894840  80.0443380   4.8574420
  76.0744810  79.1354110   8.3173770  75.4193650  78.8665750   7.6733470
  76.9122760  79.0258590   7.8675750  93.5800440  81.4666280   8.9308040
  93.9509270  80.6833600   8.5244010  94.2202370  82.1555380   8.7525340
  90.5634200  82.8502860  14.3438360  89.7494040  83.2800020  14.6064150
  90.9708400  83.4621270  13.7307410  89.0235250  73.9295400   2.5392260
  89.4420130  73.7426380   1.6988920  88.7171310  73.0774450   2.8495190
  92.5224980  78.8419540   6.2368060  92.1468580  78.0747470   5.8049350
  91.7928100  79.2242240   6.7242990  77.1120740  79.5206680  12.8577110
  77.4793780  79.4334080  13.7373130  76.5431560  78.7573230  12.7583970
  91.9124600  77.9891060  15.8707580  91.6810690  77.7603810  14.9705530
  92.1729150  78.9090610  15.8252470  76.6636740  76.4315770  16.7635530
  75.7692790  76.3982530  17.1029240  77.2034290  76.6302560  17.5286780
  90.3512670  73.2147490  18.6487280  91.2282850  73.2230890  19.0321280
  90.3633510  72.4778330  18.0379630  75.2882890  76.3453040   4.2599100
  74.3846970  76.6083240   4.0850760  75.7723510  76.6164210   3.4799060
  91.7975940  77.0677030   9.5375300  92.3213420  76.5739680   8.9065470
  92.3835360  77.2027390  10.2822870  91.9765660  77.1516900  13.0594850
  91.0268370  77.1180440  13.1739840  92.1578670  78.0617010  12.8244620
  91.2875910  76.3250380   5.4767710  91.7835030  76.0921250   6.2616590
  91.0891980  75.4862220   5.0605350  77.1676450  70.7064100  11.1118750
  77.8152640  70.1561480  10.6713910  77.5878290  70.9607250  11.9334560
  92.7163070  74.9611330   8.0105390  92.6062350  74.8067370   8.9487660
  93.4770660  74.4332270   7.7680800  91.0628790  70.9005460  14.4688390
  91.7001010  71.5139600  14.8347580  91.2103680  70.9366120  13.5237620
  93.6791830  73.5629910   3.8768240  92.8843330  73.4975030   4.4061150
  93.8835110  74.4980550   3.8653590  90.6210250  87.6021460   7.8706630
  91.2169320  87.2806030   7.1941050  90.8788400  87.1293280   8.6619900
  76.9208450  70.8619770  13.8544070  76.5723270  71.3183590  14.6202250
  76.5896150  69.9676900  13.9366500  78.5272820  84.0339370  18.0197260
  78.4842450  83.6632280  18.9011720  78.6583830  84.9716940  18.1599080
  82.2278850  85.5898960  13.6206980  81.9870210  85.8573520  12.7337500
  83.1681490  85.7604690  13.6757840  84.4333270  72.0531650  17.3763490
  84.3722160  72.6453480  18.1258900  85.3733650  71.9457610  17.2313750
  87.0707830  71.7101710  17.0155780  87.6848240  72.0281000  16.3536860
  87.6157390  71.2250300  17.6351640  93.4883010  87.6093340  14.4217620
  92.9941290  88.0062210  13.7044750  92.8796300  86.9842550  14.8154900
  77.5929090  70.3895970  17.1294840  78.1412080  70.2084020  16.3660950
  77.6584400  69.5990080  17.6651150  78.3660850  86.9801620  15.1395040
  77.7721170  86.8486320  15.8785080  78.3584690  86.1439760  14.6737140
  87.8115870  70.2733850  13.3425070  86.9375710  70.6068960  13.1398000
  87.7026620  69.8007030  14.1676940  88.7187850  72.4804720  14.7266790
  88.3901210  71.6656480  14.3468520  89.6670150  72.4374530  14.6032480
  91.1722460  88.2516760  11.7004360  90.7125430  89.0032570  11.3262380
  90.5434920  87.5323230  11.6419160  77.9973080  84.3460000  14.0903080
  77.2707140  83.7265290  14.0229030  78.0582230  84.7400610  13.2201160
  81.6018180  86.5605000  10.8752490  82.1183200  85.9492360  10.3500750
  82.2515560  87.0633780  11.3663500  84.3413680  87.4513490  11.7021470
  84.6291490  87.1967790  10.8254480  84.8536900  86.8990850  12.2927040
  85.5590690  71.1903690  12.2817980  84.7762480  71.6649190  12.5614740
  85.2653620  70.2858520  12.1731160  90.1111760  71.8926790  10.3267070
  90.5519850  71.8371890   9.4788670  89.8419350  72.8084800  10.3977250
  91.9750330  71.5242030   8.3375890  91.9138730  70.5803250   8.1906910
  92.7542360  71.6322120   8.8829350  76.2803080  87.6634390   7.2999840
  76.1125120  87.0305070   7.9981730  75.4137590  87.8693790   6.9494030
  76.9031100  71.4951170   4.8031700  77.6610460  71.6080050   4.2295730
  76.4408270  72.3320370   4.7575130  83.4444910  73.6090440   7.7934010
  82.6319420  73.2347330   7.4529890  83.9486550  72.8535520   8.0955200
  87.9469890  70.2732890   9.0317080  88.5499260  70.8453100   9.5065600
  87.2062880  70.8372330   8.8090980  91.0904490  70.6754450   4.3057360
  91.2855120  71.5737900   4.5724790  90.3034360  70.4441530   4.7990310
  77.8865780  86.3567620   4.7449980  77.3613400  86.7375650   4.0411940
  77.8110360  86.9818390   5.4659690  79.2756250  72.0215220   3.3433670
  79.8049010  71.2345020   3.2141620  79.9084570  72.7006410   3.5769200
  81.4694090  71.7590360   6.3979060  80.8396830  71.0577670   6.5649190
  80.9299230  72.5194490   6.1812220  84.4086040  88.3729590  19.0689670
  85.3353350  88.1373860  19.1125630  84.3936470  89.2001590  18.5875700
  92.6431100  87.9155160   6.0663920  92.8183290  87.2292900   5.4224840
  91.9452670  88.4402210   5.6740590  81.5949650  71.0374340  18.8331550
  81.3133920  71.5407940  18.0692370  81.9769350  70.2396090  18.4673680
  80.4858750  88.3050000   3.6199230  81.2177570  88.0209280   3.0723120
  80.7452420  88.0663280   4.5098610  79.6473540  84.4214730   3.6245560
  79.0182420  84.8899830   4.1731390  79.7621370  83.5763950   4.0591750
  88.1965110  70.4527920  19.4112020  88.0830560  70.7722530  20.3063540
  89.0134850  70.8540430  19.1149300  90.9763600  87.5999450  18.8930710
  91.7688920  87.1048680  18.6856670  91.2696750  88.2789590  19.5006320
  87.1023260  59.6976900  64.8720720  87.0217310  58.7831510  64.6012430
  86.6887680  60.1943970  64.1660430  85.2341300  61.4755920  66.7529990
  84.4583400  60.9956360  67.0428560  85.8854230  60.7961570  66.5786150
  79.2507130  61.7875730  67.6305750  78.4192010  61.5324440  68.0302260
  79.8588110  61.8586500  68.3663670  89.2548730  65.8816110  65.5329120
  88.7930260  65.1103350  65.8616290  90.0674280  65.9082180  66.0381570
  79.2308390  65.8215820  67.8263770  79.5336430  64.9313560  67.6473990
  79.9751980  66.3786040  67.5986020  77.6599080  56.7477620  61.4148140
  76.7715780  57.0893590  61.3128020  77.9440270  56.5477940  60.5228970
  75.6232090  59.3483270  67.2987840  76.1948200  58.5805470  67.2991480
  75.6233630  59.6472030  66.3894450  85.4812040  68.1674120  65.1533110
  84.8623480  68.6231620  64.5827550  86.3363820  68.3225580  64.7522810
  84.6750290  64.1513110  66.7600150  84.6058570  63.2103050  66.5989280
  85.4370150  64.2414520  67.3322720  76.8656960  54.7567630  69.0856770
  76.6859800  53.8593380  69.3659530  76.4637040  55.3039500  69.7603720
  85.7055460  56.9583490  66.9869080  86.0820280  56.0855370  66.8742750
  85.6074970  57.2942190  66.0959520  79.8360470  55.3309120  62.4486520
  79.9427220  56.2312850  62.7555280  78.9252830  55.2827090  62.1581170
  89.4879580  54.4533930  63.9197420  90.3089200  53.9630500  63.9622900
  89.5213660  55.0431590  64.6729260  77.4843630  57.2528130  67.6939110
  78.1653740  57.5166500  68.3126510  77.1691680  56.4129000  68.0277120
  81.6768200  58.2995490  66.7811700  82.1846420  58.7976460  67.4216720
  82.2081440  57.5230690  66.6051060  93.7779130  56.4700680  70.4841050
  93.0731300  56.8582390  69.9656160  94.0437050  57.1650970  71.0861980
  79.9604300  52.9394050  71.0475120  79.9622740  53.4566440  70.2421020
  79.1308610  52.4624230  71.0245050  86.3475390  63.0513360  62.5465020
  85.7292660  63.5162810  61.9827740  86.8598640  63.7440840  62.9634530
  81.2107150  62.5789230  69.2248620  80.8776530  63.2058150  69.8669690
  81.3873830  63.1051110  68.4450290  89.7241060  56.3934310  66.6924960
  89.0196630  56.6819200  67.2728070  90.0853220  57.2034420  66.3324520
  79.6419630  54.6504010  69.0545570  79.9836440  55.4946060  68.7599440
  78.7035440  54.7987750  69.1710910  80.4226250  64.5470030  71.0397800
  81.0400250  65.2221110  70.7582250  79.5619370  64.9558010  70.9485300
  75.7158590  63.7369890  59.9204650  75.3386570  64.2256990  59.1889550
  75.9731660  64.4095170  60.5511180  91.3403840  66.0109440  68.9552440
  90.6567360  66.6808550  68.9469110  91.8798130  66.2090090  68.1897300
  92.7927980  55.8389100  67.0834170  91.8452890  55.8728080  67.2149600
  93.1177970  56.6528050  67.4683530  83.3247520  52.1386280  65.3790160
  83.6322500  51.5833170  64.6625660  82.3948220  52.2730740  65.1963150
  88.8762580  67.8553570  67.6697620  88.8889740  67.4515860  66.8019880
  88.3237800  68.6300860  67.5659050  90.1708000  64.5769790  62.7587790
  90.0604330  63.6344120  62.8837210  90.1676250  64.9385430  63.6450550
  88.2748020  62.7583410  68.9980230  88.6916810  62.5443520  68.1633690
  88.9987840  63.0156200  69.5688850  85.7128280  60.2035110  62.1150280
  84.7857560  60.1372490  62.3438750  85.8653100  61.1415240  62.0005520
  85.6997360  56.4752110  59.1117440  84.7601030  56.6366070  59.1969900
  86.0180620  57.1937790  58.5653430  92.2210120  61.1570630  69.0896470
  91.3928750  61.2263720  68.6146600  92.8160600  61.7424940  68.6212300
  89.7425570  61.7655410  62.6185530  89.1237990  61.4274960  61.9711830
  89.7250020  61.1215170  63.3264720  89.1852130  57.9439950  70.0351340
  88.7723310  58.7693660  70.2891330  88.4528080  57.3584990  69.8427700
  81.3184920  60.7299850  64.8970010  80.9141920  60.0177100  64.4015910
  81.4048040  60.3853090  65.7858050  81.7866620  64.4167410  67.0609220
  81.4894910  63.8112880  66.3817000  82.7366440  64.4544720  66.9498580
  80.0313540  57.5043060  68.6769050  80.5828130  57.6138400  67.9022300
  80.5457050  57.8780660  69.3924280  89.8752230  67.9899280  70.7232320
  89.3982790  68.7971470  70.5304930  89.1914020  67.3377610  70.8758530
  80.8785050  64.1549100  73.7117020  79.9813580  64.3789070  73.9590420
  80.9037920  64.2784040  72.7628420  87.9190270  61.0042220  59.6258280
  88.3583550  60.1664650  59.4796100  88.6318690  61.6371620  59.7122420
  79.7056270  61.0262420  72.2874390  79.5664040  61.8985220  72.6561790
  78.8237630  60.6835230  72.1422330  86.0285650  65.9438290  63.5939520
  86.4681560  66.6862620  63.1794910  85.9672540  66.1864860  64.5178480
  81.5036620  66.9684120  74.4959540  81.4752050  67.3727070  73.6287970
  81.3401590  66.0394480  74.3331140  91.5007410  52.2585030  57.9399320
  91.1880070  52.3511860  58.8398390  92.2619880  52.8366060  57.8896750
  78.0189550  59.6244830  62.3976660  77.8987150  60.3506920  61.7857930
  77.7090440  58.8547740  61.9204570  75.6574920  62.7959970  68.2045300
  75.7355340  62.9308740  67.2601020  76.2716600  62.0875860  68.3973420
  76.9022550  64.4960160  64.6151480  76.4950630  64.6374750  63.7605080
  77.7935560  64.2120320  64.4122690  92.8584690  64.9424070  72.9523720
  92.9847750  64.7035950  72.0340900  92.9006070  64.1108610  73.4245800
  86.7201430  68.6452070  71.5218530  87.2346100  68.5560080  72.3240960
  85.8770510  68.9911770  71.8146440  88.6955830  68.9307410  60.9502530
  88.5356970  68.6410350  61.8484360  88.5302540  68.1547540  60.4147760
  81.1744210  68.7105940  62.7274150  80.9986690  67.7941480  62.5141950
  80.3199950  69.0693230  62.9671950  88.3981960  66.4394970  59.5100530
  87.7047120  66.4372260  58.8502810  89.1404820  66.0154290  59.0794700
  87.9631890  68.0657680  63.5849020  88.4188840  67.2847060  63.8987640
  88.3024410  68.7764500  64.1290200  92.7108700  56.9956530  73.9173460
  92.0952970  57.5036200  73.3888920  92.3905120  56.0954860  73.8599400
  75.7134440  63.8374140  70.7439760  75.8765480  63.3679500  69.9259130
  76.1786890  63.3297700  71.4088600  80.4853210  52.9679900  65.7800330
  80.0421360  53.7489440  65.4484850  81.0438200  53.2909790  66.4871270
  84.7723020  55.8348420  71.3835650  84.3102390  56.0431440  72.1955590
  84.3701130  55.0207770  71.0806320  89.7727530  57.0557370  72.5132310
  88.9221120  56.7563120  72.8341380  89.6129320  57.2999380  71.6016130
  86.8677240  58.5559120  74.6131100  87.1930650  57.7222870  74.2733330
  87.6557570  59.0787640  74.7609430  83.6012030  52.5890600  60.6606160
  82.9766210  52.5850470  61.3859470  83.5142150  51.7221560  60.2642130
  82.5229110  53.5127230  67.6389930  82.8201440  54.4190060  67.5581950
  83.0714670  53.0246010  67.0249500  80.2767430  58.0913470  63.5081580
  80.0508350  57.8750640  64.4128200  79.4959960  58.5241930  63.1627550
  87.5065190  58.0976840  62.1072230  86.9074080  58.8212640  61.9235850
  88.0544800  58.0353620  61.3248680  82.7166640  58.9899050  74.1741850
  82.6210240  58.0493780  74.0242250  83.5598620  59.2114120  73.7789920
  86.1130060  56.7340380  64.1375510  86.5059630  57.0512580  63.3244200
  86.4746910  55.8552260  64.2520030  77.8477180  55.4012720  72.3275630
  77.4540570  56.2487930  72.5348410  77.1595580  54.7639090  72.5184270
  75.1494230  53.3241180  66.3605710  74.8607280  53.8944040  67.0730690
  75.8939990  52.8445630  66.7236940  75.3364460  57.2661300  57.5708430
  75.2539130  58.2092060  57.7123420  74.9847520  57.1236210  56.6920780
  86.6985200  59.3246130  68.2326290  85.9666320  59.8332940  68.5816390
  86.3009540  58.5076110  67.9315070  83.1362590  56.0000330  66.6378780
  83.1398650  55.5590280  65.7883320  84.0313710  56.3217660  66.7450600
  78.9864970  55.8826820  65.5972990  78.6465020  56.3602050  66.3540040
  78.2242290  55.4291940  65.2374090  83.1982740  57.0012410  59.6285540
  83.3195560  56.9598890  60.5771360  82.8131250  57.8636560  59.4732270
  87.1611110  54.7779810  67.6449230  87.1783850  55.2288460  68.4891080
  86.9126690  53.8785450  67.8582670  82.2104240  59.3113550  59.0268840
  81.6421140  58.8631800  58.4004750  82.9193240  59.6706330  58.4933990
  90.5881860  52.1911990  73.4835610  90.9127630  51.4601650  74.0093590
  90.6238370  51.8725630  72.5816600  77.2873420  63.2125570  72.9035570
  76.9028210  62.5719240  73.5018530  77.5985610  63.9161690  73.4730300
  83.4370560  60.0602110  68.3844190  83.8040690  59.5860680  69.1305530
  83.2475620  60.9343680  68.7252530  76.3011050  54.8045800  64.5137660
  76.0157970  54.4401470  65.3516280  76.2389910  54.0726260  63.9000800
  81.2269930  59.1010750  70.7028400  80.9227000  59.9802730  70.9278760
  82.1816390  59.1610540  70.7385840  79.7551720  63.3071740  61.2995250
  78.9813980  62.7669360  61.1393970  80.4846350  62.7878350  60.9613010
  90.5139700  62.3037100  67.0921640  91.2338820  62.7992390  66.7017750
  90.3121520  61.6254990  66.4475510  85.9749640  53.6975060  61.2351030
  85.1614250  53.1988230  61.1596340  85.7811590  54.5373310  60.8187380
  85.8958500  62.3746160  72.9790640  85.8295810  61.4541830  72.7248230
  85.2663640  62.4721600  73.6935280  88.6898030  58.0694710  59.5313190
  89.5777650  58.3811940  59.3564530  88.6603120  57.1966960  59.1393770
  79.7989120  62.9752120  64.9374060  80.3167790  62.1720380  64.8830950
  79.3473140  62.9131260  65.7790890  84.6858620  64.2418400  60.2101360
  85.0274320  64.9860630  59.7144680  83.8571330  64.5549520  60.5726190
  77.2833660  59.9413490  71.8499760  76.9248600  60.6067340  72.4373100
  76.9888220  59.1097040  72.2212380  80.4846780  60.3997730  74.7339310
  80.1846920  60.5454910  73.8367130  81.2558020  59.8403020  74.6412700
  85.8275230  65.1966730  72.7294440  85.8419770  64.2647690  72.5113350
  85.1200330  65.2826490  73.3684210  90.9612300  59.3806550  58.9993050
  90.8776020  59.8120770  58.1489490  91.6806490  59.8404900  59.4319870
  92.0386440  61.8374070  72.0763020  91.3134630  62.4302850  71.8792410
  92.5661900  61.8297610  71.2776390  91.9899550  66.2348810  61.7275180
  91.3475710  65.5804430  62.0018900  91.6030210  66.6403900  60.9515850
  87.5686030  63.5634240  65.5746870  87.9209850  62.9662370  64.9148240
  86.6848360  63.2378470  65.7455120  83.6549310  64.3231930  62.9817280
  84.3420440  64.8701140  63.3624870  82.8681730  64.8672660  63.0166890
  75.7941710  59.9404750  58.4734360  76.6636560  60.2229550  58.7570280
  75.3032030  60.7540620  58.3583170  82.9576520  61.3277960  62.5942640
  83.4139300  62.1383210  62.8202830  82.6064730  61.0101100  63.4261130
  85.2609130  66.8384300  69.8234940  85.9051350  67.0443680  70.5008360
  85.6238570  66.0772700  69.3705790  78.8588300  51.6715610  63.0665160
  78.7302930  51.6633510  64.0150080  78.0350320  52.0098700  62.7156170
  86.5341210  64.8416650  68.5412390  87.1763440  64.1409810  68.6544560
  87.0590560  65.6215090  68.3609280  90.3796930  65.1265270  58.2651530
  90.1534510  64.4095710  58.8576170  89.9893130  64.8777710  57.4273280
  88.3078830  65.6411550  71.7448450  88.6435070  66.2278240  72.4226370
  87.3879170  65.5104260  71.9746240  76.1612960  69.1532130  59.0395990
  76.5210600  69.7521470  58.3853260  76.0205300  69.6992020  59.8131020
  75.8582230  53.4306730  72.5271860  75.1440750  53.6303650  73.1324470
  76.2777270  52.6546300  72.8986660  89.9613180  63.0437210  59.9265690
  89.6734880  63.5049900  60.7143570  90.7565350  62.5834980  60.1949910
  76.1454820  67.4186990  73.5138390  76.2545940  66.4781730  73.3733780
  75.4935380  67.6841740  72.8652120  82.1781580  66.5363330  59.8569660
  82.1691680  67.2693020  59.2414170  81.2579940  66.2894910  59.9496620
  77.7788220  61.7578220  60.6016420  77.1716170  62.4977120  60.6111720
  78.2537570  61.8477580  59.7754620  87.3521010  55.9229040  70.2773310
  87.7201830  55.1024250  70.6052880  86.4919210  55.9830930  70.6928960
  90.7183040  54.8785980  61.0860870  90.0896200  54.9831650  60.3719100
  90.2234960  55.0982760  61.8754750  85.1641180  66.5991570  58.5194850
  85.2653160  66.3955560  57.5896830  84.2642920  66.3449850  58.7242630
  82.6867070  57.1571930  62.5018750  81.9783220  57.6258270  62.9432360
  82.9711550  56.4993940  63.1363940  84.3123000  58.5768630  70.5011280
  84.8108250  59.0514450  71.1663130  84.4545950  57.6532150  70.7081310
  86.7182500  53.8822590  63.9414540  86.5950280  53.9008720  62.9924050
  87.6667060  53.9301530  64.0612940  83.8059290  69.1177890  63.2142520
  84.0600790  69.0799280  62.2921890  82.8571770  68.9911220  63.2070770
  80.8902090  55.4657010  59.8769460  81.7392620  55.9027160  59.8109650
  80.5233360  55.7777270  60.7041520  91.5189860  54.7936590  71.3439670
  91.0163460  55.5341990  71.6833480  92.3346520  55.1820590  71.0276460
  89.8111870  60.0369770  64.7901030  88.8702010  60.0520000  64.9648720
  90.1255940  59.2505730  65.2361330  79.7893510  61.7189370  58.3504990
  80.5556780  61.6070730  58.9130420  79.8668200  61.0227340  57.6981760
  78.4840270  59.1514440  59.0337880  78.5643860  58.2041950  59.1455280
  79.3760020  59.4821320  59.1398540  91.8137450  67.2078620  66.4655290
  91.9384870  68.0309790  66.9379100  92.6803010  66.9969350  66.1179440
  79.2854980  69.3009830  66.1372420  80.0217460  68.7525290  66.4080990
  79.6695900  70.1665840  65.9978410  76.1700460  65.3683400  62.0113930
  75.2440240  65.6104540  62.0019340  76.6356890  66.1957660  61.8898680
  82.3957290  68.4740140  57.9597990  83.1885900  68.7628970  57.5079780
  81.8761640  68.0432310  57.2810470  88.5578260  68.3216060  73.8842820
  89.5100010  68.2374080  73.8343060  88.4106480  68.9857770  74.5576610
  91.4487460  67.7010270  59.3834730  91.1628970  67.2875410  58.5688910
  91.2507010  68.6297980  59.2635250  76.0111070  60.9729360  74.2694050
  76.5150090  60.3936640  74.8410280  75.2718490  61.2569590  74.8070420
  82.9134690  63.6943550  57.8240340  82.8085330  63.0795900  58.5501720
  82.7458910  63.1709440  57.0403350  83.0649010  62.3800350  73.8029570
  82.2994680  62.9485350  73.7184240  83.2464970  62.0876560  72.9097800
  86.1537420  62.7563580  58.4282330  85.6047520  63.2032880  59.0725070
  86.7756680  62.2512830  58.9520000  90.2072360  64.1105680  74.3604590
  90.9481830  64.4481440  73.8572050  89.4445040  64.2797740  73.8074360
  81.8212540  61.7154500  60.3247630  82.2428960  61.5494370  61.1679020
  81.9463380  60.9054730  59.8302770  79.9839960  57.6951050  73.1318610
  79.4536420  57.2042000  72.5041950  80.6528030  58.1235250  72.5976540
  84.3340180  60.7392110  57.5724730  84.8545840  60.0241130  57.2065880
  84.9808580  61.3777980  57.8725240  88.8818020  62.1620510  72.8959800
  89.2959040  62.3165590  73.7450220  87.9469020  62.2875730  73.0585580
  89.3540190  59.5016670  74.8998950  89.9360960  58.7468990  74.8119430
  89.5301960  60.0324110  74.1230430  80.4712260  54.6613420  73.2115900
  80.3769130  54.0434170  72.4866770  79.8909650  55.3879710  72.9845810
  83.2373700  53.2186660  70.2443290  82.7891000  53.2410920  69.3988840
  82.6038900  52.8205680  70.8413590  83.6433250  62.1140990  70.8655730
  84.0621360  62.9573720  70.6931970  82.7241880  62.2513030  70.6362510
  85.9797150  59.8457170  72.2493570  86.0993360  59.2498310  72.9888410
  86.8391150  59.8826860  71.8294870  88.3185050  60.3994360  70.8256080
  87.7920270  60.9236980  70.2221220  88.6616390  61.0321750  71.4565810
  80.7171440  57.7887730  57.2705790  80.5160500  56.9255090  57.6319130
  80.5463490  57.7021090  56.3327390  81.4940670  68.4194000  71.9813460
  80.9561760  69.1440060  71.6622160  81.7474630  67.9424340  71.1910800
  82.7465920  56.3878520  73.5069390  83.3365610  56.0794370  74.1947210
  81.9286160  55.9158270  73.6629290  87.5659350  56.0044330  73.7402410
  86.8774870  55.3425870  73.6752400  88.2865370  55.5582600  74.1850870
  88.1959750  52.5995960  59.7992670  88.4762040  51.7563860  60.1552090
  87.4225480  52.8319070  60.3131420  79.5154240  54.8888350  57.2583670
  79.8180140  54.8955780  56.3502820  80.2548830  54.5386210  57.7551330
  84.3502880  69.6545210  72.2400110  84.2761580  70.5580350  72.5472480
  83.4481720  69.3357110  72.2122180  82.7339170  53.8322970  58.2439870
  82.3861170  53.1546960  57.6642320  82.9351940  53.3712480  59.0583260
  84.8988210  68.8203720  59.8626470  85.7939000  69.1588690  59.8845230
  84.9305840  68.0983130  59.2350750  78.5384370  64.1930770  58.0913470
  78.9759240  64.7360440  58.7471050  79.0232100  63.3677720  58.1009810
  75.7530170  66.9819800  65.5433730  76.0833180  66.1140860  65.3112370
  76.1821170  67.1878320  66.3738690  80.3492090  65.3128810  63.2035700
  80.0487630  65.1893780  64.1039610  80.2429580  64.4537400  62.7951430
  76.2420380  67.8490390  68.2815360  75.8051370  68.0291190  69.1139510
  76.8098060  68.6065010  68.1397080  91.8782560  67.3507390  72.5692670
  91.2784550  67.4099950  71.8256590  92.0076460  66.4112370  72.6989520
  93.1184010  65.0925210  57.9062380  92.2876970  65.1601860  58.3769610
  93.2955840  65.9829330  57.6029240  92.5740470  61.8372690  60.4096580
  93.3359380  62.4069340  60.5156270  92.5894840  61.2699890  61.1804890
  76.0744810  60.3610620  64.6404240  75.4193650  60.0922260  63.9963940
  76.9122760  60.2515100  64.1906220  93.5800440  62.6922790  65.2538510
  93.9509270  61.9090110  64.8474480  94.2202370  63.3811890  65.0755810
  90.5634200  64.0759370  70.6668830  89.7494040  64.5056530  70.9294620
  90.9708400  64.6877780  70.0537880  92.6259640  62.1307060  57.5669100
  92.9008480  63.0385940  57.4388320  92.4370380  62.0669590  58.5031090
  89.0235250  55.1551910  58.8622730  89.4420130  54.9682890  58.0219390
  88.7171310  54.3030960  59.1725660  92.5224980  60.0676050  62.5598530
  92.1468580  59.3003980  62.1279820  91.7928100  60.4498750  63.0473460
  77.1120740  60.7463190  69.1807580  77.4793780  60.6590590  70.0603600
  76.5431560  59.9829740  69.0814440  91.9124600  59.2147570  72.1938050
  91.6810690  58.9860320  71.2936000  92.1729150  60.1347120  72.1482940
  76.6636740  57.6572280  73.0866000  75.7692790  57.6239040  73.4259710
  77.2034290  57.8559070  73.8517250  75.2882890  57.5709550  60.5829570
  74.3846970  57.8339750  60.4081230  75.7723510  57.8420720  59.8029530
  91.7975940  58.2933540  65.8605770  92.3213420  57.7996190  65.2295940
  92.3835360  58.4283900  66.6053340  91.9765660  58.3773410  69.3825320
  91.0268370  58.3436950  69.4970310  92.1578670  59.2873520  69.1475090
  77.8310100  56.6275090  58.4923950  78.5401800  56.2058310  58.0071230
  77.1150040  56.6950320  57.8607300  77.4784260  52.6814420  57.5326600
  78.2012390  53.2223360  57.8507820  77.7508780  52.4077840  56.6568140
  91.2875910  57.5506890  61.7998180  91.7835030  57.3177760  62.5847060
  91.0891980  56.7118730  61.3835820  77.1676450  51.9320610  67.4349220
  77.8152640  51.3817990  66.9944380  77.5878290  52.1863760  68.2565030
  92.7163070  56.1867840  64.3335860  92.6062350  56.0323880  65.2718130
  93.4770660  55.6588780  64.0911270  91.0628790  52.1261970  70.7918860
  91.7001010  52.7396110  71.1578050  91.2103680  52.1622630  69.8468090
  93.6053340  54.0175760  57.5742000  94.5302650  53.8856940  57.3660290
  93.5829130  54.0968580  58.5278450  93.6791830  54.7886420  60.1998710
  92.8843330  54.7231540  60.7291620  93.8835110  55.7237060  60.1884060
  90.6210250  68.8277970  64.1937100  91.2169320  68.5062540  63.5171520
  90.8788400  68.3549790  64.9850370  76.9208450  52.0876280  70.1774540
  76.5723270  52.5440100  70.9432720  76.5896150  51.1933410  70.2596970
  82.2278850  66.8155470  69.9437450  81.9870210  67.0830030  69.0567970
  83.1681490  66.9861200  69.9988310  84.4333270  53.2788160  73.6993960
  84.3722160  53.8709990  74.4489370  85.3733650  53.1714120  73.5544220
  87.0707830  52.9358220  73.3386250  87.6848240  53.2537510  72.6767330
  87.6157390  52.4506810  73.9582110  93.4883010  68.8349850  70.7448090
  92.9941290  69.2318720  70.0275220  92.8796300  68.2099060  71.1385370
  77.5929090  51.6152480  73.4525310  78.1412080  51.4340530  72.6891420
  77.6584400  50.8246590  73.9881620  78.3660850  68.2058130  71.4625510
  77.7721170  68.0742830  72.2015550  78.3584690  67.3696270  70.9967610
  87.8115870  51.4990360  69.6655540  86.9375710  51.8325470  69.4628470
  87.7026620  51.0263540  70.4907410  88.7187850  53.7061230  71.0497260
  88.3901210  52.8912990  70.6698990  89.6670150  53.6631040  70.9262950
  91.1722460  69.4773270  68.0234830  90.7125430  70.2289080  67.6492850
  90.5434920  68.7579740  67.9649630  77.9973080  65.5716510  70.4133550
  77.2707140  64.9521800  70.3459500  78.0582230  65.9657120  69.5431630
  81.6018180  67.7861510  67.1982960  82.1183200  67.1748870  66.6731220
  82.2515560  68.2890290  67.6893970  84.3413680  68.6770000  68.0251940
  84.6291490  68.4224300  67.1484950  84.8536900  68.1247360  68.6157510
  85.5590690  52.4160200  68.6048450  84.7762480  52.8905700  68.8845210
  85.2653620  51.5115030  68.4961630  90.1111760  53.1183300  66.6497540
  90.5519850  53.0628400  65.8019140  89.8419350  54.0341310  66.7207720
  91.9750330  52.7498540  64.6606360  91.9138730  51.8059760  64.5137380
  92.7542360  52.8578630  65.2059820  76.2803080  68.8890900  63.6230310
  76.1125120  68.2561580  64.3212200  75.4137590  69.0950300  63.2724500
  76.9031100  52.7207680  61.1262170  77.6610460  52.8336560  60.5526200
  76.4408270  53.5576880  61.0805600  83.4444910  54.8346950  64.1164480
  82.6319420  54.4603840  63.7760360  83.9486550  54.0792030  64.4185670
  87.9469890  51.4989400  65.3547550  88.5499260  52.0709610  65.8296070
  87.2062880  52.0628840  65.1321450  91.0904490  51.9010960  60.6287830
  91.2855120  52.7994410  60.8955260  90.3034360  51.6698040  61.1220780
  77.8865780  67.5824130  61.0680450  77.3613400  67.9632160  60.3642410
  77.8110360  68.2074900  61.7890160  79.2756250  53.2471730  59.6664140
  79.8049010  52.4601530  59.5372090  79.9084570  53.9262920  59.8999670
  81.4694090  52.9846870  62.7209530  80.8396830  52.2834180  62.8879660
  80.9299230  53.7451000  62.5042690  92.6431100  69.1411670  62.3894390
  92.8183290  68.4549410  61.7455310  91.9452670  69.6658720  61.9971060
  80.4858750  69.5306510  59.9429700  81.2177570  69.2465790  59.3953590
  80.7452420  69.2919790  60.8329080  79.6473540  65.6471240  59.9476030
  79.0182420  66.1156340  60.4961860  79.7621370  64.8020460  60.3822220
  87.1023260  59.6976900  46.0977230  87.0217310  58.7831510  45.8268940
  86.6887680  60.1943970  45.3916940  85.2341300  61.4755920  47.9786500
  84.4583400  60.9956360  48.2685070  85.8854230  60.7961570  47.8042660
  79.2507130  61.7875730  48.8562260  78.4192010  61.5324440  49.2558770
  79.8588110  61.8586500  49.5920180  89.2548730  65.8816110  46.7585630
  88.7930260  65.1103350  47.0872800  90.0674280  65.9082180  47.2638080
  79.2308390  65.8215820  49.0520280  79.5336430  64.9313560  48.8730500
  79.9751980  66.3786040  48.8242530  77.6599080  56.7477620  42.6404650
  76.7715780  57.0893590  42.5384530  77.9440270  56.5477940  41.7485480
  75.6232090  59.3483270  48.5244350  76.1948200  58.5805470  48.5247990
  75.6233630  59.6472030  47.6150960  85.4812040  68.1674120  46.3789620
  84.8623480  68.6231620  45.8084060  86.3363820  68.3225580  45.9779320
  84.6750290  64.1513110  47.9856660  84.6058570  63.2103050  47.8245790
  85.4370150  64.2414520  48.5579230  76.8656960  54.7567630  50.3113280
  76.6859800  53.8593380  50.5916040  76.4637040  55.3039500  50.9860230
  85.7055460  56.9583490  48.2125590  86.0820280  56.0855370  48.0999260
  85.6074970  57.2942190  47.3216030  79.8360470  55.3309120  43.6743030
  79.9427220  56.2312850  43.9811790  78.9252830  55.2827090  43.3837680
  89.4879580  54.4533930  45.1453930  90.3089200  53.9630500  45.1879410
  89.5213660  55.0431590  45.8985770  77.4843630  57.2528130  48.9195620
  78.1653740  57.5166500  49.5383020  77.1691680  56.4129000  49.2533630
  81.6768200  58.2995490  48.0068210  82.1846420  58.7976460  48.6473230
  82.2081440  57.5230690  47.8307570  93.7779130  56.4700680  51.7097560
  93.0731300  56.8582390  51.1912670  94.0437050  57.1650970  52.3118490
  79.9604300  52.9394050  52.2731630  79.9622740  53.4566440  51.4677530
  79.1308610  52.4624230  52.2501560  86.3475390  63.0513360  43.7721530
  85.7292660  63.5162810  43.2084250  86.8598640  63.7440840  44.1891040
  81.2107150  62.5789230  50.4505130  80.8776530  63.2058150  51.0926200
  81.3873830  63.1051110  49.6706800  89.7241060  56.3934310  47.9181470
  89.0196630  56.6819200  48.4984580  90.0853220  57.2034420  47.5581030
  79.6419630  54.6504010  50.2802080  79.9836440  55.4946060  49.9855950
  78.7035440  54.7987750  50.3967420  80.4226250  64.5470030  52.2654310
  81.0400250  65.2221110  51.9838760  79.5619370  64.9558010  52.1741810
  75.7158590  63.7369890  41.1461160  75.3386570  64.2256990  40.4146060
  75.9731660  64.4095170  41.7767690  91.3403840  66.0109440  50.1808950
  90.6567360  66.6808550  50.1725620  91.8798130  66.2090090  49.4153810
  92.7927980  55.8389100  48.3090680  91.8452890  55.8728080  48.4406110
  93.1177970  56.6528050  48.6940040  83.3247520  52.1386280  46.6046670
  83.6322500  51.5833170  45.8882170  82.3948220  52.2730740  46.4219660
  88.8762580  67.8553570  48.8954130  88.8889740  67.4515860  48.0276390
  88.3237800  68.6300860  48.7915560  90.1708000  64.5769790  43.9844300
  90.0604330  63.6344120  44.1093720  90.1676250  64.9385430  44.8707060
  88.2748020  62.7583410  50.2236740  88.6916810  62.5443520  49.3890200
  88.9987840  63.0156200  50.7945360  85.7128280  60.2035110  43.3406790
  84.7857560  60.1372490  43.5695260  85.8653100  61.1415240  43.2262030
  85.6997360  56.4752110  40.3373950  84.7601030  56.6366070  40.4226410
  86.0180620  57.1937790  39.7909940  92.2210120  61.1570630  50.3152980
  91.3928750  61.2263720  49.8403110  92.8160600  61.7424940  49.8468810
  89.7425570  61.7655410  43.8442040  89.1237990  61.4274960  43.1968340
  89.7250020  61.1215170  44.5521230  89.1852130  57.9439950  51.2607850
  88.7723310  58.7693660  51.5147840  88.4528080  57.3584990  51.0684210
  81.3184920  60.7299850  46.1226520  80.9141920  60.0177100  45.6272420
  81.4048040  60.3853090  47.0114560  81.7866620  64.4167410  48.2865730
  81.4894910  63.8112880  47.6073510  82.7366440  64.4544720  48.1755090
  80.0313540  57.5043060  49.9025560  80.5828130  57.6138400  49.1278810
  80.5457050  57.8780660  50.6180790  89.8752230  67.9899280  51.9488830
  89.3982790  68.7971470  51.7561440  89.1914020  67.3377610  52.1015040
  80.8785050  64.1549100  54.9373530  79.9813580  64.3789070  55.1846930
  80.9037920  64.2784040  53.9884930  87.9190270  61.0042220  40.8514790
  88.3583550  60.1664650  40.7052610  88.6318690  61.6371620  40.9378930
  79.7056270  61.0262420  53.5130900  79.5664040  61.8985220  53.8818300
  78.8237630  60.6835230  53.3678840  86.0285650  65.9438290  44.8196030
  86.4681560  66.6862620  44.4051420  85.9672540  66.1864860  45.7434990
  81.5036620  66.9684120  55.7216050  81.4752050  67.3727070  54.8544480
  81.3401590  66.0394480  55.5587650  91.5007410  52.2585030  39.1655830
  91.1880070  52.3511860  40.0654900  92.2619880  52.8366060  39.1153260
  78.0189550  59.6244830  43.6233170  77.8987150  60.3506920  43.0114440
  77.7090440  58.8547740  43.1461080  93.4551440  67.7511220  57.0180220
  93.9311160  68.2294110  57.6969300  94.0758600  67.6828710  56.2925720
  75.6574920  62.7959970  49.4301810  75.7355340  62.9308740  48.4857530
  76.2716600  62.0875860  49.6229930  76.9022550  64.4960160  45.8407990
  76.4950630  64.6374750  44.9861590  77.7935560  64.2120320  45.6379200
  92.8584690  64.9424070  54.1780230  92.9847750  64.7035950  53.2597410
  92.9006070  64.1108610  54.6502310  86.7201430  68.6452070  52.7475040
  87.2346100  68.5560080  53.5497470  85.8770510  68.9911770  53.0402950
  88.6955830  68.9307410  42.1759040  88.5356970  68.6410350  43.0740870
  88.5302540  68.1547540  41.6404270  81.1744210  68.7105940  43.9530660
  80.9986690  67.7941480  43.7398460  80.3199950  69.0693230  44.1928460
  88.3981960  66.4394970  40.7357040  87.7047120  66.4372260  40.0759320
  89.1404820  66.0154290  40.3051210  87.9631890  68.0657680  44.8105530
  88.4188840  67.2847060  45.1244150  88.3024410  68.7764500  45.3546710
  92.7108700  56.9956530  55.1429970  92.0952970  57.5036200  54.6145430
  92.3905120  56.0954860  55.0855910  75.7134440  63.8374140  51.9696270
  75.8765480  63.3679500  51.1515640  76.1786890  63.3297700  52.6345110
  80.4853210  52.9679900  47.0056840  80.0421360  53.7489440  46.6741360
  81.0438200  53.2909790  47.7127780  84.7723020  55.8348420  52.6092160
  84.3102390  56.0431440  53.4212100  84.3701130  55.0207770  52.3062830
  89.7727530  57.0557370  53.7388820  88.9221120  56.7563120  54.0597890
  89.6129320  57.2999380  52.8272640  86.8677240  58.5559120  55.8387610
  87.1930650  57.7222870  55.4989840  87.6557570  59.0787640  55.9865940
  83.6012030  52.5890600  41.8862670  82.9766210  52.5850470  42.6115980
  83.5142150  51.7221560  41.4898640  82.5229110  53.5127230  48.8646440
  82.8201440  54.4190060  48.7838460  83.0714670  53.0246010  48.2506010
  80.2767430  58.0913470  44.7338090  80.0508350  57.8750640  45.6384710
  79.4959960  58.5241930  44.3884060  87.5065190  58.0976840  43.3328740
  86.9074080  58.8212640  43.1492360  88.0544800  58.0353620  42.5505190
  82.7166640  58.9899050  55.3998360  82.6210240  58.0493780  55.2498760
  83.5598620  59.2114120  55.0046430  86.1130060  56.7340380  45.3632020
  86.5059630  57.0512580  44.5500710  86.4746910  55.8552260  45.4776540
  77.8477180  55.4012720  53.5532140  77.4540570  56.2487930  53.7604920
  77.1595580  54.7639090  53.7440780  84.4222230  55.4847690  56.6228880
  83.7320550  55.2919890  57.2574970  85.1654530  55.7682330  57.1553180
  75.1494230  53.3241180  47.5862220  74.8607280  53.8944040  48.2987200
  75.8939990  52.8445630  47.9493450  75.3364460  57.2661300  38.7964940
  75.2539130  58.2092060  38.9379930  74.9847520  57.1236210  37.9177290
  86.6985200  59.3246130  49.4582800  85.9666320  59.8332940  49.8072900
  86.3009540  58.5076110  49.1571580  83.1362590  56.0000330  47.8635290
  83.1398650  55.5590280  47.0139830  84.0313710  56.3217660  47.9707110
  78.9864970  55.8826820  46.8229500  78.6465020  56.3602050  47.5796550
  78.2242290  55.4291940  46.4630600  83.1982740  57.0012410  40.8542050
  83.3195560  56.9598890  41.8027870  82.8131250  57.8636560  40.6988780
  87.1611110  54.7779810  48.8705740  87.1783850  55.2288460  49.7147590
  86.9126690  53.8785450  49.0839180  82.2104240  59.3113550  40.2525350
  81.6421140  58.8631800  39.6261260  82.9193240  59.6706330  39.7190500
  90.5881860  52.1911990  54.7092120  90.9127630  51.4601650  55.2350100
  90.6238370  51.8725630  53.8073110  77.2873420  63.2125570  54.1292080
  76.9028210  62.5719240  54.7275040  77.5985610  63.9161690  54.6986810
  83.4370560  60.0602110  49.6100700  83.8040690  59.5860680  50.3562040
  83.2475620  60.9343680  49.9509040  76.3011050  54.8045800  45.7394170
  76.0157970  54.4401470  46.5772790  76.2389910  54.0726260  45.1257310
  81.2269930  59.1010750  51.9284910  80.9227000  59.9802730  52.1535270
  82.1816390  59.1610540  51.9642350  79.7551720  63.3071740  42.5251760
  78.9813980  62.7669360  42.3650480  80.4846350  62.7878350  42.1869520
  90.5139700  62.3037100  48.3178150  91.2338820  62.7992390  47.9274260
  90.3121520  61.6254990  47.6732020  85.9749640  53.6975060  42.4607540
  85.1614250  53.1988230  42.3852850  85.7811590  54.5373310  42.0443890
  85.8958500  62.3746160  54.2047150  85.8295810  61.4541830  53.9504740
  85.2663640  62.4721600  54.9191790  88.6898030  58.0694710  40.7569700
  89.5777650  58.3811940  40.5821040  88.6603120  57.1966960  40.3650280
  79.7989120  62.9752120  46.1630570  80.3167790  62.1720380  46.1087460
  79.3473140  62.9131260  47.0047400  84.6858620  64.2418400  41.4357870
  85.0274320  64.9860630  40.9401190  83.8571330  64.5549520  41.7982700
  77.2833660  59.9413490  53.0756270  76.9248600  60.6067340  53.6629610
  76.9888220  59.1097040  53.4468890  80.4846780  60.3997730  55.9595820
  80.1846920  60.5454910  55.0623640  81.2558020  59.8403020  55.8669210
  85.8275230  65.1966730  53.9550950  85.8419770  64.2647690  53.7369860
  85.1200330  65.2826490  54.5940720  90.9612300  59.3806550  40.2249560
  90.8776020  59.8120770  39.3746000  91.6806490  59.8404900  40.6576380
  92.0386440  61.8374070  53.3019530  91.3134630  62.4302850  53.1048920
  92.5661900  61.8297610  52.5032900  91.9899550  66.2348810  42.9531690
  91.3475710  65.5804430  43.2275410  91.6030210  66.6403900  42.1772360
  87.5686030  63.5634240  46.8003380  87.9209850  62.9662370  46.1404750
  86.6848360  63.2378470  46.9711630  83.6549310  64.3231930  44.2073790
  84.3420440  64.8701140  44.5881380  82.8681730  64.8672660  44.2423400
  75.7941710  59.9404750  39.6990870  76.6636560  60.2229550  39.9826790
  75.3032030  60.7540620  39.5839680  82.9576520  61.3277960  43.8199150
  83.4139300  62.1383210  44.0459340  82.6064730  61.0101100  44.6517640
  85.2609130  66.8384300  51.0491450  85.9051350  67.0443680  51.7264870
  85.6238570  66.0772700  50.5962300  78.8588300  51.6715610  44.2921670
  78.7302930  51.6633510  45.2406590  78.0350320  52.0098700  43.9412680
  86.5341210  64.8416650  49.7668900  87.1763440  64.1409810  49.8801070
  87.0590560  65.6215090  49.5865790  90.3796930  65.1265270  39.4908040
  90.1534510  64.4095710  40.0832680  89.9893130  64.8777710  38.6529790
  88.3078830  65.6411550  52.9704960  88.6435070  66.2278240  53.6482880
  87.3879170  65.5104260  53.2002750  76.1612960  69.1532130  40.2652500
  76.5210600  69.7521470  39.6109770  76.0205300  69.6992020  41.0387530
  75.8582230  53.4306730  53.7528370  75.1440750  53.6303650  54.3580980
  76.2777270  52.6546300  54.1243170  89.9613180  63.0437210  41.1522200
  89.6734880  63.5049900  41.9400080  90.7565350  62.5834980  41.4206420
  76.1454820  67.4186990  54.7394900  76.2545940  66.4781730  54.5990290
  75.4935380  67.6841740  54.0908630  84.1367410  65.6902880  56.1393020
  83.8164280  64.9712120  56.6838710  83.4625770  66.3657950  56.2129080
  82.1781580  66.5363330  41.0826170  82.1691680  67.2693020  40.4670680
  81.2579940  66.2894910  41.1753130  77.7788220  61.7578220  41.8272930
  77.1716170  62.4977120  41.8368230  78.2537570  61.8477580  41.0011130
  87.3521010  55.9229040  51.5029820  87.7201830  55.1024250  51.8309390
  86.4919210  55.9830930  51.9185470  90.7183040  54.8785980  42.3117380
  90.0896200  54.9831650  41.5975610  90.2234960  55.0982760  43.1011260
  85.1641180  66.5991570  39.7451360  85.2653160  66.3955560  38.8153340
  84.2642920  66.3449850  39.9499140  82.6867070  57.1571930  43.7275260
  81.9783220  57.6258270  44.1688870  82.9711550  56.4993940  44.3620450
  84.3123000  58.5768630  51.7267790  84.8108250  59.0514450  52.3919640
  84.4545950  57.6532150  51.9337820  86.7182500  53.8822590  45.1671050
  86.5950280  53.9008720  44.2180560  87.6667060  53.9301530  45.2869450
  83.8059290  69.1177890  44.4399030  84.0600790  69.0799280  43.5178400
  82.8571770  68.9911220  44.4327280  80.8902090  55.4657010  41.1025970
  81.7392620  55.9027160  41.0366160  80.5233360  55.7777270  41.9298030
  91.5189860  54.7936590  52.5696180  91.0163460  55.5341990  52.9089990
  92.3346520  55.1820590  52.2532970  89.8111870  60.0369770  46.0157540
  88.8702010  60.0520000  46.1905230  90.1255940  59.2505730  46.4617840
  79.7893510  61.7189370  39.5761500  80.5556780  61.6070730  40.1386930
  79.8668200  61.0227340  38.9238270  78.4840270  59.1514440  40.2594390
  78.5643860  58.2041950  40.3711790  79.3760020  59.4821320  40.3655050
  91.8137450  67.2078620  47.6911800  91.9384870  68.0309790  48.1635610
  92.6803010  66.9969350  47.3435950  79.2854980  69.3009830  47.3628930
  80.0217460  68.7525290  47.6337500  79.6695900  70.1665840  47.2234920
  76.1700460  65.3683400  43.2370440  75.2440240  65.6104540  43.2275850
  76.6356890  66.1957660  43.1155190  78.2913260  68.4855900  56.5514510
  79.0925990  68.8067950  56.9649910  77.7765080  68.1251480  57.2734420
  82.3957290  68.4740140  39.1854500  83.1885900  68.7628970  38.7336290
  81.8761640  68.0432310  38.5066980  87.1277890  64.5935770  56.4989920
  86.5216050  64.6167370  55.7585670  86.8232000  63.8618810  57.0357170
  88.5578260  68.3216060  55.1099330  89.5100010  68.2374080  55.0599570
  88.4106480  68.9857770  55.7833120  91.4487460  67.7010270  40.6091240
  91.1628970  67.2875410  39.7945420  91.2507010  68.6297980  40.4891760
  76.0111070  60.9729360  55.4950560  76.5150090  60.3936640  56.0666790
  75.2718490  61.2569590  56.0326930  82.9134690  63.6943550  39.0496850
  82.8085330  63.0795900  39.7758230  82.7458910  63.1709440  38.2659860
  83.0649010  62.3800350  55.0286080  82.2994680  62.9485350  54.9440750
  83.2464970  62.0876560  54.1354310  86.1537420  62.7563580  39.6538840
  85.6047520  63.2032880  40.2981580  86.7756680  62.2512830  40.1776510
  90.2072360  64.1105680  55.5861100  90.9481830  64.4481440  55.0828560
  89.4445040  64.2797740  55.0330870  78.0434150  59.1158950  56.3900630
  78.0839490  58.8172820  57.2985860  78.8979650  59.5166560  56.2308150
  81.8212540  61.7154500  41.5504140  82.2428960  61.5494370  42.3935530
  81.9463380  60.9054730  41.0559280  79.9839960  57.6951050  54.3575120
  79.4536420  57.2042000  53.7298460  80.6528030  58.1235250  53.8233050
  84.3340180  60.7392110  38.7981240  84.8545840  60.0241130  38.4322390
  84.9808580  61.3777980  39.0981750  88.8818020  62.1620510  54.1216310
  89.2959040  62.3165590  54.9706730  87.9469020  62.2875730  54.2842090
  89.3540190  59.5016670  56.1255460  89.9360960  58.7468990  56.0375940
  89.5301960  60.0324110  55.3486940  80.4712260  54.6613420  54.4372410
  80.3769130  54.0434170  53.7123280  79.8909650  55.3879710  54.2102320
  83.2373700  53.2186660  51.4699800  82.7891000  53.2410920  50.6245350
  82.6038900  52.8205680  52.0670100  83.6433250  62.1140990  52.0912240
  84.0621360  62.9573720  51.9188480  82.7241880  62.2513030  51.8619020
  85.9797150  59.8457170  53.4750080  86.0993360  59.2498310  54.2144920
  86.8391150  59.8826860  53.0551380  88.3185050  60.3994360  52.0512590
  87.7920270  60.9236980  51.4477730  88.6616390  61.0321750  52.6822320
  80.7171440  57.7887730  38.4962300  80.5160500  56.9255090  38.8575640
  80.5463490  57.7021090  37.5583900  81.4940670  68.4194000  53.2069970
  80.9561760  69.1440060  52.8878670  81.7474630  67.9424340  52.4167310
  82.7465920  56.3878520  54.7325900  83.3365610  56.0794370  55.4203720
  81.9286160  55.9158270  54.8885800  87.5659350  56.0044330  54.9658920
  86.8774870  55.3425870  54.9008910  88.2865370  55.5582600  55.4107380
  88.1959750  52.5995960  41.0249180  88.4762040  51.7563860  41.3808600
  87.4225480  52.8319070  41.5387930  79.5154240  54.8888350  38.4840180
  79.8180140  54.8955780  37.5759330  80.2548830  54.5386210  38.9807840
  84.3502880  69.6545210  53.4656620  84.2761580  70.5580350  53.7728990
  83.4481720  69.3357110  53.4378690  82.7339170  53.8322970  39.4696380
  82.3861170  53.1546960  38.8898830  82.9351940  53.3712480  40.2839770
  84.8988210  68.8203720  41.0882980  85.7939000  69.1588690  41.1101740
  84.9305840  68.0983130  40.4607260  78.5384370  64.1930770  39.3169980
  78.9759240  64.7360440  39.9727560  79.0232100  63.3677720  39.3266320
  75.7530170  66.9819800  46.7690240  76.0833180  66.1140860  46.5368880
  76.1821170  67.1878320  47.5995200  80.3492090  65.3128810  44.4292210
  80.0487630  65.1893780  45.3296120  80.2429580  64.4537400  44.0207940
  76.2420380  67.8490390  49.5071870  75.8051370  68.0291190  50.3396020
  76.8098060  68.6065010  49.3653590  91.8782560  67.3507390  53.7949180
  91.2784550  67.4099950  53.0513100  92.0076460  66.4112370  53.9246030
  93.1184010  65.0925210  39.1318890  92.2876970  65.1601860  39.6026120
  93.2955840  65.9829330  38.8285750  92.5740470  61.8372690  41.6353090
  93.3359380  62.4069340  41.7412780  92.5894840  61.2699890  42.4061400
  76.0744810  60.3610620  45.8660750  75.4193650  60.0922260  45.2220450
  76.9122760  60.2515100  45.4162730  93.5800440  62.6922790  46.4795020
  93.9509270  61.9090110  46.0730990  94.2202370  63.3811890  46.3012320
  90.5634200  64.0759370  51.8925340  89.7494040  64.5056530  52.1551130
  90.9708400  64.6877780  51.2794390  92.6259640  62.1307060  38.7925610
  92.9008480  63.0385940  38.6644830  92.4370380  62.0669590  39.7287600
  89.0235250  55.1551910  40.0879240  89.4420130  54.9682890  39.2475900
  88.7171310  54.3030960  40.3982170  92.5224980  60.0676050  43.7855040
  92.1468580  59.3003980  43.3536330  91.7928100  60.4498750  44.2729970
  77.1120740  60.7463190  50.4064090  77.4793780  60.6590590  51.2860110
  76.5431560  59.9829740  50.3070950  91.9124600  59.2147570  53.4194560
  91.6810690  58.9860320  52.5192510  92.1729150  60.1347120  53.3739450
  76.6636740  57.6572280  54.3122510  75.7692790  57.6239040  54.6516220
  77.2034290  57.8559070  55.0773760  90.3512670  54.4404000  56.1974260
  91.2282850  54.4487400  56.5808260  90.3633510  53.7034840  55.5866610
  75.2882890  57.5709550  41.8086080  74.3846970  57.8339750  41.6337740
  75.7723510  57.8420720  41.0286040  91.7975940  58.2933540  47.0862280
  92.3213420  57.7996190  46.4552450  92.3835360  58.4283900  47.8309850
  91.9765660  58.3773410  50.6081830  91.0268370  58.3436950  50.7226820
  92.1578670  59.2873520  50.3731600  77.8310100  56.6275090  39.7180460
  78.5401800  56.2058310  39.2327740  77.1150040  56.6950320  39.0863810
  77.4784260  52.6814420  38.7583110  78.2012390  53.2223360  39.0764330
  77.7508780  52.4077840  37.8824650  91.2875910  57.5506890  43.0254690
  91.7835030  57.3177760  43.8103570  91.0891980  56.7118730  42.6092330
  77.1676450  51.9320610  48.6605730  77.8152640  51.3817990  48.2200890
  77.5878290  52.1863760  49.4821540  92.7163070  56.1867840  45.5592370
  92.6062350  56.0323880  46.4974640  93.4770660  55.6588780  45.3167780
  91.0628790  52.1261970  52.0175370  91.7001010  52.7396110  52.3834560
  91.2103680  52.1622630  51.0724600  93.6053340  54.0175760  38.7998510
  94.5302650  53.8856940  38.5916800  93.5829130  54.0968580  39.7534960
  93.6791830  54.7886420  41.4255220  92.8843330  54.7231540  41.9548130
  93.8835110  55.7237060  41.4140570  90.6210250  68.8277970  45.4193610
  91.2169320  68.5062540  44.7428030  90.8788400  68.3549790  46.2106880
  76.9208450  52.0876280  51.4031050  76.5723270  52.5440100  52.1689230
  76.5896150  51.1933410  51.4853480  78.5272820  65.2595880  55.5684240
  78.4842450  64.8888790  56.4498700  78.6583830  66.1973450  55.7086060
  82.2278850  66.8155470  51.1693960  81.9870210  67.0830030  50.2824480
  83.1681490  66.9861200  51.2244820  84.4333270  53.2788160  54.9250470
  84.3722160  53.8709990  55.6745880  85.3733650  53.1714120  54.7800730
  87.0707830  52.9358220  54.5642760  87.6848240  53.2537510  53.9023840
  87.6157390  52.4506810  55.1838620  93.4883010  68.8349850  51.9704600
  92.9941290  69.2318720  51.2531730  92.8796300  68.2099060  52.3641880
  77.5929090  51.6152480  54.6781820  78.1412080  51.4340530  53.9147930
  77.6584400  50.8246590  55.2138130  78.3660850  68.2058130  52.6882020
  77.7721170  68.0742830  53.4272060  78.3584690  67.3696270  52.2224120
  87.8115870  51.4990360  50.8912050  86.9375710  51.8325470  50.6884980
  87.7026620  51.0263540  51.7163920  88.7187850  53.7061230  52.2753770
  88.3901210  52.8912990  51.8955500  89.6670150  53.6631040  52.1519460
  91.1722460  69.4773270  49.2491340  90.7125430  70.2289080  48.8749360
  90.5434920  68.7579740  49.1906140  77.9973080  65.5716510  51.6390060
  77.2707140  64.9521800  51.5716010  78.0582230  65.9657120  50.7688140
  81.6018180  67.7861510  48.4239470  82.1183200  67.1748870  47.8987730
  82.2515560  68.2890290  48.9150480  84.3413680  68.6770000  49.2508450
  84.6291490  68.4224300  48.3741460  84.8536900  68.1247360  49.8414020
  85.5590690  52.4160200  49.8304960  84.7762480  52.8905700  50.1101720
  85.2653620  51.5115030  49.7218140  90.1111760  53.1183300  47.8754050
  90.5519850  53.0628400  47.0275650  89.8419350  54.0341310  47.9464230
  91.9750330  52.7498540  45.8862870  91.9138730  51.8059760  45.7393890
  92.7542360  52.8578630  46.4316330  76.2803080  68.8890900  44.8486820
  76.1125120  68.2561580  45.5468710  75.4137590  69.0950300  44.4981010
  76.9031100  52.7207680  42.3518680  77.6610460  52.8336560  41.7782710
  76.4408270  53.5576880  42.3062110  83.4444910  54.8346950  45.3420990
  82.6319420  54.4603840  45.0016870  83.9486550  54.0792030  45.6442180
  87.9469890  51.4989400  46.5804060  88.5499260  52.0709610  47.0552580
  87.2062880  52.0628840  46.3577960  91.0904490  51.9010960  41.8544340
  91.2855120  52.7994410  42.1211770  90.3034360  51.6698040  42.3477290
  77.8865780  67.5824130  42.2936960  77.3613400  67.9632160  41.5898920
  77.8110360  68.2074900  43.0146670  79.2756250  53.2471730  40.8920650
  79.8049010  52.4601530  40.7628600  79.9084570  53.9262920  41.1256180
  81.4694090  52.9846870  43.9466040  80.8396830  52.2834180  44.1136170
  80.9299230  53.7451000  43.7299200  84.4086040  69.5986100  56.6176650
  85.3353350  69.3630370  56.6612610  84.3936470  70.4258100  56.1362680
  92.6431100  69.1411670  43.6150900  92.8183290  68.4549410  42.9711820
  91.9452670  69.6658720  43.2227570  81.5949650  52.2630850  56.3818530
  81.3133920  52.7664450  55.6179350  81.9769350  51.4652600  56.0160660
  80.4858750  69.5306510  41.1686210  81.2177570  69.2465790  40.6210100
  80.7452420  69.2919790  42.0585590  79.6473540  65.6471240  41.1732540
  79.0182420  66.1156340  41.7218370  79.7621370  64.8020460  41.6078730
  88.1965110  51.6784430  56.9599000  88.0830560  51.9979040  57.8550520
  89.0134850  52.0796940  56.6636280  90.9763600  68.8255960  56.4417690
  91.7688920  68.3305190  56.2343650  91.2696750  69.5046100  57.0493300
  87.1023260  59.6976900  27.3233740  87.0217310  58.7831510  27.0525450
  86.6887680  60.1943970  26.6173450  85.2341300  61.4755920  29.2043010
  84.4583400  60.9956360  29.4941580  85.8854230  60.7961570  29.0299170
  79.2507130  61.7875730  30.0818770  78.4192010  61.5324440  30.4815280
  79.8588110  61.8586500  30.8176690  89.2548730  65.8816110  27.9842140
  88.7930260  65.1103350  28.3129310  90.0674280  65.9082180  28.4894590
  79.2308390  65.8215820  30.2776790  79.5336430  64.9313560  30.0987010
  79.9751980  66.3786040  30.0499040  77.6599080  56.7477620  23.8661160
  76.7715780  57.0893590  23.7641040  77.9440270  56.5477940  22.9741990
  75.6232090  59.3483270  29.7500860  76.1948200  58.5805470  29.7504500
  75.6233630  59.6472030  28.8407470  85.4812040  68.1674120  27.6046130
  84.8623480  68.6231620  27.0340570  86.3363820  68.3225580  27.2035830
  84.6750290  64.1513110  29.2113170  84.6058570  63.2103050  29.0502300
  85.4370150  64.2414520  29.7835740  76.8656960  54.7567630  31.5369790
  76.6859800  53.8593380  31.8172550  76.4637040  55.3039500  32.2116740
  85.7055460  56.9583490  29.4382100  86.0820280  56.0855370  29.3255770
  85.6074970  57.2942190  28.5472540  79.8360470  55.3309120  24.8999540
  79.9427220  56.2312850  25.2068300  78.9252830  55.2827090  24.6094190
  89.4879580  54.4533930  26.3710440  90.3089200  53.9630500  26.4135920
  89.5213660  55.0431590  27.1242280  77.4843630  57.2528130  30.1452130
  78.1653740  57.5166500  30.7639530  77.1691680  56.4129000  30.4790140
  81.6768200  58.2995490  29.2324720  82.1846420  58.7976460  29.8729740
  82.2081440  57.5230690  29.0564080  93.7779130  56.4700680  32.9354070
  93.0731300  56.8582390  32.4169180  94.0437050  57.1650970  33.5375000
  79.9604300  52.9394050  33.4988140  79.9622740  53.4566440  32.6934040
  79.1308610  52.4624230  33.4758070  86.3475390  63.0513360  24.9978040
  85.7292660  63.5162810  24.4340760  86.8598640  63.7440840  25.4147550
  81.2107150  62.5789230  31.6761640  80.8776530  63.2058150  32.3182710
  81.3873830  63.1051110  30.8963310  89.7241060  56.3934310  29.1437980
  89.0196630  56.6819200  29.7241090  90.0853220  57.2034420  28.7837540
  79.6419630  54.6504010  31.5058590  79.9836440  55.4946060  31.2112460
  78.7035440  54.7987750  31.6223930  80.4226250  64.5470030  33.4910820
  81.0400250  65.2221110  33.2095270  79.5619370  64.9558010  33.3998320
  75.7158590  63.7369890  22.3717670  75.3386570  64.2256990  21.6402570
  75.9731660  64.4095170  23.0024200  91.3403840  66.0109440  31.4065460
  90.6567360  66.6808550  31.3982130  91.8798130  66.2090090  30.6410320
  92.7927980  55.8389100  29.5347190  91.8452890  55.8728080  29.6662620
  93.1177970  56.6528050  29.9196550  83.3247520  52.1386280  27.8303180
  83.6322500  51.5833170  27.1138680  82.3948220  52.2730740  27.6476170
  88.8762580  67.8553570  30.1210640  88.8889740  67.4515860  29.2532900
  88.3237800  68.6300860  30.0172070  90.1708000  64.5769790  25.2100810
  90.0604330  63.6344120  25.3350230  90.1676250  64.9385430  26.0963570
  88.2748020  62.7583410  31.4493250  88.6916810  62.5443520  30.6146710
  88.9987840  63.0156200  32.0201870  85.7128280  60.2035110  24.5663300
  84.7857560  60.1372490  24.7951770  85.8653100  61.1415240  24.4518540
  85.6997360  56.4752110  21.5630460  84.7601030  56.6366070  21.6482920
  86.0180620  57.1937790  21.0166450  92.2210120  61.1570630  31.5409490
  91.3928750  61.2263720  31.0659620  92.8160600  61.7424940  31.0725320
  89.7425570  61.7655410  25.0698550  89.1237990  61.4274960  24.4224850
  89.7250020  61.1215170  25.7777740  89.1852130  57.9439950  32.4864360
  88.7723310  58.7693660  32.7404350  88.4528080  57.3584990  32.2940720
  81.3184920  60.7299850  27.3483030  80.9141920  60.0177100  26.8528930
  81.4048040  60.3853090  28.2371070  81.7866620  64.4167410  29.5122240
  81.4894910  63.8112880  28.8330020  82.7366440  64.4544720  29.4011600
  80.0313540  57.5043060  31.1282070  80.5828130  57.6138400  30.3535320
  80.5457050  57.8780660  31.8437300  89.8752230  67.9899280  33.1745340
  89.3982790  68.7971470  32.9817950  89.1914020  67.3377610  33.3271550
  80.8785050  64.1549100  36.1630040  79.9813580  64.3789070  36.4103440
  80.9037920  64.2784040  35.2141440  87.9190270  61.0042220  22.0771300
  88.3583550  60.1664650  21.9309120  88.6318690  61.6371620  22.1635440
  79.7056270  61.0262420  34.7387410  79.5664040  61.8985220  35.1074810
  78.8237630  60.6835230  34.5935350  86.0285650  65.9438290  26.0452540
  86.4681560  66.6862620  25.6307930  85.9672540  66.1864860  26.9691500
  81.5036620  66.9684120  36.9472560  81.4752050  67.3727070  36.0800990
  81.3401590  66.0394480  36.7844160  91.5007410  52.2585030  20.3912340
  91.1880070  52.3511860  21.2911410  92.2619880  52.8366060  20.3409770
  78.0189550  59.6244830  24.8489680  77.8987150  60.3506920  24.2370950
  77.7090440  58.8547740  24.3717590  93.4551440  67.7511220  38.2436730
  93.9311160  68.2294110  38.9225810  94.0758600  67.6828710  37.5182230
  75.6574920  62.7959970  30.6558320  75.7355340  62.9308740  29.7114040
  76.2716600  62.0875860  30.8486440  76.9022550  64.4960160  27.0664500
  76.4950630  64.6374750  26.2118100  77.7935560  64.2120320  26.8635710
  92.8584690  64.9424070  35.4036740  92.9847750  64.7035950  34.4853920
  92.9006070  64.1108610  35.8758820  86.7201430  68.6452070  33.9731550
  87.2346100  68.5560080  34.7753980  85.8770510  68.9911770  34.2659460
  88.6955830  68.9307410  23.4015550  88.5356970  68.6410350  24.2997380
  88.5302540  68.1547540  22.8660780  81.1744210  68.7105940  25.1787170
  80.9986690  67.7941480  24.9654970  80.3199950  69.0693230  25.4184970
  88.3981960  66.4394970  21.9613550  87.7047120  66.4372260  21.3015830
  89.1404820  66.0154290  21.5307720  87.9631890  68.0657680  26.0362040
  88.4188840  67.2847060  26.3500660  88.3024410  68.7764500  26.5803220
  92.7108700  56.9956530  36.3686480  92.0952970  57.5036200  35.8401940
  92.3905120  56.0954860  36.3112420  75.7134440  63.8374140  33.1952780
  75.8765480  63.3679500  32.3772150  76.1786890  63.3297700  33.8601620
  80.4853210  52.9679900  28.2313350  80.0421360  53.7489440  27.8997870
  81.0438200  53.2909790  28.9384290  84.7723020  55.8348420  33.8348670
  84.3102390  56.0431440  34.6468610  84.3701130  55.0207770  33.5319340
  89.7727530  57.0557370  34.9645330  88.9221120  56.7563120  35.2854400
  89.6129320  57.2999380  34.0529150  86.8677240  58.5559120  37.0644120
  87.1930650  57.7222870  36.7246350  87.6557570  59.0787640  37.2122450
  83.6012030  52.5890600  23.1119180  82.9766210  52.5850470  23.8372490
  83.5142150  51.7221560  22.7155150  82.5229110  53.5127230  30.0902950
  82.8201440  54.4190060  30.0094970  83.0714670  53.0246010  29.4762520
  80.2767430  58.0913470  25.9594600  80.0508350  57.8750640  26.8641220
  79.4959960  58.5241930  25.6140570  87.5065190  58.0976840  24.5585250
  86.9074080  58.8212640  24.3748870  88.0544800  58.0353620  23.7761700
  82.7166640  58.9899050  36.6254870  82.6210240  58.0493780  36.4755270
  83.5598620  59.2114120  36.2302940  86.1130060  56.7340380  26.5888530
  86.5059630  57.0512580  25.7757220  86.4746910  55.8552260  26.7033050
  77.8477180  55.4012720  34.7788650  77.4540570  56.2487930  34.9861430
  77.1595580  54.7639090  34.9697290  84.4222230  55.4847690  37.8485390
  83.7320550  55.2919890  38.4831480  85.1654530  55.7682330  38.3809690
  75.1494230  53.3241180  28.8118730  74.8607280  53.8944040  29.5243710
  75.8939990  52.8445630  29.1749960  75.3364460  57.2661300  20.0221450
  75.2539130  58.2092060  20.1636440  74.9847520  57.1236210  19.1433800
  86.6985200  59.3246130  30.6839310  85.9666320  59.8332940  31.0329410
  86.3009540  58.5076110  30.3828090  83.1362590  56.0000330  29.0891800
  83.1398650  55.5590280  28.2396340  84.0313710  56.3217660  29.1963620
  78.9864970  55.8826820  28.0486010  78.6465020  56.3602050  28.8053060
  78.2242290  55.4291940  27.6887110  83.1982740  57.0012410  22.0798560
  83.3195560  56.9598890  23.0284380  82.8131250  57.8636560  21.9245290
  87.1611110  54.7779810  30.0962250  87.1783850  55.2288460  30.9404100
  86.9126690  53.8785450  30.3095690  82.2104240  59.3113550  21.4781860
  81.6421140  58.8631800  20.8517770  82.9193240  59.6706330  20.9447010
  90.5881860  52.1911990  35.9348630  90.9127630  51.4601650  36.4606610
  90.6238370  51.8725630  35.0329620  77.2873420  63.2125570  35.3548590
  76.9028210  62.5719240  35.9531550  77.5985610  63.9161690  35.9243320
  83.4370560  60.0602110  30.8357210  83.8040690  59.5860680  31.5818550
  83.2475620  60.9343680  31.1765550  76.3011050  54.8045800  26.9650680
  76.0157970  54.4401470  27.8029300  76.2389910  54.0726260  26.3513820
  81.2269930  59.1010750  33.1541420  80.9227000  59.9802730  33.3791780
  82.1816390  59.1610540  33.1898860  79.7551720  63.3071740  23.7508270
  78.9813980  62.7669360  23.5906990  80.4846350  62.7878350  23.4126030
  90.5139700  62.3037100  29.5434660  91.2338820  62.7992390  29.1530770
  90.3121520  61.6254990  28.8988530  85.9749640  53.6975060  23.6864050
  85.1614250  53.1988230  23.6109360  85.7811590  54.5373310  23.2700400
  85.8958500  62.3746160  35.4303660  85.8295810  61.4541830  35.1761250
  85.2663640  62.4721600  36.1448300  88.6898030  58.0694710  21.9826210
  89.5777650  58.3811940  21.8077550  88.6603120  57.1966960  21.5906790
  79.7989120  62.9752120  27.3887080  80.3167790  62.1720380  27.3343970
  79.3473140  62.9131260  28.2303910  84.6858620  64.2418400  22.6614380
  85.0274320  64.9860630  22.1657700  83.8571330  64.5549520  23.0239210
  77.2833660  59.9413490  34.3012780  76.9248600  60.6067340  34.8886120
  76.9888220  59.1097040  34.6725400  80.4846780  60.3997730  37.1852330
  80.1846920  60.5454910  36.2880150  81.2558020  59.8403020  37.0925720
  85.8275230  65.1966730  35.1807460  85.8419770  64.2647690  34.9626370
  85.1200330  65.2826490  35.8197230  90.9612300  59.3806550  21.4506070
  90.8776020  59.8120770  20.6002510  91.6806490  59.8404900  21.8832890
  92.0386440  61.8374070  34.5276040  91.3134630  62.4302850  34.3305430
  92.5661900  61.8297610  33.7289410  91.9899550  66.2348810  24.1788200
  91.3475710  65.5804430  24.4531920  91.6030210  66.6403900  23.4028870
  87.5686030  63.5634240  28.0259890  87.9209850  62.9662370  27.3661260
  86.6848360  63.2378470  28.1968140  83.6549310  64.3231930  25.4330300
  84.3420440  64.8701140  25.8137890  82.8681730  64.8672660  25.4679910
  75.7941710  59.9404750  20.9247380  76.6636560  60.2229550  21.2083300
  75.3032030  60.7540620  20.8096190  82.9576520  61.3277960  25.0455660
  83.4139300  62.1383210  25.2715850  82.6064730  61.0101100  25.8774150
  85.2609130  66.8384300  32.2747960  85.9051350  67.0443680  32.9521380
  85.6238570  66.0772700  31.8218810  78.8588300  51.6715610  25.5178180
  78.7302930  51.6633510  26.4663100  78.0350320  52.0098700  25.1669190
  86.5341210  64.8416650  30.9925410  87.1763440  64.1409810  31.1057580
  87.0590560  65.6215090  30.8122300  90.3796930  65.1265270  20.7164550
  90.1534510  64.4095710  21.3089190  89.9893130  64.8777710  19.8786300
  88.3078830  65.6411550  34.1961470  88.6435070  66.2278240  34.8739390
  87.3879170  65.5104260  34.4259260  76.1612960  69.1532130  21.4909010
  76.5210600  69.7521470  20.8366280  76.0205300  69.6992020  22.2644040
  75.8582230  53.4306730  34.9784880  75.1440750  53.6303650  35.5837490
  76.2777270  52.6546300  35.3499680  89.9613180  63.0437210  22.3778710
  89.6734880  63.5049900  23.1656590  90.7565350  62.5834980  22.6462930
  76.1454820  67.4186990  35.9651410  76.2545940  66.4781730  35.8246800
  75.4935380  67.6841740  35.3165140  84.1367410  65.6902880  37.3649530
  83.8164280  64.9712120  37.9095220  83.4625770  66.3657950  37.4385590
  82.1781580  66.5363330  22.3082680  82.1691680  67.2693020  21.6927190
  81.2579940  66.2894910  22.4009640  77.7788220  61.7578220  23.0529440
  77.1716170  62.4977120  23.0624740  78.2537570  61.8477580  22.2267640
  87.3521010  55.9229040  32.7286330  87.7201830  55.1024250  33.0565900
  86.4919210  55.9830930  33.1441980  90.7183040  54.8785980  23.5373890
  90.0896200  54.9831650  22.8232120  90.2234960  55.0982760  24.3267770
  85.1641180  66.5991570  20.9707870  85.2653160  66.3955560  20.0409850
  84.2642920  66.3449850  21.1755650  82.6867070  57.1571930  24.9531770
  81.9783220  57.6258270  25.3945380  82.9711550  56.4993940  25.5876960
  84.3123000  58.5768630  32.9524300  84.8108250  59.0514450  33.6176150
  84.4545950  57.6532150  33.1594330  86.7182500  53.8822590  26.3927560
  86.5950280  53.9008720  25.4437070  87.6667060  53.9301530  26.5125960
  83.8059290  69.1177890  25.6655540  84.0600790  69.0799280  24.7434910
  82.8571770  68.9911220  25.6583790  80.8902090  55.4657010  22.3282480
  81.7392620  55.9027160  22.2622670  80.5233360  55.7777270  23.1554540
  91.5189860  54.7936590  33.7952690  91.0163460  55.5341990  34.1346500
  92.3346520  55.1820590  33.4789480  89.8111870  60.0369770  27.2414050
  88.8702010  60.0520000  27.4161740  90.1255940  59.2505730  27.6874350
  79.7893510  61.7189370  20.8018010  80.5556780  61.6070730  21.3643440
  79.8668200  61.0227340  20.1494780  78.4840270  59.1514440  21.4850900
  78.5643860  58.2041950  21.5968300  79.3760020  59.4821320  21.5911560
  91.8137450  67.2078620  28.9168310  91.9384870  68.0309790  29.3892120
  92.6803010  66.9969350  28.5692460  79.2854980  69.3009830  28.5885440
  80.0217460  68.7525290  28.8594010  79.6695900  70.1665840  28.4491430
  76.1700460  65.3683400  24.4626950  75.2440240  65.6104540  24.4532360
  76.6356890  66.1957660  24.3411700  78.2913260  68.4855900  37.7771020
  79.0925990  68.8067950  38.1906420  77.7765080  68.1251480  38.4990930
  82.3957290  68.4740140  20.4111010  83.1885900  68.7628970  19.9592800
  81.8761640  68.0432310  19.7323490  87.1277890  64.5935770  37.7246430
  86.5216050  64.6167370  36.9842180  86.8232000  63.8618810  38.2613680
  88.5578260  68.3216060  36.3355840  89.5100010  68.2374080  36.2856080
  88.4106480  68.9857770  37.0089630  91.4487460  67.7010270  21.8347750
  91.1628970  67.2875410  21.0201930  91.2507010  68.6297980  21.7148270
  76.0111070  60.9729360  36.7207070  76.5150090  60.3936640  37.2923300
  75.2718490  61.2569590  37.2583440  82.9134690  63.6943550  20.2753360
  82.8085330  63.0795900  21.0014740  82.7458910  63.1709440  19.4916370
  83.0649010  62.3800350  36.2542590  82.2994680  62.9485350  36.1697260
  83.2464970  62.0876560  35.3610820  86.1537420  62.7563580  20.8795350
  85.6047520  63.2032880  21.5238090  86.7756680  62.2512830  21.4033020
  90.2072360  64.1105680  36.8117610  90.9481830  64.4481440  36.3085070
  89.4445040  64.2797740  36.2587380  78.0434150  59.1158950  37.6157140
  78.0839490  58.8172820  38.5242370  78.8979650  59.5166560  37.4564660
  81.8212540  61.7154500  22.7760650  82.2428960  61.5494370  23.6192040
  81.9463380  60.9054730  22.2815790  79.9839960  57.6951050  35.5831630
  79.4536420  57.2042000  34.9554970  80.6528030  58.1235250  35.0489560
  84.3340180  60.7392110  20.0237750  84.8545840  60.0241130  19.6578900
  84.9808580  61.3777980  20.3238260  88.8818020  62.1620510  35.3472820
  89.2959040  62.3165590  36.1963240  87.9469020  62.2875730  35.5098600
  89.3540190  59.5016670  37.3511970  89.9360960  58.7468990  37.2632450
  89.5301960  60.0324110  36.5743450  80.4712260  54.6613420  35.6628920
  80.3769130  54.0434170  34.9379790  79.8909650  55.3879710  35.4358830
  83.2373700  53.2186660  32.6956310  82.7891000  53.2410920  31.8501860
  82.6038900  52.8205680  33.2926610  83.6433250  62.1140990  33.3168750
  84.0621360  62.9573720  33.1444990  82.7241880  62.2513030  33.0875530
  85.9797150  59.8457170  34.7006590  86.0993360  59.2498310  35.4401430
  86.8391150  59.8826860  34.2807890  88.3185050  60.3994360  33.2769100
  87.7920270  60.9236980  32.6734240  88.6616390  61.0321750  33.9078830
  80.7171440  57.7887730  19.7218810  80.5160500  56.9255090  20.0832150
  80.5463490  57.7021090  18.7840410  81.4940670  68.4194000  34.4326480
  80.9561760  69.1440060  34.1135180  81.7474630  67.9424340  33.6423820
  82.7465920  56.3878520  35.9582410  83.3365610  56.0794370  36.6460230
  81.9286160  55.9158270  36.1142310  87.5659350  56.0044330  36.1915430
  86.8774870  55.3425870  36.1265420  88.2865370  55.5582600  36.6363890
  88.1959750  52.5995960  22.2505690  88.4762040  51.7563860  22.6065110
  87.4225480  52.8319070  22.7644440  79.5154240  54.8888350  19.7096690
  79.8180140  54.8955780  18.8015840  80.2548830  54.5386210  20.2064350
  84.3502880  69.6545210  34.6913130  84.2761580  70.5580350  34.9985500
  83.4481720  69.3357110  34.6635200  82.7339170  53.8322970  20.6952890
  82.3861170  53.1546960  20.1155340  82.9351940  53.3712480  21.5096280
  84.8988210  68.8203720  22.3139490  85.7939000  69.1588690  22.3358250
  84.9305840  68.0983130  21.6863770  78.5384370  64.1930770  20.5426490
  78.9759240  64.7360440  21.1984070  79.0232100  63.3677720  20.5522830
  75.7530170  66.9819800  27.9946750  76.0833180  66.1140860  27.7625390
  76.1821170  67.1878320  28.8251710  80.3492090  65.3128810  25.6548720
  80.0487630  65.1893780  26.5552630  80.2429580  64.4537400  25.2464450
  76.2420380  67.8490390  30.7328380  75.8051370  68.0291190  31.5652530
  76.8098060  68.6065010  30.5910100  91.8782560  67.3507390  35.0205690
  91.2784550  67.4099950  34.2769610  92.0076460  66.4112370  35.1502540
  93.1184010  65.0925210  20.3575400  92.2876970  65.1601860  20.8282630
  93.2955840  65.9829330  20.0542260  92.5740470  61.8372690  22.8609600
  93.3359380  62.4069340  22.9669290  92.5894840  61.2699890  23.6317910
  76.0744810  60.3610620  27.0917260  75.4193650  60.0922260  26.4476960
  76.9122760  60.2515100  26.6419240  93.5800440  62.6922790  27.7051530
  93.9509270  61.9090110  27.2987500  94.2202370  63.3811890  27.5268830
  90.5634200  64.0759370  33.1181850  89.7494040  64.5056530  33.3807640
  90.9708400  64.6877780  32.5050900  92.6259640  62.1307060  20.0182120
  92.9008480  63.0385940  19.8901340  92.4370380  62.0669590  20.9544110
  89.0235250  55.1551910  21.3135750  89.4420130  54.9682890  20.4732410
  88.7171310  54.3030960  21.6238680  92.5224980  60.0676050  25.0111550
  92.1468580  59.3003980  24.5792840  91.7928100  60.4498750  25.4986480
  77.1120740  60.7463190  31.6320600  77.4793780  60.6590590  32.5116620
  76.5431560  59.9829740  31.5327460  91.9124600  59.2147570  34.6451070
  91.6810690  58.9860320  33.7449020  92.1729150  60.1347120  34.5995960
  76.6636740  57.6572280  35.5379020  75.7692790  57.6239040  35.8772730
  77.2034290  57.8559070  36.3030270  90.3512670  54.4404000  37.4230770
  91.2282850  54.4487400  37.8064770  90.3633510  53.7034840  36.8123120
  75.2882890  57.5709550  23.0342590  74.3846970  57.8339750  22.8594250
  75.7723510  57.8420720  22.2542550  91.7975940  58.2933540  28.3118790
  92.3213420  57.7996190  27.6808960  92.3835360  58.4283900  29.0566360
  91.9765660  58.3773410  31.8338340  91.0268370  58.3436950  31.9483330
  92.1578670  59.2873520  31.5988110  77.8310100  56.6275090  20.9436970
  78.5401800  56.2058310  20.4584250  77.1150040  56.6950320  20.3120320
  77.4784260  52.6814420  19.9839620  78.2012390  53.2223360  20.3020840
  77.7508780  52.4077840  19.1081160  91.2875910  57.5506890  24.2511200
  91.7835030  57.3177760  25.0360080  91.0891980  56.7118730  23.8348840
  77.1676450  51.9320610  29.8862240  77.8152640  51.3817990  29.4457400
  77.5878290  52.1863760  30.7078050  92.7163070  56.1867840  26.7848880
  92.6062350  56.0323880  27.7231150  93.4770660  55.6588780  26.5424290
  91.0628790  52.1261970  33.2431880  91.7001010  52.7396110  33.6091070
  91.2103680  52.1622630  32.2981110  93.6053340  54.0175760  20.0255020
  94.5302650  53.8856940  19.8173310  93.5829130  54.0968580  20.9791470
  93.6791830  54.7886420  22.6511730  92.8843330  54.7231540  23.1804640
  93.8835110  55.7237060  22.6397080  90.6210250  68.8277970  26.6450120
  91.2169320  68.5062540  25.9684540  90.8788400  68.3549790  27.4363390
  76.9208450  52.0876280  32.6287560  76.5723270  52.5440100  33.3945740
  76.5896150  51.1933410  32.7109990  78.5272820  65.2595880  36.7940750
  78.4842450  64.8888790  37.6755210  78.6583830  66.1973450  36.9342570
  82.2278850  66.8155470  32.3950470  81.9870210  67.0830030  31.5080990
  83.1681490  66.9861200  32.4501330  84.4333270  53.2788160  36.1506980
  84.3722160  53.8709990  36.9002390  85.3733650  53.1714120  36.0057240
  87.0707830  52.9358220  35.7899270  87.6848240  53.2537510  35.1280350
  87.6157390  52.4506810  36.4095130  93.4883010  68.8349850  33.1961110
  92.9941290  69.2318720  32.4788240  92.8796300  68.2099060  33.5898390
  77.5929090  51.6152480  35.9038330  78.1412080  51.4340530  35.1404440
  77.6584400  50.8246590  36.4394640  78.3660850  68.2058130  33.9138530
  77.7721170  68.0742830  34.6528570  78.3584690  67.3696270  33.4480630
  87.8115870  51.4990360  32.1168560  86.9375710  51.8325470  31.9141490
  87.7026620  51.0263540  32.9420430  88.7187850  53.7061230  33.5010280
  88.3901210  52.8912990  33.1212010  89.6670150  53.6631040  33.3775970
  91.1722460  69.4773270  30.4747850  90.7125430  70.2289080  30.1005870
  90.5434920  68.7579740  30.4162650  77.9973080  65.5716510  32.8646570
  77.2707140  64.9521800  32.7972520  78.0582230  65.9657120  31.9944650
  81.6018180  67.7861510  29.6495980  82.1183200  67.1748870  29.1244240
  82.2515560  68.2890290  30.1406990  84.3413680  68.6770000  30.4764960
  84.6291490  68.4224300  29.5997970  84.8536900  68.1247360  31.0670530
  85.5590690  52.4160200  31.0561470  84.7762480  52.8905700  31.3358230
  85.2653620  51.5115030  30.9474650  90.1111760  53.1183300  29.1010560
  90.5519850  53.0628400  28.2532160  89.8419350  54.0341310  29.1720740
  91.9750330  52.7498540  27.1119380  91.9138730  51.8059760  26.9650400
  92.7542360  52.8578630  27.6572840  76.2803080  68.8890900  26.0743330
  76.1125120  68.2561580  26.7725220  75.4137590  69.0950300  25.7237520
  76.9031100  52.7207680  23.5775190  77.6610460  52.8336560  23.0039220
  76.4408270  53.5576880  23.5318620  83.4444910  54.8346950  26.5677500
  82.6319420  54.4603840  26.2273380  83.9486550  54.0792030  26.8698690
  87.9469890  51.4989400  27.8060570  88.5499260  52.0709610  28.2809090
  87.2062880  52.0628840  27.5834470  91.0904490  51.9010960  23.0800850
  91.2855120  52.7994410  23.3468280  90.3034360  51.6698040  23.5733800
  77.8865780  67.5824130  23.5193470  77.3613400  67.9632160  22.8155430
  77.8110360  68.2074900  24.2403180  79.2756250  53.2471730  22.1177160
  79.8049010  52.4601530  21.9885110  79.9084570  53.9262920  22.3512690
  81.4694090  52.9846870  25.1722550  80.8396830  52.2834180  25.3392680
  80.9299230  53.7451000  24.9555710  84.4086040  69.5986100  37.8433160
  85.3353350  69.3630370  37.8869120  84.3936470  70.4258100  37.3619190
  92.6431100  69.1411670  24.8407410  92.8183290  68.4549410  24.1968330
  91.9452670  69.6658720  24.4484080  81.5949650  52.2630850  37.6075040
  81.3133920  52.7664450  36.8435860  81.9769350  51.4652600  37.2417170
  80.4858750  69.5306510  22.3942720  81.2177570  69.2465790  21.8466610
  80.7452420  69.2919790  23.2842100  79.6473540  65.6471240  22.3989050
  79.0182420  66.1156340  22.9474880  79.7621370  64.8020460  22.8335240
  88.1965110  51.6784430  38.1855510  88.0830560  51.9979040  39.0807030
  89.0134850  52.0796940  37.8892790  90.9763600  68.8255960  37.6674200
  91.7688920  68.3305190  37.4600160  91.2696750  69.5046100  38.2749810
  87.1023260  59.6976900   8.5490250  87.0217310  58.7831510   8.2781960
  86.6887680  60.1943970   7.8429960  85.2341300  61.4755920  10.4299520
  84.4583400  60.9956360  10.7198090  85.8854230  60.7961570  10.2555680
  79.2507130  61.7875730  11.3075280  78.4192010  61.5324440  11.7071790
  79.8588110  61.8586500  12.0433200  89.2548730  65.8816110   9.2098650
  88.7930260  65.1103350   9.5385820  90.0674280  65.9082180   9.7151100
  79.2308390  65.8215820  11.5033300  79.5336430  64.9313560  11.3243520
  79.9751980  66.3786040  11.2755550  77.6599080  56.7477620   5.0917670
  76.7715780  57.0893590   4.9897550  77.9440270  56.5477940   4.1998500
  75.6232090  59.3483270  10.9757370  76.1948200  58.5805470  10.9761010
  75.6233630  59.6472030  10.0663980  85.4812040  68.1674120   8.8302640
  84.8623480  68.6231620   8.2597080  86.3363820  68.3225580   8.4292340
  84.6750290  64.1513110  10.4369680  84.6058570  63.2103050  10.2758810
  85.4370150  64.2414520  11.0092250  76.8656960  54.7567630  12.7626300
  76.6859800  53.8593380  13.0429060  76.4637040  55.3039500  13.4373250
  85.7055460  56.9583490  10.6638610  86.0820280  56.0855370  10.5512280
  85.6074970  57.2942190   9.7729050  79.8360470  55.3309120   6.1256050
  79.9427220  56.2312850   6.4324810  78.9252830  55.2827090   5.8350700
  89.4879580  54.4533930   7.5966950  90.3089200  53.9630500   7.6392430
  89.5213660  55.0431590   8.3498790  77.4843630  57.2528130  11.3708640
  78.1653740  57.5166500  11.9896040  77.1691680  56.4129000  11.7046650
  81.6768200  58.2995490  10.4581230  82.1846420  58.7976460  11.0986250
  82.2081440  57.5230690  10.2820590  93.7779130  56.4700680  14.1610580
  93.0731300  56.8582390  13.6425690  94.0437050  57.1650970  14.7631510
  79.9604300  52.9394050  14.7244650  79.9622740  53.4566440  13.9190550
  79.1308610  52.4624230  14.7014580  86.3475390  63.0513360   6.2234550
  85.7292660  63.5162810   5.6597270  86.8598640  63.7440840   6.6404060
  81.2107150  62.5789230  12.9018150  80.8776530  63.2058150  13.5439220
  81.3873830  63.1051110  12.1219820  89.7241060  56.3934310  10.3694490
  89.0196630  56.6819200  10.9497600  90.0853220  57.2034420  10.0094050
  79.6419630  54.6504010  12.7315100  79.9836440  55.4946060  12.4368970
  78.7035440  54.7987750  12.8480440  80.4226250  64.5470030  14.7167330
  81.0400250  65.2221110  14.4351780  79.5619370  64.9558010  14.6254830
  75.7158590  63.7369890   3.5974180  75.3386570  64.2256990   2.8659080
  75.9731660  64.4095170   4.2280710  91.3403840  66.0109440  12.6321970
  90.6567360  66.6808550  12.6238640  91.8798130  66.2090090  11.8666830
  92.7927980  55.8389100  10.7603700  91.8452890  55.8728080  10.8919130
  93.1177970  56.6528050  11.1453060  83.3247520  52.1386280   9.0559690
  83.6322500  51.5833170   8.3395190  82.3948220  52.2730740   8.8732680
  88.8762580  67.8553570  11.3467150  88.8889740  67.4515860  10.4789410
  88.3237800  68.6300860  11.2428580  90.1708000  64.5769790   6.4357320
  90.0604330  63.6344120   6.5606740  90.1676250  64.9385430   7.3220080
  88.2748020  62.7583410  12.6749760  88.6916810  62.5443520  11.8403220
  88.9987840  63.0156200  13.2458380  85.7128280  60.2035110   5.7919810
  84.7857560  60.1372490   6.0208280  85.8653100  61.1415240   5.6775050
  85.6997360  56.4752110   2.7886970  84.7601030  56.6366070   2.8739430
  86.0180620  57.1937790   2.2422960  92.2210120  61.1570630  12.7666000
  91.3928750  61.2263720  12.2916130  92.8160600  61.7424940  12.2981830
  89.7425570  61.7655410   6.2955060  89.1237990  61.4274960   5.6481360
  89.7250020  61.1215170   7.0034250  89.1852130  57.9439950  13.7120870
  88.7723310  58.7693660  13.9660860  88.4528080  57.3584990  13.5197230
  81.3184920  60.7299850   8.5739540  80.9141920  60.0177100   8.0785440
  81.4048040  60.3853090   9.4627580  81.7866620  64.4167410  10.7378750
  81.4894910  63.8112880  10.0586530  82.7366440  64.4544720  10.6268110
  80.0313540  57.5043060  12.3538580  80.5828130  57.6138400  11.5791830
  80.5457050  57.8780660  13.0693810  89.8752230  67.9899280  14.4001850
  89.3982790  68.7971470  14.2074460  89.1914020  67.3377610  14.5528060
  80.8785050  64.1549100  17.3886550  79.9813580  64.3789070  17.6359950
  80.9037920  64.2784040  16.4397950  87.9190270  61.0042220   3.3027810
  88.3583550  60.1664650   3.1565630  88.6318690  61.6371620   3.3891950
  79.7056270  61.0262420  15.9643920  79.5664040  61.8985220  16.3331320
  78.8237630  60.6835230  15.8191860  86.0285650  65.9438290   7.2709050
  86.4681560  66.6862620   6.8564440  85.9672540  66.1864860   8.1948010
  81.5036620  66.9684120  18.1729070  81.4752050  67.3727070  17.3057500
  81.3401590  66.0394480  18.0100670  78.0189550  59.6244830   6.0746190
  77.8987150  60.3506920   5.4627460  77.7090440  58.8547740   5.5974100
  93.4551440  67.7511220  19.4693240  93.9311160  68.2294110  20.1482320
  94.0758600  67.6828710  18.7438740  75.6574920  62.7959970  11.8814830
  75.7355340  62.9308740  10.9370550  76.2716600  62.0875860  12.0742950
  76.9022550  64.4960160   8.2921010  76.4950630  64.6374750   7.4374610
  77.7935560  64.2120320   8.0892220  92.8584690  64.9424070  16.6293250
  92.9847750  64.7035950  15.7110430  92.9006070  64.1108610  17.1015330
  86.7201430  68.6452070  15.1988060  87.2346100  68.5560080  16.0010490
  85.8770510  68.9911770  15.4915970  88.6955830  68.9307410   4.6272060
  88.5356970  68.6410350   5.5253890  88.5302540  68.1547540   4.0917290
  81.1744210  68.7105940   6.4043680  80.9986690  67.7941480   6.1911480
  80.3199950  69.0693230   6.6441480  88.3981960  66.4394970   3.1870060
  87.7047120  66.4372260   2.5272340  89.1404820  66.0154290   2.7564230
  87.9631890  68.0657680   7.2618550  88.4188840  67.2847060   7.5757170
  88.3024410  68.7764500   7.8059730  92.7108700  56.9956530  17.5942990
  92.0952970  57.5036200  17.0658450  92.3905120  56.0954860  17.5368930
  75.7134440  63.8374140  14.4209290  75.8765480  63.3679500  13.6028660
  76.1786890  63.3297700  15.0858130  80.4853210  52.9679900   9.4569860
  80.0421360  53.7489440   9.1254380  81.0438200  53.2909790  10.1640800
  84.7723020  55.8348420  15.0605180  84.3102390  56.0431440  15.8725120
  84.3701130  55.0207770  14.7575850  89.7727530  57.0557370  16.1901840
  88.9221120  56.7563120  16.5110910  89.6129320  57.2999380  15.2785660
  86.8677240  58.5559120  18.2900630  87.1930650  57.7222870  17.9502860
  87.6557570  59.0787640  18.4378960  83.6012030  52.5890600   4.3375690
  82.9766210  52.5850470   5.0629000  83.5142150  51.7221560   3.9411660
  82.5229110  53.5127230  11.3159460  82.8201440  54.4190060  11.2351480
  83.0714670  53.0246010  10.7019030  80.2767430  58.0913470   7.1851110
  80.0508350  57.8750640   8.0897730  79.4959960  58.5241930   6.8397080
  87.5065190  58.0976840   5.7841760  86.9074080  58.8212640   5.6005380
  88.0544800  58.0353620   5.0018210  82.7166640  58.9899050  17.8511380
  82.6210240  58.0493780  17.7011780  83.5598620  59.2114120  17.4559450
  86.1130060  56.7340380   7.8145040  86.5059630  57.0512580   7.0013730
  86.4746910  55.8552260   7.9289560  77.8477180  55.4012720  16.0045160
  77.4540570  56.2487930  16.2117940  77.1595580  54.7639090  16.1953800
  84.4222230  55.4847690  19.0741900  83.7320550  55.2919890  19.7087990
  85.1654530  55.7682330  19.6066200  75.1494230  53.3241180  10.0375240
  74.8607280  53.8944040  10.7500220  75.8939990  52.8445630  10.4006470
  86.6985200  59.3246130  11.9095820  85.9666320  59.8332940  12.2585920
  86.3009540  58.5076110  11.6084600  83.1362590  56.0000330  10.3148310
  83.1398650  55.5590280   9.4652850  84.0313710  56.3217660  10.4220130
  78.9864970  55.8826820   9.2742520  78.6465020  56.3602050  10.0309570
  78.2242290  55.4291940   8.9143620  83.1982740  57.0012410   3.3055070
  83.3195560  56.9598890   4.2540890  82.8131250  57.8636560   3.1501800
  87.1611110  54.7779810  11.3218760  87.1783850  55.2288460  12.1660610
  86.9126690  53.8785450  11.5352200  82.2104240  59.3113550   2.7038370
  81.6421140  58.8631800   2.0774280  82.9193240  59.6706330   2.1703520
  90.5881860  52.1911990  17.1605140  90.9127630  51.4601650  17.6863120
  90.6238370  51.8725630  16.2586130  77.2873420  63.2125570  16.5805100
  76.9028210  62.5719240  17.1788060  77.5985610  63.9161690  17.1499830
  83.4370560  60.0602110  12.0613720  83.8040690  59.5860680  12.8075060
  83.2475620  60.9343680  12.4022060  76.3011050  54.8045800   8.1907190
  76.0157970  54.4401470   9.0285810  76.2389910  54.0726260   7.5770330
  81.2269930  59.1010750  14.3797930  80.9227000  59.9802730  14.6048290
  82.1816390  59.1610540  14.4155370  79.7551720  63.3071740   4.9764780
  78.9813980  62.7669360   4.8163500  80.4846350  62.7878350   4.6382540
  90.5139700  62.3037100  10.7691170  91.2338820  62.7992390  10.3787280
  90.3121520  61.6254990  10.1245040  85.9749640  53.6975060   4.9120560
  85.1614250  53.1988230   4.8365870  85.7811590  54.5373310   4.4956910
  85.8958500  62.3746160  16.6560170  85.8295810  61.4541830  16.4017760
  85.2663640  62.4721600  17.3704810  88.6898030  58.0694710   3.2082720
  89.5777650  58.3811940   3.0334060  88.6603120  57.1966960   2.8163300
  79.7989120  62.9752120   8.6143590  80.3167790  62.1720380   8.5600480
  79.3473140  62.9131260   9.4560420  84.6858620  64.2418400   3.8870890
  85.0274320  64.9860630   3.3914210  83.8571330  64.5549520   4.2495720
  77.2833660  59.9413490  15.5269290  76.9248600  60.6067340  16.1142630
  76.9888220  59.1097040  15.8981910  80.4846780  60.3997730  18.4108840
  80.1846920  60.5454910  17.5136660  81.2558020  59.8403020  18.3182230
  85.8275230  65.1966730  16.4063970  85.8419770  64.2647690  16.1882880
  85.1200330  65.2826490  17.0453740  90.9612300  59.3806550   2.6762580
  90.8776020  59.8120770   1.8259020  91.6806490  59.8404900   3.1089400
  92.0386440  61.8374070  15.7532550  91.3134630  62.4302850  15.5561940
  92.5661900  61.8297610  14.9545920  91.9899550  66.2348810   5.4044710
  91.3475710  65.5804430   5.6788430  91.6030210  66.6403900   4.6285380
  87.5686030  63.5634240   9.2516400  87.9209850  62.9662370   8.5917770
  86.6848360  63.2378470   9.4224650  83.6549310  64.3231930   6.6586810
  84.3420440  64.8701140   7.0394400  82.8681730  64.8672660   6.6936420
  75.7941710  59.9404750   2.1503890  76.6636560  60.2229550   2.4339810
  75.3032030  60.7540620   2.0352700  82.9576520  61.3277960   6.2712170
  83.4139300  62.1383210   6.4972360  82.6064730  61.0101100   7.1030660
  85.2609130  66.8384300  13.5004470  85.9051350  67.0443680  14.1777890
  85.6238570  66.0772700  13.0475320  78.8588300  51.6715610   6.7434690
  78.7302930  51.6633510   7.6919610  78.0350320  52.0098700   6.3925700
  86.5341210  64.8416650  12.2181920  87.1763440  64.1409810  12.3314090
  87.0590560  65.6215090  12.0378810  88.3078830  65.6411550  15.4217980
  88.6435070  66.2278240  16.0995900  87.3879170  65.5104260  15.6515770
  76.1612960  69.1532130   2.7165520  76.5210600  69.7521470   2.0622790
  76.0205300  69.6992020   3.4900550  75.8582230  53.4306730  16.2041390
  75.1440750  53.6303650  16.8094000  76.2777270  52.6546300  16.5756190
  89.9613180  63.0437210   3.6035220  89.6734880  63.5049900   4.3913100
  90.7565350  62.5834980   3.8719440  76.1454820  67.4186990  17.1907920
  76.2545940  66.4781730  17.0503310  75.4935380  67.6841740  16.5421650
  84.1367410  65.6902880  18.5906040  83.8164280  64.9712120  19.1351730
  83.4625770  66.3657950  18.6642100  82.1781580  66.5363330   3.5339190
  82.1691680  67.2693020   2.9183700  81.2579940  66.2894910   3.6266150
  77.7788220  61.7578220   4.2785950  77.1716170  62.4977120   4.2881250
  78.2537570  61.8477580   3.4524150  87.3521010  55.9229040  13.9542840
  87.7201830  55.1024250  14.2822410  86.4919210  55.9830930  14.3698490
  90.7183040  54.8785980   4.7630400  90.0896200  54.9831650   4.0488630
  90.2234960  55.0982760   5.5524280  82.6867070  57.1571930   6.1788280
  81.9783220  57.6258270   6.6201890  82.9711550  56.4993940   6.8133470
  84.3123000  58.5768630  14.1780810  84.8108250  59.0514450  14.8432660
  84.4545950  57.6532150  14.3850840  86.7182500  53.8822590   7.6184070
  86.5950280  53.9008720   6.6693580  87.6667060  53.9301530   7.7382470
  83.8059290  69.1177890   6.8912050  84.0600790  69.0799280   5.9691420
  82.8571770  68.9911220   6.8840300  80.8902090  55.4657010   3.5538990
  81.7392620  55.9027160   3.4879180  80.5233360  55.7777270   4.3811050
  91.5189860  54.7936590  15.0209200  91.0163460  55.5341990  15.3603010
  92.3346520  55.1820590  14.7045990  89.8111870  60.0369770   8.4670560
  88.8702010  60.0520000   8.6418250  90.1255940  59.2505730   8.9130860
  78.4840270  59.1514440   2.7107410  78.5643860  58.2041950   2.8224810
  79.3760020  59.4821320   2.8168070  91.8137450  67.2078620  10.1424820
  91.9384870  68.0309790  10.6148630  92.6803010  66.9969350   9.7948970
  79.2854980  69.3009830   9.8141950  80.0217460  68.7525290  10.0850520
  79.6695900  70.1665840   9.6747940  76.1700460  65.3683400   5.6883460
  75.2440240  65.6104540   5.6788870  76.6356890  66.1957660   5.5668210
  78.2913260  68.4855900  19.0027530  79.0925990  68.8067950  19.4162930
  77.7765080  68.1251480  19.7247440  87.1277890  64.5935770  18.9502940
  86.5216050  64.6167370  18.2098690  86.8232000  63.8618810  19.4870190
  88.5578260  68.3216060  17.5612350  89.5100010  68.2374080  17.5112590
  88.4106480  68.9857770  18.2346140  91.4487460  67.7010270   3.0604260
  91.1628970  67.2875410   2.2458440  91.2507010  68.6297980   2.9404780
  76.0111070  60.9729360  17.9463580  76.5150090  60.3936640  18.5179810
  75.2718490  61.2569590  18.4839950  83.0649010  62.3800350  17.4799100
  82.2994680  62.9485350  17.3953770  83.2464970  62.0876560  16.5867330
  86.1537420  62.7563580   2.1051860  85.6047520  63.2032880   2.7494600
  86.7756680  62.2512830   2.6289530  90.2072360  64.1105680  18.0374120
  90.9481830  64.4481440  17.5341580  89.4445040  64.2797740  17.4843890
  78.0434150  59.1158950  18.8413650  78.0839490  58.8172820  19.7498880
  78.8979650  59.5166560  18.6821170  81.8212540  61.7154500   4.0017160
  82.2428960  61.5494370   4.8448550  81.9463380  60.9054730   3.5072300
  79.9839960  57.6951050  16.8088140  79.4536420  57.2042000  16.1811480
  80.6528030  58.1235250  16.2746070  88.8818020  62.1620510  16.5729330
  89.2959040  62.3165590  17.4219750  87.9469020  62.2875730  16.7355110
  89.3540190  59.5016670  18.5768480  89.9360960  58.7468990  18.4888960
  89.5301960  60.0324110  17.7999960  80.4712260  54.6613420  16.8885430
  80.3769130  54.0434170  16.1636300  79.8909650  55.3879710  16.6615340
  83.2373700  53.2186660  13.9212820  82.7891000  53.2410920  13.0758370
  82.6038900  52.8205680  14.5183120  83.6433250  62.1140990  14.5425260
  84.0621360  62.9573720  14.3701500  82.7241880  62.2513030  14.3132040
  85.9797150  59.8457170  15.9263100  86.0993360  59.2498310  16.6657940
  86.8391150  59.8826860  15.5064400  88.3185050  60.3994360  14.5025610
  87.7920270  60.9236980  13.8990750  88.6616390  61.0321750  15.1335340
  81.4940670  68.4194000  15.6582990  80.9561760  69.1440060  15.3391690
  81.7474630  67.9424340  14.8680330  82.7465920  56.3878520  17.1838920
  83.3365610  56.0794370  17.8716740  81.9286160  55.9158270  17.3398820
  87.5659350  56.0044330  17.4171940  86.8774870  55.3425870  17.3521930
  88.2865370  55.5582600  17.8620400  88.1959750  52.5995960   3.4762200
  88.4762040  51.7563860   3.8321620  87.4225480  52.8319070   3.9900950
  84.3502880  69.6545210  15.9169640  84.2761580  70.5580350  16.2242010
  83.4481720  69.3357110  15.8891710  84.8988210  68.8203720   3.5396000
  85.7939000  69.1588690   3.5614760  84.9305840  68.0983130   2.9120280
  78.5384370  64.1930770   1.7683000  78.9759240  64.7360440   2.4240580
  79.0232100  63.3677720   1.7779340  75.7530170  66.9819800   9.2203260
  76.0833180  66.1140860   8.9881900  76.1821170  67.1878320  10.0508220
  80.3492090  65.3128810   6.8805230  80.0487630  65.1893780   7.7809140
  80.2429580  64.4537400   6.4720960  76.2420380  67.8490390  11.9584890
  75.8051370  68.0291190  12.7909040  76.8098060  68.6065010  11.8166610
  91.8782560  67.3507390  16.2462200  91.2784550  67.4099950  15.5026120
  92.0076460  66.4112370  16.3759050  92.5740470  61.8372690   4.0866110
  93.3359380  62.4069340   4.1925800  92.5894840  61.2699890   4.8574420
  76.0744810  60.3610620   8.3173770  75.4193650  60.0922260   7.6733470
  76.9122760  60.2515100   7.8675750  93.5800440  62.6922790   8.9308040
  93.9509270  61.9090110   8.5244010  94.2202370  63.3811890   8.7525340
  90.5634200  64.0759370  14.3438360  89.7494040  64.5056530  14.6064150
  90.9708400  64.6877780  13.7307410  89.0235250  55.1551910   2.5392260
  89.4420130  54.9682890   1.6988920  88.7171310  54.3030960   2.8495190
  92.5224980  60.0676050   6.2368060  92.1468580  59.3003980   5.8049350
  91.7928100  60.4498750   6.7242990  77.1120740  60.7463190  12.8577110
  77.4793780  60.6590590  13.7373130  76.5431560  59.9829740  12.7583970
  91.9124600  59.2147570  15.8707580  91.6810690  58.9860320  14.9705530
  92.1729150  60.1347120  15.8252470  76.6636740  57.6572280  16.7635530
  75.7692790  57.6239040  17.1029240  77.2034290  57.8559070  17.5286780
  90.3512670  54.4404000  18.6487280  91.2282850  54.4487400  19.0321280
  90.3633510  53.7034840  18.0379630  75.2882890  57.5709550   4.2599100
  74.3846970  57.8339750   4.0850760  75.7723510  57.8420720   3.4799060
  91.7975940  58.2933540   9.5375300  92.3213420  57.7996190   8.9065470
  92.3835360  58.4283900  10.2822870  91.9765660  58.3773410  13.0594850
  91.0268370  58.3436950  13.1739840  92.1578670  59.2873520  12.8244620
  91.2875910  57.5506890   5.4767710  91.7835030  57.3177760   6.2616590
  91.0891980  56.7118730   5.0605350  77.1676450  51.9320610  11.1118750
  77.8152640  51.3817990  10.6713910  77.5878290  52.1863760  11.9334560
  92.7163070  56.1867840   8.0105390  92.6062350  56.0323880   8.9487660
  93.4770660  55.6588780   7.7680800  91.0628790  52.1261970  14.4688390
  91.7001010  52.7396110  14.8347580  91.2103680  52.1622630  13.5237620
  93.6791830  54.7886420   3.8768240  92.8843330  54.7231540   4.4061150
  93.8835110  55.7237060   3.8653590  90.6210250  68.8277970   7.8706630
  91.2169320  68.5062540   7.1941050  90.8788400  68.3549790   8.6619900
  76.9208450  52.0876280  13.8544070  76.5723270  52.5440100  14.6202250
  76.5896150  51.1933410  13.9366500  78.5272820  65.2595880  18.0197260
  78.4842450  64.8888790  18.9011720  78.6583830  66.1973450  18.1599080
  82.2278850  66.8155470  13.6206980  81.9870210  67.0830030  12.7337500
  83.1681490  66.9861200  13.6757840  84.4333270  53.2788160  17.3763490
  84.3722160  53.8709990  18.1258900  85.3733650  53.1714120  17.2313750
  87.0707830  52.9358220  17.0155780  87.6848240  53.2537510  16.3536860
  87.6157390  52.4506810  17.6351640  93.4883010  68.8349850  14.4217620
  92.9941290  69.2318720  13.7044750  92.8796300  68.2099060  14.8154900
  77.5929090  51.6152480  17.1294840  78.1412080  51.4340530  16.3660950
  77.6584400  50.8246590  17.6651150  78.3660850  68.2058130  15.1395040
  77.7721170  68.0742830  15.8785080  78.3584690  67.3696270  14.6737140
  87.8115870  51.4990360  13.3425070  86.9375710  51.8325470  13.1398000
  87.7026620  51.0263540  14.1676940  88.7187850  53.7061230  14.7266790
  88.3901210  52.8912990  14.3468520  89.6670150  53.6631040  14.6032480
  91.1722460  69.4773270  11.7004360  90.7125430  70.2289080  11.3262380
  90.5434920  68.7579740  11.6419160  77.9973080  65.5716510  14.0903080
  77.2707140  64.9521800  14.0229030  78.0582230  65.9657120  13.2201160
  81.6018180  67.7861510  10.8752490  82.1183200  67.1748870  10.3500750
  82.2515560  68.2890290  11.3663500  84.3413680  68.6770000  11.7021470
  84.6291490  68.4224300  10.8254480  84.8536900  68.1247360  12.2927040
  85.5590690  52.4160200  12.2817980  84.7762480  52.8905700  12.5614740
  85.2653620  51.5115030  12.1731160  90.1111760  53.1183300  10.3267070
  90.5519850  53.0628400   9.4788670  89.8419350  54.0341310  10.3977250
  91.9750330  52.7498540   8.3375890  91.9138730  51.8059760   8.1906910
  92.7542360  52.8578630   8.8829350  76.2803080  68.8890900   7.2999840
  76.1125120  68.2561580   7.9981730  75.4137590  69.0950300   6.9494030
  76.9031100  52.7207680   4.8031700  77.6610460  52.8336560   4.2295730
  76.4408270  53.5576880   4.7575130  83.4444910  54.8346950   7.7934010
  82.6319420  54.4603840   7.4529890  83.9486550  54.0792030   8.0955200
  87.9469890  51.4989400   9.0317080  88.5499260  52.0709610   9.5065600
  87.2062880  52.0628840   8.8090980  91.0904490  51.9010960   4.3057360
  91.2855120  52.7994410   4.5724790  90.3034360  51.6698040   4.7990310
  77.8865780  67.5824130   4.7449980  77.3613400  67.9632160   4.0411940
  77.8110360  68.2074900   5.4659690  79.2756250  53.2471730   3.3433670
  79.8049010  52.4601530   3.2141620  79.9084570  53.9262920   3.5769200
  81.4694090  52.9846870   6.3979060  80.8396830  52.2834180   6.5649190
  80.9299230  53.7451000   6.1812220  84.4086040  69.5986100  19.0689670
  85.3353350  69.3630370  19.1125630  84.3936470  70.4258100  18.5875700
  92.6431100  69.1411670   6.0663920  92.8183290  68.4549410   5.4224840
  91.9452670  69.6658720   5.6740590  81.5949650  52.2630850  18.8331550
  81.3133920  52.7664450  18.0692370  81.9769350  51.4652600  18.4673680
  80.4858750  69.5306510   3.6199230  81.2177570  69.2465790   3.0723120
  80.7452420  69.2919790   4.5098610  79.6473540  65.6471240   3.6245560
  79.0182420  66.1156340   4.1731390  79.7621370  64.8020460   4.0591750
  88.1965110  51.6784430  19.4112020  88.0830560  51.9979040  20.3063540
  89.0134850  52.0796940  19.1149300  90.9763600  68.8255960  18.8930710
  91.7688920  68.3305190  18.6856670  91.2696750  69.5046100  19.5006320
  87.1023260  40.9233410  64.8720720  87.0217310  40.0088020  64.6012430
  86.6887680  41.4200480  64.1660430  85.2341300  42.7012430  66.7529990
  84.4583400  42.2212870  67.0428560  85.8854230  42.0218080  66.5786150
  79.2507130  43.0132240  67.6305750  78.4192010  42.7580950  68.0302260
  79.8588110  43.0843010  68.3663670  89.2548730  47.1072620  65.5329120
  88.7930260  46.3359860  65.8616290  90.0674280  47.1338690  66.0381570
  79.2308390  47.0472330  67.8263770  79.5336430  46.1570070  67.6473990
  79.9751980  47.6042550  67.5986020  77.6599080  37.9734130  61.4148140
  76.7715780  38.3150100  61.3128020  77.9440270  37.7734450  60.5228970
  75.6232090  40.5739780  67.2987840  76.1948200  39.8061980  67.2991480
  75.6233630  40.8728540  66.3894450  85.4812040  49.3930630  65.1533110
  84.8623480  49.8488130  64.5827550  86.3363820  49.5482090  64.7522810
  84.6750290  45.3769620  66.7600150  84.6058570  44.4359560  66.5989280
  85.4370150  45.4671030  67.3322720  76.8656960  35.9824140  69.0856770
  76.6859800  35.0849890  69.3659530  76.4637040  36.5296010  69.7603720
  85.7055460  38.1840000  66.9869080  86.0820280  37.3111880  66.8742750
  85.6074970  38.5198700  66.0959520  79.8360470  36.5565630  62.4486520
  79.9427220  37.4569360  62.7555280  78.9252830  36.5083600  62.1581170
  89.4879580  35.6790440  63.9197420  90.3089200  35.1887010  63.9622900
  89.5213660  36.2688100  64.6729260  77.4843630  38.4784640  67.6939110
  78.1653740  38.7423010  68.3126510  77.1691680  37.6385510  68.0277120
  81.6768200  39.5252000  66.7811700  82.1846420  40.0232970  67.4216720
  82.2081440  38.7487200  66.6051060  93.7779130  37.6957190  70.4841050
  93.0731300  38.0838900  69.9656160  94.0437050  38.3907480  71.0861980
  79.9604300  34.1650560  71.0475120  79.9622740  34.6822950  70.2421020
  79.1308610  33.6880740  71.0245050  86.3475390  44.2769870  62.5465020
  85.7292660  44.7419320  61.9827740  86.8598640  44.9697350  62.9634530
  81.2107150  43.8045740  69.2248620  80.8776530  44.4314660  69.8669690
  81.3873830  44.3307620  68.4450290  89.7241060  37.6190820  66.6924960
  89.0196630  37.9075710  67.2728070  90.0853220  38.4290930  66.3324520
  79.6419630  35.8760520  69.0545570  79.9836440  36.7202570  68.7599440
  78.7035440  36.0244260  69.1710910  80.4226250  45.7726540  71.0397800
  81.0400250  46.4477620  70.7582250  79.5619370  46.1814520  70.9485300
  75.7158590  44.9626400  59.9204650  75.3386570  45.4513500  59.1889550
  75.9731660  45.6351680  60.5511180  91.3403840  47.2365950  68.9552440
  90.6567360  47.9065060  68.9469110  91.8798130  47.4346600  68.1897300
  92.7927980  37.0645610  67.0834170  91.8452890  37.0984590  67.2149600
  93.1177970  37.8784560  67.4683530  83.3247520  33.3642790  65.3790160
  83.6322500  32.8089680  64.6625660  82.3948220  33.4987250  65.1963150
  88.8762580  49.0810080  67.6697620  88.8889740  48.6772370  66.8019880
  88.3237800  49.8557370  67.5659050  90.1708000  45.8026300  62.7587790
  90.0604330  44.8600630  62.8837210  90.1676250  46.1641940  63.6450550
  88.2748020  43.9839920  68.9980230  88.6916810  43.7700030  68.1633690
  88.9987840  44.2412710  69.5688850  85.7128280  41.4291620  62.1150280
  84.7857560  41.3629000  62.3438750  85.8653100  42.3671750  62.0005520
  85.6997360  37.7008620  59.1117440  84.7601030  37.8622580  59.1969900
  86.0180620  38.4194300  58.5653430  92.2210120  42.3827140  69.0896470
  91.3928750  42.4520230  68.6146600  92.8160600  42.9681450  68.6212300
  89.7425570  42.9911920  62.6185530  89.1237990  42.6531470  61.9711830
  89.7250020  42.3471680  63.3264720  89.1852130  39.1696460  70.0351340
  88.7723310  39.9950170  70.2891330  88.4528080  38.5841500  69.8427700
  81.3184920  41.9556360  64.8970010  80.9141920  41.2433610  64.4015910
  81.4048040  41.6109600  65.7858050  81.7866620  45.6423920  67.0609220
  81.4894910  45.0369390  66.3817000  82.7366440  45.6801230  66.9498580
  80.0313540  38.7299570  68.6769050  80.5828130  38.8394910  67.9022300
  80.5457050  39.1037170  69.3924280  89.8752230  49.2155790  70.7232320
  89.3982790  50.0227980  70.5304930  89.1914020  48.5634120  70.8758530
  80.8785050  45.3805610  73.7117020  79.9813580  45.6045580  73.9590420
  80.9037920  45.5040550  72.7628420  87.9190270  42.2298730  59.6258280
  88.3583550  41.3921160  59.4796100  88.6318690  42.8628130  59.7122420
  79.7056270  42.2518930  72.2874390  79.5664040  43.1241730  72.6561790
  78.8237630  41.9091740  72.1422330  86.0285650  47.1694800  63.5939520
  86.4681560  47.9119130  63.1794910  85.9672540  47.4121370  64.5178480
  81.5036620  48.1940630  74.4959540  81.4752050  48.5983580  73.6287970
  81.3401590  47.2650990  74.3331140  91.5007410  33.4841540  57.9399320
  91.1880070  33.5768370  58.8398390  92.2619880  34.0622570  57.8896750
  78.0189550  40.8501340  62.3976660  77.8987150  41.5763430  61.7857930
  77.7090440  40.0804250  61.9204570  75.6574920  44.0216480  68.2045300
  75.7355340  44.1565250  67.2601020  76.2716600  43.3132370  68.3973420
  76.9022550  45.7216670  64.6151480  76.4950630  45.8631260  63.7605080
  77.7935560  45.4376830  64.4122690  92.8584690  46.1680580  72.9523720
  92.9847750  45.9292460  72.0340900  92.9006070  45.3365120  73.4245800
  86.7201430  49.8708580  71.5218530  87.2346100  49.7816590  72.3240960
  85.8770510  50.2168280  71.8146440  88.6955830  50.1563920  60.9502530
  88.5356970  49.8666860  61.8484360  88.5302540  49.3804050  60.4147760
  81.1744210  49.9362450  62.7274150  80.9986690  49.0197990  62.5141950
  80.3199950  50.2949740  62.9671950  88.3981960  47.6651480  59.5100530
  87.7047120  47.6628770  58.8502810  89.1404820  47.2410800  59.0794700
  87.9631890  49.2914190  63.5849020  88.4188840  48.5103570  63.8987640
  88.3024410  50.0021010  64.1290200  92.7108700  38.2213040  73.9173460
  92.0952970  38.7292710  73.3888920  92.3905120  37.3211370  73.8599400
  75.7134440  45.0630650  70.7439760  75.8765480  44.5936010  69.9259130
  76.1786890  44.5554210  71.4088600  80.4853210  34.1936410  65.7800330
  80.0421360  34.9745950  65.4484850  81.0438200  34.5166300  66.4871270
  84.7723020  37.0604930  71.3835650  84.3102390  37.2687950  72.1955590
  84.3701130  36.2464280  71.0806320  89.7727530  38.2813880  72.5132310
  88.9221120  37.9819630  72.8341380  89.6129320  38.5255890  71.6016130
  86.8677240  39.7815630  74.6131100  87.1930650  38.9479380  74.2733330
  87.6557570  40.3044150  74.7609430  83.6012030  33.8147110  60.6606160
  82.9766210  33.8106980  61.3859470  83.5142150  32.9478070  60.2642130
  82.5229110  34.7383740  67.6389930  82.8201440  35.6446570  67.5581950
  83.0714670  34.2502520  67.0249500  80.2767430  39.3169980  63.5081580
  80.0508350  39.1007150  64.4128200  79.4959960  39.7498440  63.1627550
  87.5065190  39.3233350  62.1072230  86.9074080  40.0469150  61.9235850
  88.0544800  39.2610130  61.3248680  82.7166640  40.2155560  74.1741850
  82.6210240  39.2750290  74.0242250  83.5598620  40.4370630  73.7789920
  86.1130060  37.9596890  64.1375510  86.5059630  38.2769090  63.3244200
  86.4746910  37.0808770  64.2520030  77.8477180  36.6269230  72.3275630
  77.4540570  37.4744440  72.5348410  77.1595580  35.9895600  72.5184270
  75.1494230  34.5497690  66.3605710  74.8607280  35.1200550  67.0730690
  75.8939990  34.0702140  66.7236940  75.3364460  38.4917810  57.5708430
  75.2539130  39.4348570  57.7123420  74.9847520  38.3492720  56.6920780
  86.6985200  40.5502640  68.2326290  85.9666320  41.0589450  68.5816390
  86.3009540  39.7332620  67.9315070  83.1362590  37.2256840  66.6378780
  83.1398650  36.7846790  65.7883320  84.0313710  37.5474170  66.7450600
  78.9864970  37.1083330  65.5972990  78.6465020  37.5858560  66.3540040
  78.2242290  36.6548450  65.2374090  83.1982740  38.2268920  59.6285540
  83.3195560  38.1855400  60.5771360  82.8131250  39.0893070  59.4732270
  87.1611110  36.0036320  67.6449230  87.1783850  36.4544970  68.4891080
  86.9126690  35.1041960  67.8582670  82.2104240  40.5370060  59.0268840
  81.6421140  40.0888310  58.4004750  82.9193240  40.8962840  58.4933990
  90.5881860  33.4168500  73.4835610  90.9127630  32.6858160  74.0093590
  90.6238370  33.0982140  72.5816600  77.2873420  44.4382080  72.9035570
  76.9028210  43.7975750  73.5018530  77.5985610  45.1418200  73.4730300
  83.4370560  41.2858620  68.3844190  83.8040690  40.8117190  69.1305530
  83.2475620  42.1600190  68.7252530  76.3011050  36.0302310  64.5137660
  76.0157970  35.6657980  65.3516280  76.2389910  35.2982770  63.9000800
  81.2269930  40.3267260  70.7028400  80.9227000  41.2059240  70.9278760
  82.1816390  40.3867050  70.7385840  79.7551720  44.5328250  61.2995250
  78.9813980  43.9925870  61.1393970  80.4846350  44.0134860  60.9613010
  90.5139700  43.5293610  67.0921640  91.2338820  44.0248900  66.7017750
  90.3121520  42.8511500  66.4475510  85.9749640  34.9231570  61.2351030
  85.1614250  34.4244740  61.1596340  85.7811590  35.7629820  60.8187380
  85.8958500  43.6002670  72.9790640  85.8295810  42.6798340  72.7248230
  85.2663640  43.6978110  73.6935280  88.6898030  39.2951220  59.5313190
  89.5777650  39.6068450  59.3564530  88.6603120  38.4223470  59.1393770
  79.7989120  44.2008630  64.9374060  80.3167790  43.3976890  64.8830950
  79.3473140  44.1387770  65.7790890  84.6858620  45.4674910  60.2101360
  85.0274320  46.2117140  59.7144680  83.8571330  45.7806030  60.5726190
  77.2833660  41.1670000  71.8499760  76.9248600  41.8323850  72.4373100
  76.9888220  40.3353550  72.2212380  80.4846780  41.6254240  74.7339310
  80.1846920  41.7711420  73.8367130  81.2558020  41.0659530  74.6412700
  85.8275230  46.4223240  72.7294440  85.8419770  45.4904200  72.5113350
  85.1200330  46.5083000  73.3684210  90.9612300  40.6063060  58.9993050
  90.8776020  41.0377280  58.1489490  91.6806490  41.0661410  59.4319870
  92.0386440  43.0630580  72.0763020  91.3134630  43.6559360  71.8792410
  92.5661900  43.0554120  71.2776390  91.9899550  47.4605320  61.7275180
  91.3475710  46.8060940  62.0018900  91.6030210  47.8660410  60.9515850
  87.5686030  44.7890750  65.5746870  87.9209850  44.1918880  64.9148240
  86.6848360  44.4634980  65.7455120  83.6549310  45.5488440  62.9817280
  84.3420440  46.0957650  63.3624870  82.8681730  46.0929170  63.0166890
  75.7941710  41.1661260  58.4734360  76.6636560  41.4486060  58.7570280
  75.3032030  41.9797130  58.3583170  82.9576520  42.5534470  62.5942640
  83.4139300  43.3639720  62.8202830  82.6064730  42.2357610  63.4261130
  85.2609130  48.0640810  69.8234940  85.9051350  48.2700190  70.5008360
  85.6238570  47.3029210  69.3705790  78.8588300  32.8972120  63.0665160
  78.7302930  32.8890020  64.0150080  78.0350320  33.2355210  62.7156170
  86.5341210  46.0673160  68.5412390  87.1763440  45.3666320  68.6544560
  87.0590560  46.8471600  68.3609280  90.3796930  46.3521780  58.2651530
  90.1534510  45.6352220  58.8576170  89.9893130  46.1034220  57.4273280
  88.3078830  46.8668060  71.7448450  88.6435070  47.4534750  72.4226370
  87.3879170  46.7360770  71.9746240  76.1612960  50.3788640  59.0395990
  76.5210600  50.9777980  58.3853260  76.0205300  50.9248530  59.8131020
  75.8582230  34.6563240  72.5271860  75.1440750  34.8560160  73.1324470
  76.2777270  33.8802810  72.8986660  89.9613180  44.2693720  59.9265690
  89.6734880  44.7306410  60.7143570  90.7565350  43.8091490  60.1949910
  76.1454820  48.6443500  73.5138390  76.2545940  47.7038240  73.3733780
  75.4935380  48.9098250  72.8652120  82.1781580  47.7619840  59.8569660
  82.1691680  48.4949530  59.2414170  81.2579940  47.5151420  59.9496620
  77.7788220  42.9834730  60.6016420  77.1716170  43.7233630  60.6111720
  78.2537570  43.0734090  59.7754620  87.3521010  37.1485550  70.2773310
  87.7201830  36.3280760  70.6052880  86.4919210  37.2087440  70.6928960
  90.7183040  36.1042490  61.0860870  90.0896200  36.2088160  60.3719100
  90.2234960  36.3239270  61.8754750  85.1641180  47.8248080  58.5194850
  85.2653160  47.6212070  57.5896830  84.2642920  47.5706360  58.7242630
  82.6867070  38.3828440  62.5018750  81.9783220  38.8514780  62.9432360
  82.9711550  37.7250450  63.1363940  84.3123000  39.8025140  70.5011280
  84.8108250  40.2770960  71.1663130  84.4545950  38.8788660  70.7081310
  86.7182500  35.1079100  63.9414540  86.5950280  35.1265230  62.9924050
  87.6667060  35.1558040  64.0612940  83.8059290  50.3434400  63.2142520
  84.0600790  50.3055790  62.2921890  82.8571770  50.2167730  63.2070770
  80.8902090  36.6913520  59.8769460  81.7392620  37.1283670  59.8109650
  80.5233360  37.0033780  60.7041520  91.5189860  36.0193100  71.3439670
  91.0163460  36.7598500  71.6833480  92.3346520  36.4077100  71.0276460
  89.8111870  41.2626280  64.7901030  88.8702010  41.2776510  64.9648720
  90.1255940  40.4762240  65.2361330  79.7893510  42.9445880  58.3504990
  80.5556780  42.8327240  58.9130420  79.8668200  42.2483850  57.6981760
  78.4840270  40.3770950  59.0337880  78.5643860  39.4298460  59.1455280
  79.3760020  40.7077830  59.1398540  91.8137450  48.4335130  66.4655290
  91.9384870  49.2566300  66.9379100  92.6803010  48.2225860  66.1179440
  79.2854980  50.5266340  66.1372420  80.0217460  49.9781800  66.4080990
  79.6695900  51.3922350  65.9978410  76.1700460  46.5939910  62.0113930
  75.2440240  46.8361050  62.0019340  76.6356890  47.4214170  61.8898680
  82.3957290  49.6996650  57.9597990  83.1885900  49.9885480  57.5079780
  81.8761640  49.2688820  57.2810470  88.5578260  49.5472570  73.8842820
  89.5100010  49.4630590  73.8343060  88.4106480  50.2114280  74.5576610
  91.4487460  48.9266780  59.3834730  91.1628970  48.5131920  58.5688910
  91.2507010  49.8554490  59.2635250  76.0111070  42.1985870  74.2694050
  76.5150090  41.6193150  74.8410280  75.2718490  42.4826100  74.8070420
  82.9134690  44.9200060  57.8240340  82.8085330  44.3052410  58.5501720
  82.7458910  44.3965950  57.0403350  83.0649010  43.6056860  73.8029570
  82.2994680  44.1741860  73.7184240  83.2464970  43.3133070  72.9097800
  86.1537420  43.9820090  58.4282330  85.6047520  44.4289390  59.0725070
  86.7756680  43.4769340  58.9520000  90.2072360  45.3362190  74.3604590
  90.9481830  45.6737950  73.8572050  89.4445040  45.5054250  73.8074360
  81.8212540  42.9411010  60.3247630  82.2428960  42.7750880  61.1679020
  81.9463380  42.1311240  59.8302770  79.9839960  38.9207560  73.1318610
  79.4536420  38.4298510  72.5041950  80.6528030  39.3491760  72.5976540
  84.3340180  41.9648620  57.5724730  84.8545840  41.2497640  57.2065880
  84.9808580  42.6034490  57.8725240  88.8818020  43.3877020  72.8959800
  89.2959040  43.5422100  73.7450220  87.9469020  43.5132240  73.0585580
  89.3540190  40.7273180  74.8998950  89.9360960  39.9725500  74.8119430
  89.5301960  41.2580620  74.1230430  80.4712260  35.8869930  73.2115900
  80.3769130  35.2690680  72.4866770  79.8909650  36.6136220  72.9845810
  83.2373700  34.4443170  70.2443290  82.7891000  34.4667430  69.3988840
  82.6038900  34.0462190  70.8413590  83.6433250  43.3397500  70.8655730
  84.0621360  44.1830230  70.6931970  82.7241880  43.4769540  70.6362510
  85.9797150  41.0713680  72.2493570  86.0993360  40.4754820  72.9888410
  86.8391150  41.1083370  71.8294870  88.3185050  41.6250870  70.8256080
  87.7920270  42.1493490  70.2221220  88.6616390  42.2578260  71.4565810
  80.7171440  39.0144240  57.2705790  80.5160500  38.1511600  57.6319130
  80.5463490  38.9277600  56.3327390  81.4940670  49.6450510  71.9813460
  80.9561760  50.3696570  71.6622160  81.7474630  49.1680850  71.1910800
  82.7465920  37.6135030  73.5069390  83.3365610  37.3050880  74.1947210
  81.9286160  37.1414780  73.6629290  87.5659350  37.2300840  73.7402410
  86.8774870  36.5682380  73.6752400  88.2865370  36.7839110  74.1850870
  88.1959750  33.8252470  59.7992670  88.4762040  32.9820370  60.1552090
  87.4225480  34.0575580  60.3131420  79.5154240  36.1144860  57.2583670
  79.8180140  36.1212290  56.3502820  80.2548830  35.7642720  57.7551330
  84.3502880  50.8801720  72.2400110  84.2761580  51.7836860  72.5472480
  83.4481720  50.5613620  72.2122180  82.7339170  35.0579480  58.2439870
  82.3861170  34.3803470  57.6642320  82.9351940  34.5968990  59.0583260
  84.8988210  50.0460230  59.8626470  85.7939000  50.3845200  59.8845230
  84.9305840  49.3239640  59.2350750  78.5384370  45.4187280  58.0913470
  78.9759240  45.9616950  58.7471050  79.0232100  44.5934230  58.1009810
  75.7530170  48.2076310  65.5433730  76.0833180  47.3397370  65.3112370
  76.1821170  48.4134830  66.3738690  80.3492090  46.5385320  63.2035700
  80.0487630  46.4150290  64.1039610  80.2429580  45.6793910  62.7951430
  76.2420380  49.0746900  68.2815360  75.8051370  49.2547700  69.1139510
  76.8098060  49.8321520  68.1397080  91.8782560  48.5763900  72.5692670
  91.2784550  48.6356460  71.8256590  92.0076460  47.6368880  72.6989520
  93.1184010  46.3181720  57.9062380  92.2876970  46.3858370  58.3769610
  93.2955840  47.2085840  57.6029240  92.5740470  43.0629200  60.4096580
  93.3359380  43.6325850  60.5156270  92.5894840  42.4956400  61.1804890
  76.0744810  41.5867130  64.6404240  75.4193650  41.3178770  63.9963940
  76.9122760  41.4771610  64.1906220  93.5800440  43.9179300  65.2538510
  93.9509270  43.1346620  64.8474480  94.2202370  44.6068400  65.0755810
  90.5634200  45.3015880  70.6668830  89.7494040  45.7313040  70.9294620
  90.9708400  45.9134290  70.0537880  92.6259640  43.3563570  57.5669100
  92.9008480  44.2642450  57.4388320  92.4370380  43.2926100  58.5031090
  89.0235250  36.3808420  58.8622730  89.4420130  36.1939400  58.0219390
  88.7171310  35.5287470  59.1725660  92.5224980  41.2932560  62.5598530
  92.1468580  40.5260490  62.1279820  91.7928100  41.6755260  63.0473460
  77.1120740  41.9719700  69.1807580  77.4793780  41.8847100  70.0603600
  76.5431560  41.2086250  69.0814440  91.9124600  40.4404080  72.1938050
  91.6810690  40.2116830  71.2936000  92.1729150  41.3603630  72.1482940
  76.6636740  38.8828790  73.0866000  75.7692790  38.8495550  73.4259710
  77.2034290  39.0815580  73.8517250  75.2882890  38.7966060  60.5829570
  74.3846970  39.0596260  60.4081230  75.7723510  39.0677230  59.8029530
  91.7975940  39.5190050  65.8605770  92.3213420  39.0252700  65.2295940
  92.3835360  39.6540410  66.6053340  91.9765660  39.6029920  69.3825320
  91.0268370  39.5693460  69.4970310  92.1578670  40.5130030  69.1475090
  77.8310100  37.8531600  58.4923950  78.5401800  37.4314820  58.0071230
  77.1150040  37.9206830  57.8607300  77.4784260  33.9070930  57.5326600
  78.2012390  34.4479870  57.8507820  77.7508780  33.6334350  56.6568140
  91.2875910  38.7763400  61.7998180  91.7835030  38.5434270  62.5847060
  91.0891980  37.9375240  61.3835820  77.1676450  33.1577120  67.4349220
  77.8152640  32.6074500  66.9944380  77.5878290  33.4120270  68.2565030
  92.7163070  37.4124350  64.3335860  92.6062350  37.2580390  65.2718130
  93.4770660  36.8845290  64.0911270  91.0628790  33.3518480  70.7918860
  91.7001010  33.9652620  71.1578050  91.2103680  33.3879140  69.8468090
  93.6053340  35.2432270  57.5742000  94.5302650  35.1113450  57.3660290
  93.5829130  35.3225090  58.5278450  93.6791830  36.0142930  60.1998710
  92.8843330  35.9488050  60.7291620  93.8835110  36.9493570  60.1884060
  90.6210250  50.0534480  64.1937100  91.2169320  49.7319050  63.5171520
  90.8788400  49.5806300  64.9850370  76.9208450  33.3132790  70.1774540
  76.5723270  33.7696610  70.9432720  76.5896150  32.4189920  70.2596970
  82.2278850  48.0411980  69.9437450  81.9870210  48.3086540  69.0567970
  83.1681490  48.2117710  69.9988310  84.4333270  34.5044670  73.6993960
  84.3722160  35.0966500  74.4489370  85.3733650  34.3970630  73.5544220
  87.0707830  34.1614730  73.3386250  87.6848240  34.4794020  72.6767330
  87.6157390  33.6763320  73.9582110  93.4883010  50.0606360  70.7448090
  92.9941290  50.4575230  70.0275220  92.8796300  49.4355570  71.1385370
  77.5929090  32.8408990  73.4525310  78.1412080  32.6597040  72.6891420
  77.6584400  32.0503100  73.9881620  78.3660850  49.4314640  71.4625510
  77.7721170  49.2999340  72.2015550  78.3584690  48.5952780  70.9967610
  87.8115870  32.7246870  69.6655540  86.9375710  33.0581980  69.4628470
  87.7026620  32.2520050  70.4907410  88.7187850  34.9317740  71.0497260
  88.3901210  34.1169500  70.6698990  89.6670150  34.8887550  70.9262950
  91.1722460  50.7029780  68.0234830  90.7125430  51.4545590  67.6492850
  90.5434920  49.9836250  67.9649630  77.9973080  46.7973020  70.4133550
  77.2707140  46.1778310  70.3459500  78.0582230  47.1913630  69.5431630
  81.6018180  49.0118020  67.1982960  82.1183200  48.4005380  66.6731220
  82.2515560  49.5146800  67.6893970  84.3413680  49.9026510  68.0251940
  84.6291490  49.6480810  67.1484950  84.8536900  49.3503870  68.6157510
  85.5590690  33.6416710  68.6048450  84.7762480  34.1162210  68.8845210
  85.2653620  32.7371540  68.4961630  90.1111760  34.3439810  66.6497540
  90.5519850  34.2884910  65.8019140  89.8419350  35.2597820  66.7207720
  91.9750330  33.9755050  64.6606360  91.9138730  33.0316270  64.5137380
  92.7542360  34.0835140  65.2059820  76.2803080  50.1147410  63.6230310
  76.1125120  49.4818090  64.3212200  75.4137590  50.3206810  63.2724500
  76.9031100  33.9464190  61.1262170  77.6610460  34.0593070  60.5526200
  76.4408270  34.7833390  61.0805600  83.4444910  36.0603460  64.1164480
  82.6319420  35.6860350  63.7760360  83.9486550  35.3048540  64.4185670
  87.9469890  32.7245910  65.3547550  88.5499260  33.2966120  65.8296070
  87.2062880  33.2885350  65.1321450  91.0904490  33.1267470  60.6287830
  91.2855120  34.0250920  60.8955260  90.3034360  32.8954550  61.1220780
  77.8865780  48.8080640  61.0680450  77.3613400  49.1888670  60.3642410
  77.8110360  49.4331410  61.7890160  79.2756250  34.4728240  59.6664140
  79.8049010  33.6858040  59.5372090  79.9084570  35.1519430  59.8999670
  81.4694090  34.2103380  62.7209530  80.8396830  33.5090690  62.8879660
  80.9299230  34.9707510  62.5042690  92.6431100  50.3668180  62.3894390
  92.8183290  49.6805920  61.7455310  91.9452670  50.8915230  61.9971060
  80.4858750  50.7563020  59.9429700  81.2177570  50.4722300  59.3953590
  80.7452420  50.5176300  60.8329080  79.6473540  46.8727750  59.9476030
  79.0182420  47.3412850  60.4961860  79.7621370  46.0276970  60.3822220
  87.1023260  40.9233410  46.0977230  87.0217310  40.0088020  45.8268940
  86.6887680  41.4200480  45.3916940  85.2341300  42.7012430  47.9786500
  84.4583400  42.2212870  48.2685070  85.8854230  42.0218080  47.8042660
  79.2507130  43.0132240  48.8562260  78.4192010  42.7580950  49.2558770
  79.8588110  43.0843010  49.5920180  89.2548730  47.1072620  46.7585630
  88.7930260  46.3359860  47.0872800  90.0674280  47.1338690  47.2638080
  79.2308390  47.0472330  49.0520280  79.5336430  46.1570070  48.8730500
  79.9751980  47.6042550  48.8242530  77.6599080  37.9734130  42.6404650
  76.7715780  38.3150100  42.5384530  77.9440270  37.7734450  41.7485480
  75.6232090  40.5739780  48.5244350  76.1948200  39.8061980  48.5247990
  75.6233630  40.8728540  47.6150960  85.4812040  49.3930630  46.3789620
  84.8623480  49.8488130  45.8084060  86.3363820  49.5482090  45.9779320
  84.6750290  45.3769620  47.9856660  84.6058570  44.4359560  47.8245790
  85.4370150  45.4671030  48.5579230  76.8656960  35.9824140  50.3113280
  76.6859800  35.0849890  50.5916040  76.4637040  36.5296010  50.9860230
  85.7055460  38.1840000  48.2125590  86.0820280  37.3111880  48.0999260
  85.6074970  38.5198700  47.3216030  79.8360470  36.5565630  43.6743030
  79.9427220  37.4569360  43.9811790  78.9252830  36.5083600  43.3837680
  89.4879580  35.6790440  45.1453930  90.3089200  35.1887010  45.1879410
  89.5213660  36.2688100  45.8985770  77.4843630  38.4784640  48.9195620
  78.1653740  38.7423010  49.5383020  77.1691680  37.6385510  49.2533630
  81.6768200  39.5252000  48.0068210  82.1846420  40.0232970  48.6473230
  82.2081440  38.7487200  47.8307570  93.7779130  37.6957190  51.7097560
  93.0731300  38.0838900  51.1912670  94.0437050  38.3907480  52.3118490
  79.9604300  34.1650560  52.2731630  79.9622740  34.6822950  51.4677530
  79.1308610  33.6880740  52.2501560  86.3475390  44.2769870  43.7721530
  85.7292660  44.7419320  43.2084250  86.8598640  44.9697350  44.1891040
  81.2107150  43.8045740  50.4505130  80.8776530  44.4314660  51.0926200
  81.3873830  44.3307620  49.6706800  89.7241060  37.6190820  47.9181470
  89.0196630  37.9075710  48.4984580  90.0853220  38.4290930  47.5581030
  79.6419630  35.8760520  50.2802080  79.9836440  36.7202570  49.9855950
  78.7035440  36.0244260  50.3967420  80.4226250  45.7726540  52.2654310
  81.0400250  46.4477620  51.9838760  79.5619370  46.1814520  52.1741810
  75.7158590  44.9626400  41.1461160  75.3386570  45.4513500  40.4146060
  75.9731660  45.6351680  41.7767690  91.3403840  47.2365950  50.1808950
  90.6567360  47.9065060  50.1725620  91.8798130  47.4346600  49.4153810
  92.7927980  37.0645610  48.3090680  91.8452890  37.0984590  48.4406110
  93.1177970  37.8784560  48.6940040  83.3247520  33.3642790  46.6046670
  83.6322500  32.8089680  45.8882170  82.3948220  33.4987250  46.4219660
  88.8762580  49.0810080  48.8954130  88.8889740  48.6772370  48.0276390
  88.3237800  49.8557370  48.7915560  90.1708000  45.8026300  43.9844300
  90.0604330  44.8600630  44.1093720  90.1676250  46.1641940  44.8707060
  88.2748020  43.9839920  50.2236740  88.6916810  43.7700030  49.3890200
  88.9987840  44.2412710  50.7945360  85.7128280  41.4291620  43.3406790
  84.7857560  41.3629000  43.5695260  85.8653100  42.3671750  43.2262030
  85.6997360  37.7008620  40.3373950  84.7601030  37.8622580  40.4226410
  86.0180620  38.4194300  39.7909940  92.2210120  42.3827140  50.3152980
  91.3928750  42.4520230  49.8403110  92.8160600  42.9681450  49.8468810
  89.7425570  42.9911920  43.8442040  89.1237990  42.6531470  43.1968340
  89.7250020  42.3471680  44.5521230  89.1852130  39.1696460  51.2607850
  88.7723310  39.9950170  51.5147840  88.4528080  38.5841500  51.0684210
  81.3184920  41.9556360  46.1226520  80.9141920  41.2433610  45.6272420
  81.4048040  41.6109600  47.0114560  81.7866620  45.6423920  48.2865730
  81.4894910  45.0369390  47.6073510  82.7366440  45.6801230  48.1755090
  80.0313540  38.7299570  49.9025560  80.5828130  38.8394910  49.1278810
  80.5457050  39.1037170  50.6180790  89.8752230  49.2155790  51.9488830
  89.3982790  50.0227980  51.7561440  89.1914020  48.5634120  52.1015040
  80.8785050  45.3805610  54.9373530  79.9813580  45.6045580  55.1846930
  80.9037920  45.5040550  53.9884930  87.9190270  42.2298730  40.8514790
  88.3583550  41.3921160  40.7052610  88.6318690  42.8628130  40.9378930
  79.7056270  42.2518930  53.5130900  79.5664040  43.1241730  53.8818300
  78.8237630  41.9091740  53.3678840  86.0285650  47.1694800  44.8196030
  86.4681560  47.9119130  44.4051420  85.9672540  47.4121370  45.7434990
  81.5036620  48.1940630  55.7216050  81.4752050  48.5983580  54.8544480
  81.3401590  47.2650990  55.5587650  91.5007410  33.4841540  39.1655830
  91.1880070  33.5768370  40.0654900  92.2619880  34.0622570  39.1153260
  78.0189550  40.8501340  43.6233170  77.8987150  41.5763430  43.0114440
  77.7090440  40.0804250  43.1461080  93.4551440  48.9767730  57.0180220
  93.9311160  49.4550620  57.6969300  94.0758600  48.9085220  56.2925720
  75.6574920  44.0216480  49.4301810  75.7355340  44.1565250  48.4857530
  76.2716600  43.3132370  49.6229930  76.9022550  45.7216670  45.8407990
  76.4950630  45.8631260  44.9861590  77.7935560  45.4376830  45.6379200
  92.8584690  46.1680580  54.1780230  92.9847750  45.9292460  53.2597410
  92.9006070  45.3365120  54.6502310  86.7201430  49.8708580  52.7475040
  87.2346100  49.7816590  53.5497470  85.8770510  50.2168280  53.0402950
  88.6955830  50.1563920  42.1759040  88.5356970  49.8666860  43.0740870
  88.5302540  49.3804050  41.6404270  81.1744210  49.9362450  43.9530660
  80.9986690  49.0197990  43.7398460  80.3199950  50.2949740  44.1928460
  88.3981960  47.6651480  40.7357040  87.7047120  47.6628770  40.0759320
  89.1404820  47.2410800  40.3051210  87.9631890  49.2914190  44.8105530
  88.4188840  48.5103570  45.1244150  88.3024410  50.0021010  45.3546710
  92.7108700  38.2213040  55.1429970  92.0952970  38.7292710  54.6145430
  92.3905120  37.3211370  55.0855910  75.7134440  45.0630650  51.9696270
  75.8765480  44.5936010  51.1515640  76.1786890  44.5554210  52.6345110
  80.4853210  34.1936410  47.0056840  80.0421360  34.9745950  46.6741360
  81.0438200  34.5166300  47.7127780  84.7723020  37.0604930  52.6092160
  84.3102390  37.2687950  53.4212100  84.3701130  36.2464280  52.3062830
  89.7727530  38.2813880  53.7388820  88.9221120  37.9819630  54.0597890
  89.6129320  38.5255890  52.8272640  86.8677240  39.7815630  55.8387610
  87.1930650  38.9479380  55.4989840  87.6557570  40.3044150  55.9865940
  83.6012030  33.8147110  41.8862670  82.9766210  33.8106980  42.6115980
  83.5142150  32.9478070  41.4898640  82.5229110  34.7383740  48.8646440
  82.8201440  35.6446570  48.7838460  83.0714670  34.2502520  48.2506010
  80.2767430  39.3169980  44.7338090  80.0508350  39.1007150  45.6384710
  79.4959960  39.7498440  44.3884060  87.5065190  39.3233350  43.3328740
  86.9074080  40.0469150  43.1492360  88.0544800  39.2610130  42.5505190
  82.7166640  40.2155560  55.3998360  82.6210240  39.2750290  55.2498760
  83.5598620  40.4370630  55.0046430  86.1130060  37.9596890  45.3632020
  86.5059630  38.2769090  44.5500710  86.4746910  37.0808770  45.4776540
  77.8477180  36.6269230  53.5532140  77.4540570  37.4744440  53.7604920
  77.1595580  35.9895600  53.7440780  84.4222230  36.7104200  56.6228880
  83.7320550  36.5176400  57.2574970  85.1654530  36.9938840  57.1553180
  75.1494230  34.5497690  47.5862220  74.8607280  35.1200550  48.2987200
  75.8939990  34.0702140  47.9493450  86.6985200  40.5502640  49.4582800
  85.9666320  41.0589450  49.8072900  86.3009540  39.7332620  49.1571580
  83.1362590  37.2256840  47.8635290  83.1398650  36.7846790  47.0139830
  84.0313710  37.5474170  47.9707110  78.9864970  37.1083330  46.8229500
  78.6465020  37.5858560  47.5796550  78.2242290  36.6548450  46.4630600
  83.1982740  38.2268920  40.8542050  83.3195560  38.1855400  41.8027870
  82.8131250  39.0893070  40.6988780  87.1611110  36.0036320  48.8705740
  87.1783850  36.4544970  49.7147590  86.9126690  35.1041960  49.0839180
  82.2104240  40.5370060  40.2525350  81.6421140  40.0888310  39.6261260
  82.9193240  40.8962840  39.7190500  90.5881860  33.4168500  54.7092120
  90.9127630  32.6858160  55.2350100  90.6238370  33.0982140  53.8073110
  77.2873420  44.4382080  54.1292080  76.9028210  43.7975750  54.7275040
  77.5985610  45.1418200  54.6986810  83.4370560  41.2858620  49.6100700
  83.8040690  40.8117190  50.3562040  83.2475620  42.1600190  49.9509040
  76.3011050  36.0302310  45.7394170  76.0157970  35.6657980  46.5772790
  76.2389910  35.2982770  45.1257310  81.2269930  40.3267260  51.9284910
  80.9227000  41.2059240  52.1535270  82.1816390  40.3867050  51.9642350
  79.7551720  44.5328250  42.5251760  78.9813980  43.9925870  42.3650480
  80.4846350  44.0134860  42.1869520  90.5139700  43.5293610  48.3178150
  91.2338820  44.0248900  47.9274260  90.3121520  42.8511500  47.6732020
  85.9749640  34.9231570  42.4607540  85.1614250  34.4244740  42.3852850
  85.7811590  35.7629820  42.0443890  85.8958500  43.6002670  54.2047150
  85.8295810  42.6798340  53.9504740  85.2663640  43.6978110  54.9191790
  88.6898030  39.2951220  40.7569700  89.5777650  39.6068450  40.5821040
  88.6603120  38.4223470  40.3650280  79.7989120  44.2008630  46.1630570
  80.3167790  43.3976890  46.1087460  79.3473140  44.1387770  47.0047400
  84.6858620  45.4674910  41.4357870  85.0274320  46.2117140  40.9401190
  83.8571330  45.7806030  41.7982700  77.2833660  41.1670000  53.0756270
  76.9248600  41.8323850  53.6629610  76.9888220  40.3353550  53.4468890
  80.4846780  41.6254240  55.9595820  80.1846920  41.7711420  55.0623640
  81.2558020  41.0659530  55.8669210  85.8275230  46.4223240  53.9550950
  85.8419770  45.4904200  53.7369860  85.1200330  46.5083000  54.5940720
  90.9612300  40.6063060  40.2249560  90.8776020  41.0377280  39.3746000
  91.6806490  41.0661410  40.6576380  92.0386440  43.0630580  53.3019530
  91.3134630  43.6559360  53.1048920  92.5661900  43.0554120  52.5032900
  91.9899550  47.4605320  42.9531690  91.3475710  46.8060940  43.2275410
  91.6030210  47.8660410  42.1772360  87.5686030  44.7890750  46.8003380
  87.9209850  44.1918880  46.1404750  86.6848360  44.4634980  46.9711630
  83.6549310  45.5488440  44.2073790  84.3420440  46.0957650  44.5881380
  82.8681730  46.0929170  44.2423400  75.7941710  41.1661260  39.6990870
  76.6636560  41.4486060  39.9826790  75.3032030  41.9797130  39.5839680
  82.9576520  42.5534470  43.8199150  83.4139300  43.3639720  44.0459340
  82.6064730  42.2357610  44.6517640  85.2609130  48.0640810  51.0491450
  85.9051350  48.2700190  51.7264870  85.6238570  47.3029210  50.5962300
  78.8588300  32.8972120  44.2921670  78.7302930  32.8890020  45.2406590
  78.0350320  33.2355210  43.9412680  86.5341210  46.0673160  49.7668900
  87.1763440  45.3666320  49.8801070  87.0590560  46.8471600  49.5865790
  90.3796930  46.3521780  39.4908040  90.1534510  45.6352220  40.0832680
  89.9893130  46.1034220  38.6529790  88.3078830  46.8668060  52.9704960
  88.6435070  47.4534750  53.6482880  87.3879170  46.7360770  53.2002750
  76.1612960  50.3788640  40.2652500  76.5210600  50.9777980  39.6109770
  76.0205300  50.9248530  41.0387530  75.8582230  34.6563240  53.7528370
  75.1440750  34.8560160  54.3580980  76.2777270  33.8802810  54.1243170
  89.9613180  44.2693720  41.1522200  89.6734880  44.7306410  41.9400080
  90.7565350  43.8091490  41.4206420  76.1454820  48.6443500  54.7394900
  76.2545940  47.7038240  54.5990290  75.4935380  48.9098250  54.0908630
  84.1367410  46.9159390  56.1393020  83.8164280  46.1968630  56.6838710
  83.4625770  47.5914460  56.2129080  82.1781580  47.7619840  41.0826170
  82.1691680  48.4949530  40.4670680  81.2579940  47.5151420  41.1753130
  77.7788220  42.9834730  41.8272930  77.1716170  43.7233630  41.8368230
  78.2537570  43.0734090  41.0011130  87.3521010  37.1485550  51.5029820
  87.7201830  36.3280760  51.8309390  86.4919210  37.2087440  51.9185470
  90.7183040  36.1042490  42.3117380  90.0896200  36.2088160  41.5975610
  90.2234960  36.3239270  43.1011260  85.1641180  47.8248080  39.7451360
  85.2653160  47.6212070  38.8153340  84.2642920  47.5706360  39.9499140
  82.6867070  38.3828440  43.7275260  81.9783220  38.8514780  44.1688870
  82.9711550  37.7250450  44.3620450  84.3123000  39.8025140  51.7267790
  84.8108250  40.2770960  52.3919640  84.4545950  38.8788660  51.9337820
  86.7182500  35.1079100  45.1671050  86.5950280  35.1265230  44.2180560
  87.6667060  35.1558040  45.2869450  83.8059290  50.3434400  44.4399030
  84.0600790  50.3055790  43.5178400  82.8571770  50.2167730  44.4327280
  80.8902090  36.6913520  41.1025970  81.7392620  37.1283670  41.0366160
  80.5233360  37.0033780  41.9298030  91.5189860  36.0193100  52.5696180
  91.0163460  36.7598500  52.9089990  92.3346520  36.4077100  52.2532970
  89.8111870  41.2626280  46.0157540  88.8702010  41.2776510  46.1905230
  90.1255940  40.4762240  46.4617840  79.7893510  42.9445880  39.5761500
  80.5556780  42.8327240  40.1386930  79.8668200  42.2483850  38.9238270
  78.4840270  40.3770950  40.2594390  78.5643860  39.4298460  40.3711790
  79.3760020  40.7077830  40.3655050  91.8137450  48.4335130  47.6911800
  91.9384870  49.2566300  48.1635610  92.6803010  48.2225860  47.3435950
  79.2854980  50.5266340  47.3628930  80.0217460  49.9781800  47.6337500
  79.6695900  51.3922350  47.2234920  76.1700460  46.5939910  43.2370440
  75.2440240  46.8361050  43.2275850  76.6356890  47.4214170  43.1155190
  78.2913260  49.7112410  56.5514510  79.0925990  50.0324460  56.9649910
  77.7765080  49.3507990  57.2734420  82.3957290  49.6996650  39.1854500
  83.1885900  49.9885480  38.7336290  81.8761640  49.2688820  38.5066980
  87.1277890  45.8192280  56.4989920  86.5216050  45.8423880  55.7585670
  86.8232000  45.0875320  57.0357170  88.5578260  49.5472570  55.1099330
  89.5100010  49.4630590  55.0599570  88.4106480  50.2114280  55.7833120
  91.4487460  48.9266780  40.6091240  91.1628970  48.5131920  39.7945420
  91.2507010  49.8554490  40.4891760  76.0111070  42.1985870  55.4950560
  76.5150090  41.6193150  56.0666790  75.2718490  42.4826100  56.0326930
  82.9134690  44.9200060  39.0496850  82.8085330  44.3052410  39.7758230
  82.7458910  44.3965950  38.2659860  83.0649010  43.6056860  55.0286080
  82.2994680  44.1741860  54.9440750  83.2464970  43.3133070  54.1354310
  86.1537420  43.9820090  39.6538840  85.6047520  44.4289390  40.2981580
  86.7756680  43.4769340  40.1776510  90.2072360  45.3362190  55.5861100
  90.9481830  45.6737950  55.0828560  89.4445040  45.5054250  55.0330870
  78.0434150  40.3415460  56.3900630  78.0839490  40.0429330  57.2985860
  78.8979650  40.7423070  56.2308150  81.8212540  42.9411010  41.5504140
  82.2428960  42.7750880  42.3935530  81.9463380  42.1311240  41.0559280
  79.9839960  38.9207560  54.3575120  79.4536420  38.4298510  53.7298460
  80.6528030  39.3491760  53.8233050  84.3340180  41.9648620  38.7981240
  84.8545840  41.2497640  38.4322390  84.9808580  42.6034490  39.0981750
  88.8818020  43.3877020  54.1216310  89.2959040  43.5422100  54.9706730
  87.9469020  43.5132240  54.2842090  89.3540190  40.7273180  56.1255460
  89.9360960  39.9725500  56.0375940  89.5301960  41.2580620  55.3486940
  80.4712260  35.8869930  54.4372410  80.3769130  35.2690680  53.7123280
  79.8909650  36.6136220  54.2102320  83.2373700  34.4443170  51.4699800
  82.7891000  34.4667430  50.6245350  82.6038900  34.0462190  52.0670100
  83.6433250  43.3397500  52.0912240  84.0621360  44.1830230  51.9188480
  82.7241880  43.4769540  51.8619020  85.9797150  41.0713680  53.4750080
  86.0993360  40.4754820  54.2144920  86.8391150  41.1083370  53.0551380
  88.3185050  41.6250870  52.0512590  87.7920270  42.1493490  51.4477730
  88.6616390  42.2578260  52.6822320  80.7171440  39.0144240  38.4962300
  80.5160500  38.1511600  38.8575640  80.5463490  38.9277600  37.5583900
  81.4940670  49.6450510  53.2069970  80.9561760  50.3696570  52.8878670
  81.7474630  49.1680850  52.4167310  82.7465920  37.6135030  54.7325900
  83.3365610  37.3050880  55.4203720  81.9286160  37.1414780  54.8885800
  87.5659350  37.2300840  54.9658920  86.8774870  36.5682380  54.9008910
  88.2865370  36.7839110  55.4107380  88.1959750  33.8252470  41.0249180
  88.4762040  32.9820370  41.3808600  87.4225480  34.0575580  41.5387930
  84.3502880  50.8801720  53.4656620  84.2761580  51.7836860  53.7728990
  83.4481720  50.5613620  53.4378690  82.7339170  35.0579480  39.4696380
  82.3861170  34.3803470  38.8898830  82.9351940  34.5968990  40.2839770
  84.8988210  50.0460230  41.0882980  85.7939000  50.3845200  41.1101740
  84.9305840  49.3239640  40.4607260  78.5384370  45.4187280  39.3169980
  78.9759240  45.9616950  39.9727560  79.0232100  44.5934230  39.3266320
  75.7530170  48.2076310  46.7690240  76.0833180  47.3397370  46.5368880
  76.1821170  48.4134830  47.5995200  80.3492090  46.5385320  44.4292210
  80.0487630  46.4150290  45.3296120  80.2429580  45.6793910  44.0207940
  76.2420380  49.0746900  49.5071870  75.8051370  49.2547700  50.3396020
  76.8098060  49.8321520  49.3653590  91.8782560  48.5763900  53.7949180
  91.2784550  48.6356460  53.0513100  92.0076460  47.6368880  53.9246030
  93.1184010  46.3181720  39.1318890  92.2876970  46.3858370  39.6026120
  93.2955840  47.2085840  38.8285750  92.5740470  43.0629200  41.6353090
  93.3359380  43.6325850  41.7412780  92.5894840  42.4956400  42.4061400
  76.0744810  41.5867130  45.8660750  75.4193650  41.3178770  45.2220450
  76.9122760  41.4771610  45.4162730  93.5800440  43.9179300  46.4795020
  93.9509270  43.1346620  46.0730990  94.2202370  44.6068400  46.3012320
  90.5634200  45.3015880  51.8925340  89.7494040  45.7313040  52.1551130
  90.9708400  45.9134290  51.2794390  92.6259640  43.3563570  38.7925610
  92.9008480  44.2642450  38.6644830  92.4370380  43.2926100  39.7287600
  89.0235250  36.3808420  40.0879240  89.4420130  36.1939400  39.2475900
  88.7171310  35.5287470  40.3982170  92.5224980  41.2932560  43.7855040
  92.1468580  40.5260490  43.3536330  91.7928100  41.6755260  44.2729970
  77.1120740  41.9719700  50.4064090  77.4793780  41.8847100  51.2860110
  76.5431560  41.2086250  50.3070950  91.9124600  40.4404080  53.4194560
  91.6810690  40.2116830  52.5192510  92.1729150  41.3603630  53.3739450
  76.6636740  38.8828790  54.3122510  75.7692790  38.8495550  54.6516220
  77.2034290  39.0815580  55.0773760  90.3512670  35.6660510  56.1974260
  91.2282850  35.6743910  56.5808260  90.3633510  34.9291350  55.5866610
  91.7975940  39.5190050  47.0862280  92.3213420  39.0252700  46.4552450
  92.3835360  39.6540410  47.8309850  91.9765660  39.6029920  50.6081830
  91.0268370  39.5693460  50.7226820  92.1578670  40.5130030  50.3731600
  91.2875910  38.7763400  43.0254690  91.7835030  38.5434270  43.8103570
  91.0891980  37.9375240  42.6092330  77.1676450  33.1577120  48.6605730
  77.8152640  32.6074500  48.2200890  77.5878290  33.4120270  49.4821540
  92.7163070  37.4124350  45.5592370  92.6062350  37.2580390  46.4974640
  93.4770660  36.8845290  45.3167780  91.0628790  33.3518480  52.0175370
  91.7001010  33.9652620  52.3834560  91.2103680  33.3879140  51.0724600
  93.6053340  35.2432270  38.7998510  94.5302650  35.1113450  38.5916800
  93.5829130  35.3225090  39.7534960  93.6791830  36.0142930  41.4255220
  92.8843330  35.9488050  41.9548130  93.8835110  36.9493570  41.4140570
  90.6210250  50.0534480  45.4193610  91.2169320  49.7319050  44.7428030
  90.8788400  49.5806300  46.2106880  76.9208450  33.3132790  51.4031050
  76.5723270  33.7696610  52.1689230  76.5896150  32.4189920  51.4853480
  78.5272820  46.4852390  55.5684240  78.4842450  46.1145300  56.4498700
  78.6583830  47.4229960  55.7086060  82.2278850  48.0411980  51.1693960
  81.9870210  48.3086540  50.2824480  83.1681490  48.2117710  51.2244820
  84.4333270  34.5044670  54.9250470  84.3722160  35.0966500  55.6745880
  85.3733650  34.3970630  54.7800730  87.0707830  34.1614730  54.5642760
  87.6848240  34.4794020  53.9023840  87.6157390  33.6763320  55.1838620
  93.4883010  50.0606360  51.9704600  92.9941290  50.4575230  51.2531730
  92.8796300  49.4355570  52.3641880  77.5929090  32.8408990  54.6781820
  78.1412080  32.6597040  53.9147930  77.6584400  32.0503100  55.2138130
  78.3660850  49.4314640  52.6882020  77.7721170  49.2999340  53.4272060
  78.3584690  48.5952780  52.2224120  87.8115870  32.7246870  50.8912050
  86.9375710  33.0581980  50.6884980  87.7026620  32.2520050  51.7163920
  88.7187850  34.9317740  52.2753770  88.3901210  34.1169500  51.8955500
  89.6670150  34.8887550  52.1519460  91.1722460  50.7029780  49.2491340
  90.7125430  51.4545590  48.8749360  90.5434920  49.9836250  49.1906140
  77.9973080  46.7973020  51.6390060  77.2707140  46.1778310  51.5716010
  78.0582230  47.1913630  50.7688140  81.6018180  49.0118020  48.4239470
  82.1183200  48.4005380  47.8987730  82.2515560  49.5146800  48.9150480
  84.3413680  49.9026510  49.2508450  84.6291490  49.6480810  48.3741460
  84.8536900  49.3503870  49.8414020  85.5590690  33.6416710  49.8304960
  84.7762480  34.1162210  50.1101720  85.2653620  32.7371540  49.7218140
  90.1111760  34.3439810  47.8754050  90.5519850  34.2884910  47.0275650
  89.8419350  35.2597820  47.9464230  91.9750330  33.9755050  45.8862870
  91.9138730  33.0316270  45.7393890  92.7542360  34.0835140  46.4316330
  76.2803080  50.1147410  44.8486820  76.1125120  49.4818090  45.5468710
  75.4137590  50.3206810  44.4981010  83.4444910  36.0603460  45.3420990
  82.6319420  35.6860350  45.0016870  83.9486550  35.3048540  45.6442180
  87.9469890  32.7245910  46.5804060  88.5499260  33.2966120  47.0552580
  87.2062880  33.2885350  46.3577960  91.0904490  33.1267470  41.8544340
  91.2855120  34.0250920  42.1211770  90.3034360  32.8954550  42.3477290
  77.8865780  48.8080640  42.2936960  77.3613400  49.1888670  41.5898920
  77.8110360  49.4331410  43.0146670  81.4694090  34.2103380  43.9466040
  80.8396830  33.5090690  44.1136170  80.9299230  34.9707510  43.7299200
  84.4086040  50.8242610  56.6176650  85.3353350  50.5886880  56.6612610
  84.3936470  51.6514610  56.1362680  92.6431100  50.3668180  43.6150900
  92.8183290  49.6805920  42.9711820  91.9452670  50.8915230  43.2227570
  81.5949650  33.4887360  56.3818530  81.3133920  33.9920960  55.6179350
  81.9769350  32.6909110  56.0160660  80.4858750  50.7563020  41.1686210
  81.2177570  50.4722300  40.6210100  80.7452420  50.5176300  42.0585590
  79.6473540  46.8727750  41.1732540  79.0182420  47.3412850  41.7218370
  79.7621370  46.0276970  41.6078730  88.1965110  32.9040940  56.9599000
  88.0830560  33.2235550  57.8550520  89.0134850  33.3053450  56.6636280
  90.9763600  50.0512470  56.4417690  91.7688920  49.5561700  56.2343650
  91.2696750  50.7302610  57.0493300  87.1023260  40.9233410  27.3233740
  87.0217310  40.0088020  27.0525450  86.6887680  41.4200480  26.6173450
  85.2341300  42.7012430  29.2043010  84.4583400  42.2212870  29.4941580
  85.8854230  42.0218080  29.0299170  79.2507130  43.0132240  30.0818770
  78.4192010  42.7580950  30.4815280  79.8588110  43.0843010  30.8176690
  89.2548730  47.1072620  27.9842140  88.7930260  46.3359860  28.3129310
  90.0674280  47.1338690  28.4894590  79.2308390  47.0472330  30.2776790
  79.5336430  46.1570070  30.0987010  79.9751980  47.6042550  30.0499040
  85.4812040  49.3930630  27.6046130  84.8623480  49.8488130  27.0340570
  86.3363820  49.5482090  27.2035830  84.6750290  45.3769620  29.2113170
  84.6058570  44.4359560  29.0502300  85.4370150  45.4671030  29.7835740
  85.7055460  38.1840000  29.4382100  86.0820280  37.3111880  29.3255770
  85.6074970  38.5198700  28.5472540  93.7779130  37.6957190  32.9354070
  93.0731300  38.0838900  32.4169180  94.0437050  38.3907480  33.5375000
  86.3475390  44.2769870  24.9978040  85.7292660  44.7419320  24.4340760
  86.8598640  44.9697350  25.4147550  81.2107150  43.8045740  31.6761640
  80.8776530  44.4314660  32.3182710  81.3873830  44.3307620  30.8963310
  89.7241060  37.6190820  29.1437980  89.0196630  37.9075710  29.7241090
  90.0853220  38.4290930  28.7837540  80.4226250  45.7726540  33.4910820
  81.0400250  46.4477620  33.2095270  79.5619370  46.1814520  33.3998320
  75.7158590  44.9626400  22.3717670  75.3386570  45.4513500  21.6402570
  75.9731660  45.6351680  23.0024200  91.3403840  47.2365950  31.4065460
  90.6567360  47.9065060  31.3982130  91.8798130  47.4346600  30.6410320
  92.7927980  37.0645610  29.5347190  91.8452890  37.0984590  29.6662620
  93.1177970  37.8784560  29.9196550  88.8762580  49.0810080  30.1210640
  88.8889740  48.6772370  29.2532900  88.3237800  49.8557370  30.0172070
  90.1708000  45.8026300  25.2100810  90.0604330  44.8600630  25.3350230
  90.1676250  46.1641940  26.0963570  88.2748020  43.9839920  31.4493250
  88.6916810  43.7700030  30.6146710  88.9987840  44.2412710  32.0201870
  85.7128280  41.4291620  24.5663300  84.7857560  41.3629000  24.7951770
  85.8653100  42.3671750  24.4518540  85.6997360  37.7008620  21.5630460
  84.7601030  37.8622580  21.6482920  86.0180620  38.4194300  21.0166450
  92.2210120  42.3827140  31.5409490  91.3928750  42.4520230  31.0659620
  92.8160600  42.9681450  31.0725320  89.7425570  42.9911920  25.0698550
  89.1237990  42.6531470  24.4224850  89.7250020  42.3471680  25.7777740
  89.1852130  39.1696460  32.4864360  88.7723310  39.9950170  32.7404350
  88.4528080  38.5841500  32.2940720  81.7866620  45.6423920  29.5122240
  81.4894910  45.0369390  28.8330020  82.7366440  45.6801230  29.4011600
  89.8752230  49.2155790  33.1745340  89.3982790  50.0227980  32.9817950
  89.1914020  48.5634120  33.3271550  80.8785050  45.3805610  36.1630040
  79.9813580  45.6045580  36.4103440  80.9037920  45.5040550  35.2141440
  87.9190270  42.2298730  22.0771300  88.3583550  41.3921160  21.9309120
  88.6318690  42.8628130  22.1635440  79.7056270  42.2518930  34.7387410
  79.5664040  43.1241730  35.1074810  78.8237630  41.9091740  34.5935350
  86.0285650  47.1694800  26.0452540  86.4681560  47.9119130  25.6307930
  85.9672540  47.4121370  26.9691500  81.5036620  48.1940630  36.9472560
  81.4752050  48.5983580  36.0800990  81.3401590  47.2650990  36.7844160
  78.0189550  40.8501340  24.8489680  77.8987150  41.5763430  24.2370950
  77.7090440  40.0804250  24.3717590  93.4551440  48.9767730  38.2436730
  93.9311160  49.4550620  38.9225810  94.0758600  48.9085220  37.5182230
  75.6574920  44.0216480  30.6558320  75.7355340  44.1565250  29.7114040
  76.2716600  43.3132370  30.8486440  76.9022550  45.7216670  27.0664500
  76.4950630  45.8631260  26.2118100  77.7935560  45.4376830  26.8635710
  92.8584690  46.1680580  35.4036740  92.9847750  45.9292460  34.4853920
  92.9006070  45.3365120  35.8758820  86.7201430  49.8708580  33.9731550
  87.2346100  49.7816590  34.7753980  85.8770510  50.2168280  34.2659460
  88.6955830  50.1563920  23.4015550  88.5356970  49.8666860  24.2997380
  88.5302540  49.3804050  22.8660780  81.1744210  49.9362450  25.1787170
  80.9986690  49.0197990  24.9654970  80.3199950  50.2949740  25.4184970
  88.3981960  47.6651480  21.9613550  87.7047120  47.6628770  21.3015830
  89.1404820  47.2410800  21.5307720  87.9631890  49.2914190  26.0362040
  88.4188840  48.5103570  26.3500660  88.3024410  50.0021010  26.5803220
  92.7108700  38.2213040  36.3686480  92.0952970  38.7292710  35.8401940
  92.3905120  37.3211370  36.3112420  75.7134440  45.0630650  33.1952780
  75.8765480  44.5936010  32.3772150  76.1786890  44.5554210  33.8601620
  84.7723020  37.0604930  33.8348670  84.3102390  37.2687950  34.6468610
  84.3701130  36.2464280  33.5319340  89.7727530  38.2813880  34.9645330
  88.9221120  37.9819630  35.2854400  89.6129320  38.5255890  34.0529150
  86.8677240  39.7815630  37.0644120  87.1930650  38.9479380  36.7246350
  87.6557570  40.3044150  37.2122450  82.5229110  34.7383740  30.0902950
  82.8201440  35.6446570  30.0094970  83.0714670  34.2502520  29.4762520
  87.5065190  39.3233350  24.5585250  86.9074080  40.0469150  24.3748870
  88.0544800  39.2610130  23.7761700  82.7166640  40.2155560  36.6254870
  82.6210240  39.2750290  36.4755270  83.5598620  40.4370630  36.2302940
  84.4222230  36.7104200  37.8485390  83.7320550  36.5176400  38.4831480
  85.1654530  36.9938840  38.3809690  75.3364460  38.4917810  20.0221450
  75.2539130  39.4348570  20.1636440  74.9847520  38.3492720  19.1433800
  86.6985200  40.5502640  30.6839310  85.9666320  41.0589450  31.0329410
  86.3009540  39.7332620  30.3828090  87.1611110  36.0036320  30.0962250
  87.1783850  36.4544970  30.9404100  86.9126690  35.1041960  30.3095690
  82.2104240  40.5370060  21.4781860  81.6421140  40.0888310  20.8517770
  82.9193240  40.8962840  20.9447010  90.5881860  33.4168500  35.9348630
  90.9127630  32.6858160  36.4606610  90.6238370  33.0982140  35.0329620
  77.2873420  44.4382080  35.3548590  76.9028210  43.7975750  35.9531550
  77.5985610  45.1418200  35.9243320  83.4370560  41.2858620  30.8357210
  83.8040690  40.8117190  31.5818550  83.2475620  42.1600190  31.1765550
  81.2269930  40.3267260  33.1541420  80.9227000  41.2059240  33.3791780
  82.1816390  40.3867050  33.1898860  79.7551720  44.5328250  23.7508270
  78.9813980  43.9925870  23.5906990  80.4846350  44.0134860  23.4126030
  90.5139700  43.5293610  29.5434660  91.2338820  44.0248900  29.1530770
  90.3121520  42.8511500  28.8988530  85.8958500  43.6002670  35.4303660
  85.8295810  42.6798340  35.1761250  85.2663640  43.6978110  36.1448300
  88.6898030  39.2951220  21.9826210  89.5777650  39.6068450  21.8077550
  88.6603120  38.4223470  21.5906790  79.7989120  44.2008630  27.3887080
  80.3167790  43.3976890  27.3343970  79.3473140  44.1387770  28.2303910
  84.6858620  45.4674910  22.6614380  85.0274320  46.2117140  22.1657700
  83.8571330  45.7806030  23.0239210  77.2833660  41.1670000  34.3012780
  76.9248600  41.8323850  34.8886120  76.9888220  40.3353550  34.6725400
  80.4846780  41.6254240  37.1852330  80.1846920  41.7711420  36.2880150
  81.2558020  41.0659530  37.0925720  85.8275230  46.4223240  35.1807460
  85.8419770  45.4904200  34.9626370  85.1200330  46.5083000  35.8197230
  90.9612300  40.6063060  21.4506070  90.8776020  41.0377280  20.6002510
  91.6806490  41.0661410  21.8832890  92.0386440  43.0630580  34.5276040
  91.3134630  43.6559360  34.3305430  92.5661900  43.0554120  33.7289410
  91.9899550  47.4605320  24.1788200  91.3475710  46.8060940  24.4531920
  91.6030210  47.8660410  23.4028870  87.5686030  44.7890750  28.0259890
  87.9209850  44.1918880  27.3661260  86.6848360  44.4634980  28.1968140
  83.6549310  45.5488440  25.4330300  84.3420440  46.0957650  25.8137890
  82.8681730  46.0929170  25.4679910  75.7941710  41.1661260  20.9247380
  76.6636560  41.4486060  21.2083300  75.3032030  41.9797130  20.8096190
  82.9576520  42.5534470  25.0455660  83.4139300  43.3639720  25.2715850
  82.6064730  42.2357610  25.8774150  85.2609130  48.0640810  32.2747960
  85.9051350  48.2700190  32.9521380  85.6238570  47.3029210  31.8218810
  86.5341210  46.0673160  30.9925410  87.1763440  45.3666320  31.1057580
  87.0590560  46.8471600  30.8122300  90.3796930  46.3521780  20.7164550
  90.1534510  45.6352220  21.3089190  89.9893130  46.1034220  19.8786300
  88.3078830  46.8668060  34.1961470  88.6435070  47.4534750  34.8739390
  87.3879170  46.7360770  34.4259260  76.1612960  50.3788640  21.4909010
  76.5210600  50.9777980  20.8366280  76.0205300  50.9248530  22.2644040
  89.9613180  44.2693720  22.3778710  89.6734880  44.7306410  23.1656590
  90.7565350  43.8091490  22.6462930  76.1454820  48.6443500  35.9651410
  76.2545940  47.7038240  35.8246800  75.4935380  48.9098250  35.3165140
  84.1367410  46.9159390  37.3649530  83.8164280  46.1968630  37.9095220
  83.4625770  47.5914460  37.4385590  82.1781580  47.7619840  22.3082680
  82.1691680  48.4949530  21.6927190  81.2579940  47.5151420  22.4009640
  77.7788220  42.9834730  23.0529440  77.1716170  43.7233630  23.0624740
  78.2537570  43.0734090  22.2267640  87.3521010  37.1485550  32.7286330
  87.7201830  36.3280760  33.0565900  86.4919210  37.2087440  33.1441980
  85.1641180  47.8248080  20.9707870  85.2653160  47.6212070  20.0409850
  84.2642920  47.5706360  21.1755650  84.3123000  39.8025140  32.9524300
  84.8108250  40.2770960  33.6176150  84.4545950  38.8788660  33.1594330
  83.8059290  50.3434400  25.6655540  84.0600790  50.3055790  24.7434910
  82.8571770  50.2167730  25.6583790  91.5189860  36.0193100  33.7952690
  91.0163460  36.7598500  34.1346500  92.3346520  36.4077100  33.4789480
  89.8111870  41.2626280  27.2414050  88.8702010  41.2776510  27.4161740
  90.1255940  40.4762240  27.6874350  79.7893510  42.9445880  20.8018010
  80.5556780  42.8327240  21.3643440  79.8668200  42.2483850  20.1494780
  78.4840270  40.3770950  21.4850900  78.5643860  39.4298460  21.5968300
  79.3760020  40.7077830  21.5911560  91.8137450  48.4335130  28.9168310
  91.9384870  49.2566300  29.3892120  92.6803010  48.2225860  28.5692460
  79.2854980  50.5266340  28.5885440  80.0217460  49.9781800  28.8594010
  79.6695900  51.3922350  28.4491430  76.1700460  46.5939910  24.4626950
  75.2440240  46.8361050  24.4532360  76.6356890  47.4214170  24.3411700
  78.2913260  49.7112410  37.7771020  79.0925990  50.0324460  38.1906420
  77.7765080  49.3507990  38.4990930  82.3957290  49.6996650  20.4111010
  83.1885900  49.9885480  19.9592800  81.8761640  49.2688820  19.7323490
  87.1277890  45.8192280  37.7246430  86.5216050  45.8423880  36.9842180
  86.8232000  45.0875320  38.2613680  88.5578260  49.5472570  36.3355840
  89.5100010  49.4630590  36.2856080  88.4106480  50.2114280  37.0089630
  91.4487460  48.9266780  21.8347750  91.1628970  48.5131920  21.0201930
  91.2507010  49.8554490  21.7148270  76.0111070  42.1985870  36.7207070
  76.5150090  41.6193150  37.2923300  75.2718490  42.4826100  37.2583440
  82.9134690  44.9200060  20.2753360  82.8085330  44.3052410  21.0014740
  82.7458910  44.3965950  19.4916370  83.0649010  43.6056860  36.2542590
  82.2994680  44.1741860  36.1697260  83.2464970  43.3133070  35.3610820
  86.1537420  43.9820090  20.8795350  85.6047520  44.4289390  21.5238090
  86.7756680  43.4769340  21.4033020  90.2072360  45.3362190  36.8117610
  90.9481830  45.6737950  36.3085070  89.4445040  45.5054250  36.2587380
  78.0434150  40.3415460  37.6157140  78.0839490  40.0429330  38.5242370
  78.8979650  40.7423070  37.4564660  81.8212540  42.9411010  22.7760650
  82.2428960  42.7750880  23.6192040  81.9463380  42.1311240  22.2815790
  79.9839960  38.9207560  35.5831630  79.4536420  38.4298510  34.9554970
  80.6528030  39.3491760  35.0489560  84.3340180  41.9648620  20.0237750
  84.8545840  41.2497640  19.6578900  84.9808580  42.6034490  20.3238260
  88.8818020  43.3877020  35.3472820  89.2959040  43.5422100  36.1963240
  87.9469020  43.5132240  35.5098600  89.3540190  40.7273180  37.3511970
  89.9360960  39.9725500  37.2632450  89.5301960  41.2580620  36.5743450
  83.2373700  34.4443170  32.6956310  82.7891000  34.4667430  31.8501860
  82.6038900  34.0462190  33.2926610  83.6433250  43.3397500  33.3168750
  84.0621360  44.1830230  33.1444990  82.7241880  43.4769540  33.0875530
  85.9797150  41.0713680  34.7006590  86.0993360  40.4754820  35.4401430
  86.8391150  41.1083370  34.2807890  88.3185050  41.6250870  33.2769100
  87.7920270  42.1493490  32.6734240  88.6616390  42.2578260  33.9078830
  80.7171440  39.0144240  19.7218810  80.5160500  38.1511600  20.0832150
  80.5463490  38.9277600  18.7840410  81.4940670  49.6450510  34.4326480
  80.9561760  50.3696570  34.1135180  81.7474630  49.1680850  33.6423820
  82.7465920  37.6135030  35.9582410  83.3365610  37.3050880  36.6460230
  81.9286160  37.1414780  36.1142310  87.5659350  37.2300840  36.1915430
  86.8774870  36.5682380  36.1265420  88.2865370  36.7839110  36.6363890
  79.5154240  36.1144860  19.7096690  79.8180140  36.1212290  18.8015840
  80.2548830  35.7642720  20.2064350  84.3502880  50.8801720  34.6913130
  84.2761580  51.7836860  34.9985500  83.4481720  50.5613620  34.6635200
  84.8988210  50.0460230  22.3139490  85.7939000  50.3845200  22.3358250
  84.9305840  49.3239640  21.6863770  78.5384370  45.4187280  20.5426490
  78.9759240  45.9616950  21.1984070  79.0232100  44.5934230  20.5522830
  75.7530170  48.2076310  27.9946750  76.0833180  47.3397370  27.7625390
  76.1821170  48.4134830  28.8251710  80.3492090  46.5385320  25.6548720
  80.0487630  46.4150290  26.5552630  80.2429580  45.6793910  25.2464450
  76.2420380  49.0746900  30.7328380  75.8051370  49.2547700  31.5652530
  76.8098060  49.8321520  30.5910100  91.8782560  48.5763900  35.0205690
  91.2784550  48.6356460  34.2769610  92.0076460  47.6368880  35.1502540
  93.1184010  46.3181720  20.3575400  92.2876970  46.3858370  20.8282630
  93.2955840  47.2085840  20.0542260  92.5740470  43.0629200  22.8609600
  93.3359380  43.6325850  22.9669290  92.5894840  42.4956400  23.6317910
  93.5800440  43.9179300  27.7051530  93.9509270  43.1346620  27.2987500
  94.2202370  44.6068400  27.5268830  90.5634200  45.3015880  33.1181850
  89.7494040  45.7313040  33.3807640  90.9708400  45.9134290  32.5050900
  92.6259640  43.3563570  20.0182120  92.9008480  44.2642450  19.8901340
  92.4370380  43.2926100  20.9544110  77.1120740  41.9719700  31.6320600
  77.4793780  41.8847100  32.5116620  76.5431560  41.2086250  31.5327460
  91.9124600  40.4404080  34.6451070  91.6810690  40.2116830  33.7449020
  92.1729150  41.3603630  34.5995960  90.3512670  35.6660510  37.4230770
  91.2282850  35.6743910  37.8064770  90.3633510  34.9291350  36.8123120
  75.2882890  38.7966060  23.0342590  74.3846970  39.0596260  22.8594250
  75.7723510  39.0677230  22.2542550  91.7975940  39.5190050  28.3118790
  92.3213420  39.0252700  27.6808960  92.3835360  39.6540410  29.0566360
  91.9765660  39.6029920  31.8338340  91.0268370  39.5693460  31.9483330
  92.1578670  40.5130030  31.5988110  77.8310100  37.8531600  20.9436970
  78.5401800  37.4314820  20.4584250  77.1150040  37.9206830  20.3120320
  77.4784260  33.9070930  19.9839620  78.2012390  34.4479870  20.3020840
  77.7508780  33.6334350  19.1081160  91.0628790  33.3518480  33.2431880
  91.7001010  33.9652620  33.6091070  91.2103680  33.3879140  32.2981110
  90.6210250  50.0534480  26.6450120  91.2169320  49.7319050  25.9684540
  90.8788400  49.5806300  27.4363390  78.5272820  46.4852390  36.7940750
  78.4842450  46.1145300  37.6755210  78.6583830  47.4229960  36.9342570
  82.2278850  48.0411980  32.3950470  81.9870210  48.3086540  31.5080990
  83.1681490  48.2117710  32.4501330  84.4333270  34.5044670  36.1506980
  84.3722160  35.0966500  36.9002390  85.3733650  34.3970630  36.0057240
  87.0707830  34.1614730  35.7899270  87.6848240  34.4794020  35.1280350
  87.6157390  33.6763320  36.4095130  93.4883010  50.0606360  33.1961110
  92.9941290  50.4575230  32.4788240  92.8796300  49.4355570  33.5898390
  78.3660850  49.4314640  33.9138530  77.7721170  49.2999340  34.6528570
  78.3584690  48.5952780  33.4480630  87.8115870  32.7246870  32.1168560
  86.9375710  33.0581980  31.9141490  87.7026620  32.2520050  32.9420430
  88.7187850  34.9317740  33.5010280  88.3901210  34.1169500  33.1212010
  89.6670150  34.8887550  33.3775970  91.1722460  50.7029780  30.4747850
  90.7125430  51.4545590  30.1005870  90.5434920  49.9836250  30.4162650
  77.9973080  46.7973020  32.8646570  77.2707140  46.1778310  32.7972520
  78.0582230  47.1913630  31.9944650  81.6018180  49.0118020  29.6495980
  82.1183200  48.4005380  29.1244240  82.2515560  49.5146800  30.1406990
  84.3413680  49.9026510  30.4764960  84.6291490  49.6480810  29.5997970
  84.8536900  49.3503870  31.0670530  85.5590690  33.6416710  31.0561470
  84.7762480  34.1162210  31.3358230  85.2653620  32.7371540  30.9474650
  90.1111760  34.3439810  29.1010560  90.5519850  34.2884910  28.2532160
  89.8419350  35.2597820  29.1720740  76.2803080  50.1147410  26.0743330
  76.1125120  49.4818090  26.7725220  75.4137590  50.3206810  25.7237520
  87.9469890  32.7245910  27.8060570  88.5499260  33.2966120  28.2809090
  87.2062880  33.2885350  27.5834470  77.8865780  48.8080640  23.5193470
  77.3613400  49.1888670  22.8155430  77.8110360  49.4331410  24.2403180
  84.4086040  50.8242610  37.8433160  85.3353350  50.5886880  37.8869120
  84.3936470  51.6514610  37.3619190  92.6431100  50.3668180  24.8407410
  92.8183290  49.6805920  24.1968330  91.9452670  50.8915230  24.4484080
  81.5949650  33.4887360  37.6075040  81.3133920  33.9920960  36.8435860
  81.9769350  32.6909110  37.2417170  80.4858750  50.7563020  22.3942720
  81.2177570  50.4722300  21.8466610  80.7452420  50.5176300  23.2842100
  79.6473540  46.8727750  22.3989050  79.0182420  47.3412850  22.9474880
  79.7621370  46.0276970  22.8335240  88.1965110  32.9040940  38.1855510
  88.0830560  33.2235550  39.0807030  89.0134850  33.3053450  37.8892790
  90.9763600  50.0512470  37.6674200  91.7688920  49.5561700  37.4600160
  91.2696750  50.7302610  38.2749810  87.1023260  40.9233410   8.5490250
  87.0217310  40.0088020   8.2781960  86.6887680  41.4200480   7.8429960
  85.2341300  42.7012430  10.4299520  84.4583400  42.2212870  10.7198090
  85.8854230  42.0218080  10.2555680  79.2507130  43.0132240  11.3075280
  78.4192010  42.7580950  11.7071790  79.8588110  43.0843010  12.0433200
  89.2548730  47.1072620   9.2098650  88.7930260  46.3359860   9.5385820
  90.0674280  47.1338690   9.7151100  79.2308390  47.0472330  11.5033300
  79.5336430  46.1570070  11.3243520  79.9751980  47.6042550  11.2755550
  77.6599080  37.9734130   5.0917670  76.7715780  38.3150100   4.9897550
  77.9440270  37.7734450   4.1998500  75.6232090  40.5739780  10.9757370
  76.1948200  39.8061980  10.9761010  75.6233630  40.8728540  10.0663980
  85.4812040  49.3930630   8.8302640  84.8623480  49.8488130   8.2597080
  86.3363820  49.5482090   8.4292340  84.6750290  45.3769620  10.4369680
  84.6058570  44.4359560  10.2758810  85.4370150  45.4671030  11.0092250
  76.8656960  35.9824140  12.7626300  76.6859800  35.0849890  13.0429060
  76.4637040  36.5296010  13.4373250  85.7055460  38.1840000  10.6638610
  86.0820280  37.3111880  10.5512280  85.6074970  38.5198700   9.7729050
  79.8360470  36.5565630   6.1256050  79.9427220  37.4569360   6.4324810
  78.9252830  36.5083600   5.8350700  89.4879580  35.6790440   7.5966950
  90.3089200  35.1887010   7.6392430  89.5213660  36.2688100   8.3498790
  77.4843630  38.4784640  11.3708640  78.1653740  38.7423010  11.9896040
  77.1691680  37.6385510  11.7046650  81.6768200  39.5252000  10.4581230
  82.1846420  40.0232970  11.0986250  82.2081440  38.7487200  10.2820590
  93.7779130  37.6957190  14.1610580  93.0731300  38.0838900  13.6425690
  94.0437050  38.3907480  14.7631510  79.9604300  34.1650560  14.7244650
  79.9622740  34.6822950  13.9190550  79.1308610  33.6880740  14.7014580
  86.3475390  44.2769870   6.2234550  85.7292660  44.7419320   5.6597270
  86.8598640  44.9697350   6.6404060  81.2107150  43.8045740  12.9018150
  80.8776530  44.4314660  13.5439220  81.3873830  44.3307620  12.1219820
  89.7241060  37.6190820  10.3694490  89.0196630  37.9075710  10.9497600
  90.0853220  38.4290930  10.0094050  79.6419630  35.8760520  12.7315100
  79.9836440  36.7202570  12.4368970  78.7035440  36.0244260  12.8480440
  80.4226250  45.7726540  14.7167330  81.0400250  46.4477620  14.4351780
  79.5619370  46.1814520  14.6254830  75.7158590  44.9626400   3.5974180
  75.3386570  45.4513500   2.8659080  75.9731660  45.6351680   4.2280710
  91.3403840  47.2365950  12.6321970  90.6567360  47.9065060  12.6238640
  91.8798130  47.4346600  11.8666830  92.7927980  37.0645610  10.7603700
  91.8452890  37.0984590  10.8919130  93.1177970  37.8784560  11.1453060
  83.3247520  33.3642790   9.0559690  83.6322500  32.8089680   8.3395190
  82.3948220  33.4987250   8.8732680  88.8762580  49.0810080  11.3467150
  88.8889740  48.6772370  10.4789410  88.3237800  49.8557370  11.2428580
  90.1708000  45.8026300   6.4357320  90.0604330  44.8600630   6.5606740
  90.1676250  46.1641940   7.3220080  88.2748020  43.9839920  12.6749760
  88.6916810  43.7700030  11.8403220  88.9987840  44.2412710  13.2458380
  85.7128280  41.4291620   5.7919810  84.7857560  41.3629000   6.0208280
  85.8653100  42.3671750   5.6775050  85.6997360  37.7008620   2.7886970
  84.7601030  37.8622580   2.8739430  86.0180620  38.4194300   2.2422960
  92.2210120  42.3827140  12.7666000  91.3928750  42.4520230  12.2916130
  92.8160600  42.9681450  12.2981830  89.7425570  42.9911920   6.2955060
  89.1237990  42.6531470   5.6481360  89.7250020  42.3471680   7.0034250
  89.1852130  39.1696460  13.7120870  88.7723310  39.9950170  13.9660860
  88.4528080  38.5841500  13.5197230  81.3184920  41.9556360   8.5739540
  80.9141920  41.2433610   8.0785440  81.4048040  41.6109600   9.4627580
  81.7866620  45.6423920  10.7378750  81.4894910  45.0369390  10.0586530
  82.7366440  45.6801230  10.6268110  80.0313540  38.7299570  12.3538580
  80.5828130  38.8394910  11.5791830  80.5457050  39.1037170  13.0693810
  89.8752230  49.2155790  14.4001850  89.3982790  50.0227980  14.2074460
  89.1914020  48.5634120  14.5528060  80.8785050  45.3805610  17.3886550
  79.9813580  45.6045580  17.6359950  80.9037920  45.5040550  16.4397950
  87.9190270  42.2298730   3.3027810  88.3583550  41.3921160   3.1565630
  88.6318690  42.8628130   3.3891950  79.7056270  42.2518930  15.9643920
  79.5664040  43.1241730  16.3331320  78.8237630  41.9091740  15.8191860
  86.0285650  47.1694800   7.2709050  86.4681560  47.9119130   6.8564440
  85.9672540  47.4121370   8.1948010  81.5036620  48.1940630  18.1729070
  81.4752050  48.5983580  17.3057500  81.3401590  47.2650990  18.0100670
  78.0189550  40.8501340   6.0746190  77.8987150  41.5763430   5.4627460
  77.7090440  40.0804250   5.5974100  93.4551440  48.9767730  19.4693240
  93.9311160  49.4550620  20.1482320  94.0758600  48.9085220  18.7438740
  75.6574920  44.0216480  11.8814830  75.7355340  44.1565250  10.9370550
  76.2716600  43.3132370  12.0742950  76.9022550  45.7216670   8.2921010
  76.4950630  45.8631260   7.4374610  77.7935560  45.4376830   8.0892220
  92.8584690  46.1680580  16.6293250  92.9847750  45.9292460  15.7110430
  92.9006070  45.3365120  17.1015330  86.7201430  49.8708580  15.1988060
  87.2346100  49.7816590  16.0010490  85.8770510  50.2168280  15.4915970
  88.6955830  50.1563920   4.6272060  88.5356970  49.8666860   5.5253890
  88.5302540  49.3804050   4.0917290  81.1744210  49.9362450   6.4043680
  80.9986690  49.0197990   6.1911480  80.3199950  50.2949740   6.6441480
  88.3981960  47.6651480   3.1870060  87.7047120  47.6628770   2.5272340
  89.1404820  47.2410800   2.7564230  87.9631890  49.2914190   7.2618550
  88.4188840  48.5103570   7.5757170  88.3024410  50.0021010   7.8059730
  92.7108700  38.2213040  17.5942990  92.0952970  38.7292710  17.0658450
  92.3905120  37.3211370  17.5368930  75.7134440  45.0630650  14.4209290
  75.8765480  44.5936010  13.6028660  76.1786890  44.5554210  15.0858130
  80.4853210  34.1936410   9.4569860  80.0421360  34.9745950   9.1254380
  81.0438200  34.5166300  10.1640800  84.7723020  37.0604930  15.0605180
  84.3102390  37.2687950  15.8725120  84.3701130  36.2464280  14.7575850
  89.7727530  38.2813880  16.1901840  88.9221120  37.9819630  16.5110910
  89.6129320  38.5255890  15.2785660  86.8677240  39.7815630  18.2900630
  87.1930650  38.9479380  17.9502860  87.6557570  40.3044150  18.4378960
  83.6012030  33.8147110   4.3375690  82.9766210  33.8106980   5.0629000
  83.5142150  32.9478070   3.9411660  82.5229110  34.7383740  11.3159460
  82.8201440  35.6446570  11.2351480  83.0714670  34.2502520  10.7019030
  80.2767430  39.3169980   7.1851110  80.0508350  39.1007150   8.0897730
  79.4959960  39.7498440   6.8397080  87.5065190  39.3233350   5.7841760
  86.9074080  40.0469150   5.6005380  88.0544800  39.2610130   5.0018210
  82.7166640  40.2155560  17.8511380  82.6210240  39.2750290  17.7011780
  83.5598620  40.4370630  17.4559450  86.1130060  37.9596890   7.8145040
  86.5059630  38.2769090   7.0013730  86.4746910  37.0808770   7.9289560
  77.8477180  36.6269230  16.0045160  77.4540570  37.4744440  16.2117940
  77.1595580  35.9895600  16.1953800  84.4222230  36.7104200  19.0741900
  83.7320550  36.5176400  19.7087990  85.1654530  36.9938840  19.6066200
  75.1494230  34.5497690  10.0375240  74.8607280  35.1200550  10.7500220
  75.8939990  34.0702140  10.4006470  86.6985200  40.5502640  11.9095820
  85.9666320  41.0589450  12.2585920  86.3009540  39.7332620  11.6084600
  83.1362590  37.2256840  10.3148310  83.1398650  36.7846790   9.4652850
  84.0313710  37.5474170  10.4220130  78.9864970  37.1083330   9.2742520
  78.6465020  37.5858560  10.0309570  78.2242290  36.6548450   8.9143620
  83.1982740  38.2268920   3.3055070  83.3195560  38.1855400   4.2540890
  82.8131250  39.0893070   3.1501800  87.1611110  36.0036320  11.3218760
  87.1783850  36.4544970  12.1660610  86.9126690  35.1041960  11.5352200
  82.2104240  40.5370060   2.7038370  81.6421140  40.0888310   2.0774280
  82.9193240  40.8962840   2.1703520  77.2873420  44.4382080  16.5805100
  76.9028210  43.7975750  17.1788060  77.5985610  45.1418200  17.1499830
  83.4370560  41.2858620  12.0613720  83.8040690  40.8117190  12.8075060
  83.2475620  42.1600190  12.4022060  76.3011050  36.0302310   8.1907190
  76.0157970  35.6657980   9.0285810  76.2389910  35.2982770   7.5770330
  81.2269930  40.3267260  14.3797930  80.9227000  41.2059240  14.6048290
  82.1816390  40.3867050  14.4155370  79.7551720  44.5328250   4.9764780
  78.9813980  43.9925870   4.8163500  80.4846350  44.0134860   4.6382540
  90.5139700  43.5293610  10.7691170  91.2338820  44.0248900  10.3787280
  90.3121520  42.8511500  10.1245040  85.9749640  34.9231570   4.9120560
  85.1614250  34.4244740   4.8365870  85.7811590  35.7629820   4.4956910
  85.8958500  43.6002670  16.6560170  85.8295810  42.6798340  16.4017760
  85.2663640  43.6978110  17.3704810  88.6898030  39.2951220   3.2082720
  89.5777650  39.6068450   3.0334060  88.6603120  38.4223470   2.8163300
  79.7989120  44.2008630   8.6143590  80.3167790  43.3976890   8.5600480
  79.3473140  44.1387770   9.4560420  84.6858620  45.4674910   3.8870890
  85.0274320  46.2117140   3.3914210  83.8571330  45.7806030   4.2495720
  77.2833660  41.1670000  15.5269290  76.9248600  41.8323850  16.1142630
  76.9888220  40.3353550  15.8981910  80.4846780  41.6254240  18.4108840
  80.1846920  41.7711420  17.5136660  81.2558020  41.0659530  18.3182230
  85.8275230  46.4223240  16.4063970  85.8419770  45.4904200  16.1882880
  85.1200330  46.5083000  17.0453740  90.9612300  40.6063060   2.6762580
  90.8776020  41.0377280   1.8259020  91.6806490  41.0661410   3.1089400
  92.0386440  43.0630580  15.7532550  91.3134630  43.6559360  15.5561940
  92.5661900  43.0554120  14.9545920  91.9899550  47.4605320   5.4044710
  91.3475710  46.8060940   5.6788430  91.6030210  47.8660410   4.6285380
  87.5686030  44.7890750   9.2516400  87.9209850  44.1918880   8.5917770
  86.6848360  44.4634980   9.4224650  83.6549310  45.5488440   6.6586810
  84.3420440  46.0957650   7.0394400  82.8681730  46.0929170   6.6936420
  75.7941710  41.1661260   2.1503890  76.6636560  41.4486060   2.4339810
  75.3032030  41.9797130   2.0352700  82.9576520  42.5534470   6.2712170
  83.4139300  43.3639720   6.4972360  82.6064730  42.2357610   7.1030660
  85.2609130  48.0640810  13.5004470  85.9051350  48.2700190  14.1777890
  85.6238570  47.3029210  13.0475320  78.8588300  32.8972120   6.7434690
  78.7302930  32.8890020   7.6919610  78.0350320  33.2355210   6.3925700
  86.5341210  46.0673160  12.2181920  87.1763440  45.3666320  12.3314090
  87.0590560  46.8471600  12.0378810  88.3078830  46.8668060  15.4217980
  88.6435070  47.4534750  16.0995900  87.3879170  46.7360770  15.6515770
  76.1612960  50.3788640   2.7165520  76.5210600  50.9777980   2.0622790
  76.0205300  50.9248530   3.4900550  75.8582230  34.6563240  16.2041390
  75.1440750  34.8560160  16.8094000  76.2777270  33.8802810  16.5756190
  89.9613180  44.2693720   3.6035220  89.6734880  44.7306410   4.3913100
  90.7565350  43.8091490   3.8719440  76.1454820  48.6443500  17.1907920
  76.2545940  47.7038240  17.0503310  75.4935380  48.9098250  16.5421650
  84.1367410  46.9159390  18.5906040  83.8164280  46.1968630  19.1351730
  83.4625770  47.5914460  18.6642100  82.1781580  47.7619840   3.5339190
  82.1691680  48.4949530   2.9183700  81.2579940  47.5151420   3.6266150
  77.7788220  42.9834730   4.2785950  77.1716170  43.7233630   4.2881250
  78.2537570  43.0734090   3.4524150  87.3521010  37.1485550  13.9542840
  87.7201830  36.3280760  14.2822410  86.4919210  37.2087440  14.3698490
  90.7183040  36.1042490   4.7630400  90.0896200  36.2088160   4.0488630
  90.2234960  36.3239270   5.5524280  82.6867070  38.3828440   6.1788280
  81.9783220  38.8514780   6.6201890  82.9711550  37.7250450   6.8133470
  84.3123000  39.8025140  14.1780810  84.8108250  40.2770960  14.8432660
  84.4545950  38.8788660  14.3850840  86.7182500  35.1079100   7.6184070
  86.5950280  35.1265230   6.6693580  87.6667060  35.1558040   7.7382470
  83.8059290  50.3434400   6.8912050  84.0600790  50.3055790   5.9691420
  82.8571770  50.2167730   6.8840300  80.8902090  36.6913520   3.5538990
  81.7392620  37.1283670   3.4879180  80.5233360  37.0033780   4.3811050
  91.5189860  36.0193100  15.0209200  91.0163460  36.7598500  15.3603010
  92.3346520  36.4077100  14.7045990  89.8111870  41.2626280   8.4670560
  88.8702010  41.2776510   8.6418250  90.1255940  40.4762240   8.9130860
  78.4840270  40.3770950   2.7107410  78.5643860  39.4298460   2.8224810
  79.3760020  40.7077830   2.8168070  91.8137450  48.4335130  10.1424820
  91.9384870  49.2566300  10.6148630  92.6803010  48.2225860   9.7948970
  79.2854980  50.5266340   9.8141950  80.0217460  49.9781800  10.0850520
  79.6695900  51.3922350   9.6747940  76.1700460  46.5939910   5.6883460
  75.2440240  46.8361050   5.6788870  76.6356890  47.4214170   5.5668210
  78.2913260  49.7112410  19.0027530  79.0925990  50.0324460  19.4162930
  77.7765080  49.3507990  19.7247440  87.1277890  45.8192280  18.9502940
  86.5216050  45.8423880  18.2098690  86.8232000  45.0875320  19.4870190
  88.5578260  49.5472570  17.5612350  89.5100010  49.4630590  17.5112590
  88.4106480  50.2114280  18.2346140  91.4487460  48.9266780   3.0604260
  91.1628970  48.5131920   2.2458440  91.2507010  49.8554490   2.9404780
  76.0111070  42.1985870  17.9463580  76.5150090  41.6193150  18.5179810
  75.2718490  42.4826100  18.4839950  83.0649010  43.6056860  17.4799100
  82.2994680  44.1741860  17.3953770  83.2464970  43.3133070  16.5867330
  86.1537420  43.9820090   2.1051860  85.6047520  44.4289390   2.7494600
  86.7756680  43.4769340   2.6289530  90.2072360  45.3362190  18.0374120
  90.9481830  45.6737950  17.5341580  89.4445040  45.5054250  17.4843890
  78.0434150  40.3415460  18.8413650  78.0839490  40.0429330  19.7498880
  78.8979650  40.7423070  18.6821170  81.8212540  42.9411010   4.0017160
  82.2428960  42.7750880   4.8448550  81.9463380  42.1311240   3.5072300
  79.9839960  38.9207560  16.8088140  79.4536420  38.4298510  16.1811480
  80.6528030  39.3491760  16.2746070  88.8818020  43.3877020  16.5729330
  89.2959040  43.5422100  17.4219750  87.9469020  43.5132240  16.7355110
  89.3540190  40.7273180  18.5768480  89.9360960  39.9725500  18.4888960
  89.5301960  41.2580620  17.7999960  80.4712260  35.8869930  16.8885430
  80.3769130  35.2690680  16.1636300  79.8909650  36.6136220  16.6615340
  83.2373700  34.4443170  13.9212820  82.7891000  34.4667430  13.0758370
  82.6038900  34.0462190  14.5183120  83.6433250  43.3397500  14.5425260
  84.0621360  44.1830230  14.3701500  82.7241880  43.4769540  14.3132040
  85.9797150  41.0713680  15.9263100  86.0993360  40.4754820  16.6657940
  86.8391150  41.1083370  15.5064400  88.3185050  41.6250870  14.5025610
  87.7920270  42.1493490  13.8990750  88.6616390  42.2578260  15.1335340
  81.4940670  49.6450510  15.6582990  80.9561760  50.3696570  15.3391690
  81.7474630  49.1680850  14.8680330  82.7465920  37.6135030  17.1838920
  83.3365610  37.3050880  17.8716740  81.9286160  37.1414780  17.3398820
  87.5659350  37.2300840  17.4171940  86.8774870  36.5682380  17.3521930
  88.2865370  36.7839110  17.8620400  88.1959750  33.8252470   3.4762200
  88.4762040  32.9820370   3.8321620  87.4225480  34.0575580   3.9900950
  84.3502880  50.8801720  15.9169640  84.2761580  51.7836860  16.2242010
  83.4481720  50.5613620  15.8891710  84.8988210  50.0460230   3.5396000
  85.7939000  50.3845200   3.5614760  84.9305840  49.3239640   2.9120280
  78.5384370  45.4187280   1.7683000  78.9759240  45.9616950   2.4240580
  79.0232100  44.5934230   1.7779340  75.7530170  48.2076310   9.2203260
  76.0833180  47.3397370   8.9881900  76.1821170  48.4134830  10.0508220
  80.3492090  46.5385320   6.8805230  80.0487630  46.4150290   7.7809140
  80.2429580  45.6793910   6.4720960  76.2420380  49.0746900  11.9584890
  75.8051370  49.2547700  12.7909040  76.8098060  49.8321520  11.8166610
  91.8782560  48.5763900  16.2462200  91.2784550  48.6356460  15.5026120
  92.0076460  47.6368880  16.3759050  92.5740470  43.0629200   4.0866110
  93.3359380  43.6325850   4.1925800  92.5894840  42.4956400   4.8574420
  76.0744810  41.5867130   8.3173770  75.4193650  41.3178770   7.6733470
  76.9122760  41.4771610   7.8675750  93.5800440  43.9179300   8.9308040
  93.9509270  43.1346620   8.5244010  94.2202370  44.6068400   8.7525340
  90.5634200  45.3015880  14.3438360  89.7494040  45.7313040  14.6064150
  90.9708400  45.9134290  13.7307410  89.0235250  36.3808420   2.5392260
  89.4420130  36.1939400   1.6988920  88.7171310  35.5287470   2.8495190
  92.5224980  41.2932560   6.2368060  92.1468580  40.5260490   5.8049350
  91.7928100  41.6755260   6.7242990  77.1120740  41.9719700  12.8577110
  77.4793780  41.8847100  13.7373130  76.5431560  41.2086250  12.7583970
  91.9124600  40.4404080  15.8707580  91.6810690  40.2116830  14.9705530
  92.1729150  41.3603630  15.8252470  76.6636740  38.8828790  16.7635530
  75.7692790  38.8495550  17.1029240  77.2034290  39.0815580  17.5286780
  75.2882890  38.7966060   4.2599100  74.3846970  39.0596260   4.0850760
  75.7723510  39.0677230   3.4799060  91.7975940  39.5190050   9.5375300
  92.3213420  39.0252700   8.9065470  92.3835360  39.6540410  10.2822870
  91.9765660  39.6029920  13.0594850  91.0268370  39.5693460  13.1739840
  92.1578670  40.5130030  12.8244620  91.2875910  38.7763400   5.4767710
  91.7835030  38.5434270   6.2616590  91.0891980  37.9375240   5.0605350
  77.1676450  33.1577120  11.1118750  77.8152640  32.6074500  10.6713910
  77.5878290  33.4120270  11.9334560  92.7163070  37.4124350   8.0105390
  92.6062350  37.2580390   8.9487660  93.4770660  36.8845290   7.7680800
  93.6791830  36.0142930   3.8768240  92.8843330  35.9488050   4.4061150
  93.8835110  36.9493570   3.8653590  90.6210250  50.0534480   7.8706630
  91.2169320  49.7319050   7.1941050  90.8788400  49.5806300   8.6619900
  76.9208450  33.3132790  13.8544070  76.5723270  33.7696610  14.6202250
  76.5896150  32.4189920  13.9366500  78.5272820  46.4852390  18.0197260
  78.4842450  46.1145300  18.9011720  78.6583830  47.4229960  18.1599080
  82.2278850  48.0411980  13.6206980  81.9870210  48.3086540  12.7337500
  83.1681490  48.2117710  13.6757840  84.4333270  34.5044670  17.3763490
  84.3722160  35.0966500  18.1258900  85.3733650  34.3970630  17.2313750
  87.0707830  34.1614730  17.0155780  87.6848240  34.4794020  16.3536860
  87.6157390  33.6763320  17.6351640  93.4883010  50.0606360  14.4217620
  92.9941290  50.4575230  13.7044750  92.8796300  49.4355570  14.8154900
  77.5929090  32.8408990  17.1294840  78.1412080  32.6597040  16.3660950
  77.6584400  32.0503100  17.6651150  78.3660850  49.4314640  15.1395040
  77.7721170  49.2999340  15.8785080  78.3584690  48.5952780  14.6737140
  87.8115870  32.7246870  13.3425070  86.9375710  33.0581980  13.1398000
  87.7026620  32.2520050  14.1676940  88.7187850  34.9317740  14.7266790
  88.3901210  34.1169500  14.3468520  89.6670150  34.8887550  14.6032480
  91.1722460  50.7029780  11.7004360  90.7125430  51.4545590  11.3262380
  90.5434920  49.9836250  11.6419160  77.9973080  46.7973020  14.0903080
  77.2707140  46.1778310  14.0229030  78.0582230  47.1913630  13.2201160
  81.6018180  49.0118020  10.8752490  82.1183200  48.4005380  10.3500750
  82.2515560  49.5146800  11.3663500  84.3413680  49.9026510  11.7021470
  84.6291490  49.6480810  10.8254480  84.8536900  49.3503870  12.2927040
  85.5590690  33.6416710  12.2817980  84.7762480  34.1162210  12.5614740
  85.2653620  32.7371540  12.1731160  90.1111760  34.3439810  10.3267070
  90.5519850  34.2884910   9.4788670  89.8419350  35.2597820  10.3977250
  91.9750330  33.9755050   8.3375890  91.9138730  33.0316270   8.1906910
  92.7542360  34.0835140   8.8829350  76.2803080  50.1147410   7.2999840
  76.1125120  49.4818090   7.9981730  75.4137590  50.3206810   6.9494030
  76.9031100  33.9464190   4.8031700  77.6610460  34.0593070   4.2295730
  76.4408270  34.7833390   4.7575130  83.4444910  36.0603460   7.7934010
  82.6319420  35.6860350   7.4529890  83.9486550  35.3048540   8.0955200
  87.9469890  32.7245910   9.0317080  88.5499260  33.2966120   9.5065600
  87.2062880  33.2885350   8.8090980  91.0904490  33.1267470   4.3057360
  91.2855120  34.0250920   4.5724790  90.3034360  32.8954550   4.7990310
  77.8865780  48.8080640   4.7449980  77.3613400  49.1888670   4.0411940
  77.8110360  49.4331410   5.4659690  79.2756250  34.4728240   3.3433670
  79.8049010  33.6858040   3.2141620  79.9084570  35.1519430   3.5769200
  81.4694090  34.2103380   6.3979060  80.8396830  33.5090690   6.5649190
  80.9299230  34.9707510   6.1812220  84.4086040  50.8242610  19.0689670
  85.3353350  50.5886880  19.1125630  84.3936470  51.6514610  18.5875700
  92.6431100  50.3668180   6.0663920  92.8183290  49.6805920   5.4224840
  91.9452670  50.8915230   5.6740590  81.5949650  33.4887360  18.8331550
  81.3133920  33.9920960  18.0692370  81.9769350  32.6909110  18.4673680
  80.4858750  50.7563020   3.6199230  81.2177570  50.4722300   3.0723120
  80.7452420  50.5176300   4.5098610  79.6473540  46.8727750   3.6245560
  79.0182420  47.3412850   4.1731390  79.7621370  46.0276970   4.0591750
  90.9763600  50.0512470  18.8930710  91.7688920  49.5561700  18.6856670
  91.2696750  50.7302610  19.5006320  87.1023260  22.1489920  64.8720720
  87.0217310  21.2344530  64.6012430  86.6887680  22.6456990  64.1660430
  85.2341300  23.9268940  66.7529990  84.4583400  23.4469380  67.0428560
  85.8854230  23.2474590  66.5786150  79.2507130  24.2388750  67.6305750
  78.4192010  23.9837460  68.0302260  79.8588110  24.3099520  68.3663670
  89.2548730  28.3329130  65.5329120  88.7930260  27.5616370  65.8616290
  90.0674280  28.3595200  66.0381570  79.2308390  28.2728840  67.8263770
  79.5336430  27.3826580  67.6473990  79.9751980  28.8299060  67.5986020
  77.6599080  19.1990640  61.4148140  76.7715780  19.5406610  61.3128020
  77.9440270  18.9990960  60.5228970  75.6232090  21.7996290  67.2987840
  76.1948200  21.0318490  67.2991480  75.6233630  22.0985050  66.3894450
  85.4812040  30.6187140  65.1533110  84.8623480  31.0744640  64.5827550
  86.3363820  30.7738600  64.7522810  84.6750290  26.6026130  66.7600150
  84.6058570  25.6616070  66.5989280  85.4370150  26.6927540  67.3322720
  76.8656960  17.2080650  69.0856770  76.6859800  16.3106400  69.3659530
  76.4637040  17.7552520  69.7603720  85.7055460  19.4096510  66.9869080
  86.0820280  18.5368390  66.8742750  85.6074970  19.7455210  66.0959520
  79.8360470  17.7822140  62.4486520  79.9427220  18.6825870  62.7555280
  78.9252830  17.7340110  62.1581170  89.4879580  16.9046950  63.9197420
  90.3089200  16.4143520  63.9622900  89.5213660  17.4944610  64.6729260
  77.4843630  19.7041150  67.6939110  78.1653740  19.9679520  68.3126510
  77.1691680  18.8642020  68.0277120  81.6768200  20.7508510  66.7811700
  82.1846420  21.2489480  67.4216720  82.2081440  19.9743710  66.6051060
  93.7779130  18.9213700  70.4841050  93.0731300  19.3095410  69.9656160
  94.0437050  19.6163990  71.0861980  79.9604300  15.3907070  71.0475120
  79.9622740  15.9079460  70.2421020  79.1308610  14.9137250  71.0245050
  86.3475390  25.5026380  62.5465020  85.7292660  25.9675830  61.9827740
  86.8598640  26.1953860  62.9634530  81.2107150  25.0302250  69.2248620
  80.8776530  25.6571170  69.8669690  81.3873830  25.5564130  68.4450290
  89.7241060  18.8447330  66.6924960  89.0196630  19.1332220  67.2728070
  90.0853220  19.6547440  66.3324520  79.6419630  17.1017030  69.0545570
  79.9836440  17.9459080  68.7599440  78.7035440  17.2500770  69.1710910
  80.4226250  26.9983050  71.0397800  81.0400250  27.6734130  70.7582250
  79.5619370  27.4071030  70.9485300  75.7158590  26.1882910  59.9204650
  75.3386570  26.6770010  59.1889550  75.9731660  26.8608190  60.5511180
  91.3403840  28.4622460  68.9552440  90.6567360  29.1321570  68.9469110
  91.8798130  28.6603110  68.1897300  92.7927980  18.2902120  67.0834170
  91.8452890  18.3241100  67.2149600  93.1177970  19.1041070  67.4683530
  83.3247520  14.5899300  65.3790160  83.6322500  14.0346190  64.6625660
  82.3948220  14.7243760  65.1963150  88.8762580  30.3066590  67.6697620
  88.8889740  29.9028880  66.8019880  88.3237800  31.0813880  67.5659050
  90.1708000  27.0282810  62.7587790  90.0604330  26.0857140  62.8837210
  90.1676250  27.3898450  63.6450550  88.2748020  25.2096430  68.9980230
  88.6916810  24.9956540  68.1633690  88.9987840  25.4669220  69.5688850
  85.7128280  22.6548130  62.1150280  84.7857560  22.5885510  62.3438750
  85.8653100  23.5928260  62.0005520  85.6997360  18.9265130  59.1117440
  84.7601030  19.0879090  59.1969900  86.0180620  19.6450810  58.5653430
  92.2210120  23.6083650  69.0896470  91.3928750  23.6776740  68.6146600
  92.8160600  24.1937960  68.6212300  89.7425570  24.2168430  62.6185530
  89.1237990  23.8787980  61.9711830  89.7250020  23.5728190  63.3264720
  89.1852130  20.3952970  70.0351340  88.7723310  21.2206680  70.2891330
  88.4528080  19.8098010  69.8427700  81.3184920  23.1812870  64.8970010
  80.9141920  22.4690120  64.4015910  81.4048040  22.8366110  65.7858050
  81.7866620  26.8680430  67.0609220  81.4894910  26.2625900  66.3817000
  82.7366440  26.9057740  66.9498580  80.0313540  19.9556080  68.6769050
  80.5828130  20.0651420  67.9022300  80.5457050  20.3293680  69.3924280
  89.8752230  30.4412300  70.7232320  89.3982790  31.2484490  70.5304930
  89.1914020  29.7890630  70.8758530  80.8785050  26.6062120  73.7117020
  79.9813580  26.8302090  73.9590420  80.9037920  26.7297060  72.7628420
  87.9190270  23.4555240  59.6258280  88.3583550  22.6177670  59.4796100
  88.6318690  24.0884640  59.7122420  79.7056270  23.4775440  72.2874390
  79.5664040  24.3498240  72.6561790  78.8237630  23.1348250  72.1422330
  86.0285650  28.3951310  63.5939520  86.4681560  29.1375640  63.1794910
  85.9672540  28.6377880  64.5178480  81.5036620  29.4197140  74.4959540
  81.4752050  29.8240090  73.6287970  81.3401590  28.4907500  74.3331140
  91.5007410  14.7098050  57.9399320  91.1880070  14.8024880  58.8398390
  92.2619880  15.2879080  57.8896750  78.0189550  22.0757850  62.3976660
  77.8987150  22.8019940  61.7857930  77.7090440  21.3060760  61.9204570
  75.6574920  25.2472990  68.2045300  75.7355340  25.3821760  67.2601020
  76.2716600  24.5388880  68.3973420  76.9022550  26.9473180  64.6151480
  76.4950630  27.0887770  63.7605080  77.7935560  26.6633340  64.4122690
  92.8584690  27.3937090  72.9523720  92.9847750  27.1548970  72.0340900
  92.9006070  26.5621630  73.4245800  86.7201430  31.0965090  71.5218530
  87.2346100  31.0073100  72.3240960  85.8770510  31.4424790  71.8146440
  88.6955830  31.3820430  60.9502530  88.5356970  31.0923370  61.8484360
  88.5302540  30.6060560  60.4147760  81.1744210  31.1618960  62.7274150
  80.9986690  30.2454500  62.5141950  80.3199950  31.5206250  62.9671950
  88.3981960  28.8907990  59.5100530  87.7047120  28.8885280  58.8502810
  89.1404820  28.4667310  59.0794700  87.9631890  30.5170700  63.5849020
  88.4188840  29.7360080  63.8987640  88.3024410  31.2277520  64.1290200
  92.7108700  19.4469550  73.9173460  92.0952970  19.9549220  73.3888920
  92.3905120  18.5467880  73.8599400  75.7134440  26.2887160  70.7439760
  75.8765480  25.8192520  69.9259130  76.1786890  25.7810720  71.4088600
  80.4853210  15.4192920  65.7800330  80.0421360  16.2002460  65.4484850
  81.0438200  15.7422810  66.4871270  84.7723020  18.2861440  71.3835650
  84.3102390  18.4944460  72.1955590  84.3701130  17.4720790  71.0806320
  89.7727530  19.5070390  72.5132310  88.9221120  19.2076140  72.8341380
  89.6129320  19.7512400  71.6016130  86.8677240  21.0072140  74.6131100
  87.1930650  20.1735890  74.2733330  87.6557570  21.5300660  74.7609430
  83.6012030  15.0403620  60.6606160  82.9766210  15.0363490  61.3859470
  83.5142150  14.1734580  60.2642130  82.5229110  15.9640250  67.6389930
  82.8201440  16.8703080  67.5581950  83.0714670  15.4759030  67.0249500
  80.2767430  20.5426490  63.5081580  80.0508350  20.3263660  64.4128200
  79.4959960  20.9754950  63.1627550  87.5065190  20.5489860  62.1072230
  86.9074080  21.2725660  61.9235850  88.0544800  20.4866640  61.3248680
  82.7166640  21.4412070  74.1741850  82.6210240  20.5006800  74.0242250
  83.5598620  21.6627140  73.7789920  86.1130060  19.1853400  64.1375510
  86.5059630  19.5025600  63.3244200  86.4746910  18.3065280  64.2520030
  77.8477180  17.8525740  72.3275630  77.4540570  18.7000950  72.5348410
  77.1595580  17.2152110  72.5184270  75.1494230  15.7754200  66.3605710
  74.8607280  16.3457060  67.0730690  75.8939990  15.2958650  66.7236940
  75.3364460  19.7174320  57.5708430  75.2539130  20.6605080  57.7123420
  74.9847520  19.5749230  56.6920780  86.6985200  21.7759150  68.2326290
  85.9666320  22.2845960  68.5816390  86.3009540  20.9589130  67.9315070
  83.1362590  18.4513350  66.6378780  83.1398650  18.0103300  65.7883320
  84.0313710  18.7730680  66.7450600  78.9864970  18.3339840  65.5972990
  78.6465020  18.8115070  66.3540040  78.2242290  17.8804960  65.2374090
  83.1982740  19.4525430  59.6285540  83.3195560  19.4111910  60.5771360
  82.8131250  20.3149580  59.4732270  87.1611110  17.2292830  67.6449230
  87.1783850  17.6801480  68.4891080  86.9126690  16.3298470  67.8582670
  82.2104240  21.7626570  59.0268840  81.6421140  21.3144820  58.4004750
  82.9193240  22.1219350  58.4933990  90.5881860  14.6425010  73.4835610
  90.9127630  13.9114670  74.0093590  90.6238370  14.3238650  72.5816600
  77.2873420  25.6638590  72.9035570  76.9028210  25.0232260  73.5018530
  77.5985610  26.3674710  73.4730300  83.4370560  22.5115130  68.3844190
  83.8040690  22.0373700  69.1305530  83.2475620  23.3856700  68.7252530
  76.3011050  17.2558820  64.5137660  76.0157970  16.8914490  65.3516280
  76.2389910  16.5239280  63.9000800  81.2269930  21.5523770  70.7028400
  80.9227000  22.4315750  70.9278760  82.1816390  21.6123560  70.7385840
  79.7551720  25.7584760  61.2995250  78.9813980  25.2182380  61.1393970
  80.4846350  25.2391370  60.9613010  90.5139700  24.7550120  67.0921640
  91.2338820  25.2505410  66.7017750  90.3121520  24.0768010  66.4475510
  85.9749640  16.1488080  61.2351030  85.1614250  15.6501250  61.1596340
  85.7811590  16.9886330  60.8187380  85.8958500  24.8259180  72.9790640
  85.8295810  23.9054850  72.7248230  85.2663640  24.9234620  73.6935280
  88.6898030  20.5207730  59.5313190  89.5777650  20.8324960  59.3564530
  88.6603120  19.6479980  59.1393770  79.7989120  25.4265140  64.9374060
  80.3167790  24.6233400  64.8830950  79.3473140  25.3644280  65.7790890
  84.6858620  26.6931420  60.2101360  85.0274320  27.4373650  59.7144680
  83.8571330  27.0062540  60.5726190  77.2833660  22.3926510  71.8499760
  76.9248600  23.0580360  72.4373100  76.9888220  21.5610060  72.2212380
  80.4846780  22.8510750  74.7339310  80.1846920  22.9967930  73.8367130
  81.2558020  22.2916040  74.6412700  85.8275230  27.6479750  72.7294440
  85.8419770  26.7160710  72.5113350  85.1200330  27.7339510  73.3684210
  90.9612300  21.8319570  58.9993050  90.8776020  22.2633790  58.1489490
  91.6806490  22.2917920  59.4319870  92.0386440  24.2887090  72.0763020
  91.3134630  24.8815870  71.8792410  92.5661900  24.2810630  71.2776390
  91.9899550  28.6861830  61.7275180  91.3475710  28.0317450  62.0018900
  91.6030210  29.0916920  60.9515850  87.5686030  26.0147260  65.5746870
  87.9209850  25.4175390  64.9148240  86.6848360  25.6891490  65.7455120
  83.6549310  26.7744950  62.9817280  84.3420440  27.3214160  63.3624870
  82.8681730  27.3185680  63.0166890  75.7941710  22.3917770  58.4734360
  76.6636560  22.6742570  58.7570280  75.3032030  23.2053640  58.3583170
  82.9576520  23.7790980  62.5942640  83.4139300  24.5896230  62.8202830
  82.6064730  23.4614120  63.4261130  85.2609130  29.2897320  69.8234940
  85.9051350  29.4956700  70.5008360  85.6238570  28.5285720  69.3705790
  78.8588300  14.1228630  63.0665160  78.7302930  14.1146530  64.0150080
  78.0350320  14.4611720  62.7156170  86.5341210  27.2929670  68.5412390
  87.1763440  26.5922830  68.6544560  87.0590560  28.0728110  68.3609280
  90.3796930  27.5778290  58.2651530  90.1534510  26.8608730  58.8576170
  89.9893130  27.3290730  57.4273280  88.3078830  28.0924570  71.7448450
  88.6435070  28.6791260  72.4226370  87.3879170  27.9617280  71.9746240
  76.1612960  31.6045150  59.0395990  76.5210600  32.2034490  58.3853260
  76.0205300  32.1505040  59.8131020  75.8582230  15.8819750  72.5271860
  75.1440750  16.0816670  73.1324470  76.2777270  15.1059320  72.8986660
  89.9613180  25.4950230  59.9265690  89.6734880  25.9562920  60.7143570
  90.7565350  25.0348000  60.1949910  76.1454820  29.8700010  73.5138390
  76.2545940  28.9294750  73.3733780  75.4935380  30.1354760  72.8652120
  82.1781580  28.9876350  59.8569660  82.1691680  29.7206040  59.2414170
  81.2579940  28.7407930  59.9496620  77.7788220  24.2091240  60.6016420
  77.1716170  24.9490140  60.6111720  78.2537570  24.2990600  59.7754620
  87.3521010  18.3742060  70.2773310  87.7201830  17.5537270  70.6052880
  86.4919210  18.4343950  70.6928960  90.7183040  17.3299000  61.0860870
  90.0896200  17.4344670  60.3719100  90.2234960  17.5495780  61.8754750
  85.1641180  29.0504590  58.5194850  85.2653160  28.8468580  57.5896830
  84.2642920  28.7962870  58.7242630  82.6867070  19.6084950  62.5018750
  81.9783220  20.0771290  62.9432360  82.9711550  18.9506960  63.1363940
  84.3123000  21.0281650  70.5011280  84.8108250  21.5027470  71.1663130
  84.4545950  20.1045170  70.7081310  86.7182500  16.3335610  63.9414540
  86.5950280  16.3521740  62.9924050  87.6667060  16.3814550  64.0612940
  83.8059290  31.5690910  63.2142520  84.0600790  31.5312300  62.2921890
  82.8571770  31.4424240  63.2070770  80.8902090  17.9170030  59.8769460
  81.7392620  18.3540180  59.8109650  80.5233360  18.2290290  60.7041520
  91.5189860  17.2449610  71.3439670  91.0163460  17.9855010  71.6833480
  92.3346520  17.6333610  71.0276460  89.8111870  22.4882790  64.7901030
  88.8702010  22.5033020  64.9648720  90.1255940  21.7018750  65.2361330
  79.7893510  24.1702390  58.3504990  80.5556780  24.0583750  58.9130420
  79.8668200  23.4740360  57.6981760  78.4840270  21.6027460  59.0337880
  78.5643860  20.6554970  59.1455280  79.3760020  21.9334340  59.1398540
  91.8137450  29.6591640  66.4655290  91.9384870  30.4822810  66.9379100
  92.6803010  29.4482370  66.1179440  79.2854980  31.7522850  66.1372420
  80.0217460  31.2038310  66.4080990  79.6695900  32.6178860  65.9978410
  76.1700460  27.8196420  62.0113930  75.2440240  28.0617560  62.0019340
  76.6356890  28.6470680  61.8898680  82.3957290  30.9253160  57.9597990
  83.1885900  31.2141990  57.5079780  81.8761640  30.4945330  57.2810470
  88.5578260  30.7729080  73.8842820  89.5100010  30.6887100  73.8343060
  88.4106480  31.4370790  74.5576610  91.4487460  30.1523290  59.3834730
  91.1628970  29.7388430  58.5688910  91.2507010  31.0811000  59.2635250
  76.0111070  23.4242380  74.2694050  76.5150090  22.8449660  74.8410280
  75.2718490  23.7082610  74.8070420  82.9134690  26.1456570  57.8240340
  82.8085330  25.5308920  58.5501720  82.7458910  25.6222460  57.0403350
  83.0649010  24.8313370  73.8029570  82.2994680  25.3998370  73.7184240
  83.2464970  24.5389580  72.9097800  86.1537420  25.2076600  58.4282330
  85.6047520  25.6545900  59.0725070  86.7756680  24.7025850  58.9520000
  90.2072360  26.5618700  74.3604590  90.9481830  26.8994460  73.8572050
  89.4445040  26.7310760  73.8074360  81.8212540  24.1667520  60.3247630
  82.2428960  24.0007390  61.1679020  81.9463380  23.3567750  59.8302770
  79.9839960  20.1464070  73.1318610  79.4536420  19.6555020  72.5041950
  80.6528030  20.5748270  72.5976540  84.3340180  23.1905130  57.5724730
  84.8545840  22.4754150  57.2065880  84.9808580  23.8291000  57.8725240
  88.8818020  24.6133530  72.8959800  89.2959040  24.7678610  73.7450220
  87.9469020  24.7388750  73.0585580  89.3540190  21.9529690  74.8998950
  89.9360960  21.1982010  74.8119430  89.5301960  22.4837130  74.1230430
  80.4712260  17.1126440  73.2115900  80.3769130  16.4947190  72.4866770
  79.8909650  17.8392730  72.9845810  83.2373700  15.6699680  70.2443290
  82.7891000  15.6923940  69.3988840  82.6038900  15.2718700  70.8413590
  83.6433250  24.5654010  70.8655730  84.0621360  25.4086740  70.6931970
  82.7241880  24.7026050  70.6362510  85.9797150  22.2970190  72.2493570
  86.0993360  21.7011330  72.9888410  86.8391150  22.3339880  71.8294870
  88.3185050  22.8507380  70.8256080  87.7920270  23.3750000  70.2221220
  88.6616390  23.4834770  71.4565810  80.7171440  20.2400750  57.2705790
  80.5160500  19.3768110  57.6319130  80.5463490  20.1534110  56.3327390
  81.4940670  30.8707020  71.9813460  80.9561760  31.5953080  71.6622160
  81.7474630  30.3937360  71.1910800  82.7465920  18.8391540  73.5069390
  83.3365610  18.5307390  74.1947210  81.9286160  18.3671290  73.6629290
  87.5659350  18.4557350  73.7402410  86.8774870  17.7938890  73.6752400
  88.2865370  18.0095620  74.1850870  88.1959750  15.0508980  59.7992670
  88.4762040  14.2076880  60.1552090  87.4225480  15.2832090  60.3131420
  79.5154240  17.3401370  57.2583670  79.8180140  17.3468800  56.3502820
  80.2548830  16.9899230  57.7551330  84.3502880  32.1058230  72.2400110
  84.2761580  33.0093370  72.5472480  83.4481720  31.7870130  72.2122180
  82.7339170  16.2835990  58.2439870  82.3861170  15.6059980  57.6642320
  82.9351940  15.8225500  59.0583260  84.8988210  31.2716740  59.8626470
  85.7939000  31.6101710  59.8845230  84.9305840  30.5496150  59.2350750
  78.5384370  26.6443790  58.0913470  78.9759240  27.1873460  58.7471050
  79.0232100  25.8190740  58.1009810  75.7530170  29.4332820  65.5433730
  76.0833180  28.5653880  65.3112370  76.1821170  29.6391340  66.3738690
  80.3492090  27.7641830  63.2035700  80.0487630  27.6406800  64.1039610
  80.2429580  26.9050420  62.7951430  76.2420380  30.3003410  68.2815360
  75.8051370  30.4804210  69.1139510  76.8098060  31.0578030  68.1397080
  91.8782560  29.8020410  72.5692670  91.2784550  29.8612970  71.8256590
  92.0076460  28.8625390  72.6989520  93.1184010  27.5438230  57.9062380
  92.2876970  27.6114880  58.3769610  93.2955840  28.4342350  57.6029240
  92.5740470  24.2885710  60.4096580  93.3359380  24.8582360  60.5156270
  92.5894840  23.7212910  61.1804890  76.0744810  22.8123640  64.6404240
  75.4193650  22.5435280  63.9963940  76.9122760  22.7028120  64.1906220
  93.5800440  25.1435810  65.2538510  93.9509270  24.3603130  64.8474480
  94.2202370  25.8324910  65.0755810  90.5634200  26.5272390  70.6668830
  89.7494040  26.9569550  70.9294620  90.9708400  27.1390800  70.0537880
  92.6259640  24.5820080  57.5669100  92.9008480  25.4898960  57.4388320
  92.4370380  24.5182610  58.5031090  89.0235250  17.6064930  58.8622730
  89.4420130  17.4195910  58.0219390  88.7171310  16.7543980  59.1725660
  92.5224980  22.5189070  62.5598530  92.1468580  21.7517000  62.1279820
  91.7928100  22.9011770  63.0473460  77.1120740  23.1976210  69.1807580
  77.4793780  23.1103610  70.0603600  76.5431560  22.4342760  69.0814440
  91.9124600  21.6660590  72.1938050  91.6810690  21.4373340  71.2936000
  92.1729150  22.5860140  72.1482940  76.6636740  20.1085300  73.0866000
  75.7692790  20.0752060  73.4259710  77.2034290  20.3072090  73.8517250
  75.2882890  20.0222570  60.5829570  74.3846970  20.2852770  60.4081230
  75.7723510  20.2933740  59.8029530  91.7975940  20.7446560  65.8605770
  92.3213420  20.2509210  65.2295940  92.3835360  20.8796920  66.6053340
  91.9765660  20.8286430  69.3825320  91.0268370  20.7949970  69.4970310
  92.1578670  21.7386540  69.1475090  77.8310100  19.0788110  58.4923950
  78.5401800  18.6571330  58.0071230  77.1150040  19.1463340  57.8607300
  77.4784260  15.1327440  57.5326600  78.2012390  15.6736380  57.8507820
  77.7508780  14.8590860  56.6568140  91.2875910  20.0019910  61.7998180
  91.7835030  19.7690780  62.5847060  91.0891980  19.1631750  61.3835820
  77.1676450  14.3833630  67.4349220  77.8152640  13.8331010  66.9944380
  77.5878290  14.6376780  68.2565030  92.7163070  18.6380860  64.3335860
  92.6062350  18.4836900  65.2718130  93.4770660  18.1101800  64.0911270
  91.0628790  14.5774990  70.7918860  91.7001010  15.1909130  71.1578050
  91.2103680  14.6135650  69.8468090  93.6053340  16.4688780  57.5742000
  94.5302650  16.3369960  57.3660290  93.5829130  16.5481600  58.5278450
  93.6791830  17.2399440  60.1998710  92.8843330  17.1744560  60.7291620
  93.8835110  18.1750080  60.1884060  90.6210250  31.2790990  64.1937100
  91.2169320  30.9575560  63.5171520  90.8788400  30.8062810  64.9850370
  76.9208450  14.5389300  70.1774540  76.5723270  14.9953120  70.9432720
  76.5896150  13.6446430  70.2596970  82.2278850  29.2668490  69.9437450
  81.9870210  29.5343050  69.0567970  83.1681490  29.4374220  69.9988310
  84.4333270  15.7301180  73.6993960  84.3722160  16.3223010  74.4489370
  85.3733650  15.6227140  73.5544220  87.0707830  15.3871240  73.3386250
  87.6848240  15.7050530  72.6767330  87.6157390  14.9019830  73.9582110
  93.4883010  31.2862870  70.7448090  92.9941290  31.6831740  70.0275220
  92.8796300  30.6612080  71.1385370  77.5929090  14.0665500  73.4525310
  78.1412080  13.8853550  72.6891420  77.6584400  13.2759610  73.9881620
  78.3660850  30.6571150  71.4625510  77.7721170  30.5255850  72.2015550
  78.3584690  29.8209290  70.9967610  87.8115870  13.9503380  69.6655540
  86.9375710  14.2838490  69.4628470  87.7026620  13.4776560  70.4907410
  88.7187850  16.1574250  71.0497260  88.3901210  15.3426010  70.6698990
  89.6670150  16.1144060  70.9262950  91.1722460  31.9286290  68.0234830
  90.7125430  32.6802100  67.6492850  90.5434920  31.2092760  67.9649630
  77.9973080  28.0229530  70.4133550  77.2707140  27.4034820  70.3459500
  78.0582230  28.4170140  69.5431630  81.6018180  30.2374530  67.1982960
  82.1183200  29.6261890  66.6731220  82.2515560  30.7403310  67.6893970
  84.3413680  31.1283020  68.0251940  84.6291490  30.8737320  67.1484950
  84.8536900  30.5760380  68.6157510  85.5590690  14.8673220  68.6048450
  84.7762480  15.3418720  68.8845210  85.2653620  13.9628050  68.4961630
  90.1111760  15.5696320  66.6497540  90.5519850  15.5141420  65.8019140
  89.8419350  16.4854330  66.7207720  91.9750330  15.2011560  64.6606360
  91.9138730  14.2572780  64.5137380  92.7542360  15.3091650  65.2059820
  76.2803080  31.3403920  63.6230310  76.1125120  30.7074600  64.3212200
  75.4137590  31.5463320  63.2724500  76.9031100  15.1720700  61.1262170
  77.6610460  15.2849580  60.5526200  76.4408270  16.0089900  61.0805600
  83.4444910  17.2859970  64.1164480  82.6319420  16.9116860  63.7760360
  83.9486550  16.5305050  64.4185670  87.9469890  13.9502420  65.3547550
  88.5499260  14.5222630  65.8296070  87.2062880  14.5141860  65.1321450
  91.0904490  14.3523980  60.6287830  91.2855120  15.2507430  60.8955260
  90.3034360  14.1211060  61.1220780  77.8865780  30.0337150  61.0680450
  77.3613400  30.4145180  60.3642410  77.8110360  30.6587920  61.7890160
  79.2756250  15.6984750  59.6664140  79.8049010  14.9114550  59.5372090
  79.9084570  16.3775940  59.8999670  81.4694090  15.4359890  62.7209530
  80.8396830  14.7347200  62.8879660  80.9299230  16.1964020  62.5042690
  92.6431100  31.5924690  62.3894390  92.8183290  30.9062430  61.7455310
  91.9452670  32.1171740  61.9971060  80.4858750  31.9819530  59.9429700
  81.2177570  31.6978810  59.3953590  80.7452420  31.7432810  60.8329080
  79.6473540  28.0984260  59.9476030  79.0182420  28.5669360  60.4961860
  79.7621370  27.2533480  60.3822220  87.1023260  22.1489920  46.0977230
  87.0217310  21.2344530  45.8268940  86.6887680  22.6456990  45.3916940
  85.2341300  23.9268940  47.9786500  84.4583400  23.4469380  48.2685070
  85.8854230  23.2474590  47.8042660  79.2507130  24.2388750  48.8562260
  78.4192010  23.9837460  49.2558770  79.8588110  24.3099520  49.5920180
  89.2548730  28.3329130  46.7585630  88.7930260  27.5616370  47.0872800
  90.0674280  28.3595200  47.2638080  79.2308390  28.2728840  49.0520280
  79.5336430  27.3826580  48.8730500  79.9751980  28.8299060  48.8242530
  77.6599080  19.1990640  42.6404650  76.7715780  19.5406610  42.5384530
  77.9440270  18.9990960  41.7485480  75.6232090  21.7996290  48.5244350
  76.1948200  21.0318490  48.5247990  75.6233630  22.0985050  47.6150960
  85.4812040  30.6187140  46.3789620  84.8623480  31.0744640  45.8084060
  86.3363820  30.7738600  45.9779320  84.6750290  26.6026130  47.9856660
  84.6058570  25.6616070  47.8245790  85.4370150  26.6927540  48.5579230
  76.8656960  17.2080650  50.3113280  76.6859800  16.3106400  50.5916040
  76.4637040  17.7552520  50.9860230  85.7055460  19.4096510  48.2125590
  86.0820280  18.5368390  48.0999260  85.6074970  19.7455210  47.3216030
  79.8360470  17.7822140  43.6743030  79.9427220  18.6825870  43.9811790
  78.9252830  17.7340110  43.3837680  89.4879580  16.9046950  45.1453930
  90.3089200  16.4143520  45.1879410  89.5213660  17.4944610  45.8985770
  77.4843630  19.7041150  48.9195620  78.1653740  19.9679520  49.5383020
  77.1691680  18.8642020  49.2533630  81.6768200  20.7508510  48.0068210
  82.1846420  21.2489480  48.6473230  82.2081440  19.9743710  47.8307570
  93.7779130  18.9213700  51.7097560  93.0731300  19.3095410  51.1912670
  94.0437050  19.6163990  52.3118490  79.9604300  15.3907070  52.2731630
  79.9622740  15.9079460  51.4677530  79.1308610  14.9137250  52.2501560
  86.3475390  25.5026380  43.7721530  85.7292660  25.9675830  43.2084250
  86.8598640  26.1953860  44.1891040  81.2107150  25.0302250  50.4505130
  80.8776530  25.6571170  51.0926200  81.3873830  25.5564130  49.6706800
  89.7241060  18.8447330  47.9181470  89.0196630  19.1332220  48.4984580
  90.0853220  19.6547440  47.5581030  79.6419630  17.1017030  50.2802080
  79.9836440  17.9459080  49.9855950  78.7035440  17.2500770  50.3967420
  80.4226250  26.9983050  52.2654310  81.0400250  27.6734130  51.9838760
  79.5619370  27.4071030  52.1741810  91.3403840  28.4622460  50.1808950
  90.6567360  29.1321570  50.1725620  91.8798130  28.6603110  49.4153810
  92.7927980  18.2902120  48.3090680  91.8452890  18.3241100  48.4406110
  93.1177970  19.1041070  48.6940040  83.3247520  14.5899300  46.6046670
  83.6322500  14.0346190  45.8882170  82.3948220  14.7243760  46.4219660
  88.8762580  30.3066590  48.8954130  88.8889740  29.9028880  48.0276390
  88.3237800  31.0813880  48.7915560  90.1708000  27.0282810  43.9844300
  90.0604330  26.0857140  44.1093720  90.1676250  27.3898450  44.8707060
  88.2748020  25.2096430  50.2236740  88.6916810  24.9956540  49.3890200
  88.9987840  25.4669220  50.7945360  85.7128280  22.6548130  43.3406790
  84.7857560  22.5885510  43.5695260  85.8653100  23.5928260  43.2262030
  85.6997360  18.9265130  40.3373950  84.7601030  19.0879090  40.4226410
  86.0180620  19.6450810  39.7909940  92.2210120  23.6083650  50.3152980
  91.3928750  23.6776740  49.8403110  92.8160600  24.1937960  49.8468810
  89.7425570  24.2168430  43.8442040  89.1237990  23.8787980  43.1968340
  89.7250020  23.5728190  44.5521230  89.1852130  20.3952970  51.2607850
  88.7723310  21.2206680  51.5147840  88.4528080  19.8098010  51.0684210
  81.3184920  23.1812870  46.1226520  80.9141920  22.4690120  45.6272420
  81.4048040  22.8366110  47.0114560  81.7866620  26.8680430  48.2865730
  81.4894910  26.2625900  47.6073510  82.7366440  26.9057740  48.1755090
  80.0313540  19.9556080  49.9025560  80.5828130  20.0651420  49.1278810
  80.5457050  20.3293680  50.6180790  89.8752230  30.4412300  51.9488830
  89.3982790  31.2484490  51.7561440  89.1914020  29.7890630  52.1015040
  80.8785050  26.6062120  54.9373530  79.9813580  26.8302090  55.1846930
  80.9037920  26.7297060  53.9884930  87.9190270  23.4555240  40.8514790
  88.3583550  22.6177670  40.7052610  88.6318690  24.0884640  40.9378930
  79.7056270  23.4775440  53.5130900  79.5664040  24.3498240  53.8818300
  78.8237630  23.1348250  53.3678840  86.0285650  28.3951310  44.8196030
  86.4681560  29.1375640  44.4051420  85.9672540  28.6377880  45.7434990
  81.5036620  29.4197140  55.7216050  81.4752050  29.8240090  54.8544480
  81.3401590  28.4907500  55.5587650  91.5007410  14.7098050  39.1655830
  91.1880070  14.8024880  40.0654900  92.2619880  15.2879080  39.1153260
  93.4551440  30.2024240  57.0180220  93.9311160  30.6807130  57.6969300
  94.0758600  30.1341730  56.2925720  75.6574920  25.2472990  49.4301810
  75.7355340  25.3821760  48.4857530  76.2716600  24.5388880  49.6229930
  76.9022550  26.9473180  45.8407990  76.4950630  27.0887770  44.9861590
  77.7935560  26.6633340  45.6379200  92.8584690  27.3937090  54.1780230
  92.9847750  27.1548970  53.2597410  92.9006070  26.5621630  54.6502310
  86.7201430  31.0965090  52.7475040  87.2346100  31.0073100  53.5497470
  85.8770510  31.4424790  53.0402950  88.6955830  31.3820430  42.1759040
  88.5356970  31.0923370  43.0740870  88.5302540  30.6060560  41.6404270
  81.1744210  31.1618960  43.9530660  80.9986690  30.2454500  43.7398460
  80.3199950  31.5206250  44.1928460  88.3981960  28.8907990  40.7357040
  87.7047120  28.8885280  40.0759320  89.1404820  28.4667310  40.3051210
  87.9631890  30.5170700  44.8105530  88.4188840  29.7360080  45.1244150
  88.3024410  31.2277520  45.3546710  92.7108700  19.4469550  55.1429970
  92.0952970  19.9549220  54.6145430  92.3905120  18.5467880  55.0855910
  75.7134440  26.2887160  51.9696270  75.8765480  25.8192520  51.1515640
  76.1786890  25.7810720  52.6345110  80.4853210  15.4192920  47.0056840
  80.0421360  16.2002460  46.6741360  81.0438200  15.7422810  47.7127780
  84.7723020  18.2861440  52.6092160  84.3102390  18.4944460  53.4212100
  84.3701130  17.4720790  52.3062830  89.7727530  19.5070390  53.7388820
  88.9221120  19.2076140  54.0597890  89.6129320  19.7512400  52.8272640
  86.8677240  21.0072140  55.8387610  87.1930650  20.1735890  55.4989840
  87.6557570  21.5300660  55.9865940  83.6012030  15.0403620  41.8862670
  82.9766210  15.0363490  42.6115980  83.5142150  14.1734580  41.4898640
  82.5229110  15.9640250  48.8646440  82.8201440  16.8703080  48.7838460
  83.0714670  15.4759030  48.2506010  80.2767430  20.5426490  44.7338090
  80.0508350  20.3263660  45.6384710  79.4959960  20.9754950  44.3884060
  87.5065190  20.5489860  43.3328740  86.9074080  21.2725660  43.1492360
  88.0544800  20.4866640  42.5505190  82.7166640  21.4412070  55.3998360
  82.6210240  20.5006800  55.2498760  83.5598620  21.6627140  55.0046430
  86.1130060  19.1853400  45.3632020  86.5059630  19.5025600  44.5500710
  86.4746910  18.3065280  45.4776540  77.8477180  17.8525740  53.5532140
  77.4540570  18.7000950  53.7604920  77.1595580  17.2152110  53.7440780
  84.4222230  17.9360710  56.6228880  83.7320550  17.7432910  57.2574970
  85.1654530  18.2195350  57.1553180  75.1494230  15.7754200  47.5862220
  74.8607280  16.3457060  48.2987200  75.8939990  15.2958650  47.9493450
  86.6985200  21.7759150  49.4582800  85.9666320  22.2845960  49.8072900
  86.3009540  20.9589130  49.1571580  83.1362590  18.4513350  47.8635290
  83.1398650  18.0103300  47.0139830  84.0313710  18.7730680  47.9707110
  78.9864970  18.3339840  46.8229500  78.6465020  18.8115070  47.5796550
  78.2242290  17.8804960  46.4630600  83.1982740  19.4525430  40.8542050
  83.3195560  19.4111910  41.8027870  82.8131250  20.3149580  40.6988780
  87.1611110  17.2292830  48.8705740  87.1783850  17.6801480  49.7147590
  86.9126690  16.3298470  49.0839180  90.5881860  14.6425010  54.7092120
  90.9127630  13.9114670  55.2350100  90.6238370  14.3238650  53.8073110
  77.2873420  25.6638590  54.1292080  76.9028210  25.0232260  54.7275040
  77.5985610  26.3674710  54.6986810  83.4370560  22.5115130  49.6100700
  83.8040690  22.0373700  50.3562040  83.2475620  23.3856700  49.9509040
  76.3011050  17.2558820  45.7394170  76.0157970  16.8914490  46.5772790
  76.2389910  16.5239280  45.1257310  81.2269930  21.5523770  51.9284910
  80.9227000  22.4315750  52.1535270  82.1816390  21.6123560  51.9642350
  90.5139700  24.7550120  48.3178150  91.2338820  25.2505410  47.9274260
  90.3121520  24.0768010  47.6732020  85.9749640  16.1488080  42.4607540
  85.1614250  15.6501250  42.3852850  85.7811590  16.9886330  42.0443890
  85.8958500  24.8259180  54.2047150  85.8295810  23.9054850  53.9504740
  85.2663640  24.9234620  54.9191790  88.6898030  20.5207730  40.7569700
  89.5777650  20.8324960  40.5821040  88.6603120  19.6479980  40.3650280
  79.7989120  25.4265140  46.1630570  80.3167790  24.6233400  46.1087460
  79.3473140  25.3644280  47.0047400  77.2833660  22.3926510  53.0756270
  76.9248600  23.0580360  53.6629610  76.9888220  21.5610060  53.4468890
  80.4846780  22.8510750  55.9595820  80.1846920  22.9967930  55.0623640
  81.2558020  22.2916040  55.8669210  85.8275230  27.6479750  53.9550950
  85.8419770  26.7160710  53.7369860  85.1200330  27.7339510  54.5940720
  90.9612300  21.8319570  40.2249560  90.8776020  22.2633790  39.3746000
  91.6806490  22.2917920  40.6576380  92.0386440  24.2887090  53.3019530
  91.3134630  24.8815870  53.1048920  92.5661900  24.2810630  52.5032900
  91.9899550  28.6861830  42.9531690  91.3475710  28.0317450  43.2275410
  91.6030210  29.0916920  42.1772360  87.5686030  26.0147260  46.8003380
  87.9209850  25.4175390  46.1404750  86.6848360  25.6891490  46.9711630
  85.2609130  29.2897320  51.0491450  85.9051350  29.4956700  51.7264870
  85.6238570  28.5285720  50.5962300  78.8588300  14.1228630  44.2921670
  78.7302930  14.1146530  45.2406590  78.0350320  14.4611720  43.9412680
  86.5341210  27.2929670  49.7668900  87.1763440  26.5922830  49.8801070
  87.0590560  28.0728110  49.5865790  90.3796930  27.5778290  39.4908040
  90.1534510  26.8608730  40.0832680  89.9893130  27.3290730  38.6529790
  88.3078830  28.0924570  52.9704960  88.6435070  28.6791260  53.6482880
  87.3879170  27.9617280  53.2002750  75.8582230  15.8819750  53.7528370
  75.1440750  16.0816670  54.3580980  76.2777270  15.1059320  54.1243170
  89.9613180  25.4950230  41.1522200  89.6734880  25.9562920  41.9400080
  90.7565350  25.0348000  41.4206420  76.1454820  29.8700010  54.7394900
  76.2545940  28.9294750  54.5990290  75.4935380  30.1354760  54.0908630
  84.1367410  28.1415900  56.1393020  83.8164280  27.4225140  56.6838710
  83.4625770  28.8170970  56.2129080  87.3521010  18.3742060  51.5029820
  87.7201830  17.5537270  51.8309390  86.4919210  18.4343950  51.9185470
  90.7183040  17.3299000  42.3117380  90.0896200  17.4344670  41.5975610
  90.2234960  17.5495780  43.1011260  82.6867070  19.6084950  43.7275260
  81.9783220  20.0771290  44.1688870  82.9711550  18.9506960  44.3620450
  84.3123000  21.0281650  51.7267790  84.8108250  21.5027470  52.3919640
  84.4545950  20.1045170  51.9337820  86.7182500  16.3335610  45.1671050
  86.5950280  16.3521740  44.2180560  87.6667060  16.3814550  45.2869450
  83.8059290  31.5690910  44.4399030  84.0600790  31.5312300  43.5178400
  82.8571770  31.4424240  44.4327280  80.8902090  17.9170030  41.1025970
  81.7392620  18.3540180  41.0366160  80.5233360  18.2290290  41.9298030
  91.5189860  17.2449610  52.5696180  91.0163460  17.9855010  52.9089990
  92.3346520  17.6333610  52.2532970  89.8111870  22.4882790  46.0157540
  88.8702010  22.5033020  46.1905230  90.1255940  21.7018750  46.4617840
  91.8137450  29.6591640  47.6911800  91.9384870  30.4822810  48.1635610
  92.6803010  29.4482370  47.3435950  79.2854980  31.7522850  47.3628930
  80.0217460  31.2038310  47.6337500  79.6695900  32.6178860  47.2234920
  78.2913260  30.9368920  56.5514510  79.0925990  31.2580970  56.9649910
  77.7765080  30.5764500  57.2734420  87.1277890  27.0448790  56.4989920
  86.5216050  27.0680390  55.7585670  86.8232000  26.3131830  57.0357170
  88.5578260  30.7729080  55.1099330  89.5100010  30.6887100  55.0599570
  88.4106480  31.4370790  55.7833120  91.4487460  30.1523290  40.6091240
  91.1628970  29.7388430  39.7945420  91.2507010  31.0811000  40.4891760
  76.0111070  23.4242380  55.4950560  76.5150090  22.8449660  56.0666790
  75.2718490  23.7082610  56.0326930  83.0649010  24.8313370  55.0286080
  82.2994680  25.3998370  54.9440750  83.2464970  24.5389580  54.1354310
  86.1537420  25.2076600  39.6538840  85.6047520  25.6545900  40.2981580
  86.7756680  24.7025850  40.1776510  90.2072360  26.5618700  55.5861100
  90.9481830  26.8994460  55.0828560  89.4445040  26.7310760  55.0330870
  78.0434150  21.5671970  56.3900630  78.0839490  21.2685840  57.2985860
  78.8979650  21.9679580  56.2308150  79.9839960  20.1464070  54.3575120
  79.4536420  19.6555020  53.7298460  80.6528030  20.5748270  53.8233050
  88.8818020  24.6133530  54.1216310  89.2959040  24.7678610  54.9706730
  87.9469020  24.7388750  54.2842090  89.3540190  21.9529690  56.1255460
  89.9360960  21.1982010  56.0375940  89.5301960  22.4837130  55.3486940
  80.4712260  17.1126440  54.4372410  80.3769130  16.4947190  53.7123280
  79.8909650  17.8392730  54.2102320  83.2373700  15.6699680  51.4699800
  82.7891000  15.6923940  50.6245350  82.6038900  15.2718700  52.0670100
  83.6433250  24.5654010  52.0912240  84.0621360  25.4086740  51.9188480
  82.7241880  24.7026050  51.8619020  85.9797150  22.2970190  53.4750080
  86.0993360  21.7011330  54.2144920  86.8391150  22.3339880  53.0551380
  88.3185050  22.8507380  52.0512590  87.7920270  23.3750000  51.4477730
  88.6616390  23.4834770  52.6822320  81.4940670  30.8707020  53.2069970
  80.9561760  31.5953080  52.8878670  81.7474630  30.3937360  52.4167310
  82.7465920  18.8391540  54.7325900  83.3365610  18.5307390  55.4203720
  81.9286160  18.3671290  54.8885800  87.5659350  18.4557350  54.9658920
  86.8774870  17.7938890  54.9008910  88.2865370  18.0095620  55.4107380
  88.1959750  15.0508980  41.0249180  88.4762040  14.2076880  41.3808600
  87.4225480  15.2832090  41.5387930  84.3502880  32.1058230  53.4656620
  84.2761580  33.0093370  53.7728990  83.4481720  31.7870130  53.4378690
  82.7339170  16.2835990  39.4696380  82.3861170  15.6059980  38.8898830
  82.9351940  15.8225500  40.2839770  84.8988210  31.2716740  41.0882980
  85.7939000  31.6101710  41.1101740  84.9305840  30.5496150  40.4607260
  75.7530170  29.4332820  46.7690240  76.0833180  28.5653880  46.5368880
  76.1821170  29.6391340  47.5995200  80.3492090  27.7641830  44.4292210
  80.0487630  27.6406800  45.3296120  80.2429580  26.9050420  44.0207940
  76.2420380  30.3003410  49.5071870  75.8051370  30.4804210  50.3396020
  76.8098060  31.0578030  49.3653590  91.8782560  29.8020410  53.7949180
  91.2784550  29.8612970  53.0513100  92.0076460  28.8625390  53.9246030
  93.1184010  27.5438230  39.1318890  92.2876970  27.6114880  39.6026120
  93.2955840  28.4342350  38.8285750  92.5740470  24.2885710  41.6353090
  93.3359380  24.8582360  41.7412780  92.5894840  23.7212910  42.4061400
  76.0744810  22.8123640  45.8660750  75.4193650  22.5435280  45.2220450
  76.9122760  22.7028120  45.4162730  93.5800440  25.1435810  46.4795020
  93.9509270  24.3603130  46.0730990  94.2202370  25.8324910  46.3012320
  90.5634200  26.5272390  51.8925340  89.7494040  26.9569550  52.1551130
  90.9708400  27.1390800  51.2794390  92.6259640  24.5820080  38.7925610
  92.9008480  25.4898960  38.6644830  92.4370380  24.5182610  39.7287600
  89.0235250  17.6064930  40.0879240  89.4420130  17.4195910  39.2475900
  88.7171310  16.7543980  40.3982170  92.5224980  22.5189070  43.7855040
  92.1468580  21.7517000  43.3536330  91.7928100  22.9011770  44.2729970
  77.1120740  23.1976210  50.4064090  77.4793780  23.1103610  51.2860110
  76.5431560  22.4342760  50.3070950  91.9124600  21.6660590  53.4194560
  91.6810690  21.4373340  52.5192510  92.1729150  22.5860140  53.3739450
  76.6636740  20.1085300  54.3122510  75.7692790  20.0752060  54.6516220
  77.2034290  20.3072090  55.0773760  90.3512670  16.8917020  56.1974260
  91.2282850  16.9000420  56.5808260  90.3633510  16.1547860  55.5866610
  75.2882890  20.0222570  41.8086080  74.3846970  20.2852770  41.6337740
  75.7723510  20.2933740  41.0286040  91.7975940  20.7446560  47.0862280
  92.3213420  20.2509210  46.4552450  92.3835360  20.8796920  47.8309850
  91.9765660  20.8286430  50.6081830  91.0268370  20.7949970  50.7226820
  92.1578670  21.7386540  50.3731600  77.4784260  15.1327440  38.7583110
  78.2012390  15.6736380  39.0764330  77.7508780  14.8590860  37.8824650
  91.2875910  20.0019910  43.0254690  91.7835030  19.7690780  43.8103570
  91.0891980  19.1631750  42.6092330  77.1676450  14.3833630  48.6605730
  77.8152640  13.8331010  48.2200890  77.5878290  14.6376780  49.4821540
  92.7163070  18.6380860  45.5592370  92.6062350  18.4836900  46.4974640
  93.4770660  18.1101800  45.3167780  91.0628790  14.5774990  52.0175370
  91.7001010  15.1909130  52.3834560  91.2103680  14.6135650  51.0724600
  93.6053340  16.4688780  38.7998510  94.5302650  16.3369960  38.5916800
  93.5829130  16.5481600  39.7534960  93.6791830  17.2399440  41.4255220
  92.8843330  17.1744560  41.9548130  93.8835110  18.1750080  41.4140570
  90.6210250  31.2790990  45.4193610  91.2169320  30.9575560  44.7428030
  90.8788400  30.8062810  46.2106880  76.9208450  14.5389300  51.4031050
  76.5723270  14.9953120  52.1689230  76.5896150  13.6446430  51.4853480
  78.5272820  27.7108900  55.5684240  78.4842450  27.3401810  56.4498700
  78.6583830  28.6486470  55.7086060  82.2278850  29.2668490  51.1693960
  81.9870210  29.5343050  50.2824480  83.1681490  29.4374220  51.2244820
  84.4333270  15.7301180  54.9250470  84.3722160  16.3223010  55.6745880
  85.3733650  15.6227140  54.7800730  87.0707830  15.3871240  54.5642760
  87.6848240  15.7050530  53.9023840  87.6157390  14.9019830  55.1838620
  93.4883010  31.2862870  51.9704600  92.9941290  31.6831740  51.2531730
  92.8796300  30.6612080  52.3641880  77.5929090  14.0665500  54.6781820
  78.1412080  13.8853550  53.9147930  77.6584400  13.2759610  55.2138130
  78.3660850  30.6571150  52.6882020  77.7721170  30.5255850  53.4272060
  78.3584690  29.8209290  52.2224120  87.8115870  13.9503380  50.8912050
  86.9375710  14.2838490  50.6884980  87.7026620  13.4776560  51.7163920
  88.7187850  16.1574250  52.2753770  88.3901210  15.3426010  51.8955500
  89.6670150  16.1144060  52.1519460  91.1722460  31.9286290  49.2491340
  90.7125430  32.6802100  48.8749360  90.5434920  31.2092760  49.1906140
  77.9973080  28.0229530  51.6390060  77.2707140  27.4034820  51.5716010
  78.0582230  28.4170140  50.7688140  81.6018180  30.2374530  48.4239470
  82.1183200  29.6261890  47.8987730  82.2515560  30.7403310  48.9150480
  84.3413680  31.1283020  49.2508450  84.6291490  30.8737320  48.3741460
  84.8536900  30.5760380  49.8414020  85.5590690  14.8673220  49.8304960
  84.7762480  15.3418720  50.1101720  85.2653620  13.9628050  49.7218140
  90.1111760  15.5696320  47.8754050  90.5519850  15.5141420  47.0275650
  89.8419350  16.4854330  47.9464230  91.9750330  15.2011560  45.8862870
  91.9138730  14.2572780  45.7393890  92.7542360  15.3091650  46.4316330
  76.2803080  31.3403920  44.8486820  76.1125120  30.7074600  45.5468710
  75.4137590  31.5463320  44.4981010  76.9031100  15.1720700  42.3518680
  77.6610460  15.2849580  41.7782710  76.4408270  16.0089900  42.3062110
  83.4444910  17.2859970  45.3420990  82.6319420  16.9116860  45.0016870
  83.9486550  16.5305050  45.6442180  87.9469890  13.9502420  46.5804060
  88.5499260  14.5222630  47.0552580  87.2062880  14.5141860  46.3577960
  91.0904490  14.3523980  41.8544340  91.2855120  15.2507430  42.1211770
  90.3034360  14.1211060  42.3477290  79.2756250  15.6984750  40.8920650
  79.8049010  14.9114550  40.7628600  79.9084570  16.3775940  41.1256180
  81.4694090  15.4359890  43.9466040  80.8396830  14.7347200  44.1136170
  80.9299230  16.1964020  43.7299200  84.4086040  32.0499120  56.6176650
  85.3353350  31.8143390  56.6612610  84.3936470  32.8771120  56.1362680
  92.6431100  31.5924690  43.6150900  92.8183290  30.9062430  42.9711820
  91.9452670  32.1171740  43.2227570  81.5949650  14.7143870  56.3818530
  81.3133920  15.2177470  55.6179350  81.9769350  13.9165620  56.0160660
  80.4858750  31.9819530  41.1686210  81.2177570  31.6978810  40.6210100
  80.7452420  31.7432810  42.0585590  88.1965110  14.1297450  56.9599000
  88.0830560  14.4492060  57.8550520  89.0134850  14.5309960  56.6636280
  90.9763600  31.2768980  56.4417690  91.7688920  30.7818210  56.2343650
  91.2696750  31.9559120  57.0493300  85.7055460  19.4096510  29.4382100
  86.0820280  18.5368390  29.3255770  85.6074970  19.7455210  28.5472540
  79.8360470  17.7822140  24.8999540  79.9427220  18.6825870  25.2068300
  78.9252830  17.7340110  24.6094190  89.4879580  16.9046950  26.3710440
  90.3089200  16.4143520  26.4135920  89.5213660  17.4944610  27.1242280
  81.6768200  20.7508510  29.2324720  82.1846420  21.2489480  29.8729740
  82.2081440  19.9743710  29.0564080  93.7779130  18.9213700  32.9354070
  93.0731300  19.3095410  32.4169180  94.0437050  19.6163990  33.5375000
  89.7241060  18.8447330  29.1437980  89.0196630  19.1332220  29.7241090
  90.0853220  19.6547440  28.7837540  79.6419630  17.1017030  31.5058590
  79.9836440  17.9459080  31.2112460  78.7035440  17.2500770  31.6223930
  92.7927980  18.2902120  29.5347190  91.8452890  18.3241100  29.6662620
  93.1177970  19.1041070  29.9196550  83.3247520  14.5899300  27.8303180
  83.6322500  14.0346190  27.1138680  82.3948220  14.7243760  27.6476170
  88.2748020  25.2096430  31.4493250  88.6916810  24.9956540  30.6146710
  88.9987840  25.4669220  32.0201870  85.6997360  18.9265130  21.5630460
  84.7601030  19.0879090  21.6482920  86.0180620  19.6450810  21.0166450
  92.2210120  23.6083650  31.5409490  91.3928750  23.6776740  31.0659620
  92.8160600  24.1937960  31.0725320  89.1852130  20.3952970  32.4864360
  88.7723310  21.2206680  32.7404350  88.4528080  19.8098010  32.2940720
  89.8752230  30.4412300  33.1745340  89.3982790  31.2484490  32.9817950
  89.1914020  29.7890630  33.3271550  91.5007410  14.7098050  20.3912340
  91.1880070  14.8024880  21.2911410  92.2619880  15.2879080  20.3409770
  93.4551440  30.2024240  38.2436730  93.9311160  30.6807130  38.9225810
  94.0758600  30.1341730  37.5182230  92.8584690  27.3937090  35.4036740
  92.9847750  27.1548970  34.4853920  92.9006070  26.5621630  35.8758820
  86.7201430  31.0965090  33.9731550  87.2346100  31.0073100  34.7753980
  85.8770510  31.4424790  34.2659460  92.7108700  19.4469550  36.3686480
  92.0952970  19.9549220  35.8401940  92.3905120  18.5467880  36.3112420
  80.4853210  15.4192920  28.2313350  80.0421360  16.2002460  27.8997870
  81.0438200  15.7422810  28.9384290  84.7723020  18.2861440  33.8348670
  84.3102390  18.4944460  34.6468610  84.3701130  17.4720790  33.5319340
  89.7727530  19.5070390  34.9645330  88.9221120  19.2076140  35.2854400
  89.6129320  19.7512400  34.0529150  86.8677240  21.0072140  37.0644120
  87.1930650  20.1735890  36.7246350  87.6557570  21.5300660  37.2122450
  83.6012030  15.0403620  23.1119180  82.9766210  15.0363490  23.8372490
  83.5142150  14.1734580  22.7155150  82.5229110  15.9640250  30.0902950
  82.8201440  16.8703080  30.0094970  83.0714670  15.4759030  29.4762520
  87.5065190  20.5489860  24.5585250  86.9074080  21.2725660  24.3748870
  88.0544800  20.4866640  23.7761700  86.1130060  19.1853400  26.5888530
  86.5059630  19.5025600  25.7757220  86.4746910  18.3065280  26.7033050
  84.4222230  17.9360710  37.8485390  83.7320550  17.7432910  38.4831480
  85.1654530  18.2195350  38.3809690  75.1494230  15.7754200  28.8118730
  74.8607280  16.3457060  29.5243710  75.8939990  15.2958650  29.1749960
  86.6985200  21.7759150  30.6839310  85.9666320  22.2845960  31.0329410
  86.3009540  20.9589130  30.3828090  83.1362590  18.4513350  29.0891800
  83.1398650  18.0103300  28.2396340  84.0313710  18.7730680  29.1963620
  78.9864970  18.3339840  28.0486010  78.6465020  18.8115070  28.8053060
  78.2242290  17.8804960  27.6887110  87.1611110  17.2292830  30.0962250
  87.1783850  17.6801480  30.9404100  86.9126690  16.3298470  30.3095690
  90.5881860  14.6425010  35.9348630  90.9127630  13.9114670  36.4606610
  90.6238370  14.3238650  35.0329620  83.4370560  22.5115130  30.8357210
  83.8040690  22.0373700  31.5818550  83.2475620  23.3856700  31.1765550
  76.3011050  17.2558820  26.9650680  76.0157970  16.8914490  27.8029300
  76.2389910  16.5239280  26.3513820  85.9749640  16.1488080  23.6864050
  85.1614250  15.6501250  23.6109360  85.7811590  16.9886330  23.2700400
  85.8958500  24.8259180  35.4303660  85.8295810  23.9054850  35.1761250
  85.2663640  24.9234620  36.1448300  88.6898030  20.5207730  21.9826210
  89.5777650  20.8324960  21.8077550  88.6603120  19.6479980  21.5906790
  85.8275230  27.6479750  35.1807460  85.8419770  26.7160710  34.9626370
  85.1200330  27.7339510  35.8197230  90.9612300  21.8319570  21.4506070
  90.8776020  22.2633790  20.6002510  91.6806490  22.2917920  21.8832890
  92.0386440  24.2887090  34.5276040  91.3134630  24.8815870  34.3305430
  92.5661900  24.2810630  33.7289410  82.9576520  23.7790980  25.0455660
  83.4139300  24.5896230  25.2715850  82.6064730  23.4614120  25.8774150
  78.8588300  14.1228630  25.5178180  78.7302930  14.1146530  26.4663100
  78.0350320  14.4611720  25.1669190  88.3078830  28.0924570  34.1961470
  88.6435070  28.6791260  34.8739390  87.3879170  27.9617280  34.4259260
  87.3521010  18.3742060  32.7286330  87.7201830  17.5537270  33.0565900
  86.4919210  18.4343950  33.1441980  90.7183040  17.3299000  23.5373890
  90.0896200  17.4344670  22.8232120  90.2234960  17.5495780  24.3267770
  82.6867070  19.6084950  24.9531770  81.9783220  20.0771290  25.3945380
  82.9711550  18.9506960  25.5876960  84.3123000  21.0281650  32.9524300
  84.8108250  21.5027470  33.6176150  84.4545950  20.1045170  33.1594330
  86.7182500  16.3335610  26.3927560  86.5950280  16.3521740  25.4437070
  87.6667060  16.3814550  26.5125960  91.5189860  17.2449610  33.7952690
  91.0163460  17.9855010  34.1346500  92.3346520  17.6333610  33.4789480
  89.8111870  22.4882790  27.2414050  88.8702010  22.5033020  27.4161740
  90.1255940  21.7018750  27.6874350  87.1277890  27.0448790  37.7246430
  86.5216050  27.0680390  36.9842180  86.8232000  26.3131830  38.2613680
  88.5578260  30.7729080  36.3355840  89.5100010  30.6887100  36.2856080
  88.4106480  31.4370790  37.0089630  90.2072360  26.5618700  36.8117610
  90.9481830  26.8994460  36.3085070  89.4445040  26.7310760  36.2587380
  84.3340180  23.1905130  20.0237750  84.8545840  22.4754150  19.6578900
  84.9808580  23.8291000  20.3238260  88.8818020  24.6133530  35.3472820
  89.2959040  24.7678610  36.1963240  87.9469020  24.7388750  35.5098600
  89.3540190  21.9529690  37.3511970  89.9360960  21.1982010  37.2632450
  89.5301960  22.4837130  36.5743450  80.4712260  17.1126440  35.6628920
  80.3769130  16.4947190  34.9379790  79.8909650  17.8392730  35.4358830
  83.2373700  15.6699680  32.6956310  82.7891000  15.6923940  31.8501860
  82.6038900  15.2718700  33.2926610  83.6433250  24.5654010  33.3168750
  84.0621360  25.4086740  33.1444990  82.7241880  24.7026050  33.0875530
  85.9797150  22.2970190  34.7006590  86.0993360  21.7011330  35.4401430
  86.8391150  22.3339880  34.2807890  88.3185050  22.8507380  33.2769100
  87.7920270  23.3750000  32.6734240  88.6616390  23.4834770  33.9078830
  81.4940670  30.8707020  34.4326480  80.9561760  31.5953080  34.1135180
  81.7474630  30.3937360  33.6423820  82.7465920  18.8391540  35.9582410
  83.3365610  18.5307390  36.6460230  81.9286160  18.3671290  36.1142310
  87.5659350  18.4557350  36.1915430  86.8774870  17.7938890  36.1265420
  88.2865370  18.0095620  36.6363890  88.1959750  15.0508980  22.2505690
  88.4762040  14.2076880  22.6065110  87.4225480  15.2832090  22.7644440
  79.5154240  17.3401370  19.7096690  79.8180140  17.3468800  18.8015840
  80.2548830  16.9899230  20.2064350  84.3502880  32.1058230  34.6913130
  84.2761580  33.0093370  34.9985500  83.4481720  31.7870130  34.6635200
  82.7339170  16.2835990  20.6952890  82.3861170  15.6059980  20.1155340
  82.9351940  15.8225500  21.5096280  78.5384370  26.6443790  20.5426490
  78.9759240  27.1873460  21.1984070  79.0232100  25.8190740  20.5522830
  91.8782560  29.8020410  35.0205690  91.2784550  29.8612970  34.2769610
  92.0076460  28.8625390  35.1502540  92.5740470  24.2885710  22.8609600
  93.3359380  24.8582360  22.9669290  92.5894840  23.7212910  23.6317910
  90.5634200  26.5272390  33.1181850  89.7494040  26.9569550  33.3807640
  90.9708400  27.1390800  32.5050900  89.0235250  17.6064930  21.3135750
  89.4420130  17.4195910  20.4732410  88.7171310  16.7543980  21.6238680
  92.5224980  22.5189070  25.0111550  92.1468580  21.7517000  24.5792840
  91.7928100  22.9011770  25.4986480  91.9124600  21.6660590  34.6451070
  91.6810690  21.4373340  33.7449020  92.1729150  22.5860140  34.5995960
  90.3512670  16.8917020  37.4230770  91.2282850  16.9000420  37.8064770
  90.3633510  16.1547860  36.8123120  91.7975940  20.7446560  28.3118790
  92.3213420  20.2509210  27.6808960  92.3835360  20.8796920  29.0566360
  91.9765660  20.8286430  31.8338340  91.0268370  20.7949970  31.9483330
  92.1578670  21.7386540  31.5988110  77.4784260  15.1327440  19.9839620
  78.2012390  15.6736380  20.3020840  77.7508780  14.8590860  19.1081160
  91.2875910  20.0019910  24.2511200  91.7835030  19.7690780  25.0360080
  91.0891980  19.1631750  23.8348840  92.7163070  18.6380860  26.7848880
  92.6062350  18.4836900  27.7231150  93.4770660  18.1101800  26.5424290
  91.0628790  14.5774990  33.2431880  91.7001010  15.1909130  33.6091070
  91.2103680  14.6135650  32.2981110  93.6053340  16.4688780  20.0255020
  94.5302650  16.3369960  19.8173310  93.5829130  16.5481600  20.9791470
  93.6791830  17.2399440  22.6511730  92.8843330  17.1744560  23.1804640
  93.8835110  18.1750080  22.6397080  84.4333270  15.7301180  36.1506980
  84.3722160  16.3223010  36.9002390  85.3733650  15.6227140  36.0057240
  87.0707830  15.3871240  35.7899270  87.6848240  15.7050530  35.1280350
  87.6157390  14.9019830  36.4095130  93.4883010  31.2862870  33.1961110
  92.9941290  31.6831740  32.4788240  92.8796300  30.6612080  33.5898390
  87.8115870  13.9503380  32.1168560  86.9375710  14.2838490  31.9141490
  87.7026620  13.4776560  32.9420430  88.7187850  16.1574250  33.5010280
  88.3901210  15.3426010  33.1212010  89.6670150  16.1144060  33.3775970
  91.1722460  31.9286290  30.4747850  90.7125430  32.6802100  30.1005870
  90.5434920  31.2092760  30.4162650  85.5590690  14.8673220  31.0561470
  84.7762480  15.3418720  31.3358230  85.2653620  13.9628050  30.9474650
  90.1111760  15.5696320  29.1010560  90.5519850  15.5141420  28.2532160
  89.8419350  16.4854330  29.1720740  91.9750330  15.2011560  27.1119380
  91.9138730  14.2572780  26.9650400  92.7542360  15.3091650  27.6572840
  83.4444910  17.2859970  26.5677500  82.6319420  16.9116860  26.2273380
  83.9486550  16.5305050  26.8698690  87.9469890  13.9502420  27.8060570
  88.5499260  14.5222630  28.2809090  87.2062880  14.5141860  27.5834470
  91.0904490  14.3523980  23.0800850  91.2855120  15.2507430  23.3468280
  90.3034360  14.1211060  23.5733800  79.2756250  15.6984750  22.1177160
  79.8049010  14.9114550  21.9885110  79.9084570  16.3775940  22.3512690
  81.4694090  15.4359890  25.1722550  80.8396830  14.7347200  25.3392680
  80.9299230  16.1964020  24.9555710  84.4086040  32.0499120  37.8433160
  85.3353350  31.8143390  37.8869120  84.3936470  32.8771120  37.3619190
  81.5949650  14.7143870  37.6075040  81.3133920  15.2177470  36.8435860
  81.9769350  13.9165620  37.2417170  79.6473540  28.0984260  22.3989050
  79.0182420  28.5669360  22.9474880  79.7621370  27.2533480  22.8335240
  88.1965110  14.1297450  38.1855510  88.0830560  14.4492060  39.0807030
  89.0134850  14.5309960  37.8892790  90.9763600  31.2768980  37.6674200
  91.7688920  30.7818210  37.4600160  91.2696750  31.9559120  38.2749810
  87.1023260  22.1489920   8.5490250  87.0217310  21.2344530   8.2781960
  86.6887680  22.6456990   7.8429960  85.2341300  23.9268940  10.4299520
  84.4583400  23.4469380  10.7198090  85.8854230  23.2474590  10.2555680
  79.2507130  24.2388750  11.3075280  78.4192010  23.9837460  11.7071790
  79.8588110  24.3099520  12.0433200  89.2548730  28.3329130   9.2098650
  88.7930260  27.5616370   9.5385820  90.0674280  28.3595200   9.7151100
  79.2308390  28.2728840  11.5033300  79.5336430  27.3826580  11.3243520
  79.9751980  28.8299060  11.2755550  77.6599080  19.1990640   5.0917670
  76.7715780  19.5406610   4.9897550  77.9440270  18.9990960   4.1998500
  75.6232090  21.7996290  10.9757370  76.1948200  21.0318490  10.9761010
  75.6233630  22.0985050  10.0663980  85.4812040  30.6187140   8.8302640
  84.8623480  31.0744640   8.2597080  86.3363820  30.7738600   8.4292340
  84.6750290  26.6026130  10.4369680  84.6058570  25.6616070  10.2758810
  85.4370150  26.6927540  11.0092250  76.8656960  17.2080650  12.7626300
  76.6859800  16.3106400  13.0429060  76.4637040  17.7552520  13.4373250
  85.7055460  19.4096510  10.6638610  86.0820280  18.5368390  10.5512280
  85.6074970  19.7455210   9.7729050  79.8360470  17.7822140   6.1256050
  79.9427220  18.6825870   6.4324810  78.9252830  17.7340110   5.8350700
  89.4879580  16.9046950   7.5966950  90.3089200  16.4143520   7.6392430
  89.5213660  17.4944610   8.3498790  77.4843630  19.7041150  11.3708640
  78.1653740  19.9679520  11.9896040  77.1691680  18.8642020  11.7046650
  81.6768200  20.7508510  10.4581230  82.1846420  21.2489480  11.0986250
  82.2081440  19.9743710  10.2820590  93.7779130  18.9213700  14.1610580
  93.0731300  19.3095410  13.6425690  94.0437050  19.6163990  14.7631510
  79.9604300  15.3907070  14.7244650  79.9622740  15.9079460  13.9190550
  79.1308610  14.9137250  14.7014580  86.3475390  25.5026380   6.2234550
  85.7292660  25.9675830   5.6597270  86.8598640  26.1953860   6.6404060
  81.2107150  25.0302250  12.9018150  80.8776530  25.6571170  13.5439220
  81.3873830  25.5564130  12.1219820  89.7241060  18.8447330  10.3694490
  89.0196630  19.1332220  10.9497600  90.0853220  19.6547440  10.0094050
  79.6419630  17.1017030  12.7315100  79.9836440  17.9459080  12.4368970
  78.7035440  17.2500770  12.8480440  80.4226250  26.9983050  14.7167330
  81.0400250  27.6734130  14.4351780  79.5619370  27.4071030  14.6254830
  75.7158590  26.1882910   3.5974180  75.3386570  26.6770010   2.8659080
  75.9731660  26.8608190   4.2280710  91.3403840  28.4622460  12.6321970
  90.6567360  29.1321570  12.6238640  91.8798130  28.6603110  11.8666830
  92.7927980  18.2902120  10.7603700  91.8452890  18.3241100  10.8919130
  93.1177970  19.1041070  11.1453060  83.3247520  14.5899300   9.0559690
  83.6322500  14.0346190   8.3395190  82.3948220  14.7243760   8.8732680
  88.8762580  30.3066590  11.3467150  88.8889740  29.9028880  10.4789410
  88.3237800  31.0813880  11.2428580  90.1708000  27.0282810   6.4357320
  90.0604330  26.0857140   6.5606740  90.1676250  27.3898450   7.3220080
  88.2748020  25.2096430  12.6749760  88.6916810  24.9956540  11.8403220
  88.9987840  25.4669220  13.2458380  85.7128280  22.6548130   5.7919810
  84.7857560  22.5885510   6.0208280  85.8653100  23.5928260   5.6775050
  85.6997360  18.9265130   2.7886970  84.7601030  19.0879090   2.8739430
  86.0180620  19.6450810   2.2422960  92.2210120  23.6083650  12.7666000
  91.3928750  23.6776740  12.2916130  92.8160600  24.1937960  12.2981830
  89.7425570  24.2168430   6.2955060  89.1237990  23.8787980   5.6481360
  89.7250020  23.5728190   7.0034250  89.1852130  20.3952970  13.7120870
  88.7723310  21.2206680  13.9660860  88.4528080  19.8098010  13.5197230
  81.3184920  23.1812870   8.5739540  80.9141920  22.4690120   8.0785440
  81.4048040  22.8366110   9.4627580  81.7866620  26.8680430  10.7378750
  81.4894910  26.2625900  10.0586530  82.7366440  26.9057740  10.6268110
  80.0313540  19.9556080  12.3538580  80.5828130  20.0651420  11.5791830
  80.5457050  20.3293680  13.0693810  80.8785050  26.6062120  17.3886550
  79.9813580  26.8302090  17.6359950  80.9037920  26.7297060  16.4397950
  87.9190270  23.4555240   3.3027810  88.3583550  22.6177670   3.1565630
  88.6318690  24.0884640   3.3891950  79.7056270  23.4775440  15.9643920
  79.5664040  24.3498240  16.3331320  78.8237630  23.1348250  15.8191860
  86.0285650  28.3951310   7.2709050  86.4681560  29.1375640   6.8564440
  85.9672540  28.6377880   8.1948010  81.5036620  29.4197140  18.1729070
  81.4752050  29.8240090  17.3057500  81.3401590  28.4907500  18.0100670
  78.0189550  22.0757850   6.0746190  77.8987150  22.8019940   5.4627460
  77.7090440  21.3060760   5.5974100  75.6574920  25.2472990  11.8814830
  75.7355340  25.3821760  10.9370550  76.2716600  24.5388880  12.0742950
  76.9022550  26.9473180   8.2921010  76.4950630  27.0887770   7.4374610
  77.7935560  26.6633340   8.0892220  86.7201430  31.0965090  15.1988060
  87.2346100  31.0073100  16.0010490  85.8770510  31.4424790  15.4915970
  88.6955830  31.3820430   4.6272060  88.5356970  31.0923370   5.5253890
  88.5302540  30.6060560   4.0917290  81.1744210  31.1618960   6.4043680
  80.9986690  30.2454500   6.1911480  80.3199950  31.5206250   6.6441480
  88.3981960  28.8907990   3.1870060  87.7047120  28.8885280   2.5272340
  89.1404820  28.4667310   2.7564230  87.9631890  30.5170700   7.2618550
  88.4188840  29.7360080   7.5757170  88.3024410  31.2277520   7.8059730
  92.7108700  19.4469550  17.5942990  92.0952970  19.9549220  17.0658450
  92.3905120  18.5467880  17.5368930  75.7134440  26.2887160  14.4209290
  75.8765480  25.8192520  13.6028660  76.1786890  25.7810720  15.0858130
  80.4853210  15.4192920   9.4569860  80.0421360  16.2002460   9.1254380
  81.0438200  15.7422810  10.1640800  84.7723020  18.2861440  15.0605180
  84.3102390  18.4944460  15.8725120  84.3701130  17.4720790  14.7575850
  89.7727530  19.5070390  16.1901840  88.9221120  19.2076140  16.5110910
  89.6129320  19.7512400  15.2785660  86.8677240  21.0072140  18.2900630
  87.1930650  20.1735890  17.9502860  87.6557570  21.5300660  18.4378960
  83.6012030  15.0403620   4.3375690  82.9766210  15.0363490   5.0629000
  83.5142150  14.1734580   3.9411660  82.5229110  15.9640250  11.3159460
  82.8201440  16.8703080  11.2351480  83.0714670  15.4759030  10.7019030
  80.2767430  20.5426490   7.1851110  80.0508350  20.3263660   8.0897730
  79.4959960  20.9754950   6.8397080  87.5065190  20.5489860   5.7841760
  86.9074080  21.2725660   5.6005380  88.0544800  20.4866640   5.0018210
  82.7166640  21.4412070  17.8511380  82.6210240  20.5006800  17.7011780
  83.5598620  21.6627140  17.4559450  86.1130060  19.1853400   7.8145040
  86.5059630  19.5025600   7.0013730  86.4746910  18.3065280   7.9289560
  77.8477180  17.8525740  16.0045160  77.4540570  18.7000950  16.2117940
  77.1595580  17.2152110  16.1953800  84.4222230  17.9360710  19.0741900
  83.7320550  17.7432910  19.7087990  85.1654530  18.2195350  19.6066200
  75.1494230  15.7754200  10.0375240  74.8607280  16.3457060  10.7500220
  75.8939990  15.2958650  10.4006470  86.6985200  21.7759150  11.9095820
  85.9666320  22.2845960  12.2585920  86.3009540  20.9589130  11.6084600
  83.1362590  18.4513350  10.3148310  83.1398650  18.0103300   9.4652850
  84.0313710  18.7730680  10.4220130  78.9864970  18.3339840   9.2742520
  78.6465020  18.8115070  10.0309570  78.2242290  17.8804960   8.9143620
  83.1982740  19.4525430   3.3055070  83.3195560  19.4111910   4.2540890
  82.8131250  20.3149580   3.1501800  87.1611110  17.2292830  11.3218760
  87.1783850  17.6801480  12.1660610  86.9126690  16.3298470  11.5352200
  82.2104240  21.7626570   2.7038370  81.6421140  21.3144820   2.0774280
  82.9193240  22.1219350   2.1703520  90.5881860  14.6425010  17.1605140
  90.9127630  13.9114670  17.6863120  90.6238370  14.3238650  16.2586130
  77.2873420  25.6638590  16.5805100  76.9028210  25.0232260  17.1788060
  77.5985610  26.3674710  17.1499830  83.4370560  22.5115130  12.0613720
  83.8040690  22.0373700  12.8075060  83.2475620  23.3856700  12.4022060
  76.3011050  17.2558820   8.1907190  76.0157970  16.8914490   9.0285810
  76.2389910  16.5239280   7.5770330  81.2269930  21.5523770  14.3797930
  80.9227000  22.4315750  14.6048290  82.1816390  21.6123560  14.4155370
  79.7551720  25.7584760   4.9764780  78.9813980  25.2182380   4.8163500
  80.4846350  25.2391370   4.6382540  90.5139700  24.7550120  10.7691170
  91.2338820  25.2505410  10.3787280  90.3121520  24.0768010  10.1245040
  85.9749640  16.1488080   4.9120560  85.1614250  15.6501250   4.8365870
  85.7811590  16.9886330   4.4956910  85.8958500  24.8259180  16.6560170
  85.8295810  23.9054850  16.4017760  85.2663640  24.9234620  17.3704810
  88.6898030  20.5207730   3.2082720  89.5777650  20.8324960   3.0334060
  88.6603120  19.6479980   2.8163300  79.7989120  25.4265140   8.6143590
  80.3167790  24.6233400   8.5600480  79.3473140  25.3644280   9.4560420
  84.6858620  26.6931420   3.8870890  85.0274320  27.4373650   3.3914210
  83.8571330  27.0062540   4.2495720  77.2833660  22.3926510  15.5269290
  76.9248600  23.0580360  16.1142630  76.9888220  21.5610060  15.8981910
  90.9612300  21.8319570   2.6762580  90.8776020  22.2633790   1.8259020
  91.6806490  22.2917920   3.1089400  92.0386440  24.2887090  15.7532550
  91.3134630  24.8815870  15.5561940  92.5661900  24.2810630  14.9545920
  91.9899550  28.6861830   5.4044710  91.3475710  28.0317450   5.6788430
  91.6030210  29.0916920   4.6285380  87.5686030  26.0147260   9.2516400
  87.9209850  25.4175390   8.5917770  86.6848360  25.6891490   9.4224650
  83.6549310  26.7744950   6.6586810  84.3420440  27.3214160   7.0394400
  82.8681730  27.3185680   6.6936420  75.7941710  22.3917770   2.1503890
  76.6636560  22.6742570   2.4339810  75.3032030  23.2053640   2.0352700
  82.9576520  23.7790980   6.2712170  83.4139300  24.5896230   6.4972360
  82.6064730  23.4614120   7.1030660  85.2609130  29.2897320  13.5004470
  85.9051350  29.4956700  14.1777890  85.6238570  28.5285720  13.0475320
  78.8588300  14.1228630   6.7434690  78.7302930  14.1146530   7.6919610
  78.0350320  14.4611720   6.3925700  86.5341210  27.2929670  12.2181920
  87.1763440  26.5922830  12.3314090  87.0590560  28.0728110  12.0378810
  76.1612960  31.6045150   2.7165520  76.5210600  32.2034490   2.0622790
  76.0205300  32.1505040   3.4900550  75.8582230  15.8819750  16.2041390
  75.1440750  16.0816670  16.8094000  76.2777270  15.1059320  16.5756190
  89.9613180  25.4950230   3.6035220  89.6734880  25.9562920   4.3913100
  90.7565350  25.0348000   3.8719440  76.1454820  29.8700010  17.1907920
  76.2545940  28.9294750  17.0503310  75.4935380  30.1354760  16.5421650
  82.1781580  28.9876350   3.5339190  82.1691680  29.7206040   2.9183700
  81.2579940  28.7407930   3.6266150  77.7788220  24.2091240   4.2785950
  77.1716170  24.9490140   4.2881250  78.2537570  24.2990600   3.4524150
  87.3521010  18.3742060  13.9542840  87.7201830  17.5537270  14.2822410
  86.4919210  18.4343950  14.3698490  90.7183040  17.3299000   4.7630400
  90.0896200  17.4344670   4.0488630  90.2234960  17.5495780   5.5524280
  82.6867070  19.6084950   6.1788280  81.9783220  20.0771290   6.6201890
  82.9711550  18.9506960   6.8133470  84.3123000  21.0281650  14.1780810
  84.8108250  21.5027470  14.8432660  84.4545950  20.1045170  14.3850840
  86.7182500  16.3335610   7.6184070  86.5950280  16.3521740   6.6693580
  87.6667060  16.3814550   7.7382470  83.8059290  31.5690910   6.8912050
  84.0600790  31.5312300   5.9691420  82.8571770  31.4424240   6.8840300
  80.8902090  17.9170030   3.5538990  81.7392620  18.3540180   3.4879180
  80.5233360  18.2290290   4.3811050  91.5189860  17.2449610  15.0209200
  91.0163460  17.9855010  15.3603010  92.3346520  17.6333610  14.7045990
  89.8111870  22.4882790   8.4670560  88.8702010  22.5033020   8.6418250
  90.1255940  21.7018750   8.9130860  78.4840270  21.6027460   2.7107410
  78.5643860  20.6554970   2.8224810  79.3760020  21.9334340   2.8168070
  91.8137450  29.6591640  10.1424820  91.9384870  30.4822810  10.6148630
  92.6803010  29.4482370   9.7948970  79.2854980  31.7522850   9.8141950
  80.0217460  31.2038310  10.0850520  79.6695900  32.6178860   9.6747940
  76.1700460  27.8196420   5.6883460  75.2440240  28.0617560   5.6788870
  76.6356890  28.6470680   5.5668210  78.2913260  30.9368920  19.0027530
  79.0925990  31.2580970  19.4162930  77.7765080  30.5764500  19.7247440
  91.4487460  30.1523290   3.0604260  91.1628970  29.7388430   2.2458440
  91.2507010  31.0811000   2.9404780  83.0649010  24.8313370  17.4799100
  82.2994680  25.3998370  17.3953770  83.2464970  24.5389580  16.5867330
  86.1537420  25.2076600   2.1051860  85.6047520  25.6545900   2.7494600
  86.7756680  24.7025850   2.6289530  81.8212540  24.1667520   4.0017160
  82.2428960  24.0007390   4.8448550  81.9463380  23.3567750   3.5072300
  79.9839960  20.1464070  16.8088140  79.4536420  19.6555020  16.1811480
  80.6528030  20.5748270  16.2746070  88.8818020  24.6133530  16.5729330
  89.2959040  24.7678610  17.4219750  87.9469020  24.7388750  16.7355110
  89.3540190  21.9529690  18.5768480  89.9360960  21.1982010  18.4888960
  89.5301960  22.4837130  17.7999960  80.4712260  17.1126440  16.8885430
  80.3769130  16.4947190  16.1636300  79.8909650  17.8392730  16.6615340
  83.2373700  15.6699680  13.9212820  82.7891000  15.6923940  13.0758370
  82.6038900  15.2718700  14.5183120  83.6433250  24.5654010  14.5425260
  84.0621360  25.4086740  14.3701500  82.7241880  24.7026050  14.3132040
  85.9797150  22.2970190  15.9263100  86.0993360  21.7011330  16.6657940
  86.8391150  22.3339880  15.5064400  88.3185050  22.8507380  14.5025610
  87.7920270  23.3750000  13.8990750  88.6616390  23.4834770  15.1335340
  81.4940670  30.8707020  15.6582990  80.9561760  31.5953080  15.3391690
  81.7474630  30.3937360  14.8680330  82.7465920  18.8391540  17.1838920
  83.3365610  18.5307390  17.8716740  81.9286160  18.3671290  17.3398820
  87.5659350  18.4557350  17.4171940  86.8774870  17.7938890  17.3521930
  88.2865370  18.0095620  17.8620400  88.1959750  15.0508980   3.4762200
  88.4762040  14.2076880   3.8321620  87.4225480  15.2832090   3.9900950
  84.3502880  32.1058230  15.9169640  84.2761580  33.0093370  16.2242010
  83.4481720  31.7870130  15.8891710  84.8988210  31.2716740   3.5396000
  85.7939000  31.6101710   3.5614760  84.9305840  30.5496150   2.9120280
  78.5384370  26.6443790   1.7683000  78.9759240  27.1873460   2.4240580
  79.0232100  25.8190740   1.7779340  75.7530170  29.4332820   9.2203260
  76.0833180  28.5653880   8.9881900  76.1821170  29.6391340  10.0508220
  80.3492090  27.7641830   6.8805230  80.0487630  27.6406800   7.7809140
  80.2429580  26.9050420   6.4720960  76.2420380  30.3003410  11.9584890
  75.8051370  30.4804210  12.7909040  76.8098060  31.0578030  11.8166610
  92.5740470  24.2885710   4.0866110  93.3359380  24.8582360   4.1925800
  92.5894840  23.7212910   4.8574420  76.0744810  22.8123640   8.3173770
  75.4193650  22.5435280   7.6733470  76.9122760  22.7028120   7.8675750
  93.5800440  25.1435810   8.9308040  93.9509270  24.3603130   8.5244010
  94.2202370  25.8324910   8.7525340  90.5634200  26.5272390  14.3438360
  89.7494040  26.9569550  14.6064150  90.9708400  27.1390800  13.7307410
  89.0235250  17.6064930   2.5392260  89.4420130  17.4195910   1.6988920
  88.7171310  16.7543980   2.8495190  92.5224980  22.5189070   6.2368060
  92.1468580  21.7517000   5.8049350  91.7928100  22.9011770   6.7242990
  77.1120740  23.1976210  12.8577110  77.4793780  23.1103610  13.7373130
  76.5431560  22.4342760  12.7583970  91.9124600  21.6660590  15.8707580
  91.6810690  21.4373340  14.9705530  92.1729150  22.5860140  15.8252470
  90.3512670  16.8917020  18.6487280  91.2282850  16.9000420  19.0321280
  90.3633510  16.1547860  18.0379630  75.2882890  20.0222570   4.2599100
  74.3846970  20.2852770   4.0850760  75.7723510  20.2933740   3.4799060
  91.7975940  20.7446560   9.5375300  92.3213420  20.2509210   8.9065470
  92.3835360  20.8796920  10.2822870  91.9765660  20.8286430  13.0594850
  91.0268370  20.7949970  13.1739840  92.1578670  21.7386540  12.8244620
  91.2875910  20.0019910   5.4767710  91.7835030  19.7690780   6.2616590
  91.0891980  19.1631750   5.0605350  77.1676450  14.3833630  11.1118750
  77.8152640  13.8331010  10.6713910  77.5878290  14.6376780  11.9334560
  92.7163070  18.6380860   8.0105390  92.6062350  18.4836900   8.9487660
  93.4770660  18.1101800   7.7680800  91.0628790  14.5774990  14.4688390
  91.7001010  15.1909130  14.8347580  91.2103680  14.6135650  13.5237620
  93.6791830  17.2399440   3.8768240  92.8843330  17.1744560   4.4061150
  93.8835110  18.1750080   3.8653590  90.6210250  31.2790990   7.8706630
  91.2169320  30.9575560   7.1941050  90.8788400  30.8062810   8.6619900
  76.9208450  14.5389300  13.8544070  76.5723270  14.9953120  14.6202250
  76.5896150  13.6446430  13.9366500  78.5272820  27.7108900  18.0197260
  78.4842450  27.3401810  18.9011720  78.6583830  28.6486470  18.1599080
  82.2278850  29.2668490  13.6206980  81.9870210  29.5343050  12.7337500
  83.1681490  29.4374220  13.6757840  84.4333270  15.7301180  17.3763490
  84.3722160  16.3223010  18.1258900  85.3733650  15.6227140  17.2313750
  87.0707830  15.3871240  17.0155780  87.6848240  15.7050530  16.3536860
  87.6157390  14.9019830  17.6351640  77.5929090  14.0665500  17.1294840
  78.1412080  13.8853550  16.3660950  77.6584400  13.2759610  17.6651150
  78.3660850  30.6571150  15.1395040  77.7721170  30.5255850  15.8785080
  78.3584690  29.8209290  14.6737140  87.8115870  13.9503380  13.3425070
  86.9375710  14.2838490  13.1398000  87.7026620  13.4776560  14.1676940
  88.7187850  16.1574250  14.7266790  88.3901210  15.3426010  14.3468520
  89.6670150  16.1144060  14.6032480  91.1722460  31.9286290  11.7004360
  90.7125430  32.6802100  11.3262380  90.5434920  31.2092760  11.6419160
  77.9973080  28.0229530  14.0903080  77.2707140  27.4034820  14.0229030
  78.0582230  28.4170140  13.2201160  81.6018180  30.2374530  10.8752490
  82.1183200  29.6261890  10.3500750  82.2515560  30.7403310  11.3663500
  84.3413680  31.1283020  11.7021470  84.6291490  30.8737320  10.8254480
  84.8536900  30.5760380  12.2927040  85.5590690  14.8673220  12.2817980
  84.7762480  15.3418720  12.5614740  85.2653620  13.9628050  12.1731160
  90.1111760  15.5696320  10.3267070  90.5519850  15.5141420   9.4788670
  89.8419350  16.4854330  10.3977250  91.9750330  15.2011560   8.3375890
  91.9138730  14.2572780   8.1906910  92.7542360  15.3091650   8.8829350
  76.2803080  31.3403920   7.2999840  76.1125120  30.7074600   7.9981730
  75.4137590  31.5463320   6.9494030  76.9031100  15.1720700   4.8031700
  77.6610460  15.2849580   4.2295730  76.4408270  16.0089900   4.7575130
  83.4444910  17.2859970   7.7934010  82.6319420  16.9116860   7.4529890
  83.9486550  16.5305050   8.0955200  87.9469890  13.9502420   9.0317080
  88.5499260  14.5222630   9.5065600  87.2062880  14.5141860   8.8090980
  91.0904490  14.3523980   4.3057360  91.2855120  15.2507430   4.5724790
  90.3034360  14.1211060   4.7990310  77.8865780  30.0337150   4.7449980
  77.3613400  30.4145180   4.0411940  77.8110360  30.6587920   5.4659690
  79.2756250  15.6984750   3.3433670  79.8049010  14.9114550   3.2141620
  79.9084570  16.3775940   3.5769200  81.4694090  15.4359890   6.3979060
  80.8396830  14.7347200   6.5649190  80.9299230  16.1964020   6.1812220
  92.6431100  31.5924690   6.0663920  92.8183290  30.9062430   5.4224840
  91.9452670  32.1171740   5.6740590  81.5949650  14.7143870  18.8331550
  81.3133920  15.2177470  18.0692370  81.9769350  13.9165620  18.4673680
  80.4858750  31.9819530   3.6199230  81.2177570  31.6978810   3.0723120
  80.7452420  31.7432810   4.5098610  79.6473540  28.0984260   3.6245560
  79.0182420  28.5669360   4.1731390  79.7621370  27.2533480   4.0591750
  88.1965110  14.1297450  19.4112020  88.0830560  14.4492060  20.3063540
  89.0134850  14.5309960  19.1149300  87.1023260   3.3746430  64.8720720
  87.0217310   2.4601040  64.6012430  86.6887680   3.8713500  64.1660430
  85.2341300   5.1525450  66.7529990  84.4583400   4.6725890  67.0428560
  85.8854230   4.4731100  66.5786150  79.2507130   5.4645260  67.6305750
  78.4192010   5.2093970  68.0302260  79.8588110   5.5356030  68.3663670
  89.2548730   9.5585640  65.5329120  88.7930260   8.7872880  65.8616290
  90.0674280   9.5851710  66.0381570  79.2308390   9.4985350  67.8263770
  79.5336430   8.6083090  67.6473990  79.9751980  10.0555570  67.5986020
  75.6232090   3.0252800  67.2987840  76.1948200   2.2575000  67.2991480
  75.6233630   3.3241560  66.3894450  85.4812040  11.8443650  65.1533110
  84.8623480  12.3001150  64.5827550  86.3363820  11.9995110  64.7522810
  84.6750290   7.8282640  66.7600150  84.6058570   6.8872580  66.5989280
  85.4370150   7.9184050  67.3322720  86.3475390   6.7282890  62.5465020
  85.7292660   7.1932340  61.9827740  86.8598640   7.4210370  62.9634530
  81.2107150   6.2558760  69.2248620  80.8776530   6.8827680  69.8669690
  81.3873830   6.7820640  68.4450290  80.4226250   8.2239560  71.0397800
  81.0400250   8.8990640  70.7582250  79.5619370   8.6327540  70.9485300
  75.7158590   7.4139420  59.9204650  75.3386570   7.9026520  59.1889550
  75.9731660   8.0864700  60.5511180  91.3403840   9.6878970  68.9552440
  90.6567360  10.3578080  68.9469110  91.8798130   9.8859620  68.1897300
  88.8762580  11.5323100  67.6697620  88.8889740  11.1285390  66.8019880
  88.3237800  12.3070390  67.5659050  90.1708000   8.2539320  62.7587790
  90.0604330   7.3113650  62.8837210  90.1676250   8.6154960  63.6450550
  88.2748020   6.4352940  68.9980230  88.6916810   6.2213050  68.1633690
  88.9987840   6.6925730  69.5688850  85.7128280   3.8804640  62.1150280
  84.7857560   3.8142020  62.3438750  85.8653100   4.8184770  62.0005520
  92.2210120   4.8340160  69.0896470  91.3928750   4.9033250  68.6146600
  92.8160600   5.4194470  68.6212300  89.7425570   5.4424940  62.6185530
  89.1237990   5.1044490  61.9711830  89.7250020   4.7984700  63.3264720
  81.3184920   4.4069380  64.8970010  80.9141920   3.6946630  64.4015910
  81.4048040   4.0622620  65.7858050  81.7866620   8.0936940  67.0609220
  81.4894910   7.4882410  66.3817000  82.7366440   8.1314250  66.9498580
  89.8752230  11.6668810  70.7232320  89.3982790  12.4741000  70.5304930
  89.1914020  11.0147140  70.8758530  80.8785050   7.8318630  73.7117020
  79.9813580   8.0558600  73.9590420  80.9037920   7.9553570  72.7628420
  87.9190270   4.6811750  59.6258280  88.3583550   3.8434180  59.4796100
  88.6318690   5.3141150  59.7122420  79.7056270   4.7031950  72.2874390
  79.5664040   5.5754750  72.6561790  78.8237630   4.3604760  72.1422330
  86.0285650   9.6207820  63.5939520  86.4681560  10.3632150  63.1794910
  85.9672540   9.8634390  64.5178480  81.5036620  10.6453650  74.4959540
  81.4752050  11.0496600  73.6287970  81.3401590   9.7164010  74.3331140
  78.0189550   3.3014360  62.3976660  77.8987150   4.0276450  61.7857930
  77.7090440   2.5317270  61.9204570  75.6574920   6.4729500  68.2045300
  75.7355340   6.6078270  67.2601020  76.2716600   5.7645390  68.3973420
  76.9022550   8.1729690  64.6151480  76.4950630   8.3144280  63.7605080
  77.7935560   7.8889850  64.4122690  92.8584690   8.6193600  72.9523720
  92.9847750   8.3805480  72.0340900  92.9006070   7.7878140  73.4245800
  86.7201430  12.3221600  71.5218530  87.2346100  12.2329610  72.3240960
  85.8770510  12.6681300  71.8146440  88.6955830  12.6076940  60.9502530
  88.5356970  12.3179880  61.8484360  88.5302540  11.8317070  60.4147760
  81.1744210  12.3875470  62.7274150  80.9986690  11.4711010  62.5141950
  80.3199950  12.7462760  62.9671950  88.3981960  10.1164500  59.5100530
  87.7047120  10.1141790  58.8502810  89.1404820   9.6923820  59.0794700
  87.9631890  11.7427210  63.5849020  88.4188840  10.9616590  63.8987640
  88.3024410  12.4534030  64.1290200  75.7134440   7.5143670  70.7439760
  75.8765480   7.0449030  69.9259130  76.1786890   7.0067230  71.4088600
  86.8677240   2.2328650  74.6131100  87.1930650   1.3992400  74.2733330
  87.6557570   2.7557170  74.7609430  80.2767430   1.7683000  63.5081580
  80.0508350   1.5520170  64.4128200  79.4959960   2.2011460  63.1627550
  87.5065190   1.7746370  62.1072230  86.9074080   2.4982170  61.9235850
  88.0544800   1.7123150  61.3248680  82.7166640   2.6668580  74.1741850
  82.6210240   1.7263310  74.0242250  83.5598620   2.8883650  73.7789920
  86.6985200   3.0015660  68.2326290  85.9666320   3.5102470  68.5816390
  86.3009540   2.1845640  67.9315070  82.2104240   2.9883080  59.0268840
  81.6421140   2.5401330  58.4004750  82.9193240   3.3475860  58.4933990
  77.2873420   6.8895100  72.9035570  76.9028210   6.2488770  73.5018530
  77.5985610   7.5931220  73.4730300  83.4370560   3.7371640  68.3844190
  83.8040690   3.2630210  69.1305530  83.2475620   4.6113210  68.7252530
  81.2269930   2.7780280  70.7028400  80.9227000   3.6572260  70.9278760
  82.1816390   2.8380070  70.7385840  79.7551720   6.9841270  61.2995250
  78.9813980   6.4438890  61.1393970  80.4846350   6.4647880  60.9613010
  90.5139700   5.9806630  67.0921640  91.2338820   6.4761920  66.7017750
  90.3121520   5.3024520  66.4475510  85.8958500   6.0515690  72.9790640
  85.8295810   5.1311360  72.7248230  85.2663640   6.1491130  73.6935280
  79.7989120   6.6521650  64.9374060  80.3167790   5.8489910  64.8830950
  79.3473140   6.5900790  65.7790890  84.6858620   7.9187930  60.2101360
  85.0274320   8.6630160  59.7144680  83.8571330   8.2319050  60.5726190
  77.2833660   3.6183020  71.8499760  76.9248600   4.2836870  72.4373100
  76.9888220   2.7866570  72.2212380  80.4846780   4.0767260  74.7339310
  80.1846920   4.2224440  73.8367130  81.2558020   3.5172550  74.6412700
  85.8275230   8.8736260  72.7294440  85.8419770   7.9417220  72.5113350
  85.1200330   8.9596020  73.3684210  90.9612300   3.0576080  58.9993050
  90.8776020   3.4890300  58.1489490  91.6806490   3.5174430  59.4319870
  92.0386440   5.5143600  72.0763020  91.3134630   6.1072380  71.8792410
  92.5661900   5.5067140  71.2776390  91.9899550   9.9118340  61.7275180
  91.3475710   9.2573960  62.0018900  91.6030210  10.3173430  60.9515850
  87.5686030   7.2403770  65.5746870  87.9209850   6.6431900  64.9148240
  86.6848360   6.9148000  65.7455120  83.6549310   8.0001460  62.9817280
  84.3420440   8.5470670  63.3624870  82.8681730   8.5442190  63.0166890
  75.7941710   3.6174280  58.4734360  76.6636560   3.8999080  58.7570280
  75.3032030   4.4310150  58.3583170  82.9576520   5.0047490  62.5942640
  83.4139300   5.8152740  62.8202830  82.6064730   4.6870630  63.4261130
  85.2609130  10.5153830  69.8234940  85.9051350  10.7213210  70.5008360
  85.6238570   9.7542230  69.3705790  86.5341210   8.5186180  68.5412390
  87.1763440   7.8179340  68.6544560  87.0590560   9.2984620  68.3609280
  90.3796930   8.8034800  58.2651530  90.1534510   8.0865240  58.8576170
  89.9893130   8.5547240  57.4273280  88.3078830   9.3181080  71.7448450
  88.6435070   9.9047770  72.4226370  87.3879170   9.1873790  71.9746240
  76.1612960  12.8301660  59.0395990  76.5210600  13.4291000  58.3853260
  76.0205300  13.3761550  59.8131020  89.9613180   6.7206740  59.9265690
  89.6734880   7.1819430  60.7143570  90.7565350   6.2604510  60.1949910
  76.1454820  11.0956520  73.5138390  76.2545940  10.1551260  73.3733780
  75.4935380  11.3611270  72.8652120  82.1781580  10.2132860  59.8569660
  82.1691680  10.9462550  59.2414170  81.2579940   9.9664440  59.9496620
  77.7788220   5.4347750  60.6016420  77.1716170   6.1746650  60.6111720
  78.2537570   5.5247110  59.7754620  85.1641180  10.2761100  58.5194850
  85.2653160  10.0725090  57.5896830  84.2642920  10.0219380  58.7242630
  84.3123000   2.2538160  70.5011280  84.8108250   2.7283980  71.1663130
  84.4545950   1.3301680  70.7081310  83.8059290  12.7947420  63.2142520
  84.0600790  12.7568810  62.2921890  82.8571770  12.6680750  63.2070770
  89.8111870   3.7139300  64.7901030  88.8702010   3.7289530  64.9648720
  90.1255940   2.9275260  65.2361330  79.7893510   5.3958900  58.3504990
  80.5556780   5.2840260  58.9130420  79.8668200   4.6996870  57.6981760
  78.4840270   2.8283970  59.0337880  78.5643860   1.8811480  59.1455280
  79.3760020   3.1590850  59.1398540  91.8137450  10.8848150  66.4655290
  91.9384870  11.7079320  66.9379100  92.6803010  10.6738880  66.1179440
  79.2854980  12.9779360  66.1372420  80.0217460  12.4294820  66.4080990
  79.6695900  13.8435370  65.9978410  76.1700460   9.0452930  62.0113930
  75.2440240   9.2874070  62.0019340  76.6356890   9.8727190  61.8898680
  82.3957290  12.1509670  57.9597990  83.1885900  12.4398500  57.5079780
  81.8761640  11.7201840  57.2810470  88.5578260  11.9985590  73.8842820
  89.5100010  11.9143610  73.8343060  88.4106480  12.6627300  74.5576610
  91.4487460  11.3779800  59.3834730  91.1628970  10.9644940  58.5688910
  91.2507010  12.3067510  59.2635250  76.0111070   4.6498890  74.2694050
  76.5150090   4.0706170  74.8410280  75.2718490   4.9339120  74.8070420
  82.9134690   7.3713080  57.8240340  82.8085330   6.7565430  58.5501720
  82.7458910   6.8478970  57.0403350  83.0649010   6.0569880  73.8029570
  82.2994680   6.6254880  73.7184240  83.2464970   5.7646090  72.9097800
  86.1537420   6.4333110  58.4282330  85.6047520   6.8802410  59.0725070
  86.7756680   5.9282360  58.9520000  90.2072360   7.7875210  74.3604590
  90.9481830   8.1250970  73.8572050  89.4445040   7.9567270  73.8074360
  81.8212540   5.3924030  60.3247630  82.2428960   5.2263900  61.1679020
  81.9463380   4.5824260  59.8302770  84.3340180   4.4161640  57.5724730
  84.8545840   3.7010660  57.2065880  84.9808580   5.0547510  57.8725240
  88.8818020   5.8390040  72.8959800  89.2959040   5.9935120  73.7450220
  87.9469020   5.9645260  73.0585580  89.3540190   3.1786200  74.8998950
  89.9360960   2.4238520  74.8119430  89.5301960   3.7093640  74.1230430
  83.6433250   5.7910520  70.8655730  84.0621360   6.6343250  70.6931970
  82.7241880   5.9282560  70.6362510  85.9797150   3.5226700  72.2493570
  86.0993360   2.9267840  72.9888410  86.8391150   3.5596390  71.8294870
  88.3185050   4.0763890  70.8256080  87.7920270   4.6006510  70.2221220
  88.6616390   4.7091280  71.4565810  81.4940670  12.0963530  71.9813460
  80.9561760  12.8209590  71.6622160  81.7474630  11.6193870  71.1910800
  84.3502880  13.3314740  72.2400110  84.2761580  14.2349880  72.5472480
  83.4481720  13.0126640  72.2122180  84.8988210  12.4973250  59.8626470
  85.7939000  12.8358220  59.8845230  84.9305840  11.7752660  59.2350750
  78.5384370   7.8700300  58.0913470  78.9759240   8.4129970  58.7471050
  79.0232100   7.0447250  58.1009810  75.7530170  10.6589330  65.5433730
  76.0833180   9.7910390  65.3112370  76.1821170  10.8647850  66.3738690
  80.3492090   8.9898340  63.2035700  80.0487630   8.8663310  64.1039610
  80.2429580   8.1306930  62.7951430  76.2420380  11.5259920  68.2815360
  75.8051370  11.7060720  69.1139510  76.8098060  12.2834540  68.1397080
  91.8782560  11.0276920  72.5692670  91.2784550  11.0869480  71.8256590
  92.0076460  10.0881900  72.6989520  93.1184010   8.7694740  57.9062380
  92.2876970   8.8371390  58.3769610  93.2955840   9.6598860  57.6029240
  92.5740470   5.5142220  60.4096580  93.3359380   6.0838870  60.5156270
  92.5894840   4.9469420  61.1804890  76.0744810   4.0380150  64.6404240
  75.4193650   3.7691790  63.9963940  76.9122760   3.9284630  64.1906220
  93.5800440   6.3692320  65.2538510  93.9509270   5.5859640  64.8474480
  94.2202370   7.0581420  65.0755810  90.5634200   7.7528900  70.6668830
  89.7494040   8.1826060  70.9294620  90.9708400   8.3647310  70.0537880
  92.6259640   5.8076590  57.5669100  92.9008480   6.7155470  57.4388320
  92.4370380   5.7439120  58.5031090  92.5224980   3.7445580  62.5598530
  92.1468580   2.9773510  62.1279820  91.7928100   4.1268280  63.0473460
  77.1120740   4.4232720  69.1807580  77.4793780   4.3360120  70.0603600
  76.5431560   3.6599270  69.0814440  91.9124600   2.8917100  72.1938050
  91.6810690   2.6629850  71.2936000  92.1729150   3.8116650  72.1482940
  91.7975940   1.9703070  65.8605770  92.3213420   1.4765720  65.2295940
  92.3835360   2.1053430  66.6053340  91.9765660   2.0542940  69.3825320
  91.0268370   2.0206480  69.4970310  92.1578670   2.9643050  69.1475090
  90.6210250  12.5047500  64.1937100  91.2169320  12.1832070  63.5171520
  90.8788400  12.0319320  64.9850370  82.2278850  10.4925000  69.9437450
  81.9870210  10.7599560  69.0567970  83.1681490  10.6630730  69.9988310
  93.4883010  12.5119380  70.7448090  92.9941290  12.9088250  70.0275220
  92.8796300  11.8868590  71.1385370  78.3660850  11.8827660  71.4625510
  77.7721170  11.7512360  72.2015550  78.3584690  11.0465800  70.9967610
  91.1722460  13.1542800  68.0234830  90.7125430  13.9058610  67.6492850
  90.5434920  12.4349270  67.9649630  77.9973080   9.2486040  70.4133550
  77.2707140   8.6291330  70.3459500  78.0582230   9.6426650  69.5431630
  81.6018180  11.4631040  67.1982960  82.1183200  10.8518400  66.6731220
  82.2515560  11.9659820  67.6893970  84.3413680  12.3539530  68.0251940
  84.6291490  12.0993830  67.1484950  84.8536900  11.8016890  68.6157510
  76.2803080  12.5660430  63.6230310  76.1125120  11.9331110  64.3212200
  75.4137590  12.7719830  63.2724500  77.8865780  11.2593660  61.0680450
  77.3613400  11.6401690  60.3642410  77.8110360  11.8844430  61.7890160
  92.6431100  12.8181200  62.3894390  92.8183290  12.1318940  61.7455310
  91.9452670  13.3428250  61.9971060  80.4858750  13.2076040  59.9429700
  81.2177570  12.9235320  59.3953590  80.7452420  12.9689320  60.8329080
  79.6473540   9.3240770  59.9476030  79.0182420   9.7925870  60.4961860
  79.7621370   8.4789990  60.3822220  87.1023260   3.3746430  46.0977230
  87.0217310   2.4601040  45.8268940  86.6887680   3.8713500  45.3916940
  85.2341300   5.1525450  47.9786500  84.4583400   4.6725890  48.2685070
  85.8854230   4.4731100  47.8042660  79.2507130   5.4645260  48.8562260
  78.4192010   5.2093970  49.2558770  79.8588110   5.5356030  49.5920180
  89.2548730   9.5585640  46.7585630  88.7930260   8.7872880  47.0872800
  90.0674280   9.5851710  47.2638080  79.2308390   9.4985350  49.0520280
  79.5336430   8.6083090  48.8730500  79.9751980  10.0555570  48.8242530
  75.6232090   3.0252800  48.5244350  76.1948200   2.2575000  48.5247990
  75.6233630   3.3241560  47.6150960  85.4812040  11.8443650  46.3789620
  84.8623480  12.3001150  45.8084060  86.3363820  11.9995110  45.9779320
  84.6750290   7.8282640  47.9856660  84.6058570   6.8872580  47.8245790
  85.4370150   7.9184050  48.5579230  86.3475390   6.7282890  43.7721530
  85.7292660   7.1932340  43.2084250  86.8598640   7.4210370  44.1891040
  81.2107150   6.2558760  50.4505130  80.8776530   6.8827680  51.0926200
  81.3873830   6.7820640  49.6706800  80.4226250   8.2239560  52.2654310
  81.0400250   8.8990640  51.9838760  79.5619370   8.6327540  52.1741810
  75.7158590   7.4139420  41.1461160  75.3386570   7.9026520  40.4146060
  75.9731660   8.0864700  41.7767690  91.3403840   9.6878970  50.1808950
  90.6567360  10.3578080  50.1725620  91.8798130   9.8859620  49.4153810
  88.8762580  11.5323100  48.8954130  88.8889740  11.1285390  48.0276390
  88.3237800  12.3070390  48.7915560  90.1708000   8.2539320  43.9844300
  90.0604330   7.3113650  44.1093720  90.1676250   8.6154960  44.8707060
  88.2748020   6.4352940  50.2236740  88.6916810   6.2213050  49.3890200
  88.9987840   6.6925730  50.7945360  85.7128280   3.8804640  43.3406790
  84.7857560   3.8142020  43.5695260  85.8653100   4.8184770  43.2262030
  92.2210120   4.8340160  50.3152980  91.3928750   4.9033250  49.8403110
  92.8160600   5.4194470  49.8468810  89.7425570   5.4424940  43.8442040
  89.1237990   5.1044490  43.1968340  89.7250020   4.7984700  44.5521230
  81.3184920   4.4069380  46.1226520  80.9141920   3.6946630  45.6272420
  81.4048040   4.0622620  47.0114560  81.7866620   8.0936940  48.2865730
  81.4894910   7.4882410  47.6073510  82.7366440   8.1314250  48.1755090
  89.8752230  11.6668810  51.9488830  89.3982790  12.4741000  51.7561440
  89.1914020  11.0147140  52.1015040  80.8785050   7.8318630  54.9373530
  79.9813580   8.0558600  55.1846930  80.9037920   7.9553570  53.9884930
  87.9190270   4.6811750  40.8514790  88.3583550   3.8434180  40.7052610
  88.6318690   5.3141150  40.9378930  79.7056270   4.7031950  53.5130900
  79.5664040   5.5754750  53.8818300  78.8237630   4.3604760  53.3678840
  86.0285650   9.6207820  44.8196030  86.4681560  10.3632150  44.4051420
  85.9672540   9.8634390  45.7434990  81.5036620  10.6453650  55.7216050
  81.4752050  11.0496600  54.8544480  81.3401590   9.7164010  55.5587650
  78.0189550   3.3014360  43.6233170  77.8987150   4.0276450  43.0114440
  77.7090440   2.5317270  43.1461080  93.4551440  11.4280750  57.0180220
  93.9311160  11.9063640  57.6969300  94.0758600  11.3598240  56.2925720
  75.6574920   6.4729500  49.4301810  75.7355340   6.6078270  48.4857530
  76.2716600   5.7645390  49.6229930  76.9022550   8.1729690  45.8407990
  76.4950630   8.3144280  44.9861590  77.7935560   7.8889850  45.6379200
  92.8584690   8.6193600  54.1780230  92.9847750   8.3805480  53.2597410
  92.9006070   7.7878140  54.6502310  86.7201430  12.3221600  52.7475040
  87.2346100  12.2329610  53.5497470  85.8770510  12.6681300  53.0402950
  88.6955830  12.6076940  42.1759040  88.5356970  12.3179880  43.0740870
  88.5302540  11.8317070  41.6404270  81.1744210  12.3875470  43.9530660
  80.9986690  11.4711010  43.7398460  80.3199950  12.7462760  44.1928460
  88.3981960  10.1164500  40.7357040  87.7047120  10.1141790  40.0759320
  89.1404820   9.6923820  40.3051210  87.9631890  11.7427210  44.8105530
  88.4188840  10.9616590  45.1244150  88.3024410  12.4534030  45.3546710
  75.7134440   7.5143670  51.9696270  75.8765480   7.0449030  51.1515640
  76.1786890   7.0067230  52.6345110  86.8677240   2.2328650  55.8387610
  87.1930650   1.3992400  55.4989840  87.6557570   2.7557170  55.9865940
  80.2767430   1.7683000  44.7338090  80.0508350   1.5520170  45.6384710
  79.4959960   2.2011460  44.3884060  87.5065190   1.7746370  43.3328740
  86.9074080   2.4982170  43.1492360  88.0544800   1.7123150  42.5505190
  82.7166640   2.6668580  55.3998360  82.6210240   1.7263310  55.2498760
  83.5598620   2.8883650  55.0046430  86.6985200   3.0015660  49.4582800
  85.9666320   3.5102470  49.8072900  86.3009540   2.1845640  49.1571580
  82.2104240   2.9883080  40.2525350  81.6421140   2.5401330  39.6261260
  82.9193240   3.3475860  39.7190500  77.2873420   6.8895100  54.1292080
  76.9028210   6.2488770  54.7275040  77.5985610   7.5931220  54.6986810
  83.4370560   3.7371640  49.6100700  83.8040690   3.2630210  50.3562040
  83.2475620   4.6113210  49.9509040  81.2269930   2.7780280  51.9284910
  80.9227000   3.6572260  52.1535270  82.1816390   2.8380070  51.9642350
  79.7551720   6.9841270  42.5251760  78.9813980   6.4438890  42.3650480
  80.4846350   6.4647880  42.1869520  90.5139700   5.9806630  48.3178150
  91.2338820   6.4761920  47.9274260  90.3121520   5.3024520  47.6732020
  85.8958500   6.0515690  54.2047150  85.8295810   5.1311360  53.9504740
  85.2663640   6.1491130  54.9191790  79.7989120   6.6521650  46.1630570
  80.3167790   5.8489910  46.1087460  79.3473140   6.5900790  47.0047400
  84.6858620   7.9187930  41.4357870  85.0274320   8.6630160  40.9401190
  83.8571330   8.2319050  41.7982700  77.2833660   3.6183020  53.0756270
  76.9248600   4.2836870  53.6629610  76.9888220   2.7866570  53.4468890
  80.4846780   4.0767260  55.9595820  80.1846920   4.2224440  55.0623640
  81.2558020   3.5172550  55.8669210  85.8275230   8.8736260  53.9550950
  85.8419770   7.9417220  53.7369860  85.1200330   8.9596020  54.5940720
  90.9612300   3.0576080  40.2249560  90.8776020   3.4890300  39.3746000
  91.6806490   3.5174430  40.6576380  92.0386440   5.5143600  53.3019530
  91.3134630   6.1072380  53.1048920  92.5661900   5.5067140  52.5032900
  91.9899550   9.9118340  42.9531690  91.3475710   9.2573960  43.2275410
  91.6030210  10.3173430  42.1772360  87.5686030   7.2403770  46.8003380
  87.9209850   6.6431900  46.1404750  86.6848360   6.9148000  46.9711630
  83.6549310   8.0001460  44.2073790  84.3420440   8.5470670  44.5881380
  82.8681730   8.5442190  44.2423400  75.7941710   3.6174280  39.6990870
  76.6636560   3.8999080  39.9826790  75.3032030   4.4310150  39.5839680
  82.9576520   5.0047490  43.8199150  83.4139300   5.8152740  44.0459340
  82.6064730   4.6870630  44.6517640  85.2609130  10.5153830  51.0491450
  85.9051350  10.7213210  51.7264870  85.6238570   9.7542230  50.5962300
  86.5341210   8.5186180  49.7668900  87.1763440   7.8179340  49.8801070
  87.0590560   9.2984620  49.5865790  90.3796930   8.8034800  39.4908040
  90.1534510   8.0865240  40.0832680  89.9893130   8.5547240  38.6529790
  88.3078830   9.3181080  52.9704960  88.6435070   9.9047770  53.6482880
  87.3879170   9.1873790  53.2002750  76.1612960  12.8301660  40.2652500
  76.5210600  13.4291000  39.6109770  76.0205300  13.3761550  41.0387530
  89.9613180   6.7206740  41.1522200  89.6734880   7.1819430  41.9400080
  90.7565350   6.2604510  41.4206420  76.1454820  11.0956520  54.7394900
  76.2545940  10.1551260  54.5990290  75.4935380  11.3611270  54.0908630
  84.1367410   9.3672410  56.1393020  83.8164280   8.6481650  56.6838710
  83.4625770  10.0427480  56.2129080  82.1781580  10.2132860  41.0826170
  82.1691680  10.9462550  40.4670680  81.2579940   9.9664440  41.1753130
  77.7788220   5.4347750  41.8272930  77.1716170   6.1746650  41.8368230
  78.2537570   5.5247110  41.0011130  85.1641180  10.2761100  39.7451360
  85.2653160  10.0725090  38.8153340  84.2642920  10.0219380  39.9499140
  84.3123000   2.2538160  51.7267790  84.8108250   2.7283980  52.3919640
  84.4545950   1.3301680  51.9337820  83.8059290  12.7947420  44.4399030
  84.0600790  12.7568810  43.5178400  82.8571770  12.6680750  44.4327280
  89.8111870   3.7139300  46.0157540  88.8702010   3.7289530  46.1905230
  90.1255940   2.9275260  46.4617840  79.7893510   5.3958900  39.5761500
  80.5556780   5.2840260  40.1386930  79.8668200   4.6996870  38.9238270
  78.4840270   2.8283970  40.2594390  78.5643860   1.8811480  40.3711790
  79.3760020   3.1590850  40.3655050  91.8137450  10.8848150  47.6911800
  91.9384870  11.7079320  48.1635610  92.6803010  10.6738880  47.3435950
  79.2854980  12.9779360  47.3628930  80.0217460  12.4294820  47.6337500
  79.6695900  13.8435370  47.2234920  76.1700460   9.0452930  43.2370440
  75.2440240   9.2874070  43.2275850  76.6356890   9.8727190  43.1155190
  78.2913260  12.1625430  56.5514510  79.0925990  12.4837480  56.9649910
  77.7765080  11.8021010  57.2734420  82.3957290  12.1509670  39.1854500
  83.1885900  12.4398500  38.7336290  81.8761640  11.7201840  38.5066980
  87.1277890   8.2705300  56.4989920  86.5216050   8.2936900  55.7585670
  86.8232000   7.5388340  57.0357170  88.5578260  11.9985590  55.1099330
  89.5100010  11.9143610  55.0599570  88.4106480  12.6627300  55.7833120
  91.4487460  11.3779800  40.6091240  91.1628970  10.9644940  39.7945420
  91.2507010  12.3067510  40.4891760  76.0111070   4.6498890  55.4950560
  76.5150090   4.0706170  56.0666790  75.2718490   4.9339120  56.0326930
  82.9134690   7.3713080  39.0496850  82.8085330   6.7565430  39.7758230
  82.7458910   6.8478970  38.2659860  83.0649010   6.0569880  55.0286080
  82.2994680   6.6254880  54.9440750  83.2464970   5.7646090  54.1354310
  86.1537420   6.4333110  39.6538840  85.6047520   6.8802410  40.2981580
  86.7756680   5.9282360  40.1776510  90.2072360   7.7875210  55.5861100
  90.9481830   8.1250970  55.0828560  89.4445040   7.9567270  55.0330870
  78.0434150   2.7928480  56.3900630  78.0839490   2.4942350  57.2985860
  78.8979650   3.1936090  56.2308150  81.8212540   5.3924030  41.5504140
  82.2428960   5.2263900  42.3935530  81.9463380   4.5824260  41.0559280
  84.3340180   4.4161640  38.7981240  84.8545840   3.7010660  38.4322390
  84.9808580   5.0547510  39.0981750  88.8818020   5.8390040  54.1216310
  89.2959040   5.9935120  54.9706730  87.9469020   5.9645260  54.2842090
  89.3540190   3.1786200  56.1255460  89.9360960   2.4238520  56.0375940
  89.5301960   3.7093640  55.3486940  83.6433250   5.7910520  52.0912240
  84.0621360   6.6343250  51.9188480  82.7241880   5.9282560  51.8619020
  85.9797150   3.5226700  53.4750080  86.0993360   2.9267840  54.2144920
  86.8391150   3.5596390  53.0551380  88.3185050   4.0763890  52.0512590
  87.7920270   4.6006510  51.4477730  88.6616390   4.7091280  52.6822320
  81.4940670  12.0963530  53.2069970  80.9561760  12.8209590  52.8878670
  81.7474630  11.6193870  52.4167310  84.3502880  13.3314740  53.4656620
  84.2761580  14.2349880  53.7728990  83.4481720  13.0126640  53.4378690
  84.8988210  12.4973250  41.0882980  85.7939000  12.8358220  41.1101740
  84.9305840  11.7752660  40.4607260  78.5384370   7.8700300  39.3169980
  78.9759240   8.4129970  39.9727560  79.0232100   7.0447250  39.3266320
  75.7530170  10.6589330  46.7690240  76.0833180   9.7910390  46.5368880
  76.1821170  10.8647850  47.5995200  80.3492090   8.9898340  44.4292210
  80.0487630   8.8663310  45.3296120  80.2429580   8.1306930  44.0207940
  76.2420380  11.5259920  49.5071870  75.8051370  11.7060720  50.3396020
  76.8098060  12.2834540  49.3653590  91.8782560  11.0276920  53.7949180
  91.2784550  11.0869480  53.0513100  92.0076460  10.0881900  53.9246030
  93.1184010   8.7694740  39.1318890  92.2876970   8.8371390  39.6026120
  93.2955840   9.6598860  38.8285750  92.5740470   5.5142220  41.6353090
  93.3359380   6.0838870  41.7412780  92.5894840   4.9469420  42.4061400
  76.0744810   4.0380150  45.8660750  75.4193650   3.7691790  45.2220450
  76.9122760   3.9284630  45.4162730  93.5800440   6.3692320  46.4795020
  93.9509270   5.5859640  46.0730990  94.2202370   7.0581420  46.3012320
  90.5634200   7.7528900  51.8925340  89.7494040   8.1826060  52.1551130
  90.9708400   8.3647310  51.2794390  92.6259640   5.8076590  38.7925610
  92.9008480   6.7155470  38.6644830  92.4370380   5.7439120  39.7287600
  92.5224980   3.7445580  43.7855040  92.1468580   2.9773510  43.3536330
  91.7928100   4.1268280  44.2729970  77.1120740   4.4232720  50.4064090
  77.4793780   4.3360120  51.2860110  76.5431560   3.6599270  50.3070950
  91.9124600   2.8917100  53.4194560  91.6810690   2.6629850  52.5192510
  92.1729150   3.8116650  53.3739450  91.7975940   1.9703070  47.0862280
  92.3213420   1.4765720  46.4552450  92.3835360   2.1053430  47.8309850
  91.9765660   2.0542940  50.6081830  91.0268370   2.0206480  50.7226820
  92.1578670   2.9643050  50.3731600  90.6210250  12.5047500  45.4193610
  91.2169320  12.1832070  44.7428030  90.8788400  12.0319320  46.2106880
  78.5272820   8.9365410  55.5684240  78.4842450   8.5658320  56.4498700
  78.6583830   9.8742980  55.7086060  82.2278850  10.4925000  51.1693960
  81.9870210  10.7599560  50.2824480  83.1681490  10.6630730  51.2244820
  93.4883010  12.5119380  51.9704600  92.9941290  12.9088250  51.2531730
  92.8796300  11.8868590  52.3641880  78.3660850  11.8827660  52.6882020
  77.7721170  11.7512360  53.4272060  78.3584690  11.0465800  52.2224120
  91.1722460  13.1542800  49.2491340  90.7125430  13.9058610  48.8749360
  90.5434920  12.4349270  49.1906140  77.9973080   9.2486040  51.6390060
  77.2707140   8.6291330  51.5716010  78.0582230   9.6426650  50.7688140
  81.6018180  11.4631040  48.4239470  82.1183200  10.8518400  47.8987730
  82.2515560  11.9659820  48.9150480  84.3413680  12.3539530  49.2508450
  84.6291490  12.0993830  48.3741460  84.8536900  11.8016890  49.8414020
  76.2803080  12.5660430  44.8486820  76.1125120  11.9331110  45.5468710
  75.4137590  12.7719830  44.4981010  77.8865780  11.2593660  42.2936960
  77.3613400  11.6401690  41.5898920  77.8110360  11.8844430  43.0146670
  84.4086040  13.2755630  56.6176650  85.3353350  13.0399900  56.6612610
  84.3936470  14.1027630  56.1362680  92.6431100  12.8181200  43.6150900
  92.8183290  12.1318940  42.9711820  91.9452670  13.3428250  43.2227570
  80.4858750  13.2076040  41.1686210  81.2177570  12.9235320  40.6210100
  80.7452420  12.9689320  42.0585590  79.6473540   9.3240770  41.1732540
  79.0182420   9.7925870  41.7218370  79.7621370   8.4789990  41.6078730
  90.9763600  12.5025490  56.4417690  91.7688920  12.0074720  56.2343650
  91.2696750  13.1815630  57.0493300  87.1023260   3.3746430  27.3233740
  87.0217310   2.4601040  27.0525450  86.6887680   3.8713500  26.6173450
  85.2341300   5.1525450  29.2043010  84.4583400   4.6725890  29.4941580
  85.8854230   4.4731100  29.0299170  79.2507130   5.4645260  30.0818770
  78.4192010   5.2093970  30.4815280  79.8588110   5.5356030  30.8176690
  89.2548730   9.5585640  27.9842140  88.7930260   8.7872880  28.3129310
  90.0674280   9.5851710  28.4894590  79.2308390   9.4985350  30.2776790
  79.5336430   8.6083090  30.0987010  79.9751980  10.0555570  30.0499040
  75.6232090   3.0252800  29.7500860  76.1948200   2.2575000  29.7504500
  75.6233630   3.3241560  28.8407470  85.4812040  11.8443650  27.6046130
  84.8623480  12.3001150  27.0340570  86.3363820  11.9995110  27.2035830
  84.6750290   7.8282640  29.2113170  84.6058570   6.8872580  29.0502300
  85.4370150   7.9184050  29.7835740  86.3475390   6.7282890  24.9978040
  85.7292660   7.1932340  24.4340760  86.8598640   7.4210370  25.4147550
  81.2107150   6.2558760  31.6761640  80.8776530   6.8827680  32.3182710
  81.3873830   6.7820640  30.8963310  80.4226250   8.2239560  33.4910820
  81.0400250   8.8990640  33.2095270  79.5619370   8.6327540  33.3998320
  75.7158590   7.4139420  22.3717670  75.3386570   7.9026520  21.6402570
  75.9731660   8.0864700  23.0024200  91.3403840   9.6878970  31.4065460
  90.6567360  10.3578080  31.3982130  91.8798130   9.8859620  30.6410320
  88.8762580  11.5323100  30.1210640  88.8889740  11.1285390  29.2532900
  88.3237800  12.3070390  30.0172070  90.1708000   8.2539320  25.2100810
  90.0604330   7.3113650  25.3350230  90.1676250   8.6154960  26.0963570
  88.2748020   6.4352940  31.4493250  88.6916810   6.2213050  30.6146710
  88.9987840   6.6925730  32.0201870  85.7128280   3.8804640  24.5663300
  84.7857560   3.8142020  24.7951770  85.8653100   4.8184770  24.4518540
  92.2210120   4.8340160  31.5409490  91.3928750   4.9033250  31.0659620
  92.8160600   5.4194470  31.0725320  89.7425570   5.4424940  25.0698550
  89.1237990   5.1044490  24.4224850  89.7250020   4.7984700  25.7777740
  81.3184920   4.4069380  27.3483030  80.9141920   3.6946630  26.8528930
  81.4048040   4.0622620  28.2371070  81.7866620   8.0936940  29.5122240
  81.4894910   7.4882410  28.8330020  82.7366440   8.1314250  29.4011600
  89.8752230  11.6668810  33.1745340  89.3982790  12.4741000  32.9817950
  89.1914020  11.0147140  33.3271550  80.8785050   7.8318630  36.1630040
  79.9813580   8.0558600  36.4103440  80.9037920   7.9553570  35.2141440
  87.9190270   4.6811750  22.0771300  88.3583550   3.8434180  21.9309120
  88.6318690   5.3141150  22.1635440  79.7056270   4.7031950  34.7387410
  79.5664040   5.5754750  35.1074810  78.8237630   4.3604760  34.5935350
  86.0285650   9.6207820  26.0452540  86.4681560  10.3632150  25.6307930
  85.9672540   9.8634390  26.9691500  81.5036620  10.6453650  36.9472560
  81.4752050  11.0496600  36.0800990  81.3401590   9.7164010  36.7844160
  78.0189550   3.3014360  24.8489680  77.8987150   4.0276450  24.2370950
  77.7090440   2.5317270  24.3717590  93.4551440  11.4280750  38.2436730
  93.9311160  11.9063640  38.9225810  94.0758600  11.3598240  37.5182230
  75.6574920   6.4729500  30.6558320  75.7355340   6.6078270  29.7114040
  76.2716600   5.7645390  30.8486440  76.9022550   8.1729690  27.0664500
  76.4950630   8.3144280  26.2118100  77.7935560   7.8889850  26.8635710
  92.8584690   8.6193600  35.4036740  92.9847750   8.3805480  34.4853920
  92.9006070   7.7878140  35.8758820  86.7201430  12.3221600  33.9731550
  87.2346100  12.2329610  34.7753980  85.8770510  12.6681300  34.2659460
  88.6955830  12.6076940  23.4015550  88.5356970  12.3179880  24.2997380
  88.5302540  11.8317070  22.8660780  81.1744210  12.3875470  25.1787170
  80.9986690  11.4711010  24.9654970  80.3199950  12.7462760  25.4184970
  88.3981960  10.1164500  21.9613550  87.7047120  10.1141790  21.3015830
  89.1404820   9.6923820  21.5307720  87.9631890  11.7427210  26.0362040
  88.4188840  10.9616590  26.3500660  88.3024410  12.4534030  26.5803220
  75.7134440   7.5143670  33.1952780  75.8765480   7.0449030  32.3772150
  76.1786890   7.0067230  33.8601620  86.8677240   2.2328650  37.0644120
  87.1930650   1.3992400  36.7246350  87.6557570   2.7557170  37.2122450
  80.2767430   1.7683000  25.9594600  80.0508350   1.5520170  26.8641220
  79.4959960   2.2011460  25.6140570  87.5065190   1.7746370  24.5585250
  86.9074080   2.4982170  24.3748870  88.0544800   1.7123150  23.7761700
  82.7166640   2.6668580  36.6254870  82.6210240   1.7263310  36.4755270
  83.5598620   2.8883650  36.2302940  86.6985200   3.0015660  30.6839310
  85.9666320   3.5102470  31.0329410  86.3009540   2.1845640  30.3828090
  82.2104240   2.9883080  21.4781860  81.6421140   2.5401330  20.8517770
  82.9193240   3.3475860  20.9447010  77.2873420   6.8895100  35.3548590
  76.9028210   6.2488770  35.9531550  77.5985610   7.5931220  35.9243320
  83.4370560   3.7371640  30.8357210  83.8040690   3.2630210  31.5818550
  83.2475620   4.6113210  31.1765550  81.2269930   2.7780280  33.1541420
  80.9227000   3.6572260  33.3791780  82.1816390   2.8380070  33.1898860
  79.7551720   6.9841270  23.7508270  78.9813980   6.4438890  23.5906990
  80.4846350   6.4647880  23.4126030  90.5139700   5.9806630  29.5434660
  91.2338820   6.4761920  29.1530770  90.3121520   5.3024520  28.8988530
  85.8958500   6.0515690  35.4303660  85.8295810   5.1311360  35.1761250
  85.2663640   6.1491130  36.1448300  79.7989120   6.6521650  27.3887080
  80.3167790   5.8489910  27.3343970  79.3473140   6.5900790  28.2303910
  84.6858620   7.9187930  22.6614380  85.0274320   8.6630160  22.1657700
  83.8571330   8.2319050  23.0239210  77.2833660   3.6183020  34.3012780
  76.9248600   4.2836870  34.8886120  76.9888220   2.7866570  34.6725400
  80.4846780   4.0767260  37.1852330  80.1846920   4.2224440  36.2880150
  81.2558020   3.5172550  37.0925720  85.8275230   8.8736260  35.1807460
  85.8419770   7.9417220  34.9626370  85.1200330   8.9596020  35.8197230
  90.9612300   3.0576080  21.4506070  90.8776020   3.4890300  20.6002510
  91.6806490   3.5174430  21.8832890  92.0386440   5.5143600  34.5276040
  91.3134630   6.1072380  34.3305430  92.5661900   5.5067140  33.7289410
  91.9899550   9.9118340  24.1788200  91.3475710   9.2573960  24.4531920
  91.6030210  10.3173430  23.4028870  87.5686030   7.2403770  28.0259890
  87.9209850   6.6431900  27.3661260  86.6848360   6.9148000  28.1968140
  83.6549310   8.0001460  25.4330300  84.3420440   8.5470670  25.8137890
  82.8681730   8.5442190  25.4679910  75.7941710   3.6174280  20.9247380
  76.6636560   3.8999080  21.2083300  75.3032030   4.4310150  20.8096190
  82.9576520   5.0047490  25.0455660  83.4139300   5.8152740  25.2715850
  82.6064730   4.6870630  25.8774150  85.2609130  10.5153830  32.2747960
  85.9051350  10.7213210  32.9521380  85.6238570   9.7542230  31.8218810
  86.5341210   8.5186180  30.9925410  87.1763440   7.8179340  31.1057580
  87.0590560   9.2984620  30.8122300  90.3796930   8.8034800  20.7164550
  90.1534510   8.0865240  21.3089190  89.9893130   8.5547240  19.8786300
  88.3078830   9.3181080  34.1961470  88.6435070   9.9047770  34.8739390
  87.3879170   9.1873790  34.4259260  76.1612960  12.8301660  21.4909010
  76.5210600  13.4291000  20.8366280  76.0205300  13.3761550  22.2644040
  89.9613180   6.7206740  22.3778710  89.6734880   7.1819430  23.1656590
  90.7565350   6.2604510  22.6462930  76.1454820  11.0956520  35.9651410
  76.2545940  10.1551260  35.8246800  75.4935380  11.3611270  35.3165140
  84.1367410   9.3672410  37.3649530  83.8164280   8.6481650  37.9095220
  83.4625770  10.0427480  37.4385590  82.1781580  10.2132860  22.3082680
  82.1691680  10.9462550  21.6927190  81.2579940   9.9664440  22.4009640
  77.7788220   5.4347750  23.0529440  77.1716170   6.1746650  23.0624740
  78.2537570   5.5247110  22.2267640  85.1641180  10.2761100  20.9707870
  85.2653160  10.0725090  20.0409850  84.2642920  10.0219380  21.1755650
  84.3123000   2.2538160  32.9524300  84.8108250   2.7283980  33.6176150
  84.4545950   1.3301680  33.1594330  83.8059290  12.7947420  25.6655540
  84.0600790  12.7568810  24.7434910  82.8571770  12.6680750  25.6583790
  89.8111870   3.7139300  27.2414050  88.8702010   3.7289530  27.4161740
  90.1255940   2.9275260  27.6874350  79.7893510   5.3958900  20.8018010
  80.5556780   5.2840260  21.3643440  79.8668200   4.6996870  20.1494780
  78.4840270   2.8283970  21.4850900  78.5643860   1.8811480  21.5968300
  79.3760020   3.1590850  21.5911560  91.8137450  10.8848150  28.9168310
  91.9384870  11.7079320  29.3892120  92.6803010  10.6738880  28.5692460
  79.2854980  12.9779360  28.5885440  80.0217460  12.4294820  28.8594010
  79.6695900  13.8435370  28.4491430  76.1700460   9.0452930  24.4626950
  75.2440240   9.2874070  24.4532360  76.6356890   9.8727190  24.3411700
  78.2913260  12.1625430  37.7771020  79.0925990  12.4837480  38.1906420
  77.7765080  11.8021010  38.4990930  82.3957290  12.1509670  20.4111010
  83.1885900  12.4398500  19.9592800  81.8761640  11.7201840  19.7323490
  87.1277890   8.2705300  37.7246430  86.5216050   8.2936900  36.9842180
  86.8232000   7.5388340  38.2613680  88.5578260  11.9985590  36.3355840
  89.5100010  11.9143610  36.2856080  88.4106480  12.6627300  37.0089630
  91.4487460  11.3779800  21.8347750  91.1628970  10.9644940  21.0201930
  91.2507010  12.3067510  21.7148270  76.0111070   4.6498890  36.7207070
  76.5150090   4.0706170  37.2923300  75.2718490   4.9339120  37.2583440
  82.9134690   7.3713080  20.2753360  82.8085330   6.7565430  21.0014740
  82.7458910   6.8478970  19.4916370  83.0649010   6.0569880  36.2542590
  82.2994680   6.6254880  36.1697260  83.2464970   5.7646090  35.3610820
  86.1537420   6.4333110  20.8795350  85.6047520   6.8802410  21.5238090
  86.7756680   5.9282360  21.4033020  90.2072360   7.7875210  36.8117610
  90.9481830   8.1250970  36.3085070  89.4445040   7.9567270  36.2587380
  78.0434150   2.7928480  37.6157140  78.0839490   2.4942350  38.5242370
  78.8979650   3.1936090  37.4564660  81.8212540   5.3924030  22.7760650
  82.2428960   5.2263900  23.6192040  81.9463380   4.5824260  22.2815790
  84.3340180   4.4161640  20.0237750  84.8545840   3.7010660  19.6578900
  84.9808580   5.0547510  20.3238260  88.8818020   5.8390040  35.3472820
  89.2959040   5.9935120  36.1963240  87.9469020   5.9645260  35.5098600
  89.3540190   3.1786200  37.3511970  89.9360960   2.4238520  37.2632450
  89.5301960   3.7093640  36.5743450  83.6433250   5.7910520  33.3168750
  84.0621360   6.6343250  33.1444990  82.7241880   5.9282560  33.0875530
  85.9797150   3.5226700  34.7006590  86.0993360   2.9267840  35.4401430
  86.8391150   3.5596390  34.2807890  88.3185050   4.0763890  33.2769100
  87.7920270   4.6006510  32.6734240  88.6616390   4.7091280  33.9078830
  81.4940670  12.0963530  34.4326480  80.9561760  12.8209590  34.1135180
  81.7474630  11.6193870  33.6423820  84.3502880  13.3314740  34.6913130
  84.2761580  14.2349880  34.9985500  83.4481720  13.0126640  34.6635200
  84.8988210  12.4973250  22.3139490  85.7939000  12.8358220  22.3358250
  84.9305840  11.7752660  21.6863770  78.5384370   7.8700300  20.5426490
  78.9759240   8.4129970  21.1984070  79.0232100   7.0447250  20.5522830
  75.7530170  10.6589330  27.9946750  76.0833180   9.7910390  27.7625390
  76.1821170  10.8647850  28.8251710  80.3492090   8.9898340  25.6548720
  80.0487630   8.8663310  26.5552630  80.2429580   8.1306930  25.2464450
  76.2420380  11.5259920  30.7328380  75.8051370  11.7060720  31.5652530
  76.8098060  12.2834540  30.5910100  91.8782560  11.0276920  35.0205690
  91.2784550  11.0869480  34.2769610  92.0076460  10.0881900  35.1502540
  93.1184010   8.7694740  20.3575400  92.2876970   8.8371390  20.8282630
  93.2955840   9.6598860  20.0542260  92.5740470   5.5142220  22.8609600
  93.3359380   6.0838870  22.9669290  92.5894840   4.9469420  23.6317910
  76.0744810   4.0380150  27.0917260  75.4193650   3.7691790  26.4476960
  76.9122760   3.9284630  26.6419240  93.5800440   6.3692320  27.7051530
  93.9509270   5.5859640  27.2987500  94.2202370   7.0581420  27.5268830
  90.5634200   7.7528900  33.1181850  89.7494040   8.1826060  33.3807640
  90.9708400   8.3647310  32.5050900  92.6259640   5.8076590  20.0182120
  92.9008480   6.7155470  19.8901340  92.4370380   5.7439120  20.9544110
  92.5224980   3.7445580  25.0111550  92.1468580   2.9773510  24.5792840
  91.7928100   4.1268280  25.4986480  77.1120740   4.4232720  31.6320600
  77.4793780   4.3360120  32.5116620  76.5431560   3.6599270  31.5327460
  91.9124600   2.8917100  34.6451070  91.6810690   2.6629850  33.7449020
  92.1729150   3.8116650  34.5995960  91.7975940   1.9703070  28.3118790
  92.3213420   1.4765720  27.6808960  92.3835360   2.1053430  29.0566360
  91.9765660   2.0542940  31.8338340  91.0268370   2.0206480  31.9483330
  92.1578670   2.9643050  31.5988110  90.6210250  12.5047500  26.6450120
  91.2169320  12.1832070  25.9684540  90.8788400  12.0319320  27.4363390
  78.5272820   8.9365410  36.7940750  78.4842450   8.5658320  37.6755210
  78.6583830   9.8742980  36.9342570  82.2278850  10.4925000  32.3950470
  81.9870210  10.7599560  31.5080990  83.1681490  10.6630730  32.4501330
  93.4883010  12.5119380  33.1961110  92.9941290  12.9088250  32.4788240
  92.8796300  11.8868590  33.5898390  78.3660850  11.8827660  33.9138530
  77.7721170  11.7512360  34.6528570  78.3584690  11.0465800  33.4480630
  91.1722460  13.1542800  30.4747850  90.7125430  13.9058610  30.1005870
  90.5434920  12.4349270  30.4162650  77.9973080   9.2486040  32.8646570
  77.2707140   8.6291330  32.7972520  78.0582230   9.6426650  31.9944650
  81.6018180  11.4631040  29.6495980  82.1183200  10.8518400  29.1244240
  82.2515560  11.9659820  30.1406990  84.3413680  12.3539530  30.4764960
  84.6291490  12.0993830  29.5997970  84.8536900  11.8016890  31.0670530
  76.2803080  12.5660430  26.0743330  76.1125120  11.9331110  26.7725220
  75.4137590  12.7719830  25.7237520  77.8865780  11.2593660  23.5193470
  77.3613400  11.6401690  22.8155430  77.8110360  11.8844430  24.2403180
  84.4086040  13.2755630  37.8433160  85.3353350  13.0399900  37.8869120
  84.3936470  14.1027630  37.3619190  92.6431100  12.8181200  24.8407410
  92.8183290  12.1318940  24.1968330  91.9452670  13.3428250  24.4484080
  80.4858750  13.2076040  22.3942720  81.2177570  12.9235320  21.8466610
  80.7452420  12.9689320  23.2842100  79.6473540   9.3240770  22.3989050
  79.0182420   9.7925870  22.9474880  79.7621370   8.4789990  22.8335240
  90.9763600  12.5025490  37.6674200  91.7688920  12.0074720  37.4600160
  91.2696750  13.1815630  38.2749810  87.1023260   3.3746430   8.5490250
  87.0217310   2.4601040   8.2781960  86.6887680   3.8713500   7.8429960
  85.2341300   5.1525450  10.4299520  84.4583400   4.6725890  10.7198090
  85.8854230   4.4731100  10.2555680  79.2507130   5.4645260  11.3075280
  78.4192010   5.2093970  11.7071790  79.8588110   5.5356030  12.0433200
  89.2548730   9.5585640   9.2098650  88.7930260   8.7872880   9.5385820
  90.0674280   9.5851710   9.7151100  79.2308390   9.4985350  11.5033300
  79.5336430   8.6083090  11.3243520  79.9751980  10.0555570  11.2755550
  75.6232090   3.0252800  10.9757370  76.1948200   2.2575000  10.9761010
  75.6233630   3.3241560  10.0663980  85.4812040  11.8443650   8.8302640
  84.8623480  12.3001150   8.2597080  86.3363820  11.9995110   8.4292340
  84.6750290   7.8282640  10.4369680  84.6058570   6.8872580  10.2758810
  85.4370150   7.9184050  11.0092250  86.3475390   6.7282890   6.2234550
  85.7292660   7.1932340   5.6597270  86.8598640   7.4210370   6.6404060
  81.2107150   6.2558760  12.9018150  80.8776530   6.8827680  13.5439220
  81.3873830   6.7820640  12.1219820  80.4226250   8.2239560  14.7167330
  81.0400250   8.8990640  14.4351780  79.5619370   8.6327540  14.6254830
  75.7158590   7.4139420   3.5974180  75.3386570   7.9026520   2.8659080
  75.9731660   8.0864700   4.2280710  91.3403840   9.6878970  12.6321970
  90.6567360  10.3578080  12.6238640  91.8798130   9.8859620  11.8666830
  88.8762580  11.5323100  11.3467150  88.8889740  11.1285390  10.4789410
  88.3237800  12.3070390  11.2428580  90.1708000   8.2539320   6.4357320
  90.0604330   7.3113650   6.5606740  90.1676250   8.6154960   7.3220080
  88.2748020   6.4352940  12.6749760  88.6916810   6.2213050  11.8403220
  88.9987840   6.6925730  13.2458380  85.7128280   3.8804640   5.7919810
  84.7857560   3.8142020   6.0208280  85.8653100   4.8184770   5.6775050
  92.2210120   4.8340160  12.7666000  91.3928750   4.9033250  12.2916130
  92.8160600   5.4194470  12.2981830  89.7425570   5.4424940   6.2955060
  89.1237990   5.1044490   5.6481360  89.7250020   4.7984700   7.0034250
  81.3184920   4.4069380   8.5739540  80.9141920   3.6946630   8.0785440
  81.4048040   4.0622620   9.4627580  81.7866620   8.0936940  10.7378750
  81.4894910   7.4882410  10.0586530  82.7366440   8.1314250  10.6268110
  89.8752230  11.6668810  14.4001850  89.3982790  12.4741000  14.2074460
  89.1914020  11.0147140  14.5528060  80.8785050   7.8318630  17.3886550
  79.9813580   8.0558600  17.6359950  80.9037920   7.9553570  16.4397950
  87.9190270   4.6811750   3.3027810  88.3583550   3.8434180   3.1565630
  88.6318690   5.3141150   3.3891950  79.7056270   4.7031950  15.9643920
  79.5664040   5.5754750  16.3331320  78.8237630   4.3604760  15.8191860
  86.0285650   9.6207820   7.2709050  86.4681560  10.3632150   6.8564440
  85.9672540   9.8634390   8.1948010  81.5036620  10.6453650  18.1729070
  81.4752050  11.0496600  17.3057500  81.3401590   9.7164010  18.0100670
  78.0189550   3.3014360   6.0746190  77.8987150   4.0276450   5.4627460
  77.7090440   2.5317270   5.5974100  93.4551440  11.4280750  19.4693240
  93.9311160  11.9063640  20.1482320  94.0758600  11.3598240  18.7438740
  75.6574920   6.4729500  11.8814830  75.7355340   6.6078270  10.9370550
  76.2716600   5.7645390  12.0742950  76.9022550   8.1729690   8.2921010
  76.4950630   8.3144280   7.4374610  77.7935560   7.8889850   8.0892220
  92.8584690   8.6193600  16.6293250  92.9847750   8.3805480  15.7110430
  92.9006070   7.7878140  17.1015330  86.7201430  12.3221600  15.1988060
  87.2346100  12.2329610  16.0010490  85.8770510  12.6681300  15.4915970
  88.6955830  12.6076940   4.6272060  88.5356970  12.3179880   5.5253890
  88.5302540  11.8317070   4.0917290  81.1744210  12.3875470   6.4043680
  80.9986690  11.4711010   6.1911480  80.3199950  12.7462760   6.6441480
  88.3981960  10.1164500   3.1870060  87.7047120  10.1141790   2.5272340
  89.1404820   9.6923820   2.7564230  87.9631890  11.7427210   7.2618550
  88.4188840  10.9616590   7.5757170  88.3024410  12.4534030   7.8059730
  75.7134440   7.5143670  14.4209290  75.8765480   7.0449030  13.6028660
  76.1786890   7.0067230  15.0858130  86.8677240   2.2328650  18.2900630
  87.1930650   1.3992400  17.9502860  87.6557570   2.7557170  18.4378960
  80.2767430   1.7683000   7.1851110  80.0508350   1.5520170   8.0897730
  79.4959960   2.2011460   6.8397080  87.5065190   1.7746370   5.7841760
  86.9074080   2.4982170   5.6005380  88.0544800   1.7123150   5.0018210
  82.7166640   2.6668580  17.8511380  82.6210240   1.7263310  17.7011780
  83.5598620   2.8883650  17.4559450  86.6985200   3.0015660  11.9095820
  85.9666320   3.5102470  12.2585920  86.3009540   2.1845640  11.6084600
  82.2104240   2.9883080   2.7038370  81.6421140   2.5401330   2.0774280
  82.9193240   3.3475860   2.1703520  77.2873420   6.8895100  16.5805100
  76.9028210   6.2488770  17.1788060  77.5985610   7.5931220  17.1499830
  83.4370560   3.7371640  12.0613720  83.8040690   3.2630210  12.8075060
  83.2475620   4.6113210  12.4022060  81.2269930   2.7780280  14.3797930
  80.9227000   3.6572260  14.6048290  82.1816390   2.8380070  14.4155370
  79.7551720   6.9841270   4.9764780  78.9813980   6.4438890   4.8163500
  80.4846350   6.4647880   4.6382540  90.5139700   5.9806630  10.7691170
  91.2338820   6.4761920  10.3787280  90.3121520   5.3024520  10.1245040
  85.8958500   6.0515690  16.6560170  85.8295810   5.1311360  16.4017760
  85.2663640   6.1491130  17.3704810  79.7989120   6.6521650   8.6143590
  80.3167790   5.8489910   8.5600480  79.3473140   6.5900790   9.4560420
  84.6858620   7.9187930   3.8870890  85.0274320   8.6630160   3.3914210
  83.8571330   8.2319050   4.2495720  77.2833660   3.6183020  15.5269290
  76.9248600   4.2836870  16.1142630  76.9888220   2.7866570  15.8981910
  80.4846780   4.0767260  18.4108840  80.1846920   4.2224440  17.5136660
  81.2558020   3.5172550  18.3182230  85.8275230   8.8736260  16.4063970
  85.8419770   7.9417220  16.1882880  85.1200330   8.9596020  17.0453740
  90.9612300   3.0576080   2.6762580  90.8776020   3.4890300   1.8259020
  91.6806490   3.5174430   3.1089400  92.0386440   5.5143600  15.7532550
  91.3134630   6.1072380  15.5561940  92.5661900   5.5067140  14.9545920
  91.9899550   9.9118340   5.4044710  91.3475710   9.2573960   5.6788430
  91.6030210  10.3173430   4.6285380  87.5686030   7.2403770   9.2516400
  87.9209850   6.6431900   8.5917770  86.6848360   6.9148000   9.4224650
  83.6549310   8.0001460   6.6586810  84.3420440   8.5470670   7.0394400
  82.8681730   8.5442190   6.6936420  75.7941710   3.6174280   2.1503890
  76.6636560   3.8999080   2.4339810  75.3032030   4.4310150   2.0352700
  82.9576520   5.0047490   6.2712170  83.4139300   5.8152740   6.4972360
  82.6064730   4.6870630   7.1030660  85.2609130  10.5153830  13.5004470
  85.9051350  10.7213210  14.1777890  85.6238570   9.7542230  13.0475320
  86.5341210   8.5186180  12.2181920  87.1763440   7.8179340  12.3314090
  87.0590560   9.2984620  12.0378810  88.3078830   9.3181080  15.4217980
  88.6435070   9.9047770  16.0995900  87.3879170   9.1873790  15.6515770
  76.1612960  12.8301660   2.7165520  76.5210600  13.4291000   2.0622790
  76.0205300  13.3761550   3.4900550  89.9613180   6.7206740   3.6035220
  89.6734880   7.1819430   4.3913100  90.7565350   6.2604510   3.8719440
  76.1454820  11.0956520  17.1907920  76.2545940  10.1551260  17.0503310
  75.4935380  11.3611270  16.5421650  84.1367410   9.3672410  18.5906040
  83.8164280   8.6481650  19.1351730  83.4625770  10.0427480  18.6642100
  82.1781580  10.2132860   3.5339190  82.1691680  10.9462550   2.9183700
  81.2579940   9.9664440   3.6266150  77.7788220   5.4347750   4.2785950
  77.1716170   6.1746650   4.2881250  78.2537570   5.5247110   3.4524150
  84.3123000   2.2538160  14.1780810  84.8108250   2.7283980  14.8432660
  84.4545950   1.3301680  14.3850840  83.8059290  12.7947420   6.8912050
  84.0600790  12.7568810   5.9691420  82.8571770  12.6680750   6.8840300
  89.8111870   3.7139300   8.4670560  88.8702010   3.7289530   8.6418250
  90.1255940   2.9275260   8.9130860  78.4840270   2.8283970   2.7107410
  78.5643860   1.8811480   2.8224810  79.3760020   3.1590850   2.8168070
  91.8137450  10.8848150  10.1424820  91.9384870  11.7079320  10.6148630
  92.6803010  10.6738880   9.7948970  79.2854980  12.9779360   9.8141950
  80.0217460  12.4294820  10.0850520  79.6695900  13.8435370   9.6747940
  76.1700460   9.0452930   5.6883460  75.2440240   9.2874070   5.6788870
  76.6356890   9.8727190   5.5668210  78.2913260  12.1625430  19.0027530
  79.0925990  12.4837480  19.4162930  77.7765080  11.8021010  19.7247440
  87.1277890   8.2705300  18.9502940  86.5216050   8.2936900  18.2098690
  86.8232000   7.5388340  19.4870190  88.5578260  11.9985590  17.5612350
  89.5100010  11.9143610  17.5112590  88.4106480  12.6627300  18.2346140
  91.4487460  11.3779800   3.0604260  91.1628970  10.9644940   2.2458440
  91.2507010  12.3067510   2.9404780  76.0111070   4.6498890  17.9463580
  76.5150090   4.0706170  18.5179810  75.2718490   4.9339120  18.4839950
  83.0649010   6.0569880  17.4799100  82.2994680   6.6254880  17.3953770
  83.2464970   5.7646090  16.5867330  86.1537420   6.4333110   2.1051860
  85.6047520   6.8802410   2.7494600  86.7756680   5.9282360   2.6289530
  90.2072360   7.7875210  18.0374120  90.9481830   8.1250970  17.5341580
  89.4445040   7.9567270  17.4843890  78.0434150   2.7928480  18.8413650
  78.0839490   2.4942350  19.7498880  78.8979650   3.1936090  18.6821170
  81.8212540   5.3924030   4.0017160  82.2428960   5.2263900   4.8448550
  81.9463380   4.5824260   3.5072300  88.8818020   5.8390040  16.5729330
  89.2959040   5.9935120  17.4219750  87.9469020   5.9645260  16.7355110
  89.3540190   3.1786200  18.5768480  89.9360960   2.4238520  18.4888960
  89.5301960   3.7093640  17.7999960  83.6433250   5.7910520  14.5425260
  84.0621360   6.6343250  14.3701500  82.7241880   5.9282560  14.3132040
  85.9797150   3.5226700  15.9263100  86.0993360   2.9267840  16.6657940
  86.8391150   3.5596390  15.5064400  88.3185050   4.0763890  14.5025610
  87.7920270   4.6006510  13.8990750  88.6616390   4.7091280  15.1335340
  81.4940670  12.0963530  15.6582990  80.9561760  12.8209590  15.3391690
  81.7474630  11.6193870  14.8680330  84.3502880  13.3314740  15.9169640
  84.2761580  14.2349880  16.2242010  83.4481720  13.0126640  15.8891710
  84.8988210  12.4973250   3.5396000  85.7939000  12.8358220   3.5614760
  84.9305840  11.7752660   2.9120280  78.5384370   7.8700300   1.7683000
  78.9759240   8.4129970   2.4240580  79.0232100   7.0447250   1.7779340
  75.7530170  10.6589330   9.2203260  76.0833180   9.7910390   8.9881900
  76.1821170  10.8647850  10.0508220  80.3492090   8.9898340   6.8805230
  80.0487630   8.8663310   7.7809140  80.2429580   8.1306930   6.4720960
  76.2420380  11.5259920  11.9584890  75.8051370  11.7060720  12.7909040
  76.8098060  12.2834540  11.8166610  91.8782560  11.0276920  16.2462200
  91.2784550  11.0869480  15.5026120  92.0076460  10.0881900  16.3759050
  92.5740470   5.5142220   4.0866110  93.3359380   6.0838870   4.1925800
  92.5894840   4.9469420   4.8574420  76.0744810   4.0380150   8.3173770
  75.4193650   3.7691790   7.6733470  76.9122760   3.9284630   7.8675750
  93.5800440   6.3692320   8.9308040  93.9509270   5.5859640   8.5244010
  94.2202370   7.0581420   8.7525340  90.5634200   7.7528900  14.3438360
  89.7494040   8.1826060  14.6064150  90.9708400   8.3647310  13.7307410
  92.5224980   3.7445580   6.2368060  92.1468580   2.9773510   5.8049350
  91.7928100   4.1268280   6.7242990  77.1120740   4.4232720  12.8577110
  77.4793780   4.3360120  13.7373130  76.5431560   3.6599270  12.7583970
  91.9124600   2.8917100  15.8707580  91.6810690   2.6629850  14.9705530
  92.1729150   3.8116650  15.8252470  91.7975940   1.9703070   9.5375300
  92.3213420   1.4765720   8.9065470  92.3835360   2.1053430  10.2822870
  91.9765660   2.0542940  13.0594850  91.0268370   2.0206480  13.1739840
  92.1578670   2.9643050  12.8244620  90.6210250  12.5047500   7.8706630
  91.2169320  12.1832070   7.1941050  90.8788400  12.0319320   8.6619900
  78.5272820   8.9365410  18.0197260  78.4842450   8.5658320  18.9011720
  78.6583830   9.8742980  18.1599080  82.2278850  10.4925000  13.6206980
  81.9870210  10.7599560  12.7337500  83.1681490  10.6630730  13.6757840
  93.4883010  12.5119380  14.4217620  92.9941290  12.9088250  13.7044750
  92.8796300  11.8868590  14.8154900  78.3660850  11.8827660  15.1395040
  77.7721170  11.7512360  15.8785080  78.3584690  11.0465800  14.6737140
  91.1722460  13.1542800  11.7004360  90.7125430  13.9058610  11.3262380
  90.5434920  12.4349270  11.6419160  77.9973080   9.2486040  14.0903080
  77.2707140   8.6291330  14.0229030  78.0582230   9.6426650  13.2201160
  81.6018180  11.4631040  10.8752490  82.1183200  10.8518400  10.3500750
  82.2515560  11.9659820  11.3663500  84.3413680  12.3539530  11.7021470
  84.6291490  12.0993830  10.8254480  84.8536900  11.8016890  12.2927040
  76.2803080  12.5660430   7.2999840  76.1125120  11.9331110   7.9981730
  75.4137590  12.7719830   6.9494030  77.8865780  11.2593660   4.7449980
  77.3613400  11.6401690   4.0411940  77.8110360  11.8844430   5.4659690
  84.4086040  13.2755630  19.0689670  85.3353350  13.0399900  19.1125630
  84.3936470  14.1027630  18.5875700  92.6431100  12.8181200   6.0663920
  92.8183290  12.1318940   5.4224840  91.9452670  13.3428250   5.6740590
  80.4858750  13.2076040   3.6199230  81.2177570  12.9235320   3.0723120
  80.7452420  12.9689320   4.5098610  79.6473540   9.3240770   3.6245560
  79.0182420   9.7925870   4.1731390  79.7621370   8.4789990   4.0591750
  90.9763600  12.5025490  18.8930710  91.7688920  12.0074720  18.6856670
  91.2696750  13.1815630  19.5006320  68.3279770  97.2463880  64.8720720
  68.2473820  96.3318490  64.6012430  67.9144190  97.7430950  64.1660430
  66.4597810  99.0242900  66.7529990  65.6839910  98.5443340  67.0428560
  67.1110740  98.3448550  66.5786150  60.4763640  99.3362710  67.6305750
  59.6448520  99.0811420  68.0302260  61.0844620  99.4073480  68.3663670
  58.8855590  94.2964600  61.4148140  57.9972290  94.6380570  61.3128020
  59.1696780  94.0964920  60.5228970  56.8488600  96.8970250  67.2987840
  57.4204710  96.1292450  67.2991480  56.8490140  97.1959010  66.3894450
  58.0913470  92.3054610  69.0856770  57.9116310  91.4080360  69.3659530
  57.6893550  92.8526480  69.7603720  66.9311970  94.5070470  66.9869080
  67.3076790  93.6342350  66.8742750  66.8331480  94.8429170  66.0959520
  61.0616980  92.8796100  62.4486520  61.1683730  93.7799830  62.7555280
  60.1509340  92.8314070  62.1581170  70.7136090  92.0020910  63.9197420
  71.5345710  91.5117480  63.9622900  70.7470170  92.5918570  64.6729260
  58.7100140  94.8015110  67.6939110  59.3910250  95.0653480  68.3126510
  58.3948190  93.9615980  68.0277120  62.9024710  95.8482470  66.7811700
  63.4102930  96.3463440  67.4216720  63.4337950  95.0717670  66.6051060
  75.0035640  94.0187660  70.4841050  74.2987810  94.4069370  69.9656160
  75.2693560  94.7137950  71.0861980  61.1860810  90.4881030  71.0475120
  61.1879250  91.0053420  70.2421020  60.3565120  90.0111210  71.0245050
  62.4363660 100.1276210  69.2248620  62.1033040 100.7545130  69.8669690
  62.6130340 100.6538090  68.4450290  70.9497570  93.9421290  66.6924960
  70.2453140  94.2306180  67.2728070  71.3109730  94.7521400  66.3324520
  60.8676140  92.1990990  69.0545570  61.2092950  93.0433040  68.7599440
  59.9291950  92.3474730  69.1710910  74.0184490  93.3876080  67.0834170
  73.0709400  93.4215060  67.2149600  74.3434480  94.2015030  67.4683530
  64.5504030  89.6873260  65.3790160  64.8579010  89.1320150  64.6625660
  63.6204730  89.8217720  65.1963150  69.5004530 100.3070390  68.9980230
  69.9173320 100.0930500  68.1633690  70.2244350 100.5643180  69.5688850
  66.9384790  97.7522090  62.1150280  66.0114070  97.6859470  62.3438750
  67.0909610  98.6902220  62.0005520  66.9253870  94.0239090  59.1117440
  65.9857540  94.1853050  59.1969900  67.2437130  94.7424770  58.5653430
  73.4466630  98.7057610  69.0896470  72.6185260  98.7750700  68.6146600
  74.0417110  99.2911920  68.6212300  70.9682080  99.3142390  62.6185530
  70.3494500  98.9761940  61.9711830  70.9506530  98.6702150  63.3264720
  70.4108640  95.4926930  70.0351340  69.9979820  96.3180640  70.2891330
  69.6784590  94.9071970  69.8427700  62.5441430  98.2786830  64.8970010
  62.1398430  97.5664080  64.4015910  62.6304550  97.9340070  65.7858050
  61.2570050  95.0530040  68.6769050  61.8084640  95.1625380  67.9022300
  61.7713560  95.4267640  69.3924280  69.1446780  98.5529200  59.6258280
  69.5840060  97.7151630  59.4796100  69.8575200  99.1858600  59.7122420
  60.9312780  98.5749400  72.2874390  60.7920550  99.4472200  72.6561790
  60.0494140  98.2322210  72.1422330  72.7263920  89.8072010  57.9399320
  72.4136580  89.8998840  58.8398390  73.4876390  90.3853040  57.8896750
  59.2446060  97.1731810  62.3976660  59.1243660  97.8993900  61.7857930
  58.9346950  96.4034720  61.9204570  56.8831430 100.3446950  68.2045300
  56.9611850 100.4795720  67.2601020  57.4973110  99.6362840  68.3973420
  73.9365210  94.5443510  73.9173460  73.3209480  95.0523180  73.3888920
  73.6161630  93.6441840  73.8599400  61.7109720  90.5166880  65.7800330
  61.2677870  91.2976420  65.4484850  62.2694710  90.8396770  66.4871270
  65.9979530  93.3835400  71.3835650  65.5358900  93.5918420  72.1955590
  65.5957640  92.5694750  71.0806320  70.9984040  94.6044350  72.5132310
  70.1477630  94.3050100  72.8341380  70.8385830  94.8486360  71.6016130
  68.0933750  96.1046100  74.6131100  68.4187160  95.2709850  74.2733330
  68.8814080  96.6274620  74.7609430  64.8268540  90.1377580  60.6606160
  64.2022720  90.1337450  61.3859470  64.7398660  89.2708540  60.2642130
  63.7485620  91.0614210  67.6389930  64.0457950  91.9677040  67.5581950
  64.2971180  90.5732990  67.0249500  61.5023940  95.6400450  63.5081580
  61.2764860  95.4237620  64.4128200  60.7216470  96.0728910  63.1627550
  68.7321700  95.6463820  62.1072230  68.1330590  96.3699620  61.9235850
  69.2801310  95.5840600  61.3248680  63.9423150  96.5386030  74.1741850
  63.8466750  95.5980760  74.0242250  64.7855130  96.7601100  73.7789920
  67.3386570  94.2827360  64.1375510  67.7316140  94.5999560  63.3244200
  67.7003420  93.4039240  64.2520030  59.0733690  92.9499700  72.3275630
  58.6797080  93.7974910  72.5348410  58.3852090  92.3126070  72.5184270
  56.3750740  90.8728160  66.3605710  56.0863790  91.4431020  67.0730690
  57.1196500  90.3932610  66.7236940  56.5620970  94.8148280  57.5708430
  56.4795640  95.7579040  57.7123420  56.2104030  94.6723190  56.6920780
  67.9241710  96.8733110  68.2326290  67.1922830  97.3819920  68.5816390
  67.5266050  96.0563090  67.9315070  64.3619100  93.5487310  66.6378780
  64.3655160  93.1077260  65.7883320  65.2570220  93.8704640  66.7450600
  60.2121480  93.4313800  65.5972990  59.8721530  93.9089030  66.3540040
  59.4498800  92.9778920  65.2374090  64.4239250  94.5499390  59.6285540
  64.5452070  94.5085870  60.5771360  64.0387760  95.4123540  59.4732270
  68.3867620  92.3266790  67.6449230  68.4040360  92.7775440  68.4891080
  68.1383200  91.4272430  67.8582670  63.4360750  96.8600530  59.0268840
  62.8677650  96.4118780  58.4004750  64.1449750  97.2193310  58.4933990
  71.8138370  89.7398970  73.4835610  72.1384140  89.0088630  74.0093590
  71.8494880  89.4212610  72.5816600  64.6627070  97.6089090  68.3844190
  65.0297200  97.1347660  69.1305530  64.4732130  98.4830660  68.7252530
  57.5267560  92.3532780  64.5137660  57.2414480  91.9888450  65.3516280
  57.4646420  91.6213240  63.9000800  62.4526440  96.6497730  70.7028400
  62.1483510  97.5289710  70.9278760  63.4072900  96.7097520  70.7385840
  60.9808230 100.8558720  61.2995250  60.2070490 100.3156340  61.1393970
  61.7102860 100.3365330  60.9613010  71.7396210  99.8524080  67.0921640
  72.4595330 100.3479370  66.7017750  71.5378030  99.1741970  66.4475510
  67.2006150  91.2462040  61.2351030  66.3870760  90.7475210  61.1596340
  67.0068100  92.0860290  60.8187380  67.1215010  99.9233140  72.9790640
  67.0552320  99.0028810  72.7248230  66.4920150 100.0208580  73.6935280
  69.9154540  95.6181690  59.5313190  70.8034160  95.9298920  59.3564530
  69.8859630  94.7453940  59.1393770  61.0245630 100.5239100  64.9374060
  61.5424300  99.7207360  64.8830950  60.5729650 100.4618240  65.7790890
  58.5090170  97.4900470  71.8499760  58.1505110  98.1554320  72.4373100
  58.2144730  96.6584020  72.2212380  61.7103290  97.9484710  74.7339310
  61.4103430  98.0941890  73.8367130  62.4814530  97.3890000  74.6412700
  72.1868810  96.9293530  58.9993050  72.1032530  97.3607750  58.1489490
  72.9063000  97.3891880  59.4319870  73.2642950  99.3861050  72.0763020
  72.5391140  99.9789830  71.8792410  73.7918410  99.3784590  71.2776390
  57.0198220  97.4891730  58.4734360  57.8893070  97.7716530  58.7570280
  56.5288540  98.3027600  58.3583170  64.1833030  98.8764940  62.5942640
  64.6395810  99.6870190  62.8202830  63.8321240  98.5588080  63.4261130
  60.0844810  89.2202590  63.0665160  59.9559440  89.2120490  64.0150080
  59.2606830  89.5585680  62.7156170  57.0838740  90.9793710  72.5271860
  56.3697260  91.1790630  73.1324470  57.5033780  90.2033280  72.8986660
  59.0044730  99.3065200  60.6016420  58.3972680 100.0464100  60.6111720
  59.4794080  99.3964560  59.7754620  68.5777520  93.4716020  70.2773310
  68.9458340  92.6511230  70.6052880  67.7175720  93.5317910  70.6928960
  71.9439550  92.4272960  61.0860870  71.3152710  92.5318630  60.3719100
  71.4491470  92.6469740  61.8754750  63.9123580  94.7058910  62.5018750
  63.2039730  95.1745250  62.9432360  64.1968060  94.0480920  63.1363940
  65.5379510  96.1255610  70.5011280  66.0364760  96.6001430  71.1663130
  65.6802460  95.2019130  70.7081310  67.9439010  91.4309570  63.9414540
  67.8206790  91.4495700  62.9924050  68.8923570  91.4788510  64.0612940
  62.1158600  93.0143990  59.8769460  62.9649130  93.4514140  59.8109650
  61.7489870  93.3264250  60.7041520  72.7446370  92.3423570  71.3439670
  72.2419970  93.0828970  71.6833480  73.5603030  92.7307570  71.0276460
  71.0368380  97.5856750  64.7901030  70.0958520  97.6006980  64.9648720
  71.3512450  96.7992710  65.2361330  61.0150020  99.2676350  58.3504990
  61.7813290  99.1557710  58.9130420  61.0924710  98.5714320  57.6981760
  59.7096780  96.7001420  59.0337880  59.7900370  95.7528930  59.1455280
  60.6016530  97.0308300  59.1398540  57.2367580  98.5216340  74.2694050
  57.7406600  97.9423620  74.8410280  56.4975000  98.8056570  74.8070420
  64.2905520  99.9287330  73.8029570  63.5251190 100.4972330  73.7184240
  64.4721480  99.6363540  72.9097800  67.3793930 100.3050560  58.4282330
  66.8304030 100.7519860  59.0725070  68.0013190  99.7999810  58.9520000
  63.0469050  99.2641480  60.3247630  63.4685470  99.0981350  61.1679020
  63.1719890  98.4541710  59.8302770  61.2096470  95.2438030  73.1318610
  60.6792930  94.7528980  72.5041950  61.8784540  95.6722230  72.5976540
  65.5596690  98.2879090  57.5724730  66.0802350  97.5728110  57.2065880
  66.2065090  98.9264960  57.8725240  70.1074530  99.7107490  72.8959800
  70.5215550  99.8652570  73.7450220  69.1725530  99.8362710  73.0585580
  70.5796700  97.0503650  74.8998950  71.1617470  96.2955970  74.8119430
  70.7558470  97.5811090  74.1230430  61.6968770  92.2100400  73.2115900
  61.6025640  91.5921150  72.4866770  61.1166160  92.9366690  72.9845810
  64.4630210  90.7673640  70.2443290  64.0147510  90.7897900  69.3988840
  63.8295410  90.3692660  70.8413590  64.8689760  99.6627970  70.8655730
  65.2877870 100.5060700  70.6931970  63.9498390  99.8000010  70.6362510
  67.2053660  97.3944150  72.2493570  67.3249870  96.7985290  72.9888410
  68.0647660  97.4313840  71.8294870  69.5441560  97.9481340  70.8256080
  69.0176780  98.4723960  70.2221220  69.8872900  98.5808730  71.4565810
  61.9427950  95.3374710  57.2705790  61.7417010  94.4742070  57.6319130
  61.7720000  95.2508070  56.3327390  63.9722430  93.9365500  73.5069390
  64.5622120  93.6281350  74.1947210  63.1542670  93.4645250  73.6629290
  68.7915860  93.5531310  73.7402410  68.1031380  92.8912850  73.6752400
  69.5121880  93.1069580  74.1850870  69.4216260  90.1482940  59.7992670
  69.7018550  89.3050840  60.1552090  68.6481990  90.3806050  60.3131420
  60.7410750  92.4375330  57.2583670  61.0436650  92.4442760  56.3502820
  61.4805340  92.0873190  57.7551330  63.9595680  91.3809950  58.2439870
  63.6117680  90.7033940  57.6642320  64.1608450  90.9199460  59.0583260
  73.7996980  99.3859670  60.4096580  74.5615890  99.9556320  60.5156270
  73.8151350  98.8186870  61.1804890  57.3001320  97.9097600  64.6404240
  56.6450160  97.6409240  63.9963940  58.1379270  97.8002080  64.1906220
  73.8516150  99.6794040  57.5669100  74.1264990 100.5872920  57.4388320
  73.6626890  99.6156570  58.5031090  70.2491760  92.7038890  58.8622730
  70.6676640  92.5169870  58.0219390  69.9427820  91.8517940  59.1725660
  73.7481490  97.6163030  62.5598530  73.3725090  96.8490960  62.1279820
  73.0184610  97.9985730  63.0473460  58.3377250  98.2950170  69.1807580
  58.7050290  98.2077570  70.0603600  57.7688070  97.5316720  69.0814440
  73.1381110  96.7634550  72.1938050  72.9067200  96.5347300  71.2936000
  73.3985660  97.6834100  72.1482940  57.8893250  95.2059260  73.0866000
  56.9949300  95.1726020  73.4259710  58.4290800  95.4046050  73.8517250
  56.5139400  95.1196530  60.5829570  55.6103480  95.3826730  60.4081230
  56.9980020  95.3907700  59.8029530  73.0232450  95.8420520  65.8605770
  73.5469930  95.3483170  65.2295940  73.6091870  95.9770880  66.6053340
  73.2022170  95.9260390  69.3825320  72.2524880  95.8923930  69.4970310
  73.3835180  96.8360500  69.1475090  59.0566610  94.1762070  58.4923950
  59.7658310  93.7545290  58.0071230  58.3406550  94.2437300  57.8607300
  58.7040770  90.2301400  57.5326600  59.4268900  90.7710340  57.8507820
  58.9765290  89.9564820  56.6568140  72.5132420  95.0993870  61.7998180
  73.0091540  94.8664740  62.5847060  72.3148490  94.2605710  61.3835820
  58.3932960  89.4807590  67.4349220  59.0409150  88.9304970  66.9944380
  58.8134800  89.7350740  68.2565030  73.9419580  93.7354820  64.3335860
  73.8318860  93.5810860  65.2718130  74.7027170  93.2075760  64.0911270
  72.2885300  89.6748950  70.7918860  72.9257520  90.2883090  71.1578050
  72.4360190  89.7109610  69.8468090  74.8309850  91.5662740  57.5742000
  75.7559160  91.4343920  57.3660290  74.8085640  91.6455560  58.5278450
  74.9048340  92.3373400  60.1998710  74.1099840  92.2718520  60.7291620
  75.1091620  93.2724040  60.1884060  58.1464960  89.6363260  70.1774540
  57.7979780  90.0927080  70.9432720  57.8152660  88.7420390  70.2596970
  65.6589780  90.8275140  73.6993960  65.5978670  91.4196970  74.4489370
  66.5990160  90.7201100  73.5544220  68.2964340  90.4845200  73.3386250
  68.9104750  90.8024490  72.6767330  68.8413900  89.9993790  73.9582110
  58.8185600  89.1639460  73.4525310  59.3668590  88.9827510  72.6891420
  58.8840910  88.3733570  73.9881620  69.0372380  89.0477340  69.6655540
  68.1632220  89.3812450  69.4628470  68.9283130  88.5750520  70.4907410
  69.9444360  91.2548210  71.0497260  69.6157720  90.4399970  70.6698990
  70.8926660  91.2118020  70.9262950  66.7847200  89.9647180  68.6048450
  66.0018990  90.4392680  68.8845210  66.4910130  89.0602010  68.4961630
  71.3368270  90.6670280  66.6497540  71.7776360  90.6115380  65.8019140
  71.0675860  91.5828290  66.7207720  73.2006840  90.2985520  64.6606360
  73.1395240  89.3546740  64.5137380  73.9798870  90.4065610  65.2059820
  58.1287610  90.2694660  61.1262170  58.8866970  90.3823540  60.5526200
  57.6664780  91.1063860  61.0805600  64.6701420  92.3833930  64.1164480
  63.8575930  92.0090820  63.7760360  65.1743060  91.6279010  64.4185670
  69.1726400  89.0476380  65.3547550  69.7755770  89.6196590  65.8296070
  68.4319390  89.6115820  65.1321450  72.3161000  89.4497940  60.6287830
  72.5111630  90.3481390  60.8955260  71.5290870  89.2185020  61.1220780
  60.5012760  90.7958710  59.6664140  61.0305520  90.0088510  59.5372090
  61.1341080  91.4749900  59.8999670  62.6950600  90.5333850  62.7209530
  62.0653340  89.8321160  62.8879660  62.1555740  91.2937980  62.5042690
  68.3279770  97.2463880  46.0977230  68.2473820  96.3318490  45.8268940
  67.9144190  97.7430950  45.3916940  66.4597810  99.0242900  47.9786500
  65.6839910  98.5443340  48.2685070  67.1110740  98.3448550  47.8042660
  60.4763640  99.3362710  48.8562260  59.6448520  99.0811420  49.2558770
  61.0844620  99.4073480  49.5920180  58.8855590  94.2964600  42.6404650
  57.9972290  94.6380570  42.5384530  59.1696780  94.0964920  41.7485480
  56.8488600  96.8970250  48.5244350  57.4204710  96.1292450  48.5247990
  56.8490140  97.1959010  47.6150960  58.0913470  92.3054610  50.3113280
  57.9116310  91.4080360  50.5916040  57.6893550  92.8526480  50.9860230
  66.9311970  94.5070470  48.2125590  67.3076790  93.6342350  48.0999260
  66.8331480  94.8429170  47.3216030  61.0616980  92.8796100  43.6743030
  61.1683730  93.7799830  43.9811790  60.1509340  92.8314070  43.3837680
  70.7136090  92.0020910  45.1453930  71.5345710  91.5117480  45.1879410
  70.7470170  92.5918570  45.8985770  58.7100140  94.8015110  48.9195620
  59.3910250  95.0653480  49.5383020  58.3948190  93.9615980  49.2533630
  62.9024710  95.8482470  48.0068210  63.4102930  96.3463440  48.6473230
  63.4337950  95.0717670  47.8307570  75.0035640  94.0187660  51.7097560
  74.2987810  94.4069370  51.1912670  75.2693560  94.7137950  52.3118490
  61.1860810  90.4881030  52.2731630  61.1879250  91.0053420  51.4677530
  60.3565120  90.0111210  52.2501560  62.4363660 100.1276210  50.4505130
  62.1033040 100.7545130  51.0926200  62.6130340 100.6538090  49.6706800
  70.9497570  93.9421290  47.9181470  70.2453140  94.2306180  48.4984580
  71.3109730  94.7521400  47.5581030  60.8676140  92.1990990  50.2802080
  61.2092950  93.0433040  49.9855950  59.9291950  92.3474730  50.3967420
  74.0184490  93.3876080  48.3090680  73.0709400  93.4215060  48.4406110
  74.3434480  94.2015030  48.6940040  64.5504030  89.6873260  46.6046670
  64.8579010  89.1320150  45.8882170  63.6204730  89.8217720  46.4219660
  69.5004530 100.3070390  50.2236740  69.9173320 100.0930500  49.3890200
  70.2244350 100.5643180  50.7945360  66.9384790  97.7522090  43.3406790
  66.0114070  97.6859470  43.5695260  67.0909610  98.6902220  43.2262030
  66.9253870  94.0239090  40.3373950  65.9857540  94.1853050  40.4226410
  67.2437130  94.7424770  39.7909940  73.4466630  98.7057610  50.3152980
  72.6185260  98.7750700  49.8403110  74.0417110  99.2911920  49.8468810
  70.9682080  99.3142390  43.8442040  70.3494500  98.9761940  43.1968340
  70.9506530  98.6702150  44.5521230  70.4108640  95.4926930  51.2607850
  69.9979820  96.3180640  51.5147840  69.6784590  94.9071970  51.0684210
  62.5441430  98.2786830  46.1226520  62.1398430  97.5664080  45.6272420
  62.6304550  97.9340070  47.0114560  61.2570050  95.0530040  49.9025560
  61.8084640  95.1625380  49.1278810  61.7713560  95.4267640  50.6180790
  69.1446780  98.5529200  40.8514790  69.5840060  97.7151630  40.7052610
  69.8575200  99.1858600  40.9378930  60.9312780  98.5749400  53.5130900
  60.7920550  99.4472200  53.8818300  60.0494140  98.2322210  53.3678840
  72.7263920  89.8072010  39.1655830  72.4136580  89.8998840  40.0654900
  73.4876390  90.3853040  39.1153260  59.2446060  97.1731810  43.6233170
  59.1243660  97.8993900  43.0114440  58.9346950  96.4034720  43.1461080
  56.8831430 100.3446950  49.4301810  56.9611850 100.4795720  48.4857530
  57.4973110  99.6362840  49.6229930  73.9365210  94.5443510  55.1429970
  73.3209480  95.0523180  54.6145430  73.6161630  93.6441840  55.0855910
  61.7109720  90.5166880  47.0056840  61.2677870  91.2976420  46.6741360
  62.2694710  90.8396770  47.7127780  65.9979530  93.3835400  52.6092160
  65.5358900  93.5918420  53.4212100  65.5957640  92.5694750  52.3062830
  70.9984040  94.6044350  53.7388820  70.1477630  94.3050100  54.0597890
  70.8385830  94.8486360  52.8272640  68.0933750  96.1046100  55.8387610
  68.4187160  95.2709850  55.4989840  68.8814080  96.6274620  55.9865940
  64.8268540  90.1377580  41.8862670  64.2022720  90.1337450  42.6115980
  64.7398660  89.2708540  41.4898640  63.7485620  91.0614210  48.8646440
  64.0457950  91.9677040  48.7838460  64.2971180  90.5732990  48.2506010
  61.5023940  95.6400450  44.7338090  61.2764860  95.4237620  45.6384710
  60.7216470  96.0728910  44.3884060  68.7321700  95.6463820  43.3328740
  68.1330590  96.3699620  43.1492360  69.2801310  95.5840600  42.5505190
  63.9423150  96.5386030  55.3998360  63.8466750  95.5980760  55.2498760
  64.7855130  96.7601100  55.0046430  67.3386570  94.2827360  45.3632020
  67.7316140  94.5999560  44.5500710  67.7003420  93.4039240  45.4776540
  59.0733690  92.9499700  53.5532140  58.6797080  93.7974910  53.7604920
  58.3852090  92.3126070  53.7440780  65.6478740  93.0334670  56.6228880
  64.9577060  92.8406870  57.2574970  66.3911040  93.3169310  57.1553180
  56.3750740  90.8728160  47.5862220  56.0863790  91.4431020  48.2987200
  57.1196500  90.3932610  47.9493450  56.5620970  94.8148280  38.7964940
  56.4795640  95.7579040  38.9379930  56.2104030  94.6723190  37.9177290
  67.9241710  96.8733110  49.4582800  67.1922830  97.3819920  49.8072900
  67.5266050  96.0563090  49.1571580  64.3619100  93.5487310  47.8635290
  64.3655160  93.1077260  47.0139830  65.2570220  93.8704640  47.9707110
  60.2121480  93.4313800  46.8229500  59.8721530  93.9089030  47.5796550
  59.4498800  92.9778920  46.4630600  64.4239250  94.5499390  40.8542050
  64.5452070  94.5085870  41.8027870  64.0387760  95.4123540  40.6988780
  68.3867620  92.3266790  48.8705740  68.4040360  92.7775440  49.7147590
  68.1383200  91.4272430  49.0839180  63.4360750  96.8600530  40.2525350
  62.8677650  96.4118780  39.6261260  64.1449750  97.2193310  39.7190500
  71.8138370  89.7398970  54.7092120  72.1384140  89.0088630  55.2350100
  71.8494880  89.4212610  53.8073110  64.6627070  97.6089090  49.6100700
  65.0297200  97.1347660  50.3562040  64.4732130  98.4830660  49.9509040
  57.5267560  92.3532780  45.7394170  57.2414480  91.9888450  46.5772790
  57.4646420  91.6213240  45.1257310  62.4526440  96.6497730  51.9284910
  62.1483510  97.5289710  52.1535270  63.4072900  96.7097520  51.9642350
  60.9808230 100.8558720  42.5251760  60.2070490 100.3156340  42.3650480
  61.7102860 100.3365330  42.1869520  71.7396210  99.8524080  48.3178150
  72.4595330 100.3479370  47.9274260  71.5378030  99.1741970  47.6732020
  67.2006150  91.2462040  42.4607540  66.3870760  90.7475210  42.3852850
  67.0068100  92.0860290  42.0443890  67.1215010  99.9233140  54.2047150
  67.0552320  99.0028810  53.9504740  66.4920150 100.0208580  54.9191790
  69.9154540  95.6181690  40.7569700  70.8034160  95.9298920  40.5821040
  69.8859630  94.7453940  40.3650280  61.0245630 100.5239100  46.1630570
  61.5424300  99.7207360  46.1087460  60.5729650 100.4618240  47.0047400
  58.5090170  97.4900470  53.0756270  58.1505110  98.1554320  53.6629610
  58.2144730  96.6584020  53.4468890  61.7103290  97.9484710  55.9595820
  61.4103430  98.0941890  55.0623640  62.4814530  97.3890000  55.8669210
  72.1868810  96.9293530  40.2249560  72.1032530  97.3607750  39.3746000
  72.9063000  97.3891880  40.6576380  73.2642950  99.3861050  53.3019530
  72.5391140  99.9789830  53.1048920  73.7918410  99.3784590  52.5032900
  57.0198220  97.4891730  39.6990870  57.8893070  97.7716530  39.9826790
  56.5288540  98.3027600  39.5839680  64.1833030  98.8764940  43.8199150
  64.6395810  99.6870190  44.0459340  63.8321240  98.5588080  44.6517640
  60.0844810  89.2202590  44.2921670  59.9559440  89.2120490  45.2406590
  59.2606830  89.5585680  43.9412680  57.0838740  90.9793710  53.7528370
  56.3697260  91.1790630  54.3580980  57.5033780  90.2033280  54.1243170
  59.0044730  99.3065200  41.8272930  58.3972680 100.0464100  41.8368230
  59.4794080  99.3964560  41.0011130  68.5777520  93.4716020  51.5029820
  68.9458340  92.6511230  51.8309390  67.7175720  93.5317910  51.9185470
  71.9439550  92.4272960  42.3117380  71.3152710  92.5318630  41.5975610
  71.4491470  92.6469740  43.1011260  63.9123580  94.7058910  43.7275260
  63.2039730  95.1745250  44.1688870  64.1968060  94.0480920  44.3620450
  65.5379510  96.1255610  51.7267790  66.0364760  96.6001430  52.3919640
  65.6802460  95.2019130  51.9337820  67.9439010  91.4309570  45.1671050
  67.8206790  91.4495700  44.2180560  68.8923570  91.4788510  45.2869450
  62.1158600  93.0143990  41.1025970  62.9649130  93.4514140  41.0366160
  61.7489870  93.3264250  41.9298030  72.7446370  92.3423570  52.5696180
  72.2419970  93.0828970  52.9089990  73.5603030  92.7307570  52.2532970
  71.0368380  97.5856750  46.0157540  70.0958520  97.6006980  46.1905230
  71.3512450  96.7992710  46.4617840  61.0150020  99.2676350  39.5761500
  61.7813290  99.1557710  40.1386930  61.0924710  98.5714320  38.9238270
  59.7096780  96.7001420  40.2594390  59.7900370  95.7528930  40.3711790
  60.6016530  97.0308300  40.3655050  57.2367580  98.5216340  55.4950560
  57.7406600  97.9423620  56.0666790  56.4975000  98.8056570  56.0326930
  64.2905520  99.9287330  55.0286080  63.5251190 100.4972330  54.9440750
  64.4721480  99.6363540  54.1354310  67.3793930 100.3050560  39.6538840
  66.8304030 100.7519860  40.2981580  68.0013190  99.7999810  40.1776510
  59.2690660  96.6645930  56.3900630  59.3096000  96.3659800  57.2985860
  60.1236160  97.0653540  56.2308150  63.0469050  99.2641480  41.5504140
  63.4685470  99.0981350  42.3935530  63.1719890  98.4541710  41.0559280
  61.2096470  95.2438030  54.3575120  60.6792930  94.7528980  53.7298460
  61.8784540  95.6722230  53.8233050  65.5596690  98.2879090  38.7981240
  66.0802350  97.5728110  38.4322390  66.2065090  98.9264960  39.0981750
  70.1074530  99.7107490  54.1216310  70.5215550  99.8652570  54.9706730
  69.1725530  99.8362710  54.2842090  70.5796700  97.0503650  56.1255460
  71.1617470  96.2955970  56.0375940  70.7558470  97.5811090  55.3486940
  61.6968770  92.2100400  54.4372410  61.6025640  91.5921150  53.7123280
  61.1166160  92.9366690  54.2102320  64.4630210  90.7673640  51.4699800
  64.0147510  90.7897900  50.6245350  63.8295410  90.3692660  52.0670100
  64.8689760  99.6627970  52.0912240  65.2877870 100.5060700  51.9188480
  63.9498390  99.8000010  51.8619020  67.2053660  97.3944150  53.4750080
  67.3249870  96.7985290  54.2144920  68.0647660  97.4313840  53.0551380
  69.5441560  97.9481340  52.0512590  69.0176780  98.4723960  51.4477730
  69.8872900  98.5808730  52.6822320  61.9427950  95.3374710  38.4962300
  61.7417010  94.4742070  38.8575640  61.7720000  95.2508070  37.5583900
  63.9722430  93.9365500  54.7325900  64.5622120  93.6281350  55.4203720
  63.1542670  93.4645250  54.8885800  68.7915860  93.5531310  54.9658920
  68.1031380  92.8912850  54.9008910  69.5121880  93.1069580  55.4107380
  69.4216260  90.1482940  41.0249180  69.7018550  89.3050840  41.3808600
  68.6481990  90.3806050  41.5387930  60.7410750  92.4375330  38.4840180
  61.0436650  92.4442760  37.5759330  61.4805340  92.0873190  38.9807840
  63.9595680  91.3809950  39.4696380  63.6117680  90.7033940  38.8898830
  64.1608450  90.9199460  40.2839770  73.7996980  99.3859670  41.6353090
  74.5615890  99.9556320  41.7412780  73.8151350  98.8186870  42.4061400
  57.3001320  97.9097600  45.8660750  56.6450160  97.6409240  45.2220450
  58.1379270  97.8002080  45.4162730  73.8516150  99.6794040  38.7925610
  74.1264990 100.5872920  38.6644830  73.6626890  99.6156570  39.7287600
  70.2491760  92.7038890  40.0879240  70.6676640  92.5169870  39.2475900
  69.9427820  91.8517940  40.3982170  73.7481490  97.6163030  43.7855040
  73.3725090  96.8490960  43.3536330  73.0184610  97.9985730  44.2729970
  58.3377250  98.2950170  50.4064090  58.7050290  98.2077570  51.2860110
  57.7688070  97.5316720  50.3070950  73.1381110  96.7634550  53.4194560
  72.9067200  96.5347300  52.5192510  73.3985660  97.6834100  53.3739450
  57.8893250  95.2059260  54.3122510  56.9949300  95.1726020  54.6516220
  58.4290800  95.4046050  55.0773760  71.5769180  91.9890980  56.1974260
  72.4539360  91.9974380  56.5808260  71.5890020  91.2521820  55.5866610
  56.5139400  95.1196530  41.8086080  55.6103480  95.3826730  41.6337740
  56.9980020  95.3907700  41.0286040  73.0232450  95.8420520  47.0862280
  73.5469930  95.3483170  46.4552450  73.6091870  95.9770880  47.8309850
  73.2022170  95.9260390  50.6081830  72.2524880  95.8923930  50.7226820
  73.3835180  96.8360500  50.3731600  59.0566610  94.1762070  39.7180460
  59.7658310  93.7545290  39.2327740  58.3406550  94.2437300  39.0863810
  58.7040770  90.2301400  38.7583110  59.4268900  90.7710340  39.0764330
  58.9765290  89.9564820  37.8824650  72.5132420  95.0993870  43.0254690
  73.0091540  94.8664740  43.8103570  72.3148490  94.2605710  42.6092330
  58.3932960  89.4807590  48.6605730  59.0409150  88.9304970  48.2200890
  58.8134800  89.7350740  49.4821540  73.9419580  93.7354820  45.5592370
  73.8318860  93.5810860  46.4974640  74.7027170  93.2075760  45.3167780
  72.2885300  89.6748950  52.0175370  72.9257520  90.2883090  52.3834560
  72.4360190  89.7109610  51.0724600  74.8309850  91.5662740  38.7998510
  75.7559160  91.4343920  38.5916800  74.8085640  91.6455560  39.7534960
  74.9048340  92.3373400  41.4255220  74.1099840  92.2718520  41.9548130
  75.1091620  93.2724040  41.4140570  58.1464960  89.6363260  51.4031050
  57.7979780  90.0927080  52.1689230  57.8152660  88.7420390  51.4853480
  65.6589780  90.8275140  54.9250470  65.5978670  91.4196970  55.6745880
  66.5990160  90.7201100  54.7800730  68.2964340  90.4845200  54.5642760
  68.9104750  90.8024490  53.9023840  68.8413900  89.9993790  55.1838620
  58.8185600  89.1639460  54.6781820  59.3668590  88.9827510  53.9147930
  58.8840910  88.3733570  55.2138130  69.0372380  89.0477340  50.8912050
  68.1632220  89.3812450  50.6884980  68.9283130  88.5750520  51.7163920
  69.9444360  91.2548210  52.2753770  69.6157720  90.4399970  51.8955500
  70.8926660  91.2118020  52.1519460  66.7847200  89.9647180  49.8304960
  66.0018990  90.4392680  50.1101720  66.4910130  89.0602010  49.7218140
  71.3368270  90.6670280  47.8754050  71.7776360  90.6115380  47.0275650
  71.0675860  91.5828290  47.9464230  73.2006840  90.2985520  45.8862870
  73.1395240  89.3546740  45.7393890  73.9798870  90.4065610  46.4316330
  58.1287610  90.2694660  42.3518680  58.8866970  90.3823540  41.7782710
  57.6664780  91.1063860  42.3062110  64.6701420  92.3833930  45.3420990
  63.8575930  92.0090820  45.0016870  65.1743060  91.6279010  45.6442180
  69.1726400  89.0476380  46.5804060  69.7755770  89.6196590  47.0552580
  68.4319390  89.6115820  46.3577960  72.3161000  89.4497940  41.8544340
  72.5111630  90.3481390  42.1211770  71.5290870  89.2185020  42.3477290
  60.5012760  90.7958710  40.8920650  61.0305520  90.0088510  40.7628600
  61.1341080  91.4749900  41.1256180  62.6950600  90.5333850  43.9466040
  62.0653340  89.8321160  44.1136170  62.1555740  91.2937980  43.7299200
  62.8206160  89.8117830  56.3818530  62.5390430  90.3151430  55.6179350
  63.2025860  89.0139580  56.0160660  69.4221620  89.2271410  56.9599000
  69.3087070  89.5466020  57.8550520  70.2391360  89.6283920  56.6636280
  68.3279770  97.2463880  27.3233740  68.2473820  96.3318490  27.0525450
  67.9144190  97.7430950  26.6173450  66.4597810  99.0242900  29.2043010
  65.6839910  98.5443340  29.4941580  67.1110740  98.3448550  29.0299170
  60.4763640  99.3362710  30.0818770  59.6448520  99.0811420  30.4815280
  61.0844620  99.4073480  30.8176690  58.8855590  94.2964600  23.8661160
  57.9972290  94.6380570  23.7641040  59.1696780  94.0964920  22.9741990
  56.8488600  96.8970250  29.7500860  57.4204710  96.1292450  29.7504500
  56.8490140  97.1959010  28.8407470  58.0913470  92.3054610  31.5369790
  57.9116310  91.4080360  31.8172550  57.6893550  92.8526480  32.2116740
  66.9311970  94.5070470  29.4382100  67.3076790  93.6342350  29.3255770
  66.8331480  94.8429170  28.5472540  61.0616980  92.8796100  24.8999540
  61.1683730  93.7799830  25.2068300  60.1509340  92.8314070  24.6094190
  70.7136090  92.0020910  26.3710440  71.5345710  91.5117480  26.4135920
  70.7470170  92.5918570  27.1242280  58.7100140  94.8015110  30.1452130
  59.3910250  95.0653480  30.7639530  58.3948190  93.9615980  30.4790140
  62.9024710  95.8482470  29.2324720  63.4102930  96.3463440  29.8729740
  63.4337950  95.0717670  29.0564080  75.0035640  94.0187660  32.9354070
  74.2987810  94.4069370  32.4169180  75.2693560  94.7137950  33.5375000
  61.1860810  90.4881030  33.4988140  61.1879250  91.0053420  32.6934040
  60.3565120  90.0111210  33.4758070  62.4363660 100.1276210  31.6761640
  62.1033040 100.7545130  32.3182710  62.6130340 100.6538090  30.8963310
  70.9497570  93.9421290  29.1437980  70.2453140  94.2306180  29.7241090
  71.3109730  94.7521400  28.7837540  60.8676140  92.1990990  31.5058590
  61.2092950  93.0433040  31.2112460  59.9291950  92.3474730  31.6223930
  74.0184490  93.3876080  29.5347190  73.0709400  93.4215060  29.6662620
  74.3434480  94.2015030  29.9196550  64.5504030  89.6873260  27.8303180
  64.8579010  89.1320150  27.1138680  63.6204730  89.8217720  27.6476170
  69.5004530 100.3070390  31.4493250  69.9173320 100.0930500  30.6146710
  70.2244350 100.5643180  32.0201870  66.9384790  97.7522090  24.5663300
  66.0114070  97.6859470  24.7951770  67.0909610  98.6902220  24.4518540
  66.9253870  94.0239090  21.5630460  65.9857540  94.1853050  21.6482920
  67.2437130  94.7424770  21.0166450  73.4466630  98.7057610  31.5409490
  72.6185260  98.7750700  31.0659620  74.0417110  99.2911920  31.0725320
  70.9682080  99.3142390  25.0698550  70.3494500  98.9761940  24.4224850
  70.9506530  98.6702150  25.7777740  70.4108640  95.4926930  32.4864360
  69.9979820  96.3180640  32.7404350  69.6784590  94.9071970  32.2940720
  62.5441430  98.2786830  27.3483030  62.1398430  97.5664080  26.8528930
  62.6304550  97.9340070  28.2371070  61.2570050  95.0530040  31.1282070
  61.8084640  95.1625380  30.3535320  61.7713560  95.4267640  31.8437300
  69.1446780  98.5529200  22.0771300  69.5840060  97.7151630  21.9309120
  69.8575200  99.1858600  22.1635440  60.9312780  98.5749400  34.7387410
  60.7920550  99.4472200  35.1074810  60.0494140  98.2322210  34.5935350
  72.7263920  89.8072010  20.3912340  72.4136580  89.8998840  21.2911410
  73.4876390  90.3853040  20.3409770  59.2446060  97.1731810  24.8489680
  59.1243660  97.8993900  24.2370950  58.9346950  96.4034720  24.3717590
  56.8831430 100.3446950  30.6558320  56.9611850 100.4795720  29.7114040
  57.4973110  99.6362840  30.8486440  73.9365210  94.5443510  36.3686480
  73.3209480  95.0523180  35.8401940  73.6161630  93.6441840  36.3112420
  61.7109720  90.5166880  28.2313350  61.2677870  91.2976420  27.8997870
  62.2694710  90.8396770  28.9384290  65.9979530  93.3835400  33.8348670
  65.5358900  93.5918420  34.6468610  65.5957640  92.5694750  33.5319340
  70.9984040  94.6044350  34.9645330  70.1477630  94.3050100  35.2854400
  70.8385830  94.8486360  34.0529150  68.0933750  96.1046100  37.0644120
  68.4187160  95.2709850  36.7246350  68.8814080  96.6274620  37.2122450
  64.8268540  90.1377580  23.1119180  64.2022720  90.1337450  23.8372490
  64.7398660  89.2708540  22.7155150  63.7485620  91.0614210  30.0902950
  64.0457950  91.9677040  30.0094970  64.2971180  90.5732990  29.4762520
  61.5023940  95.6400450  25.9594600  61.2764860  95.4237620  26.8641220
  60.7216470  96.0728910  25.6140570  68.7321700  95.6463820  24.5585250
  68.1330590  96.3699620  24.3748870  69.2801310  95.5840600  23.7761700
  63.9423150  96.5386030  36.6254870  63.8466750  95.5980760  36.4755270
  64.7855130  96.7601100  36.2302940  67.3386570  94.2827360  26.5888530
  67.7316140  94.5999560  25.7757220  67.7003420  93.4039240  26.7033050
  59.0733690  92.9499700  34.7788650  58.6797080  93.7974910  34.9861430
  58.3852090  92.3126070  34.9697290  65.6478740  93.0334670  37.8485390
  64.9577060  92.8406870  38.4831480  66.3911040  93.3169310  38.3809690
  56.3750740  90.8728160  28.8118730  56.0863790  91.4431020  29.5243710
  57.1196500  90.3932610  29.1749960  56.5620970  94.8148280  20.0221450
  56.4795640  95.7579040  20.1636440  56.2104030  94.6723190  19.1433800
  67.9241710  96.8733110  30.6839310  67.1922830  97.3819920  31.0329410
  67.5266050  96.0563090  30.3828090  64.3619100  93.5487310  29.0891800
  64.3655160  93.1077260  28.2396340  65.2570220  93.8704640  29.1963620
  60.2121480  93.4313800  28.0486010  59.8721530  93.9089030  28.8053060
  59.4498800  92.9778920  27.6887110  64.4239250  94.5499390  22.0798560
  64.5452070  94.5085870  23.0284380  64.0387760  95.4123540  21.9245290
  68.3867620  92.3266790  30.0962250  68.4040360  92.7775440  30.9404100
  68.1383200  91.4272430  30.3095690  63.4360750  96.8600530  21.4781860
  62.8677650  96.4118780  20.8517770  64.1449750  97.2193310  20.9447010
  71.8138370  89.7398970  35.9348630  72.1384140  89.0088630  36.4606610
  71.8494880  89.4212610  35.0329620  64.6627070  97.6089090  30.8357210
  65.0297200  97.1347660  31.5818550  64.4732130  98.4830660  31.1765550
  57.5267560  92.3532780  26.9650680  57.2414480  91.9888450  27.8029300
  57.4646420  91.6213240  26.3513820  62.4526440  96.6497730  33.1541420
  62.1483510  97.5289710  33.3791780  63.4072900  96.7097520  33.1898860
  60.9808230 100.8558720  23.7508270  60.2070490 100.3156340  23.5906990
  61.7102860 100.3365330  23.4126030  71.7396210  99.8524080  29.5434660
  72.4595330 100.3479370  29.1530770  71.5378030  99.1741970  28.8988530
  67.2006150  91.2462040  23.6864050  66.3870760  90.7475210  23.6109360
  67.0068100  92.0860290  23.2700400  67.1215010  99.9233140  35.4303660
  67.0552320  99.0028810  35.1761250  66.4920150 100.0208580  36.1448300
  69.9154540  95.6181690  21.9826210  70.8034160  95.9298920  21.8077550
  69.8859630  94.7453940  21.5906790  61.0245630 100.5239100  27.3887080
  61.5424300  99.7207360  27.3343970  60.5729650 100.4618240  28.2303910
  58.5090170  97.4900470  34.3012780  58.1505110  98.1554320  34.8886120
  58.2144730  96.6584020  34.6725400  61.7103290  97.9484710  37.1852330
  61.4103430  98.0941890  36.2880150  62.4814530  97.3890000  37.0925720
  72.1868810  96.9293530  21.4506070  72.1032530  97.3607750  20.6002510
  72.9063000  97.3891880  21.8832890  73.2642950  99.3861050  34.5276040
  72.5391140  99.9789830  34.3305430  73.7918410  99.3784590  33.7289410
  57.0198220  97.4891730  20.9247380  57.8893070  97.7716530  21.2083300
  56.5288540  98.3027600  20.8096190  64.1833030  98.8764940  25.0455660
  64.6395810  99.6870190  25.2715850  63.8321240  98.5588080  25.8774150
  60.0844810  89.2202590  25.5178180  59.9559440  89.2120490  26.4663100
  59.2606830  89.5585680  25.1669190  57.0838740  90.9793710  34.9784880
  56.3697260  91.1790630  35.5837490  57.5033780  90.2033280  35.3499680
  59.0044730  99.3065200  23.0529440  58.3972680 100.0464100  23.0624740
  59.4794080  99.3964560  22.2267640  68.5777520  93.4716020  32.7286330
  68.9458340  92.6511230  33.0565900  67.7175720  93.5317910  33.1441980
  71.9439550  92.4272960  23.5373890  71.3152710  92.5318630  22.8232120
  71.4491470  92.6469740  24.3267770  63.9123580  94.7058910  24.9531770
  63.2039730  95.1745250  25.3945380  64.1968060  94.0480920  25.5876960
  65.5379510  96.1255610  32.9524300  66.0364760  96.6001430  33.6176150
  65.6802460  95.2019130  33.1594330  67.9439010  91.4309570  26.3927560
  67.8206790  91.4495700  25.4437070  68.8923570  91.4788510  26.5125960
  62.1158600  93.0143990  22.3282480  62.9649130  93.4514140  22.2622670
  61.7489870  93.3264250  23.1554540  72.7446370  92.3423570  33.7952690
  72.2419970  93.0828970  34.1346500  73.5603030  92.7307570  33.4789480
  71.0368380  97.5856750  27.2414050  70.0958520  97.6006980  27.4161740
  71.3512450  96.7992710  27.6874350  61.0150020  99.2676350  20.8018010
  61.7813290  99.1557710  21.3643440  61.0924710  98.5714320  20.1494780
  59.7096780  96.7001420  21.4850900  59.7900370  95.7528930  21.5968300
  60.6016530  97.0308300  21.5911560  57.2367580  98.5216340  36.7207070
  57.7406600  97.9423620  37.2923300  56.4975000  98.8056570  37.2583440
  64.2905520  99.9287330  36.2542590  63.5251190 100.4972330  36.1697260
  64.4721480  99.6363540  35.3610820  67.3793930 100.3050560  20.8795350
  66.8304030 100.7519860  21.5238090  68.0013190  99.7999810  21.4033020
  59.2690660  96.6645930  37.6157140  59.3096000  96.3659800  38.5242370
  60.1236160  97.0653540  37.4564660  63.0469050  99.2641480  22.7760650
  63.4685470  99.0981350  23.6192040  63.1719890  98.4541710  22.2815790
  61.2096470  95.2438030  35.5831630  60.6792930  94.7528980  34.9554970
  61.8784540  95.6722230  35.0489560  65.5596690  98.2879090  20.0237750
  66.0802350  97.5728110  19.6578900  66.2065090  98.9264960  20.3238260
  70.1074530  99.7107490  35.3472820  70.5215550  99.8652570  36.1963240
  69.1725530  99.8362710  35.5098600  70.5796700  97.0503650  37.3511970
  71.1617470  96.2955970  37.2632450  70.7558470  97.5811090  36.5743450
  61.6968770  92.2100400  35.6628920  61.6025640  91.5921150  34.9379790
  61.1166160  92.9366690  35.4358830  64.4630210  90.7673640  32.6956310
  64.0147510  90.7897900  31.8501860  63.8295410  90.3692660  33.2926610
  64.8689760  99.6627970  33.3168750  65.2877870 100.5060700  33.1444990
  63.9498390  99.8000010  33.0875530  67.2053660  97.3944150  34.7006590
  67.3249870  96.7985290  35.4401430  68.0647660  97.4313840  34.2807890
  69.5441560  97.9481340  33.2769100  69.0176780  98.4723960  32.6734240
  69.8872900  98.5808730  33.9078830  61.9427950  95.3374710  19.7218810
  61.7417010  94.4742070  20.0832150  61.7720000  95.2508070  18.7840410
  63.9722430  93.9365500  35.9582410  64.5622120  93.6281350  36.6460230
  63.1542670  93.4645250  36.1142310  68.7915860  93.5531310  36.1915430
  68.1031380  92.8912850  36.1265420  69.5121880  93.1069580  36.6363890
  69.4216260  90.1482940  22.2505690  69.7018550  89.3050840  22.6065110
  68.6481990  90.3806050  22.7644440  60.7410750  92.4375330  19.7096690
  61.0436650  92.4442760  18.8015840  61.4805340  92.0873190  20.2064350
  63.9595680  91.3809950  20.6952890  63.6117680  90.7033940  20.1155340
  64.1608450  90.9199460  21.5096280  73.7996980  99.3859670  22.8609600
  74.5615890  99.9556320  22.9669290  73.8151350  98.8186870  23.6317910
  57.3001320  97.9097600  27.0917260  56.6450160  97.6409240  26.4476960
  58.1379270  97.8002080  26.6419240  73.8516150  99.6794040  20.0182120
  74.1264990 100.5872920  19.8901340  73.6626890  99.6156570  20.9544110
  70.2491760  92.7038890  21.3135750  70.6676640  92.5169870  20.4732410
  69.9427820  91.8517940  21.6238680  73.7481490  97.6163030  25.0111550
  73.3725090  96.8490960  24.5792840  73.0184610  97.9985730  25.4986480
  58.3377250  98.2950170  31.6320600  58.7050290  98.2077570  32.5116620
  57.7688070  97.5316720  31.5327460  73.1381110  96.7634550  34.6451070
  72.9067200  96.5347300  33.7449020  73.3985660  97.6834100  34.5995960
  57.8893250  95.2059260  35.5379020  56.9949300  95.1726020  35.8772730
  58.4290800  95.4046050  36.3030270  71.5769180  91.9890980  37.4230770
  72.4539360  91.9974380  37.8064770  71.5890020  91.2521820  36.8123120
  56.5139400  95.1196530  23.0342590  55.6103480  95.3826730  22.8594250
  56.9980020  95.3907700  22.2542550  73.0232450  95.8420520  28.3118790
  73.5469930  95.3483170  27.6808960  73.6091870  95.9770880  29.0566360
  73.2022170  95.9260390  31.8338340  72.2524880  95.8923930  31.9483330
  73.3835180  96.8360500  31.5988110  59.0566610  94.1762070  20.9436970
  59.7658310  93.7545290  20.4584250  58.3406550  94.2437300  20.3120320
  58.7040770  90.2301400  19.9839620  59.4268900  90.7710340  20.3020840
  58.9765290  89.9564820  19.1081160  72.5132420  95.0993870  24.2511200
  73.0091540  94.8664740  25.0360080  72.3148490  94.2605710  23.8348840
  58.3932960  89.4807590  29.8862240  59.0409150  88.9304970  29.4457400
  58.8134800  89.7350740  30.7078050  73.9419580  93.7354820  26.7848880
  73.8318860  93.5810860  27.7231150  74.7027170  93.2075760  26.5424290
  72.2885300  89.6748950  33.2431880  72.9257520  90.2883090  33.6091070
  72.4360190  89.7109610  32.2981110  74.8309850  91.5662740  20.0255020
  75.7559160  91.4343920  19.8173310  74.8085640  91.6455560  20.9791470
  74.9048340  92.3373400  22.6511730  74.1099840  92.2718520  23.1804640
  75.1091620  93.2724040  22.6397080  58.1464960  89.6363260  32.6287560
  57.7979780  90.0927080  33.3945740  57.8152660  88.7420390  32.7109990
  65.6589780  90.8275140  36.1506980  65.5978670  91.4196970  36.9002390
  66.5990160  90.7201100  36.0057240  68.2964340  90.4845200  35.7899270
  68.9104750  90.8024490  35.1280350  68.8413900  89.9993790  36.4095130
  58.8185600  89.1639460  35.9038330  59.3668590  88.9827510  35.1404440
  58.8840910  88.3733570  36.4394640  69.0372380  89.0477340  32.1168560
  68.1632220  89.3812450  31.9141490  68.9283130  88.5750520  32.9420430
  69.9444360  91.2548210  33.5010280  69.6157720  90.4399970  33.1212010
  70.8926660  91.2118020  33.3775970  66.7847200  89.9647180  31.0561470
  66.0018990  90.4392680  31.3358230  66.4910130  89.0602010  30.9474650
  71.3368270  90.6670280  29.1010560  71.7776360  90.6115380  28.2532160
  71.0675860  91.5828290  29.1720740  73.2006840  90.2985520  27.1119380
  73.1395240  89.3546740  26.9650400  73.9798870  90.4065610  27.6572840
  58.1287610  90.2694660  23.5775190  58.8866970  90.3823540  23.0039220
  57.6664780  91.1063860  23.5318620  64.6701420  92.3833930  26.5677500
  63.8575930  92.0090820  26.2273380  65.1743060  91.6279010  26.8698690
  69.1726400  89.0476380  27.8060570  69.7755770  89.6196590  28.2809090
  68.4319390  89.6115820  27.5834470  72.3161000  89.4497940  23.0800850
  72.5111630  90.3481390  23.3468280  71.5290870  89.2185020  23.5733800
  60.5012760  90.7958710  22.1177160  61.0305520  90.0088510  21.9885110
  61.1341080  91.4749900  22.3512690  62.6950600  90.5333850  25.1722550
  62.0653340  89.8321160  25.3392680  62.1555740  91.2937980  24.9555710
  62.8206160  89.8117830  37.6075040  62.5390430  90.3151430  36.8435860
  63.2025860  89.0139580  37.2417170  69.4221620  89.2271410  38.1855510
  69.3087070  89.5466020  39.0807030  70.2391360  89.6283920  37.8892790
  68.3279770  97.2463880   8.5490250  68.2473820  96.3318490   8.2781960
  67.9144190  97.7430950   7.8429960  66.4597810  99.0242900  10.4299520
  65.6839910  98.5443340  10.7198090  67.1110740  98.3448550  10.2555680
  60.4763640  99.3362710  11.3075280  59.6448520  99.0811420  11.7071790
  61.0844620  99.4073480  12.0433200  58.8855590  94.2964600   5.0917670
  57.9972290  94.6380570   4.9897550  59.1696780  94.0964920   4.1998500
  56.8488600  96.8970250  10.9757370  57.4204710  96.1292450  10.9761010
  56.8490140  97.1959010  10.0663980  58.0913470  92.3054610  12.7626300
  57.9116310  91.4080360  13.0429060  57.6893550  92.8526480  13.4373250
  66.9311970  94.5070470  10.6638610  67.3076790  93.6342350  10.5512280
  66.8331480  94.8429170   9.7729050  61.0616980  92.8796100   6.1256050
  61.1683730  93.7799830   6.4324810  60.1509340  92.8314070   5.8350700
  70.7136090  92.0020910   7.5966950  71.5345710  91.5117480   7.6392430
  70.7470170  92.5918570   8.3498790  58.7100140  94.8015110  11.3708640
  59.3910250  95.0653480  11.9896040  58.3948190  93.9615980  11.7046650
  62.9024710  95.8482470  10.4581230  63.4102930  96.3463440  11.0986250
  63.4337950  95.0717670  10.2820590  75.0035640  94.0187660  14.1610580
  74.2987810  94.4069370  13.6425690  75.2693560  94.7137950  14.7631510
  61.1860810  90.4881030  14.7244650  61.1879250  91.0053420  13.9190550
  60.3565120  90.0111210  14.7014580  62.4363660 100.1276210  12.9018150
  62.1033040 100.7545130  13.5439220  62.6130340 100.6538090  12.1219820
  70.9497570  93.9421290  10.3694490  70.2453140  94.2306180  10.9497600
  71.3109730  94.7521400  10.0094050  60.8676140  92.1990990  12.7315100
  61.2092950  93.0433040  12.4368970  59.9291950  92.3474730  12.8480440
  74.0184490  93.3876080  10.7603700  73.0709400  93.4215060  10.8919130
  74.3434480  94.2015030  11.1453060  64.5504030  89.6873260   9.0559690
  64.8579010  89.1320150   8.3395190  63.6204730  89.8217720   8.8732680
  69.5004530 100.3070390  12.6749760  69.9173320 100.0930500  11.8403220
  70.2244350 100.5643180  13.2458380  66.9384790  97.7522090   5.7919810
  66.0114070  97.6859470   6.0208280  67.0909610  98.6902220   5.6775050
  66.9253870  94.0239090   2.7886970  65.9857540  94.1853050   2.8739430
  67.2437130  94.7424770   2.2422960  73.4466630  98.7057610  12.7666000
  72.6185260  98.7750700  12.2916130  74.0417110  99.2911920  12.2981830
  70.9682080  99.3142390   6.2955060  70.3494500  98.9761940   5.6481360
  70.9506530  98.6702150   7.0034250  70.4108640  95.4926930  13.7120870
  69.9979820  96.3180640  13.9660860  69.6784590  94.9071970  13.5197230
  62.5441430  98.2786830   8.5739540  62.1398430  97.5664080   8.0785440
  62.6304550  97.9340070   9.4627580  61.2570050  95.0530040  12.3538580
  61.8084640  95.1625380  11.5791830  61.7713560  95.4267640  13.0693810
  69.1446780  98.5529200   3.3027810  69.5840060  97.7151630   3.1565630
  69.8575200  99.1858600   3.3891950  60.9312780  98.5749400  15.9643920
  60.7920550  99.4472200  16.3331320  60.0494140  98.2322210  15.8191860
  59.2446060  97.1731810   6.0746190  59.1243660  97.8993900   5.4627460
  58.9346950  96.4034720   5.5974100  56.8831430 100.3446950  11.8814830
  56.9611850 100.4795720  10.9370550  57.4973110  99.6362840  12.0742950
  73.9365210  94.5443510  17.5942990  73.3209480  95.0523180  17.0658450
  73.6161630  93.6441840  17.5368930  61.7109720  90.5166880   9.4569860
  61.2677870  91.2976420   9.1254380  62.2694710  90.8396770  10.1640800
  65.9979530  93.3835400  15.0605180  65.5358900  93.5918420  15.8725120
  65.5957640  92.5694750  14.7575850  70.9984040  94.6044350  16.1901840
  70.1477630  94.3050100  16.5110910  70.8385830  94.8486360  15.2785660
  68.0933750  96.1046100  18.2900630  68.4187160  95.2709850  17.9502860
  68.8814080  96.6274620  18.4378960  64.8268540  90.1377580   4.3375690
  64.2022720  90.1337450   5.0629000  64.7398660  89.2708540   3.9411660
  63.7485620  91.0614210  11.3159460  64.0457950  91.9677040  11.2351480
  64.2971180  90.5732990  10.7019030  61.5023940  95.6400450   7.1851110
  61.2764860  95.4237620   8.0897730  60.7216470  96.0728910   6.8397080
  68.7321700  95.6463820   5.7841760  68.1330590  96.3699620   5.6005380
  69.2801310  95.5840600   5.0018210  63.9423150  96.5386030  17.8511380
  63.8466750  95.5980760  17.7011780  64.7855130  96.7601100  17.4559450
  67.3386570  94.2827360   7.8145040  67.7316140  94.5999560   7.0013730
  67.7003420  93.4039240   7.9289560  59.0733690  92.9499700  16.0045160
  58.6797080  93.7974910  16.2117940  58.3852090  92.3126070  16.1953800
  65.6478740  93.0334670  19.0741900  64.9577060  92.8406870  19.7087990
  66.3911040  93.3169310  19.6066200  56.3750740  90.8728160  10.0375240
  56.0863790  91.4431020  10.7500220  57.1196500  90.3932610  10.4006470
  67.9241710  96.8733110  11.9095820  67.1922830  97.3819920  12.2585920
  67.5266050  96.0563090  11.6084600  64.3619100  93.5487310  10.3148310
  64.3655160  93.1077260   9.4652850  65.2570220  93.8704640  10.4220130
  60.2121480  93.4313800   9.2742520  59.8721530  93.9089030  10.0309570
  59.4498800  92.9778920   8.9143620  64.4239250  94.5499390   3.3055070
  64.5452070  94.5085870   4.2540890  64.0387760  95.4123540   3.1501800
  68.3867620  92.3266790  11.3218760  68.4040360  92.7775440  12.1660610
  68.1383200  91.4272430  11.5352200  63.4360750  96.8600530   2.7038370
  62.8677650  96.4118780   2.0774280  64.1449750  97.2193310   2.1703520
  71.8138370  89.7398970  17.1605140  72.1384140  89.0088630  17.6863120
  71.8494880  89.4212610  16.2586130  64.6627070  97.6089090  12.0613720
  65.0297200  97.1347660  12.8075060  64.4732130  98.4830660  12.4022060
  57.5267560  92.3532780   8.1907190  57.2414480  91.9888450   9.0285810
  57.4646420  91.6213240   7.5770330  62.4526440  96.6497730  14.3797930
  62.1483510  97.5289710  14.6048290  63.4072900  96.7097520  14.4155370
  60.9808230 100.8558720   4.9764780  60.2070490 100.3156340   4.8163500
  61.7102860 100.3365330   4.6382540  71.7396210  99.8524080  10.7691170
  72.4595330 100.3479370  10.3787280  71.5378030  99.1741970  10.1245040
  67.2006150  91.2462040   4.9120560  66.3870760  90.7475210   4.8365870
  67.0068100  92.0860290   4.4956910  67.1215010  99.9233140  16.6560170
  67.0552320  99.0028810  16.4017760  66.4920150 100.0208580  17.3704810
  69.9154540  95.6181690   3.2082720  70.8034160  95.9298920   3.0334060
  69.8859630  94.7453940   2.8163300  61.0245630 100.5239100   8.6143590
  61.5424300  99.7207360   8.5600480  60.5729650 100.4618240   9.4560420
  58.5090170  97.4900470  15.5269290  58.1505110  98.1554320  16.1142630
  58.2144730  96.6584020  15.8981910  61.7103290  97.9484710  18.4108840
  61.4103430  98.0941890  17.5136660  62.4814530  97.3890000  18.3182230
  72.1868810  96.9293530   2.6762580  72.1032530  97.3607750   1.8259020
  72.9063000  97.3891880   3.1089400  73.2642950  99.3861050  15.7532550
  72.5391140  99.9789830  15.5561940  73.7918410  99.3784590  14.9545920
  57.0198220  97.4891730   2.1503890  57.8893070  97.7716530   2.4339810
  56.5288540  98.3027600   2.0352700  64.1833030  98.8764940   6.2712170
  64.6395810  99.6870190   6.4972360  63.8321240  98.5588080   7.1030660
  60.0844810  89.2202590   6.7434690  59.9559440  89.2120490   7.6919610
  59.2606830  89.5585680   6.3925700  57.0838740  90.9793710  16.2041390
  56.3697260  91.1790630  16.8094000  57.5033780  90.2033280  16.5756190
  59.0044730  99.3065200   4.2785950  58.3972680 100.0464100   4.2881250
  59.4794080  99.3964560   3.4524150  68.5777520  93.4716020  13.9542840
  68.9458340  92.6511230  14.2822410  67.7175720  93.5317910  14.3698490
  71.9439550  92.4272960   4.7630400  71.3152710  92.5318630   4.0488630
  71.4491470  92.6469740   5.5524280  63.9123580  94.7058910   6.1788280
  63.2039730  95.1745250   6.6201890  64.1968060  94.0480920   6.8133470
  65.5379510  96.1255610  14.1780810  66.0364760  96.6001430  14.8432660
  65.6802460  95.2019130  14.3850840  67.9439010  91.4309570   7.6184070
  67.8206790  91.4495700   6.6693580  68.8923570  91.4788510   7.7382470
  62.1158600  93.0143990   3.5538990  62.9649130  93.4514140   3.4879180
  61.7489870  93.3264250   4.3811050  72.7446370  92.3423570  15.0209200
  72.2419970  93.0828970  15.3603010  73.5603030  92.7307570  14.7045990
  71.0368380  97.5856750   8.4670560  70.0958520  97.6006980   8.6418250
  71.3512450  96.7992710   8.9130860  59.7096780  96.7001420   2.7107410
  59.7900370  95.7528930   2.8224810  60.6016530  97.0308300   2.8168070
  57.2367580  98.5216340  17.9463580  57.7406600  97.9423620  18.5179810
  56.4975000  98.8056570  18.4839950  64.2905520  99.9287330  17.4799100
  63.5251190 100.4972330  17.3953770  64.4721480  99.6363540  16.5867330
  67.3793930 100.3050560   2.1051860  66.8304030 100.7519860   2.7494600
  68.0013190  99.7999810   2.6289530  59.2690660  96.6645930  18.8413650
  59.3096000  96.3659800  19.7498880  60.1236160  97.0653540  18.6821170
  63.0469050  99.2641480   4.0017160  63.4685470  99.0981350   4.8448550
  63.1719890  98.4541710   3.5072300  61.2096470  95.2438030  16.8088140
  60.6792930  94.7528980  16.1811480  61.8784540  95.6722230  16.2746070
  70.1074530  99.7107490  16.5729330  70.5215550  99.8652570  17.4219750
  69.1725530  99.8362710  16.7355110  70.5796700  97.0503650  18.5768480
  71.1617470  96.2955970  18.4888960  70.7558470  97.5811090  17.7999960
  61.6968770  92.2100400  16.8885430  61.6025640  91.5921150  16.1636300
  61.1166160  92.9366690  16.6615340  64.4630210  90.7673640  13.9212820
  64.0147510  90.7897900  13.0758370  63.8295410  90.3692660  14.5183120
  64.8689760  99.6627970  14.5425260  65.2877870 100.5060700  14.3701500
  63.9498390  99.8000010  14.3132040  67.2053660  97.3944150  15.9263100
  67.3249870  96.7985290  16.6657940  68.0647660  97.4313840  15.5064400
  69.5441560  97.9481340  14.5025610  69.0176780  98.4723960  13.8990750
  69.8872900  98.5808730  15.1335340  63.9722430  93.9365500  17.1838920
  64.5622120  93.6281350  17.8716740  63.1542670  93.4645250  17.3398820
  68.7915860  93.5531310  17.4171940  68.1031380  92.8912850  17.3521930
  69.5121880  93.1069580  17.8620400  69.4216260  90.1482940   3.4762200
  69.7018550  89.3050840   3.8321620  68.6481990  90.3806050   3.9900950
  73.7996980  99.3859670   4.0866110  74.5615890  99.9556320   4.1925800
  73.8151350  98.8186870   4.8574420  57.3001320  97.9097600   8.3173770
  56.6450160  97.6409240   7.6733470  58.1379270  97.8002080   7.8675750
  70.2491760  92.7038890   2.5392260  70.6676640  92.5169870   1.6988920
  69.9427820  91.8517940   2.8495190  73.7481490  97.6163030   6.2368060
  73.3725090  96.8490960   5.8049350  73.0184610  97.9985730   6.7242990
  58.3377250  98.2950170  12.8577110  58.7050290  98.2077570  13.7373130
  57.7688070  97.5316720  12.7583970  73.1381110  96.7634550  15.8707580
  72.9067200  96.5347300  14.9705530  73.3985660  97.6834100  15.8252470
  57.8893250  95.2059260  16.7635530  56.9949300  95.1726020  17.1029240
  58.4290800  95.4046050  17.5286780  71.5769180  91.9890980  18.6487280
  72.4539360  91.9974380  19.0321280  71.5890020  91.2521820  18.0379630
  56.5139400  95.1196530   4.2599100  55.6103480  95.3826730   4.0850760
  56.9980020  95.3907700   3.4799060  73.0232450  95.8420520   9.5375300
  73.5469930  95.3483170   8.9065470  73.6091870  95.9770880  10.2822870
  73.2022170  95.9260390  13.0594850  72.2524880  95.8923930  13.1739840
  73.3835180  96.8360500  12.8244620  72.5132420  95.0993870   5.4767710
  73.0091540  94.8664740   6.2616590  72.3148490  94.2605710   5.0605350
  58.3932960  89.4807590  11.1118750  59.0409150  88.9304970  10.6713910
  58.8134800  89.7350740  11.9334560  73.9419580  93.7354820   8.0105390
  73.8318860  93.5810860   8.9487660  74.7027170  93.2075760   7.7680800
  72.2885300  89.6748950  14.4688390  72.9257520  90.2883090  14.8347580
  72.4360190  89.7109610  13.5237620  74.9048340  92.3373400   3.8768240
  74.1099840  92.2718520   4.4061150  75.1091620  93.2724040   3.8653590
  58.1464960  89.6363260  13.8544070  57.7979780  90.0927080  14.6202250
  57.8152660  88.7420390  13.9366500  65.6589780  90.8275140  17.3763490
  65.5978670  91.4196970  18.1258900  66.5990160  90.7201100  17.2313750
  68.2964340  90.4845200  17.0155780  68.9104750  90.8024490  16.3536860
  68.8413900  89.9993790  17.6351640  58.8185600  89.1639460  17.1294840
  59.3668590  88.9827510  16.3660950  58.8840910  88.3733570  17.6651150
  69.0372380  89.0477340  13.3425070  68.1632220  89.3812450  13.1398000
  68.9283130  88.5750520  14.1676940  69.9444360  91.2548210  14.7266790
  69.6157720  90.4399970  14.3468520  70.8926660  91.2118020  14.6032480
  66.7847200  89.9647180  12.2817980  66.0018990  90.4392680  12.5614740
  66.4910130  89.0602010  12.1731160  71.3368270  90.6670280  10.3267070
  71.7776360  90.6115380   9.4788670  71.0675860  91.5828290  10.3977250
  73.2006840  90.2985520   8.3375890  73.1395240  89.3546740   8.1906910
  73.9798870  90.4065610   8.8829350  58.1287610  90.2694660   4.8031700
  58.8866970  90.3823540   4.2295730  57.6664780  91.1063860   4.7575130
  64.6701420  92.3833930   7.7934010  63.8575930  92.0090820   7.4529890
  65.1743060  91.6279010   8.0955200  69.1726400  89.0476380   9.0317080
  69.7755770  89.6196590   9.5065600  68.4319390  89.6115820   8.8090980
  72.3161000  89.4497940   4.3057360  72.5111630  90.3481390   4.5724790
  71.5290870  89.2185020   4.7990310  60.5012760  90.7958710   3.3433670
  61.0305520  90.0088510   3.2141620  61.1341080  91.4749900   3.5769200
  62.6950600  90.5333850   6.3979060  62.0653340  89.8321160   6.5649190
  62.1555740  91.2937980   6.1812220  62.8206160  89.8117830  18.8331550
  62.5390430  90.3151430  18.0692370  63.2025860  89.0139580  18.4673680
  69.4221620  89.2271410  19.4112020  69.3087070  89.5466020  20.3063540
  70.2391360  89.6283920  19.1149300  68.3279770  78.4720390  64.8720720
  68.2473820  77.5575000  64.6012430  67.9144190  78.9687460  64.1660430
  66.4597810  80.2499410  66.7529990  65.6839910  79.7699850  67.0428560
  67.1110740  79.5705060  66.5786150  60.4763640  80.5619220  67.6305750
  59.6448520  80.3067930  68.0302260  61.0844620  80.6329990  68.3663670
  70.4805240  84.6559600  65.5329120  70.0186770  83.8846840  65.8616290
  71.2930790  84.6825670  66.0381570  60.4564900  84.5959310  67.8263770
  60.7592940  83.7057050  67.6473990  61.2008490  85.1529530  67.5986020
  58.8855590  75.5221110  61.4148140  57.9972290  75.8637080  61.3128020
  59.1696780  75.3221430  60.5228970  56.8488600  78.1226760  67.2987840
  57.4204710  77.3548960  67.2991480  56.8490140  78.4215520  66.3894450
  66.7068550  86.9417610  65.1533110  66.0879990  87.3975110  64.5827550
  67.5620330  87.0969070  64.7522810  65.9006800  82.9256600  66.7600150
  65.8315080  81.9846540  66.5989280  66.6626660  83.0158010  67.3322720
  58.0913470  73.5311120  69.0856770  57.9116310  72.6336870  69.3659530
  57.6893550  74.0782990  69.7603720  66.9311970  75.7326980  66.9869080
  67.3076790  74.8598860  66.8742750  66.8331480  76.0685680  66.0959520
  61.0616980  74.1052610  62.4486520  61.1683730  75.0056340  62.7555280
  60.1509340  74.0570580  62.1581170  70.7136090  73.2277420  63.9197420
  71.5345710  72.7373990  63.9622900  70.7470170  73.8175080  64.6729260
  58.7100140  76.0271620  67.6939110  59.3910250  76.2909990  68.3126510
  58.3948190  75.1872490  68.0277120  62.9024710  77.0738980  66.7811700
  63.4102930  77.5719950  67.4216720  63.4337950  76.2974180  66.6051060
  75.0035640  75.2444170  70.4841050  74.2987810  75.6325880  69.9656160
  75.2693560  75.9394460  71.0861980  61.1860810  71.7137540  71.0475120
  61.1879250  72.2309930  70.2421020  60.3565120  71.2367720  71.0245050
  67.5731900  81.8256850  62.5465020  66.9549170  82.2906300  61.9827740
  68.0855150  82.5184330  62.9634530  62.4363660  81.3532720  69.2248620
  62.1033040  81.9801640  69.8669690  62.6130340  81.8794600  68.4450290
  70.9497570  75.1677800  66.6924960  70.2453140  75.4562690  67.2728070
  71.3109730  75.9777910  66.3324520  60.8676140  73.4247500  69.0545570
  61.2092950  74.2689550  68.7599440  59.9291950  73.5731240  69.1710910
  61.6482760  83.3213520  71.0397800  62.2656760  83.9964600  70.7582250
  60.7875880  83.7301500  70.9485300  56.9415100  82.5113380  59.9204650
  56.5643080  83.0000480  59.1889550  57.1988170  83.1838660  60.5511180
  72.5660350  84.7852930  68.9552440  71.8823870  85.4552040  68.9469110
  73.1054640  84.9833580  68.1897300  74.0184490  74.6132590  67.0834170
  73.0709400  74.6471570  67.2149600  74.3434480  75.4271540  67.4683530
  64.5504030  70.9129770  65.3790160  64.8579010  70.3576660  64.6625660
  63.6204730  71.0474230  65.1963150  70.1019090  86.6297060  67.6697620
  70.1146250  86.2259350  66.8019880  69.5494310  87.4044350  67.5659050
  71.3964510  83.3513280  62.7587790  71.2860840  82.4087610  62.8837210
  71.3932760  83.7128920  63.6450550  69.5004530  81.5326900  68.9980230
  69.9173320  81.3187010  68.1633690  70.2244350  81.7899690  69.5688850
  66.9384790  78.9778600  62.1150280  66.0114070  78.9115980  62.3438750
  67.0909610  79.9158730  62.0005520  66.9253870  75.2495600  59.1117440
  65.9857540  75.4109560  59.1969900  67.2437130  75.9681280  58.5653430
  73.4466630  79.9314120  69.0896470  72.6185260  80.0007210  68.6146600
  74.0417110  80.5168430  68.6212300  70.9682080  80.5398900  62.6185530
  70.3494500  80.2018450  61.9711830  70.9506530  79.8958660  63.3264720
  70.4108640  76.7183440  70.0351340  69.9979820  77.5437150  70.2891330
  69.6784590  76.1328480  69.8427700  62.5441430  79.5043340  64.8970010
  62.1398430  78.7920590  64.4015910  62.6304550  79.1596580  65.7858050
  63.0123130  83.1910900  67.0609220  62.7151420  82.5856370  66.3817000
  63.9622950  83.2288210  66.9498580  61.2570050  76.2786550  68.6769050
  61.8084640  76.3881890  67.9022300  61.7713560  76.6524150  69.3924280
  71.1008740  86.7642770  70.7232320  70.6239300  87.5714960  70.5304930
  70.4170530  86.1121100  70.8758530  62.1041560  82.9292590  73.7117020
  61.2070090  83.1532560  73.9590420  62.1294430  83.0527530  72.7628420
  69.1446780  79.7785710  59.6258280  69.5840060  78.9408140  59.4796100
  69.8575200  80.4115110  59.7122420  60.9312780  79.8005910  72.2874390
  60.7920550  80.6728710  72.6561790  60.0494140  79.4578720  72.1422330
  67.2542160  84.7181780  63.5939520  67.6938070  85.4606110  63.1794910
  67.1929050  84.9608350  64.5178480  62.7293130  85.7427610  74.4959540
  62.7008560  86.1470560  73.6287970  62.5658100  84.8137970  74.3331140
  72.7263920  71.0328520  57.9399320  72.4136580  71.1255350  58.8398390
  73.4876390  71.6109550  57.8896750  59.2446060  78.3988320  62.3976660
  59.1243660  79.1250410  61.7857930  58.9346950  77.6291230  61.9204570
  56.8831430  81.5703460  68.2045300  56.9611850  81.7052230  67.2601020
  57.4973110  80.8619350  68.3973420  58.1279060  83.2703650  64.6151480
  57.7207140  83.4118240  63.7605080  59.0192070  82.9863810  64.4122690
  74.0841200  83.7167560  72.9523720  74.2104260  83.4779440  72.0340900
  74.1262580  82.8852100  73.4245800  67.9457940  87.4195560  71.5218530
  68.4602610  87.3303570  72.3240960  67.1027020  87.7655260  71.8146440
  69.9212340  87.7050900  60.9502530  69.7613480  87.4153840  61.8484360
  69.7559050  86.9291030  60.4147760  62.4000720  87.4849430  62.7274150
  62.2243200  86.5684970  62.5141950  61.5456460  87.8436720  62.9671950
  69.6238470  85.2138460  59.5100530  68.9303630  85.2115750  58.8502810
  70.3661330  84.7897780  59.0794700  69.1888400  86.8401170  63.5849020
  69.6445350  86.0590550  63.8987640  69.5280920  87.5507990  64.1290200
  73.9365210  75.7700020  73.9173460  73.3209480  76.2779690  73.3888920
  73.6161630  74.8698350  73.8599400  56.9390950  82.6117630  70.7439760
  57.1021990  82.1422990  69.9259130  57.4043400  82.1041190  71.4088600
  61.7109720  71.7423390  65.7800330  61.2677870  72.5232930  65.4484850
  62.2694710  72.0653280  66.4871270  65.9979530  74.6091910  71.3835650
  65.5358900  74.8174930  72.1955590  65.5957640  73.7951260  71.0806320
  70.9984040  75.8300860  72.5132310  70.1477630  75.5306610  72.8341380
  70.8385830  76.0742870  71.6016130  68.0933750  77.3302610  74.6131100
  68.4187160  76.4966360  74.2733330  68.8814080  77.8531130  74.7609430
  64.8268540  71.3634090  60.6606160  64.2022720  71.3593960  61.3859470
  64.7398660  70.4965050  60.2642130  63.7485620  72.2870720  67.6389930
  64.0457950  73.1933550  67.5581950  64.2971180  71.7989500  67.0249500
  61.5023940  76.8656960  63.5081580  61.2764860  76.6494130  64.4128200
  60.7216470  77.2985420  63.1627550  68.7321700  76.8720330  62.1072230
  68.1330590  77.5956130  61.9235850  69.2801310  76.8097110  61.3248680
  63.9423150  77.7642540  74.1741850  63.8466750  76.8237270  74.0242250
  64.7855130  77.9857610  73.7789920  67.3386570  75.5083870  64.1375510
  67.7316140  75.8256070  63.3244200  67.7003420  74.6295750  64.2520030
  59.0733690  74.1756210  72.3275630  58.6797080  75.0231420  72.5348410
  58.3852090  73.5382580  72.5184270  56.3750740  72.0984670  66.3605710
  56.0863790  72.6687530  67.0730690  57.1196500  71.6189120  66.7236940
  56.5620970  76.0404790  57.5708430  56.4795640  76.9835550  57.7123420
  56.2104030  75.8979700  56.6920780  67.9241710  78.0989620  68.2326290
  67.1922830  78.6076430  68.5816390  67.5266050  77.2819600  67.9315070
  64.3619100  74.7743820  66.6378780  64.3655160  74.3333770  65.7883320
  65.2570220  75.0961150  66.7450600  60.2121480  74.6570310  65.5972990
  59.8721530  75.1345540  66.3540040  59.4498800  74.2035430  65.2374090
  64.4239250  75.7755900  59.6285540  64.5452070  75.7342380  60.5771360
  64.0387760  76.6380050  59.4732270  68.3867620  73.5523300  67.6449230
  68.4040360  74.0031950  68.4891080  68.1383200  72.6528940  67.8582670
  63.4360750  78.0857040  59.0268840  62.8677650  77.6375290  58.4004750
  64.1449750  78.4449820  58.4933990  71.8138370  70.9655480  73.4835610
  72.1384140  70.2345140  74.0093590  71.8494880  70.6469120  72.5816600
  58.5129930  81.9869060  72.9035570  58.1284720  81.3462730  73.5018530
  58.8242120  82.6905180  73.4730300  64.6627070  78.8345600  68.3844190
  65.0297200  78.3604170  69.1305530  64.4732130  79.7087170  68.7252530
  57.5267560  73.5789290  64.5137660  57.2414480  73.2144960  65.3516280
  57.4646420  72.8469750  63.9000800  62.4526440  77.8754240  70.7028400
  62.1483510  78.7546220  70.9278760  63.4072900  77.9354030  70.7385840
  60.9808230  82.0815230  61.2995250  60.2070490  81.5412850  61.1393970
  61.7102860  81.5621840  60.9613010  71.7396210  81.0780590  67.0921640
  72.4595330  81.5735880  66.7017750  71.5378030  80.3998480  66.4475510
  67.2006150  72.4718550  61.2351030  66.3870760  71.9731720  61.1596340
  67.0068100  73.3116800  60.8187380  67.1215010  81.1489650  72.9790640
  67.0552320  80.2285320  72.7248230  66.4920150  81.2465090  73.6935280
  69.9154540  76.8438200  59.5313190  70.8034160  77.1555430  59.3564530
  69.8859630  75.9710450  59.1393770  61.0245630  81.7495610  64.9374060
  61.5424300  80.9463870  64.8830950  60.5729650  81.6874750  65.7790890
  65.9115130  83.0161890  60.2101360  66.2530830  83.7604120  59.7144680
  65.0827840  83.3293010  60.5726190  58.5090170  78.7156980  71.8499760
  58.1505110  79.3810830  72.4373100  58.2144730  77.8840530  72.2212380
  61.7103290  79.1741220  74.7339310  61.4103430  79.3198400  73.8367130
  62.4814530  78.6146510  74.6412700  67.0531740  83.9710220  72.7294440
  67.0676280  83.0391180  72.5113350  66.3456840  84.0569980  73.3684210
  72.1868810  78.1550040  58.9993050  72.1032530  78.5864260  58.1489490
  72.9063000  78.6148390  59.4319870  73.2642950  80.6117560  72.0763020
  72.5391140  81.2046340  71.8792410  73.7918410  80.6041100  71.2776390
  73.2156060  85.0092300  61.7275180  72.5732220  84.3547920  62.0018900
  72.8286720  85.4147390  60.9515850  68.7942540  82.3377730  65.5746870
  69.1466360  81.7405860  64.9148240  67.9104870  82.0121960  65.7455120
  64.8805820  83.0975420  62.9817280  65.5676950  83.6444630  63.3624870
  64.0938240  83.6416150  63.0166890  57.0198220  78.7148240  58.4734360
  57.8893070  78.9973040  58.7570280  56.5288540  79.5284110  58.3583170
  64.1833030  80.1021450  62.5942640  64.6395810  80.9126700  62.8202830
  63.8321240  79.7844590  63.4261130  66.4865640  85.6127790  69.8234940
  67.1307860  85.8187170  70.5008360  66.8495080  84.8516190  69.3705790
  60.0844810  70.4459100  63.0665160  59.9559440  70.4377000  64.0150080
  59.2606830  70.7842190  62.7156170  67.7597720  83.6160140  68.5412390
  68.4019950  82.9153300  68.6544560  68.2847070  84.3958580  68.3609280
  71.6053440  83.9008760  58.2651530  71.3791020  83.1839200  58.8576170
  71.2149640  83.6521200  57.4273280  69.5335340  84.4155040  71.7448450
  69.8691580  85.0021730  72.4226370  68.6135680  84.2847750  71.9746240
  57.3869470  87.9275620  59.0395990  57.7467110  88.5264960  58.3853260
  57.2461810  88.4735510  59.8131020  57.0838740  72.2050220  72.5271860
  56.3697260  72.4047140  73.1324470  57.5033780  71.4289790  72.8986660
  71.1869690  81.8180700  59.9265690  70.8991390  82.2793390  60.7143570
  71.9821860  81.3578470  60.1949910  57.3711330  86.1930480  73.5138390
  57.4802450  85.2525220  73.3733780  56.7191890  86.4585230  72.8652120
  63.4038090  85.3106820  59.8569660  63.3948190  86.0436510  59.2414170
  62.4836450  85.0638400  59.9496620  59.0044730  80.5321710  60.6016420
  58.3972680  81.2720610  60.6111720  59.4794080  80.6221070  59.7754620
  68.5777520  74.6972530  70.2773310  68.9458340  73.8767740  70.6052880
  67.7175720  74.7574420  70.6928960  71.9439550  73.6529470  61.0860870
  71.3152710  73.7575140  60.3719100  71.4491470  73.8726250  61.8754750
  66.3897690  85.3735060  58.5194850  66.4909670  85.1699050  57.5896830
  65.4899430  85.1193340  58.7242630  63.9123580  75.9315420  62.5018750
  63.2039730  76.4001760  62.9432360  64.1968060  75.2737430  63.1363940
  65.5379510  77.3512120  70.5011280  66.0364760  77.8257940  71.1663130
  65.6802460  76.4275640  70.7081310  67.9439010  72.6566080  63.9414540
  67.8206790  72.6752210  62.9924050  68.8923570  72.7045020  64.0612940
  65.0315800  87.8921380  63.2142520  65.2857300  87.8542770  62.2921890
  64.0828280  87.7654710  63.2070770  62.1158600  74.2400500  59.8769460
  62.9649130  74.6770650  59.8109650  61.7489870  74.5520760  60.7041520
  72.7446370  73.5680080  71.3439670  72.2419970  74.3085480  71.6833480
  73.5603030  73.9564080  71.0276460  71.0368380  78.8113260  64.7901030
  70.0958520  78.8263490  64.9648720  71.3512450  78.0249220  65.2361330
  61.0150020  80.4932860  58.3504990  61.7813290  80.3814220  58.9130420
  61.0924710  79.7970830  57.6981760  59.7096780  77.9257930  59.0337880
  59.7900370  76.9785440  59.1455280  60.6016530  78.2564810  59.1398540
  73.0393960  85.9822110  66.4655290  73.1641380  86.8053280  66.9379100
  73.9059520  85.7712840  66.1179440  60.5111490  88.0753320  66.1372420
  61.2473970  87.5268780  66.4080990  60.8952410  88.9409330  65.9978410
  57.3956970  84.1426890  62.0113930  56.4696750  84.3848030  62.0019340
  57.8613400  84.9701150  61.8898680  63.6213800  87.2483630  57.9597990
  64.4142410  87.5372460  57.5079780  63.1018150  86.8175800  57.2810470
  69.7834770  87.0959550  73.8842820  70.7356520  87.0117570  73.8343060
  69.6362990  87.7601260  74.5576610  72.6743970  86.4753760  59.3834730
  72.3885480  86.0618900  58.5688910  72.4763520  87.4041470  59.2635250
  57.2367580  79.7472850  74.2694050  57.7406600  79.1680130  74.8410280
  56.4975000  80.0313080  74.8070420  64.1391200  82.4687040  57.8240340
  64.0341840  81.8539390  58.5501720  63.9715420  81.9452930  57.0403350
  64.2905520  81.1543840  73.8029570  63.5251190  81.7228840  73.7184240
  64.4721480  80.8620050  72.9097800  67.3793930  81.5307070  58.4282330
  66.8304030  81.9776370  59.0725070  68.0013190  81.0256320  58.9520000
  71.4328870  82.8849170  74.3604590  72.1738340  83.2224930  73.8572050
  70.6701550  83.0541230  73.8074360  63.0469050  80.4897990  60.3247630
  63.4685470  80.3237860  61.1679020  63.1719890  79.6798220  59.8302770
  61.2096470  76.4694540  73.1318610  60.6792930  75.9785490  72.5041950
  61.8784540  76.8978740  72.5976540  65.5596690  79.5135600  57.5724730
  66.0802350  78.7984620  57.2065880  66.2065090  80.1521470  57.8725240
  70.1074530  80.9364000  72.8959800  70.5215550  81.0909080  73.7450220
  69.1725530  81.0619220  73.0585580  70.5796700  78.2760160  74.8998950
  71.1617470  77.5212480  74.8119430  70.7558470  78.8067600  74.1230430
  61.6968770  73.4356910  73.2115900  61.6025640  72.8177660  72.4866770
  61.1166160  74.1623200  72.9845810  64.4630210  71.9930150  70.2443290
  64.0147510  72.0154410  69.3988840  63.8295410  71.5949170  70.8413590
  64.8689760  80.8884480  70.8655730  65.2877870  81.7317210  70.6931970
  63.9498390  81.0256520  70.6362510  67.2053660  78.6200660  72.2493570
  67.3249870  78.0241800  72.9888410  68.0647660  78.6570350  71.8294870
  69.5441560  79.1737850  70.8256080  69.0176780  79.6980470  70.2221220
  69.8872900  79.8065240  71.4565810  61.9427950  76.5631220  57.2705790
  61.7417010  75.6998580  57.6319130  61.7720000  76.4764580  56.3327390
  62.7197180  87.1937490  71.9813460  62.1818270  87.9183550  71.6622160
  62.9731140  86.7167830  71.1910800  63.9722430  75.1622010  73.5069390
  64.5622120  74.8537860  74.1947210  63.1542670  74.6901760  73.6629290
  68.7915860  74.7787820  73.7402410  68.1031380  74.1169360  73.6752400
  69.5121880  74.3326090  74.1850870  69.4216260  71.3739450  59.7992670
  69.7018550  70.5307350  60.1552090  68.6481990  71.6062560  60.3131420
  60.7410750  73.6631840  57.2583670  61.0436650  73.6699270  56.3502820
  61.4805340  73.3129700  57.7551330  65.5759390  88.4288700  72.2400110
  65.5018090  89.3323840  72.5472480  64.6738230  88.1100600  72.2122180
  63.9595680  72.6066460  58.2439870  63.6117680  71.9290450  57.6642320
  64.1608450  72.1455970  59.0583260  66.1244720  87.5947210  59.8626470
  67.0195510  87.9332180  59.8845230  66.1562350  86.8726620  59.2350750
  59.7640880  82.9674260  58.0913470  60.2015750  83.5103930  58.7471050
  60.2488610  82.1421210  58.1009810  56.9786680  85.7563290  65.5433730
  57.3089690  84.8884350  65.3112370  57.4077680  85.9621810  66.3738690
  61.5748600  84.0872300  63.2035700  61.2744140  83.9637270  64.1039610
  61.4686090  83.2280890  62.7951430  57.4676890  86.6233880  68.2815360
  57.0307880  86.8034680  69.1139510  58.0354570  87.3808500  68.1397080
  73.1039070  86.1250880  72.5692670  72.5041060  86.1843440  71.8256590
  73.2332970  85.1855860  72.6989520  74.3440520  83.8668700  57.9062380
  73.5133480  83.9345350  58.3769610  74.5212350  84.7572820  57.6029240
  73.7996980  80.6116180  60.4096580  74.5615890  81.1812830  60.5156270
  73.8151350  80.0443380  61.1804890  57.3001320  79.1354110  64.6404240
  56.6450160  78.8665750  63.9963940  58.1379270  79.0258590  64.1906220
  74.8056950  81.4666280  65.2538510  75.1765780  80.6833600  64.8474480
  75.4458880  82.1555380  65.0755810  71.7890710  82.8502860  70.6668830
  70.9750550  83.2800020  70.9294620  72.1964910  83.4621270  70.0537880
  73.8516150  80.9050550  57.5669100  74.1264990  81.8129430  57.4388320
  73.6626890  80.8413080  58.5031090  70.2491760  73.9295400  58.8622730
  70.6676640  73.7426380  58.0219390  69.9427820  73.0774450  59.1725660
  73.7481490  78.8419540  62.5598530  73.3725090  78.0747470  62.1279820
  73.0184610  79.2242240  63.0473460  58.3377250  79.5206680  69.1807580
  58.7050290  79.4334080  70.0603600  57.7688070  78.7573230  69.0814440
  73.1381110  77.9891060  72.1938050  72.9067200  77.7603810  71.2936000
  73.3985660  78.9090610  72.1482940  57.8893250  76.4315770  73.0866000
  56.9949300  76.3982530  73.4259710  58.4290800  76.6302560  73.8517250
  56.5139400  76.3453040  60.5829570  55.6103480  76.6083240  60.4081230
  56.9980020  76.6164210  59.8029530  73.0232450  77.0677030  65.8605770
  73.5469930  76.5739680  65.2295940  73.6091870  77.2027390  66.6053340
  73.2022170  77.1516900  69.3825320  72.2524880  77.1180440  69.4970310
  73.3835180  78.0617010  69.1475090  59.0566610  75.4018580  58.4923950
  59.7658310  74.9801800  58.0071230  58.3406550  75.4693810  57.8607300
  58.7040770  71.4557910  57.5326600  59.4268900  71.9966850  57.8507820
  58.9765290  71.1821330  56.6568140  72.5132420  76.3250380  61.7998180
  73.0091540  76.0921250  62.5847060  72.3148490  75.4862220  61.3835820
  58.3932960  70.7064100  67.4349220  59.0409150  70.1561480  66.9944380
  58.8134800  70.9607250  68.2565030  73.9419580  74.9611330  64.3335860
  73.8318860  74.8067370  65.2718130  74.7027170  74.4332270  64.0911270
  72.2885300  70.9005460  70.7918860  72.9257520  71.5139600  71.1578050
  72.4360190  70.9366120  69.8468090  74.8309850  72.7919250  57.5742000
  75.7559160  72.6600430  57.3660290  74.8085640  72.8712070  58.5278450
  74.9048340  73.5629910  60.1998710  74.1099840  73.4975030  60.7291620
  75.1091620  74.4980550  60.1884060  71.8466760  87.6021460  64.1937100
  72.4425830  87.2806030  63.5171520  72.1044910  87.1293280  64.9850370
  58.1464960  70.8619770  70.1774540  57.7979780  71.3183590  70.9432720
  57.8152660  69.9676900  70.2596970  63.4535360  85.5898960  69.9437450
  63.2126720  85.8573520  69.0567970  64.3938000  85.7604690  69.9988310
  65.6589780  72.0531650  73.6993960  65.5978670  72.6453480  74.4489370
  66.5990160  71.9457610  73.5544220  68.2964340  71.7101710  73.3386250
  68.9104750  72.0281000  72.6767330  68.8413900  71.2250300  73.9582110
  74.7139520  87.6093340  70.7448090  74.2197800  88.0062210  70.0275220
  74.1052810  86.9842550  71.1385370  58.8185600  70.3895970  73.4525310
  59.3668590  70.2084020  72.6891420  58.8840910  69.5990080  73.9881620
  59.5917360  86.9801620  71.4625510  58.9977680  86.8486320  72.2015550
  59.5841200  86.1439760  70.9967610  69.0372380  70.2733850  69.6655540
  68.1632220  70.6068960  69.4628470  68.9283130  69.8007030  70.4907410
  69.9444360  72.4804720  71.0497260  69.6157720  71.6656480  70.6698990
  70.8926660  72.4374530  70.9262950  72.3978970  88.2516760  68.0234830
  71.9381940  89.0032570  67.6492850  71.7691430  87.5323230  67.9649630
  59.2229590  84.3460000  70.4133550  58.4963650  83.7265290  70.3459500
  59.2838740  84.7400610  69.5431630  62.8274690  86.5605000  67.1982960
  63.3439710  85.9492360  66.6731220  63.4772070  87.0633780  67.6893970
  65.5670190  87.4513490  68.0251940  65.8548000  87.1967790  67.1484950
  66.0793410  86.8990850  68.6157510  66.7847200  71.1903690  68.6048450
  66.0018990  71.6649190  68.8845210  66.4910130  70.2858520  68.4961630
  71.3368270  71.8926790  66.6497540  71.7776360  71.8371890  65.8019140
  71.0675860  72.8084800  66.7207720  73.2006840  71.5242030  64.6606360
  73.1395240  70.5803250  64.5137380  73.9798870  71.6322120  65.2059820
  57.5059590  87.6634390  63.6230310  57.3381630  87.0305070  64.3212200
  56.6394100  87.8693790  63.2724500  58.1287610  71.4951170  61.1262170
  58.8866970  71.6080050  60.5526200  57.6664780  72.3320370  61.0805600
  64.6701420  73.6090440  64.1164480  63.8575930  73.2347330  63.7760360
  65.1743060  72.8535520  64.4185670  69.1726400  70.2732890  65.3547550
  69.7755770  70.8453100  65.8296070  68.4319390  70.8372330  65.1321450
  72.3161000  70.6754450  60.6287830  72.5111630  71.5737900  60.8955260
  71.5290870  70.4441530  61.1220780  59.1122290  86.3567620  61.0680450
  58.5869910  86.7375650  60.3642410  59.0366870  86.9818390  61.7890160
  60.5012760  72.0215220  59.6664140  61.0305520  71.2345020  59.5372090
  61.1341080  72.7006410  59.8999670  62.6950600  71.7590360  62.7209530
  62.0653340  71.0577670  62.8879660  62.1555740  72.5194490  62.5042690
  73.8687610  87.9155160  62.3894390  74.0439800  87.2292900  61.7455310
  73.1709180  88.4402210  61.9971060  61.7115260  88.3050000  59.9429700
  62.4434080  88.0209280  59.3953590  61.9708930  88.0663280  60.8329080
  60.8730050  84.4214730  59.9476030  60.2438930  84.8899830  60.4961860
  60.9877880  83.5763950  60.3822220  68.3279770  78.4720390  46.0977230
  68.2473820  77.5575000  45.8268940  67.9144190  78.9687460  45.3916940
  66.4597810  80.2499410  47.9786500  65.6839910  79.7699850  48.2685070
  67.1110740  79.5705060  47.8042660  60.4763640  80.5619220  48.8562260
  59.6448520  80.3067930  49.2558770  61.0844620  80.6329990  49.5920180
  70.4805240  84.6559600  46.7585630  70.0186770  83.8846840  47.0872800
  71.2930790  84.6825670  47.2638080  60.4564900  84.5959310  49.0520280
  60.7592940  83.7057050  48.8730500  61.2008490  85.1529530  48.8242530
  58.8855590  75.5221110  42.6404650  57.9972290  75.8637080  42.5384530
  59.1696780  75.3221430  41.7485480  56.8488600  78.1226760  48.5244350
  57.4204710  77.3548960  48.5247990  56.8490140  78.4215520  47.6150960
  66.7068550  86.9417610  46.3789620  66.0879990  87.3975110  45.8084060
  67.5620330  87.0969070  45.9779320  65.9006800  82.9256600  47.9856660
  65.8315080  81.9846540  47.8245790  66.6626660  83.0158010  48.5579230
  58.0913470  73.5311120  50.3113280  57.9116310  72.6336870  50.5916040
  57.6893550  74.0782990  50.9860230  66.9311970  75.7326980  48.2125590
  67.3076790  74.8598860  48.0999260  66.8331480  76.0685680  47.3216030
  61.0616980  74.1052610  43.6743030  61.1683730  75.0056340  43.9811790
  60.1509340  74.0570580  43.3837680  70.7136090  73.2277420  45.1453930
  71.5345710  72.7373990  45.1879410  70.7470170  73.8175080  45.8985770
  58.7100140  76.0271620  48.9195620  59.3910250  76.2909990  49.5383020
  58.3948190  75.1872490  49.2533630  62.9024710  77.0738980  48.0068210
  63.4102930  77.5719950  48.6473230  63.4337950  76.2974180  47.8307570
  75.0035640  75.2444170  51.7097560  74.2987810  75.6325880  51.1912670
  75.2693560  75.9394460  52.3118490  61.1860810  71.7137540  52.2731630
  61.1879250  72.2309930  51.4677530  60.3565120  71.2367720  52.2501560
  67.5731900  81.8256850  43.7721530  66.9549170  82.2906300  43.2084250
  68.0855150  82.5184330  44.1891040  62.4363660  81.3532720  50.4505130
  62.1033040  81.9801640  51.0926200  62.6130340  81.8794600  49.6706800
  70.9497570  75.1677800  47.9181470  70.2453140  75.4562690  48.4984580
  71.3109730  75.9777910  47.5581030  60.8676140  73.4247500  50.2802080
  61.2092950  74.2689550  49.9855950  59.9291950  73.5731240  50.3967420
  61.6482760  83.3213520  52.2654310  62.2656760  83.9964600  51.9838760
  60.7875880  83.7301500  52.1741810  56.9415100  82.5113380  41.1461160
  56.5643080  83.0000480  40.4146060  57.1988170  83.1838660  41.7767690
  72.5660350  84.7852930  50.1808950  71.8823870  85.4552040  50.1725620
  73.1054640  84.9833580  49.4153810  74.0184490  74.6132590  48.3090680
  73.0709400  74.6471570  48.4406110  74.3434480  75.4271540  48.6940040
  64.5504030  70.9129770  46.6046670  64.8579010  70.3576660  45.8882170
  63.6204730  71.0474230  46.4219660  70.1019090  86.6297060  48.8954130
  70.1146250  86.2259350  48.0276390  69.5494310  87.4044350  48.7915560
  71.3964510  83.3513280  43.9844300  71.2860840  82.4087610  44.1093720
  71.3932760  83.7128920  44.8707060  69.5004530  81.5326900  50.2236740
  69.9173320  81.3187010  49.3890200  70.2244350  81.7899690  50.7945360
  66.9384790  78.9778600  43.3406790  66.0114070  78.9115980  43.5695260
  67.0909610  79.9158730  43.2262030  66.9253870  75.2495600  40.3373950
  65.9857540  75.4109560  40.4226410  67.2437130  75.9681280  39.7909940
  73.4466630  79.9314120  50.3152980  72.6185260  80.0007210  49.8403110
  74.0417110  80.5168430  49.8468810  70.9682080  80.5398900  43.8442040
  70.3494500  80.2018450  43.1968340  70.9506530  79.8958660  44.5521230
  70.4108640  76.7183440  51.2607850  69.9979820  77.5437150  51.5147840
  69.6784590  76.1328480  51.0684210  62.5441430  79.5043340  46.1226520
  62.1398430  78.7920590  45.6272420  62.6304550  79.1596580  47.0114560
  63.0123130  83.1910900  48.2865730  62.7151420  82.5856370  47.6073510
  63.9622950  83.2288210  48.1755090  61.2570050  76.2786550  49.9025560
  61.8084640  76.3881890  49.1278810  61.7713560  76.6524150  50.6180790
  71.1008740  86.7642770  51.9488830  70.6239300  87.5714960  51.7561440
  70.4170530  86.1121100  52.1015040  62.1041560  82.9292590  54.9373530
  61.2070090  83.1532560  55.1846930  62.1294430  83.0527530  53.9884930
  69.1446780  79.7785710  40.8514790  69.5840060  78.9408140  40.7052610
  69.8575200  80.4115110  40.9378930  60.9312780  79.8005910  53.5130900
  60.7920550  80.6728710  53.8818300  60.0494140  79.4578720  53.3678840
  67.2542160  84.7181780  44.8196030  67.6938070  85.4606110  44.4051420
  67.1929050  84.9608350  45.7434990  62.7293130  85.7427610  55.7216050
  62.7008560  86.1470560  54.8544480  62.5658100  84.8137970  55.5587650
  72.7263920  71.0328520  39.1655830  72.4136580  71.1255350  40.0654900
  73.4876390  71.6109550  39.1153260  59.2446060  78.3988320  43.6233170
  59.1243660  79.1250410  43.0114440  58.9346950  77.6291230  43.1461080
  74.6807950  86.5254710  57.0180220  75.1567670  87.0037600  57.6969300
  75.3015110  86.4572200  56.2925720  56.8831430  81.5703460  49.4301810
  56.9611850  81.7052230  48.4857530  57.4973110  80.8619350  49.6229930
  58.1279060  83.2703650  45.8407990  57.7207140  83.4118240  44.9861590
  59.0192070  82.9863810  45.6379200  74.0841200  83.7167560  54.1780230
  74.2104260  83.4779440  53.2597410  74.1262580  82.8852100  54.6502310
  67.9457940  87.4195560  52.7475040  68.4602610  87.3303570  53.5497470
  67.1027020  87.7655260  53.0402950  69.9212340  87.7050900  42.1759040
  69.7613480  87.4153840  43.0740870  69.7559050  86.9291030  41.6404270
  62.4000720  87.4849430  43.9530660  62.2243200  86.5684970  43.7398460
  61.5456460  87.8436720  44.1928460  69.6238470  85.2138460  40.7357040
  68.9303630  85.2115750  40.0759320  70.3661330  84.7897780  40.3051210
  69.1888400  86.8401170  44.8105530  69.6445350  86.0590550  45.1244150
  69.5280920  87.5507990  45.3546710  73.9365210  75.7700020  55.1429970
  73.3209480  76.2779690  54.6145430  73.6161630  74.8698350  55.0855910
  56.9390950  82.6117630  51.9696270  57.1021990  82.1422990  51.1515640
  57.4043400  82.1041190  52.6345110  61.7109720  71.7423390  47.0056840
  61.2677870  72.5232930  46.6741360  62.2694710  72.0653280  47.7127780
  65.9979530  74.6091910  52.6092160  65.5358900  74.8174930  53.4212100
  65.5957640  73.7951260  52.3062830  70.9984040  75.8300860  53.7388820
  70.1477630  75.5306610  54.0597890  70.8385830  76.0742870  52.8272640
  68.0933750  77.3302610  55.8387610  68.4187160  76.4966360  55.4989840
  68.8814080  77.8531130  55.9865940  64.8268540  71.3634090  41.8862670
  64.2022720  71.3593960  42.6115980  64.7398660  70.4965050  41.4898640
  63.7485620  72.2870720  48.8646440  64.0457950  73.1933550  48.7838460
  64.2971180  71.7989500  48.2506010  61.5023940  76.8656960  44.7338090
  61.2764860  76.6494130  45.6384710  60.7216470  77.2985420  44.3884060
  68.7321700  76.8720330  43.3328740  68.1330590  77.5956130  43.1492360
  69.2801310  76.8097110  42.5505190  63.9423150  77.7642540  55.3998360
  63.8466750  76.8237270  55.2498760  64.7855130  77.9857610  55.0046430
  67.3386570  75.5083870  45.3632020  67.7316140  75.8256070  44.5500710
  67.7003420  74.6295750  45.4776540  59.0733690  74.1756210  53.5532140
  58.6797080  75.0231420  53.7604920  58.3852090  73.5382580  53.7440780
  65.6478740  74.2591180  56.6228880  64.9577060  74.0663380  57.2574970
  66.3911040  74.5425820  57.1553180  56.3750740  72.0984670  47.5862220
  56.0863790  72.6687530  48.2987200  57.1196500  71.6189120  47.9493450
  56.5620970  76.0404790  38.7964940  56.4795640  76.9835550  38.9379930
  56.2104030  75.8979700  37.9177290  67.9241710  78.0989620  49.4582800
  67.1922830  78.6076430  49.8072900  67.5266050  77.2819600  49.1571580
  64.3619100  74.7743820  47.8635290  64.3655160  74.3333770  47.0139830
  65.2570220  75.0961150  47.9707110  60.2121480  74.6570310  46.8229500
  59.8721530  75.1345540  47.5796550  59.4498800  74.2035430  46.4630600
  64.4239250  75.7755900  40.8542050  64.5452070  75.7342380  41.8027870
  64.0387760  76.6380050  40.6988780  68.3867620  73.5523300  48.8705740
  68.4040360  74.0031950  49.7147590  68.1383200  72.6528940  49.0839180
  63.4360750  78.0857040  40.2525350  62.8677650  77.6375290  39.6261260
  64.1449750  78.4449820  39.7190500  71.8138370  70.9655480  54.7092120
  72.1384140  70.2345140  55.2350100  71.8494880  70.6469120  53.8073110
  58.5129930  81.9869060  54.1292080  58.1284720  81.3462730  54.7275040
  58.8242120  82.6905180  54.6986810  64.6627070  78.8345600  49.6100700
  65.0297200  78.3604170  50.3562040  64.4732130  79.7087170  49.9509040
  57.5267560  73.5789290  45.7394170  57.2414480  73.2144960  46.5772790
  57.4646420  72.8469750  45.1257310  62.4526440  77.8754240  51.9284910
  62.1483510  78.7546220  52.1535270  63.4072900  77.9354030  51.9642350
  60.9808230  82.0815230  42.5251760  60.2070490  81.5412850  42.3650480
  61.7102860  81.5621840  42.1869520  71.7396210  81.0780590  48.3178150
  72.4595330  81.5735880  47.9274260  71.5378030  80.3998480  47.6732020
  67.2006150  72.4718550  42.4607540  66.3870760  71.9731720  42.3852850
  67.0068100  73.3116800  42.0443890  67.1215010  81.1489650  54.2047150
  67.0552320  80.2285320  53.9504740  66.4920150  81.2465090  54.9191790
  69.9154540  76.8438200  40.7569700  70.8034160  77.1555430  40.5821040
  69.8859630  75.9710450  40.3650280  61.0245630  81.7495610  46.1630570
  61.5424300  80.9463870  46.1087460  60.5729650  81.6874750  47.0047400
  65.9115130  83.0161890  41.4357870  66.2530830  83.7604120  40.9401190
  65.0827840  83.3293010  41.7982700  58.5090170  78.7156980  53.0756270
  58.1505110  79.3810830  53.6629610  58.2144730  77.8840530  53.4468890
  61.7103290  79.1741220  55.9595820  61.4103430  79.3198400  55.0623640
  62.4814530  78.6146510  55.8669210  67.0531740  83.9710220  53.9550950
  67.0676280  83.0391180  53.7369860  66.3456840  84.0569980  54.5940720
  72.1868810  78.1550040  40.2249560  72.1032530  78.5864260  39.3746000
  72.9063000  78.6148390  40.6576380  73.2642950  80.6117560  53.3019530
  72.5391140  81.2046340  53.1048920  73.7918410  80.6041100  52.5032900
  73.2156060  85.0092300  42.9531690  72.5732220  84.3547920  43.2275410
  72.8286720  85.4147390  42.1772360  68.7942540  82.3377730  46.8003380
  69.1466360  81.7405860  46.1404750  67.9104870  82.0121960  46.9711630
  64.8805820  83.0975420  44.2073790  65.5676950  83.6444630  44.5881380
  64.0938240  83.6416150  44.2423400  57.0198220  78.7148240  39.6990870
  57.8893070  78.9973040  39.9826790  56.5288540  79.5284110  39.5839680
  64.1833030  80.1021450  43.8199150  64.6395810  80.9126700  44.0459340
  63.8321240  79.7844590  44.6517640  66.4865640  85.6127790  51.0491450
  67.1307860  85.8187170  51.7264870  66.8495080  84.8516190  50.5962300
  60.0844810  70.4459100  44.2921670  59.9559440  70.4377000  45.2406590
  59.2606830  70.7842190  43.9412680  67.7597720  83.6160140  49.7668900
  68.4019950  82.9153300  49.8801070  68.2847070  84.3958580  49.5865790
  71.6053440  83.9008760  39.4908040  71.3791020  83.1839200  40.0832680
  71.2149640  83.6521200  38.6529790  69.5335340  84.4155040  52.9704960
  69.8691580  85.0021730  53.6482880  68.6135680  84.2847750  53.2002750
  57.3869470  87.9275620  40.2652500  57.7467110  88.5264960  39.6109770
  57.2461810  88.4735510  41.0387530  57.0838740  72.2050220  53.7528370
  56.3697260  72.4047140  54.3580980  57.5033780  71.4289790  54.1243170
  71.1869690  81.8180700  41.1522200  70.8991390  82.2793390  41.9400080
  71.9821860  81.3578470  41.4206420  57.3711330  86.1930480  54.7394900
  57.4802450  85.2525220  54.5990290  56.7191890  86.4585230  54.0908630
  65.3623920  84.4646370  56.1393020  65.0420790  83.7455610  56.6838710
  64.6882280  85.1401440  56.2129080  63.4038090  85.3106820  41.0826170
  63.3948190  86.0436510  40.4670680  62.4836450  85.0638400  41.1753130
  59.0044730  80.5321710  41.8272930  58.3972680  81.2720610  41.8368230
  59.4794080  80.6221070  41.0011130  68.5777520  74.6972530  51.5029820
  68.9458340  73.8767740  51.8309390  67.7175720  74.7574420  51.9185470
  71.9439550  73.6529470  42.3117380  71.3152710  73.7575140  41.5975610
  71.4491470  73.8726250  43.1011260  66.3897690  85.3735060  39.7451360
  66.4909670  85.1699050  38.8153340  65.4899430  85.1193340  39.9499140
  63.9123580  75.9315420  43.7275260  63.2039730  76.4001760  44.1688870
  64.1968060  75.2737430  44.3620450  65.5379510  77.3512120  51.7267790
  66.0364760  77.8257940  52.3919640  65.6802460  76.4275640  51.9337820
  67.9439010  72.6566080  45.1671050  67.8206790  72.6752210  44.2180560
  68.8923570  72.7045020  45.2869450  65.0315800  87.8921380  44.4399030
  65.2857300  87.8542770  43.5178400  64.0828280  87.7654710  44.4327280
  62.1158600  74.2400500  41.1025970  62.9649130  74.6770650  41.0366160
  61.7489870  74.5520760  41.9298030  72.7446370  73.5680080  52.5696180
  72.2419970  74.3085480  52.9089990  73.5603030  73.9564080  52.2532970
  71.0368380  78.8113260  46.0157540  70.0958520  78.8263490  46.1905230
  71.3512450  78.0249220  46.4617840  61.0150020  80.4932860  39.5761500
  61.7813290  80.3814220  40.1386930  61.0924710  79.7970830  38.9238270
  59.7096780  77.9257930  40.2594390  59.7900370  76.9785440  40.3711790
  60.6016530  78.2564810  40.3655050  73.0393960  85.9822110  47.6911800
  73.1641380  86.8053280  48.1635610  73.9059520  85.7712840  47.3435950
  60.5111490  88.0753320  47.3628930  61.2473970  87.5268780  47.6337500
  60.8952410  88.9409330  47.2234920  57.3956970  84.1426890  43.2370440
  56.4696750  84.3848030  43.2275850  57.8613400  84.9701150  43.1155190
  59.5169770  87.2599390  56.5514510  60.3182500  87.5811440  56.9649910
  59.0021590  86.8994970  57.2734420  63.6213800  87.2483630  39.1854500
  64.4142410  87.5372460  38.7336290  63.1018150  86.8175800  38.5066980
  68.3534400  83.3679260  56.4989920  67.7472560  83.3910860  55.7585670
  68.0488510  82.6362300  57.0357170  69.7834770  87.0959550  55.1099330
  70.7356520  87.0117570  55.0599570  69.6362990  87.7601260  55.7833120
  72.6743970  86.4753760  40.6091240  72.3885480  86.0618900  39.7945420
  72.4763520  87.4041470  40.4891760  57.2367580  79.7472850  55.4950560
  57.7406600  79.1680130  56.0666790  56.4975000  80.0313080  56.0326930
  64.1391200  82.4687040  39.0496850  64.0341840  81.8539390  39.7758230
  63.9715420  81.9452930  38.2659860  64.2905520  81.1543840  55.0286080
  63.5251190  81.7228840  54.9440750  64.4721480  80.8620050  54.1354310
  67.3793930  81.5307070  39.6538840  66.8304030  81.9776370  40.2981580
  68.0013190  81.0256320  40.1776510  71.4328870  82.8849170  55.5861100
  72.1738340  83.2224930  55.0828560  70.6701550  83.0541230  55.0330870
  59.2690660  77.8902440  56.3900630  59.3096000  77.5916310  57.2985860
  60.1236160  78.2910050  56.2308150  63.0469050  80.4897990  41.5504140
  63.4685470  80.3237860  42.3935530  63.1719890  79.6798220  41.0559280
  61.2096470  76.4694540  54.3575120  60.6792930  75.9785490  53.7298460
  61.8784540  76.8978740  53.8233050  65.5596690  79.5135600  38.7981240
  66.0802350  78.7984620  38.4322390  66.2065090  80.1521470  39.0981750
  70.1074530  80.9364000  54.1216310  70.5215550  81.0909080  54.9706730
  69.1725530  81.0619220  54.2842090  70.5796700  78.2760160  56.1255460
  71.1617470  77.5212480  56.0375940  70.7558470  78.8067600  55.3486940
  61.6968770  73.4356910  54.4372410  61.6025640  72.8177660  53.7123280
  61.1166160  74.1623200  54.2102320  64.4630210  71.9930150  51.4699800
  64.0147510  72.0154410  50.6245350  63.8295410  71.5949170  52.0670100
  64.8689760  80.8884480  52.0912240  65.2877870  81.7317210  51.9188480
  63.9498390  81.0256520  51.8619020  67.2053660  78.6200660  53.4750080
  67.3249870  78.0241800  54.2144920  68.0647660  78.6570350  53.0551380
  69.5441560  79.1737850  52.0512590  69.0176780  79.6980470  51.4477730
  69.8872900  79.8065240  52.6822320  61.9427950  76.5631220  38.4962300
  61.7417010  75.6998580  38.8575640  61.7720000  76.4764580  37.5583900
  62.7197180  87.1937490  53.2069970  62.1818270  87.9183550  52.8878670
  62.9731140  86.7167830  52.4167310  63.9722430  75.1622010  54.7325900
  64.5622120  74.8537860  55.4203720  63.1542670  74.6901760  54.8885800
  68.7915860  74.7787820  54.9658920  68.1031380  74.1169360  54.9008910
  69.5121880  74.3326090  55.4107380  69.4216260  71.3739450  41.0249180
  69.7018550  70.5307350  41.3808600  68.6481990  71.6062560  41.5387930
  60.7410750  73.6631840  38.4840180  61.0436650  73.6699270  37.5759330
  61.4805340  73.3129700  38.9807840  65.5759390  88.4288700  53.4656620
  65.5018090  89.3323840  53.7728990  64.6738230  88.1100600  53.4378690
  63.9595680  72.6066460  39.4696380  63.6117680  71.9290450  38.8898830
  64.1608450  72.1455970  40.2839770  66.1244720  87.5947210  41.0882980
  67.0195510  87.9332180  41.1101740  66.1562350  86.8726620  40.4607260
  59.7640880  82.9674260  39.3169980  60.2015750  83.5103930  39.9727560
  60.2488610  82.1421210  39.3266320  56.9786680  85.7563290  46.7690240
  57.3089690  84.8884350  46.5368880  57.4077680  85.9621810  47.5995200
  61.5748600  84.0872300  44.4292210  61.2744140  83.9637270  45.3296120
  61.4686090  83.2280890  44.0207940  57.4676890  86.6233880  49.5071870
  57.0307880  86.8034680  50.3396020  58.0354570  87.3808500  49.3653590
  73.1039070  86.1250880  53.7949180  72.5041060  86.1843440  53.0513100
  73.2332970  85.1855860  53.9246030  74.3440520  83.8668700  39.1318890
  73.5133480  83.9345350  39.6026120  74.5212350  84.7572820  38.8285750
  73.7996980  80.6116180  41.6353090  74.5615890  81.1812830  41.7412780
  73.8151350  80.0443380  42.4061400  57.3001320  79.1354110  45.8660750
  56.6450160  78.8665750  45.2220450  58.1379270  79.0258590  45.4162730
  74.8056950  81.4666280  46.4795020  75.1765780  80.6833600  46.0730990
  75.4458880  82.1555380  46.3012320  71.7890710  82.8502860  51.8925340
  70.9750550  83.2800020  52.1551130  72.1964910  83.4621270  51.2794390
  73.8516150  80.9050550  38.7925610  74.1264990  81.8129430  38.6644830
  73.6626890  80.8413080  39.7287600  70.2491760  73.9295400  40.0879240
  70.6676640  73.7426380  39.2475900  69.9427820  73.0774450  40.3982170
  73.7481490  78.8419540  43.7855040  73.3725090  78.0747470  43.3536330
  73.0184610  79.2242240  44.2729970  58.3377250  79.5206680  50.4064090
  58.7050290  79.4334080  51.2860110  57.7688070  78.7573230  50.3070950
  73.1381110  77.9891060  53.4194560  72.9067200  77.7603810  52.5192510
  73.3985660  78.9090610  53.3739450  57.8893250  76.4315770  54.3122510
  56.9949300  76.3982530  54.6516220  58.4290800  76.6302560  55.0773760
  71.5769180  73.2147490  56.1974260  72.4539360  73.2230890  56.5808260
  71.5890020  72.4778330  55.5866610  56.5139400  76.3453040  41.8086080
  55.6103480  76.6083240  41.6337740  56.9980020  76.6164210  41.0286040
  73.0232450  77.0677030  47.0862280  73.5469930  76.5739680  46.4552450
  73.6091870  77.2027390  47.8309850  73.2022170  77.1516900  50.6081830
  72.2524880  77.1180440  50.7226820  73.3835180  78.0617010  50.3731600
  59.0566610  75.4018580  39.7180460  59.7658310  74.9801800  39.2327740
  58.3406550  75.4693810  39.0863810  58.7040770  71.4557910  38.7583110
  59.4268900  71.9966850  39.0764330  58.9765290  71.1821330  37.8824650
  72.5132420  76.3250380  43.0254690  73.0091540  76.0921250  43.8103570
  72.3148490  75.4862220  42.6092330  58.3932960  70.7064100  48.6605730
  59.0409150  70.1561480  48.2200890  58.8134800  70.9607250  49.4821540
  73.9419580  74.9611330  45.5592370  73.8318860  74.8067370  46.4974640
  74.7027170  74.4332270  45.3167780  72.2885300  70.9005460  52.0175370
  72.9257520  71.5139600  52.3834560  72.4360190  70.9366120  51.0724600
  74.8309850  72.7919250  38.7998510  75.7559160  72.6600430  38.5916800
  74.8085640  72.8712070  39.7534960  74.9048340  73.5629910  41.4255220
  74.1099840  73.4975030  41.9548130  75.1091620  74.4980550  41.4140570
  71.8466760  87.6021460  45.4193610  72.4425830  87.2806030  44.7428030
  72.1044910  87.1293280  46.2106880  58.1464960  70.8619770  51.4031050
  57.7979780  71.3183590  52.1689230  57.8152660  69.9676900  51.4853480
  59.7529330  84.0339370  55.5684240  59.7098960  83.6632280  56.4498700
  59.8840340  84.9716940  55.7086060  63.4535360  85.5898960  51.1693960
  63.2126720  85.8573520  50.2824480  64.3938000  85.7604690  51.2244820
  65.6589780  72.0531650  54.9250470  65.5978670  72.6453480  55.6745880
  66.5990160  71.9457610  54.7800730  68.2964340  71.7101710  54.5642760
  68.9104750  72.0281000  53.9023840  68.8413900  71.2250300  55.1838620
  74.7139520  87.6093340  51.9704600  74.2197800  88.0062210  51.2531730
  74.1052810  86.9842550  52.3641880  58.8185600  70.3895970  54.6781820
  59.3668590  70.2084020  53.9147930  58.8840910  69.5990080  55.2138130
  59.5917360  86.9801620  52.6882020  58.9977680  86.8486320  53.4272060
  59.5841200  86.1439760  52.2224120  69.0372380  70.2733850  50.8912050
  68.1632220  70.6068960  50.6884980  68.9283130  69.8007030  51.7163920
  69.9444360  72.4804720  52.2753770  69.6157720  71.6656480  51.8955500
  70.8926660  72.4374530  52.1519460  72.3978970  88.2516760  49.2491340
  71.9381940  89.0032570  48.8749360  71.7691430  87.5323230  49.1906140
  59.2229590  84.3460000  51.6390060  58.4963650  83.7265290  51.5716010
  59.2838740  84.7400610  50.7688140  62.8274690  86.5605000  48.4239470
  63.3439710  85.9492360  47.8987730  63.4772070  87.0633780  48.9150480
  65.5670190  87.4513490  49.2508450  65.8548000  87.1967790  48.3741460
  66.0793410  86.8990850  49.8414020  66.7847200  71.1903690  49.8304960
  66.0018990  71.6649190  50.1101720  66.4910130  70.2858520  49.7218140
  71.3368270  71.8926790  47.8754050  71.7776360  71.8371890  47.0275650
  71.0675860  72.8084800  47.9464230  73.2006840  71.5242030  45.8862870
  73.1395240  70.5803250  45.7393890  73.9798870  71.6322120  46.4316330
  57.5059590  87.6634390  44.8486820  57.3381630  87.0305070  45.5468710
  56.6394100  87.8693790  44.4981010  58.1287610  71.4951170  42.3518680
  58.8866970  71.6080050  41.7782710  57.6664780  72.3320370  42.3062110
  64.6701420  73.6090440  45.3420990  63.8575930  73.2347330  45.0016870
  65.1743060  72.8535520  45.6442180  69.1726400  70.2732890  46.5804060
  69.7755770  70.8453100  47.0552580  68.4319390  70.8372330  46.3577960
  72.3161000  70.6754450  41.8544340  72.5111630  71.5737900  42.1211770
  71.5290870  70.4441530  42.3477290  59.1122290  86.3567620  42.2936960
  58.5869910  86.7375650  41.5898920  59.0366870  86.9818390  43.0146670
  60.5012760  72.0215220  40.8920650  61.0305520  71.2345020  40.7628600
  61.1341080  72.7006410  41.1256180  62.6950600  71.7590360  43.9466040
  62.0653340  71.0577670  44.1136170  62.1555740  72.5194490  43.7299200
  65.6342550  88.3729590  56.6176650  66.5609860  88.1373860  56.6612610
  65.6192980  89.2001590  56.1362680  73.8687610  87.9155160  43.6150900
  74.0439800  87.2292900  42.9711820  73.1709180  88.4402210  43.2227570
  62.8206160  71.0374340  56.3818530  62.5390430  71.5407940  55.6179350
  63.2025860  70.2396090  56.0160660  61.7115260  88.3050000  41.1686210
  62.4434080  88.0209280  40.6210100  61.9708930  88.0663280  42.0585590
  60.8730050  84.4214730  41.1732540  60.2438930  84.8899830  41.7218370
  60.9877880  83.5763950  41.6078730  69.4221620  70.4527920  56.9599000
  69.3087070  70.7722530  57.8550520  70.2391360  70.8540430  56.6636280
  72.2020110  87.5999450  56.4417690  72.9945430  87.1048680  56.2343650
  72.4953260  88.2789590  57.0493300  68.3279770  78.4720390  27.3233740
  68.2473820  77.5575000  27.0525450  67.9144190  78.9687460  26.6173450
  66.4597810  80.2499410  29.2043010  65.6839910  79.7699850  29.4941580
  67.1110740  79.5705060  29.0299170  60.4763640  80.5619220  30.0818770
  59.6448520  80.3067930  30.4815280  61.0844620  80.6329990  30.8176690
  70.4805240  84.6559600  27.9842140  70.0186770  83.8846840  28.3129310
  71.2930790  84.6825670  28.4894590  60.4564900  84.5959310  30.2776790
  60.7592940  83.7057050  30.0987010  61.2008490  85.1529530  30.0499040
  58.8855590  75.5221110  23.8661160  57.9972290  75.8637080  23.7641040
  59.1696780  75.3221430  22.9741990  56.8488600  78.1226760  29.7500860
  57.4204710  77.3548960  29.7504500  56.8490140  78.4215520  28.8407470
  66.7068550  86.9417610  27.6046130  66.0879990  87.3975110  27.0340570
  67.5620330  87.0969070  27.2035830  65.9006800  82.9256600  29.2113170
  65.8315080  81.9846540  29.0502300  66.6626660  83.0158010  29.7835740
  58.0913470  73.5311120  31.5369790  57.9116310  72.6336870  31.8172550
  57.6893550  74.0782990  32.2116740  66.9311970  75.7326980  29.4382100
  67.3076790  74.8598860  29.3255770  66.8331480  76.0685680  28.5472540
  61.0616980  74.1052610  24.8999540  61.1683730  75.0056340  25.2068300
  60.1509340  74.0570580  24.6094190  70.7136090  73.2277420  26.3710440
  71.5345710  72.7373990  26.4135920  70.7470170  73.8175080  27.1242280
  58.7100140  76.0271620  30.1452130  59.3910250  76.2909990  30.7639530
  58.3948190  75.1872490  30.4790140  62.9024710  77.0738980  29.2324720
  63.4102930  77.5719950  29.8729740  63.4337950  76.2974180  29.0564080
  75.0035640  75.2444170  32.9354070  74.2987810  75.6325880  32.4169180
  75.2693560  75.9394460  33.5375000  61.1860810  71.7137540  33.4988140
  61.1879250  72.2309930  32.6934040  60.3565120  71.2367720  33.4758070
  67.5731900  81.8256850  24.9978040  66.9549170  82.2906300  24.4340760
  68.0855150  82.5184330  25.4147550  62.4363660  81.3532720  31.6761640
  62.1033040  81.9801640  32.3182710  62.6130340  81.8794600  30.8963310
  70.9497570  75.1677800  29.1437980  70.2453140  75.4562690  29.7241090
  71.3109730  75.9777910  28.7837540  60.8676140  73.4247500  31.5058590
  61.2092950  74.2689550  31.2112460  59.9291950  73.5731240  31.6223930
  61.6482760  83.3213520  33.4910820  62.2656760  83.9964600  33.2095270
  60.7875880  83.7301500  33.3998320  56.9415100  82.5113380  22.3717670
  56.5643080  83.0000480  21.6402570  57.1988170  83.1838660  23.0024200
  72.5660350  84.7852930  31.4065460  71.8823870  85.4552040  31.3982130
  73.1054640  84.9833580  30.6410320  74.0184490  74.6132590  29.5347190
  73.0709400  74.6471570  29.6662620  74.3434480  75.4271540  29.9196550
  64.5504030  70.9129770  27.8303180  64.8579010  70.3576660  27.1138680
  63.6204730  71.0474230  27.6476170  70.1019090  86.6297060  30.1210640
  70.1146250  86.2259350  29.2532900  69.5494310  87.4044350  30.0172070
  71.3964510  83.3513280  25.2100810  71.2860840  82.4087610  25.3350230
  71.3932760  83.7128920  26.0963570  69.5004530  81.5326900  31.4493250
  69.9173320  81.3187010  30.6146710  70.2244350  81.7899690  32.0201870
  66.9384790  78.9778600  24.5663300  66.0114070  78.9115980  24.7951770
  67.0909610  79.9158730  24.4518540  66.9253870  75.2495600  21.5630460
  65.9857540  75.4109560  21.6482920  67.2437130  75.9681280  21.0166450
  73.4466630  79.9314120  31.5409490  72.6185260  80.0007210  31.0659620
  74.0417110  80.5168430  31.0725320  70.9682080  80.5398900  25.0698550
  70.3494500  80.2018450  24.4224850  70.9506530  79.8958660  25.7777740
  70.4108640  76.7183440  32.4864360  69.9979820  77.5437150  32.7404350
  69.6784590  76.1328480  32.2940720  62.5441430  79.5043340  27.3483030
  62.1398430  78.7920590  26.8528930  62.6304550  79.1596580  28.2371070
  63.0123130  83.1910900  29.5122240  62.7151420  82.5856370  28.8330020
  63.9622950  83.2288210  29.4011600  61.2570050  76.2786550  31.1282070
  61.8084640  76.3881890  30.3535320  61.7713560  76.6524150  31.8437300
  71.1008740  86.7642770  33.1745340  70.6239300  87.5714960  32.9817950
  70.4170530  86.1121100  33.3271550  62.1041560  82.9292590  36.1630040
  61.2070090  83.1532560  36.4103440  62.1294430  83.0527530  35.2141440
  69.1446780  79.7785710  22.0771300  69.5840060  78.9408140  21.9309120
  69.8575200  80.4115110  22.1635440  60.9312780  79.8005910  34.7387410
  60.7920550  80.6728710  35.1074810  60.0494140  79.4578720  34.5935350
  67.2542160  84.7181780  26.0452540  67.6938070  85.4606110  25.6307930
  67.1929050  84.9608350  26.9691500  62.7293130  85.7427610  36.9472560
  62.7008560  86.1470560  36.0800990  62.5658100  84.8137970  36.7844160
  72.7263920  71.0328520  20.3912340  72.4136580  71.1255350  21.2911410
  73.4876390  71.6109550  20.3409770  59.2446060  78.3988320  24.8489680
  59.1243660  79.1250410  24.2370950  58.9346950  77.6291230  24.3717590
  74.6807950  86.5254710  38.2436730  75.1567670  87.0037600  38.9225810
  75.3015110  86.4572200  37.5182230  56.8831430  81.5703460  30.6558320
  56.9611850  81.7052230  29.7114040  57.4973110  80.8619350  30.8486440
  58.1279060  83.2703650  27.0664500  57.7207140  83.4118240  26.2118100
  59.0192070  82.9863810  26.8635710  74.0841200  83.7167560  35.4036740
  74.2104260  83.4779440  34.4853920  74.1262580  82.8852100  35.8758820
  67.9457940  87.4195560  33.9731550  68.4602610  87.3303570  34.7753980
  67.1027020  87.7655260  34.2659460  69.9212340  87.7050900  23.4015550
  69.7613480  87.4153840  24.2997380  69.7559050  86.9291030  22.8660780
  62.4000720  87.4849430  25.1787170  62.2243200  86.5684970  24.9654970
  61.5456460  87.8436720  25.4184970  69.6238470  85.2138460  21.9613550
  68.9303630  85.2115750  21.3015830  70.3661330  84.7897780  21.5307720
  69.1888400  86.8401170  26.0362040  69.6445350  86.0590550  26.3500660
  69.5280920  87.5507990  26.5803220  73.9365210  75.7700020  36.3686480
  73.3209480  76.2779690  35.8401940  73.6161630  74.8698350  36.3112420
  56.9390950  82.6117630  33.1952780  57.1021990  82.1422990  32.3772150
  57.4043400  82.1041190  33.8601620  61.7109720  71.7423390  28.2313350
  61.2677870  72.5232930  27.8997870  62.2694710  72.0653280  28.9384290
  65.9979530  74.6091910  33.8348670  65.5358900  74.8174930  34.6468610
  65.5957640  73.7951260  33.5319340  70.9984040  75.8300860  34.9645330
  70.1477630  75.5306610  35.2854400  70.8385830  76.0742870  34.0529150
  68.0933750  77.3302610  37.0644120  68.4187160  76.4966360  36.7246350
  68.8814080  77.8531130  37.2122450  64.8268540  71.3634090  23.1119180
  64.2022720  71.3593960  23.8372490  64.7398660  70.4965050  22.7155150
  63.7485620  72.2870720  30.0902950  64.0457950  73.1933550  30.0094970
  64.2971180  71.7989500  29.4762520  61.5023940  76.8656960  25.9594600
  61.2764860  76.6494130  26.8641220  60.7216470  77.2985420  25.6140570
  68.7321700  76.8720330  24.5585250  68.1330590  77.5956130  24.3748870
  69.2801310  76.8097110  23.7761700  63.9423150  77.7642540  36.6254870
  63.8466750  76.8237270  36.4755270  64.7855130  77.9857610  36.2302940
  67.3386570  75.5083870  26.5888530  67.7316140  75.8256070  25.7757220
  67.7003420  74.6295750  26.7033050  59.0733690  74.1756210  34.7788650
  58.6797080  75.0231420  34.9861430  58.3852090  73.5382580  34.9697290
  65.6478740  74.2591180  37.8485390  64.9577060  74.0663380  38.4831480
  66.3911040  74.5425820  38.3809690  56.3750740  72.0984670  28.8118730
  56.0863790  72.6687530  29.5243710  57.1196500  71.6189120  29.1749960
  56.5620970  76.0404790  20.0221450  56.4795640  76.9835550  20.1636440
  56.2104030  75.8979700  19.1433800  67.9241710  78.0989620  30.6839310
  67.1922830  78.6076430  31.0329410  67.5266050  77.2819600  30.3828090
  64.3619100  74.7743820  29.0891800  64.3655160  74.3333770  28.2396340
  65.2570220  75.0961150  29.1963620  60.2121480  74.6570310  28.0486010
  59.8721530  75.1345540  28.8053060  59.4498800  74.2035430  27.6887110
  64.4239250  75.7755900  22.0798560  64.5452070  75.7342380  23.0284380
  64.0387760  76.6380050  21.9245290  68.3867620  73.5523300  30.0962250
  68.4040360  74.0031950  30.9404100  68.1383200  72.6528940  30.3095690
  63.4360750  78.0857040  21.4781860  62.8677650  77.6375290  20.8517770
  64.1449750  78.4449820  20.9447010  71.8138370  70.9655480  35.9348630
  72.1384140  70.2345140  36.4606610  71.8494880  70.6469120  35.0329620
  58.5129930  81.9869060  35.3548590  58.1284720  81.3462730  35.9531550
  58.8242120  82.6905180  35.9243320  64.6627070  78.8345600  30.8357210
  65.0297200  78.3604170  31.5818550  64.4732130  79.7087170  31.1765550
  57.5267560  73.5789290  26.9650680  57.2414480  73.2144960  27.8029300
  57.4646420  72.8469750  26.3513820  62.4526440  77.8754240  33.1541420
  62.1483510  78.7546220  33.3791780  63.4072900  77.9354030  33.1898860
  60.9808230  82.0815230  23.7508270  60.2070490  81.5412850  23.5906990
  61.7102860  81.5621840  23.4126030  71.7396210  81.0780590  29.5434660
  72.4595330  81.5735880  29.1530770  71.5378030  80.3998480  28.8988530
  67.2006150  72.4718550  23.6864050  66.3870760  71.9731720  23.6109360
  67.0068100  73.3116800  23.2700400  67.1215010  81.1489650  35.4303660
  67.0552320  80.2285320  35.1761250  66.4920150  81.2465090  36.1448300
  69.9154540  76.8438200  21.9826210  70.8034160  77.1555430  21.8077550
  69.8859630  75.9710450  21.5906790  61.0245630  81.7495610  27.3887080
  61.5424300  80.9463870  27.3343970  60.5729650  81.6874750  28.2303910
  65.9115130  83.0161890  22.6614380  66.2530830  83.7604120  22.1657700
  65.0827840  83.3293010  23.0239210  58.5090170  78.7156980  34.3012780
  58.1505110  79.3810830  34.8886120  58.2144730  77.8840530  34.6725400
  61.7103290  79.1741220  37.1852330  61.4103430  79.3198400  36.2880150
  62.4814530  78.6146510  37.0925720  67.0531740  83.9710220  35.1807460
  67.0676280  83.0391180  34.9626370  66.3456840  84.0569980  35.8197230
  72.1868810  78.1550040  21.4506070  72.1032530  78.5864260  20.6002510
  72.9063000  78.6148390  21.8832890  73.2642950  80.6117560  34.5276040
  72.5391140  81.2046340  34.3305430  73.7918410  80.6041100  33.7289410
  73.2156060  85.0092300  24.1788200  72.5732220  84.3547920  24.4531920
  72.8286720  85.4147390  23.4028870  68.7942540  82.3377730  28.0259890
  69.1466360  81.7405860  27.3661260  67.9104870  82.0121960  28.1968140
  64.8805820  83.0975420  25.4330300  65.5676950  83.6444630  25.8137890
  64.0938240  83.6416150  25.4679910  57.0198220  78.7148240  20.9247380
  57.8893070  78.9973040  21.2083300  56.5288540  79.5284110  20.8096190
  64.1833030  80.1021450  25.0455660  64.6395810  80.9126700  25.2715850
  63.8321240  79.7844590  25.8774150  66.4865640  85.6127790  32.2747960
  67.1307860  85.8187170  32.9521380  66.8495080  84.8516190  31.8218810
  60.0844810  70.4459100  25.5178180  59.9559440  70.4377000  26.4663100
  59.2606830  70.7842190  25.1669190  67.7597720  83.6160140  30.9925410
  68.4019950  82.9153300  31.1057580  68.2847070  84.3958580  30.8122300
  71.6053440  83.9008760  20.7164550  71.3791020  83.1839200  21.3089190
  71.2149640  83.6521200  19.8786300  69.5335340  84.4155040  34.1961470
  69.8691580  85.0021730  34.8739390  68.6135680  84.2847750  34.4259260
  57.3869470  87.9275620  21.4909010  57.7467110  88.5264960  20.8366280
  57.2461810  88.4735510  22.2644040  57.0838740  72.2050220  34.9784880
  56.3697260  72.4047140  35.5837490  57.5033780  71.4289790  35.3499680
  71.1869690  81.8180700  22.3778710  70.8991390  82.2793390  23.1656590
  71.9821860  81.3578470  22.6462930  57.3711330  86.1930480  35.9651410
  57.4802450  85.2525220  35.8246800  56.7191890  86.4585230  35.3165140
  65.3623920  84.4646370  37.3649530  65.0420790  83.7455610  37.9095220
  64.6882280  85.1401440  37.4385590  63.4038090  85.3106820  22.3082680
  63.3948190  86.0436510  21.6927190  62.4836450  85.0638400  22.4009640
  59.0044730  80.5321710  23.0529440  58.3972680  81.2720610  23.0624740
  59.4794080  80.6221070  22.2267640  68.5777520  74.6972530  32.7286330
  68.9458340  73.8767740  33.0565900  67.7175720  74.7574420  33.1441980
  71.9439550  73.6529470  23.5373890  71.3152710  73.7575140  22.8232120
  71.4491470  73.8726250  24.3267770  66.3897690  85.3735060  20.9707870
  66.4909670  85.1699050  20.0409850  65.4899430  85.1193340  21.1755650
  63.9123580  75.9315420  24.9531770  63.2039730  76.4001760  25.3945380
  64.1968060  75.2737430  25.5876960  65.5379510  77.3512120  32.9524300
  66.0364760  77.8257940  33.6176150  65.6802460  76.4275640  33.1594330
  67.9439010  72.6566080  26.3927560  67.8206790  72.6752210  25.4437070
  68.8923570  72.7045020  26.5125960  65.0315800  87.8921380  25.6655540
  65.2857300  87.8542770  24.7434910  64.0828280  87.7654710  25.6583790
  62.1158600  74.2400500  22.3282480  62.9649130  74.6770650  22.2622670
  61.7489870  74.5520760  23.1554540  72.7446370  73.5680080  33.7952690
  72.2419970  74.3085480  34.1346500  73.5603030  73.9564080  33.4789480
  71.0368380  78.8113260  27.2414050  70.0958520  78.8263490  27.4161740
  71.3512450  78.0249220  27.6874350  61.0150020  80.4932860  20.8018010
  61.7813290  80.3814220  21.3643440  61.0924710  79.7970830  20.1494780
  59.7096780  77.9257930  21.4850900  59.7900370  76.9785440  21.5968300
  60.6016530  78.2564810  21.5911560  73.0393960  85.9822110  28.9168310
  73.1641380  86.8053280  29.3892120  73.9059520  85.7712840  28.5692460
  60.5111490  88.0753320  28.5885440  61.2473970  87.5268780  28.8594010
  60.8952410  88.9409330  28.4491430  57.3956970  84.1426890  24.4626950
  56.4696750  84.3848030  24.4532360  57.8613400  84.9701150  24.3411700
  59.5169770  87.2599390  37.7771020  60.3182500  87.5811440  38.1906420
  59.0021590  86.8994970  38.4990930  63.6213800  87.2483630  20.4111010
  64.4142410  87.5372460  19.9592800  63.1018150  86.8175800  19.7323490
  68.3534400  83.3679260  37.7246430  67.7472560  83.3910860  36.9842180
  68.0488510  82.6362300  38.2613680  69.7834770  87.0959550  36.3355840
  70.7356520  87.0117570  36.2856080  69.6362990  87.7601260  37.0089630
  72.6743970  86.4753760  21.8347750  72.3885480  86.0618900  21.0201930
  72.4763520  87.4041470  21.7148270  57.2367580  79.7472850  36.7207070
  57.7406600  79.1680130  37.2923300  56.4975000  80.0313080  37.2583440
  64.1391200  82.4687040  20.2753360  64.0341840  81.8539390  21.0014740
  63.9715420  81.9452930  19.4916370  64.2905520  81.1543840  36.2542590
  63.5251190  81.7228840  36.1697260  64.4721480  80.8620050  35.3610820
  67.3793930  81.5307070  20.8795350  66.8304030  81.9776370  21.5238090
  68.0013190  81.0256320  21.4033020  71.4328870  82.8849170  36.8117610
  72.1738340  83.2224930  36.3085070  70.6701550  83.0541230  36.2587380
  59.2690660  77.8902440  37.6157140  59.3096000  77.5916310  38.5242370
  60.1236160  78.2910050  37.4564660  63.0469050  80.4897990  22.7760650
  63.4685470  80.3237860  23.6192040  63.1719890  79.6798220  22.2815790
  61.2096470  76.4694540  35.5831630  60.6792930  75.9785490  34.9554970
  61.8784540  76.8978740  35.0489560  65.5596690  79.5135600  20.0237750
  66.0802350  78.7984620  19.6578900  66.2065090  80.1521470  20.3238260
  70.1074530  80.9364000  35.3472820  70.5215550  81.0909080  36.1963240
  69.1725530  81.0619220  35.5098600  70.5796700  78.2760160  37.3511970
  71.1617470  77.5212480  37.2632450  70.7558470  78.8067600  36.5743450
  61.6968770  73.4356910  35.6628920  61.6025640  72.8177660  34.9379790
  61.1166160  74.1623200  35.4358830  64.4630210  71.9930150  32.6956310
  64.0147510  72.0154410  31.8501860  63.8295410  71.5949170  33.2926610
  64.8689760  80.8884480  33.3168750  65.2877870  81.7317210  33.1444990
  63.9498390  81.0256520  33.0875530  67.2053660  78.6200660  34.7006590
  67.3249870  78.0241800  35.4401430  68.0647660  78.6570350  34.2807890
  69.5441560  79.1737850  33.2769100  69.0176780  79.6980470  32.6734240
  69.8872900  79.8065240  33.9078830  61.9427950  76.5631220  19.7218810
  61.7417010  75.6998580  20.0832150  61.7720000  76.4764580  18.7840410
  62.7197180  87.1937490  34.4326480  62.1818270  87.9183550  34.1135180
  62.9731140  86.7167830  33.6423820  63.9722430  75.1622010  35.9582410
  64.5622120  74.8537860  36.6460230  63.1542670  74.6901760  36.1142310
  68.7915860  74.7787820  36.1915430  68.1031380  74.1169360  36.1265420
  69.5121880  74.3326090  36.6363890  69.4216260  71.3739450  22.2505690
  69.7018550  70.5307350  22.6065110  68.6481990  71.6062560  22.7644440
  60.7410750  73.6631840  19.7096690  61.0436650  73.6699270  18.8015840
  61.4805340  73.3129700  20.2064350  65.5759390  88.4288700  34.6913130
  65.5018090  89.3323840  34.9985500  64.6738230  88.1100600  34.6635200
  63.9595680  72.6066460  20.6952890  63.6117680  71.9290450  20.1155340
  64.1608450  72.1455970  21.5096280  66.1244720  87.5947210  22.3139490
  67.0195510  87.9332180  22.3358250  66.1562350  86.8726620  21.6863770
  59.7640880  82.9674260  20.5426490  60.2015750  83.5103930  21.1984070
  60.2488610  82.1421210  20.5522830  56.9786680  85.7563290  27.9946750
  57.3089690  84.8884350  27.7625390  57.4077680  85.9621810  28.8251710
  61.5748600  84.0872300  25.6548720  61.2744140  83.9637270  26.5552630
  61.4686090  83.2280890  25.2464450  57.4676890  86.6233880  30.7328380
  57.0307880  86.8034680  31.5652530  58.0354570  87.3808500  30.5910100
  73.1039070  86.1250880  35.0205690  72.5041060  86.1843440  34.2769610
  73.2332970  85.1855860  35.1502540  74.3440520  83.8668700  20.3575400
  73.5133480  83.9345350  20.8282630  74.5212350  84.7572820  20.0542260
  73.7996980  80.6116180  22.8609600  74.5615890  81.1812830  22.9669290
  73.8151350  80.0443380  23.6317910  57.3001320  79.1354110  27.0917260
  56.6450160  78.8665750  26.4476960  58.1379270  79.0258590  26.6419240
  74.8056950  81.4666280  27.7051530  75.1765780  80.6833600  27.2987500
  75.4458880  82.1555380  27.5268830  71.7890710  82.8502860  33.1181850
  70.9750550  83.2800020  33.3807640  72.1964910  83.4621270  32.5050900
  73.8516150  80.9050550  20.0182120  74.1264990  81.8129430  19.8901340
  73.6626890  80.8413080  20.9544110  70.2491760  73.9295400  21.3135750
  70.6676640  73.7426380  20.4732410  69.9427820  73.0774450  21.6238680
  73.7481490  78.8419540  25.0111550  73.3725090  78.0747470  24.5792840
  73.0184610  79.2242240  25.4986480  58.3377250  79.5206680  31.6320600
  58.7050290  79.4334080  32.5116620  57.7688070  78.7573230  31.5327460
  73.1381110  77.9891060  34.6451070  72.9067200  77.7603810  33.7449020
  73.3985660  78.9090610  34.5995960  57.8893250  76.4315770  35.5379020
  56.9949300  76.3982530  35.8772730  58.4290800  76.6302560  36.3030270
  71.5769180  73.2147490  37.4230770  72.4539360  73.2230890  37.8064770
  71.5890020  72.4778330  36.8123120  56.5139400  76.3453040  23.0342590
  55.6103480  76.6083240  22.8594250  56.9980020  76.6164210  22.2542550
  73.0232450  77.0677030  28.3118790  73.5469930  76.5739680  27.6808960
  73.6091870  77.2027390  29.0566360  73.2022170  77.1516900  31.8338340
  72.2524880  77.1180440  31.9483330  73.3835180  78.0617010  31.5988110
  59.0566610  75.4018580  20.9436970  59.7658310  74.9801800  20.4584250
  58.3406550  75.4693810  20.3120320  58.7040770  71.4557910  19.9839620
  59.4268900  71.9966850  20.3020840  58.9765290  71.1821330  19.1081160
  72.5132420  76.3250380  24.2511200  73.0091540  76.0921250  25.0360080
  72.3148490  75.4862220  23.8348840  58.3932960  70.7064100  29.8862240
  59.0409150  70.1561480  29.4457400  58.8134800  70.9607250  30.7078050
  73.9419580  74.9611330  26.7848880  73.8318860  74.8067370  27.7231150
  74.7027170  74.4332270  26.5424290  72.2885300  70.9005460  33.2431880
  72.9257520  71.5139600  33.6091070  72.4360190  70.9366120  32.2981110
  74.8309850  72.7919250  20.0255020  75.7559160  72.6600430  19.8173310
  74.8085640  72.8712070  20.9791470  74.9048340  73.5629910  22.6511730
  74.1099840  73.4975030  23.1804640  75.1091620  74.4980550  22.6397080
  71.8466760  87.6021460  26.6450120  72.4425830  87.2806030  25.9684540
  72.1044910  87.1293280  27.4363390  58.1464960  70.8619770  32.6287560
  57.7979780  71.3183590  33.3945740  57.8152660  69.9676900  32.7109990
  59.7529330  84.0339370  36.7940750  59.7098960  83.6632280  37.6755210
  59.8840340  84.9716940  36.9342570  63.4535360  85.5898960  32.3950470
  63.2126720  85.8573520  31.5080990  64.3938000  85.7604690  32.4501330
  65.6589780  72.0531650  36.1506980  65.5978670  72.6453480  36.9002390
  66.5990160  71.9457610  36.0057240  68.2964340  71.7101710  35.7899270
  68.9104750  72.0281000  35.1280350  68.8413900  71.2250300  36.4095130
  74.7139520  87.6093340  33.1961110  74.2197800  88.0062210  32.4788240
  74.1052810  86.9842550  33.5898390  58.8185600  70.3895970  35.9038330
  59.3668590  70.2084020  35.1404440  58.8840910  69.5990080  36.4394640
  59.5917360  86.9801620  33.9138530  58.9977680  86.8486320  34.6528570
  59.5841200  86.1439760  33.4480630  69.0372380  70.2733850  32.1168560
  68.1632220  70.6068960  31.9141490  68.9283130  69.8007030  32.9420430
  69.9444360  72.4804720  33.5010280  69.6157720  71.6656480  33.1212010
  70.8926660  72.4374530  33.3775970  72.3978970  88.2516760  30.4747850
  71.9381940  89.0032570  30.1005870  71.7691430  87.5323230  30.4162650
  59.2229590  84.3460000  32.8646570  58.4963650  83.7265290  32.7972520
  59.2838740  84.7400610  31.9944650  62.8274690  86.5605000  29.6495980
  63.3439710  85.9492360  29.1244240  63.4772070  87.0633780  30.1406990
  65.5670190  87.4513490  30.4764960  65.8548000  87.1967790  29.5997970
  66.0793410  86.8990850  31.0670530  66.7847200  71.1903690  31.0561470
  66.0018990  71.6649190  31.3358230  66.4910130  70.2858520  30.9474650
  71.3368270  71.8926790  29.1010560  71.7776360  71.8371890  28.2532160
  71.0675860  72.8084800  29.1720740  73.2006840  71.5242030  27.1119380
  73.1395240  70.5803250  26.9650400  73.9798870  71.6322120  27.6572840
  57.5059590  87.6634390  26.0743330  57.3381630  87.0305070  26.7725220
  56.6394100  87.8693790  25.7237520  58.1287610  71.4951170  23.5775190
  58.8866970  71.6080050  23.0039220  57.6664780  72.3320370  23.5318620
  64.6701420  73.6090440  26.5677500  63.8575930  73.2347330  26.2273380
  65.1743060  72.8535520  26.8698690  69.1726400  70.2732890  27.8060570
  69.7755770  70.8453100  28.2809090  68.4319390  70.8372330  27.5834470
  72.3161000  70.6754450  23.0800850  72.5111630  71.5737900  23.3468280
  71.5290870  70.4441530  23.5733800  59.1122290  86.3567620  23.5193470
  58.5869910  86.7375650  22.8155430  59.0366870  86.9818390  24.2403180
  60.5012760  72.0215220  22.1177160  61.0305520  71.2345020  21.9885110
  61.1341080  72.7006410  22.3512690  62.6950600  71.7590360  25.1722550
  62.0653340  71.0577670  25.3392680  62.1555740  72.5194490  24.9555710
  65.6342550  88.3729590  37.8433160  66.5609860  88.1373860  37.8869120
  65.6192980  89.2001590  37.3619190  73.8687610  87.9155160  24.8407410
  74.0439800  87.2292900  24.1968330  73.1709180  88.4402210  24.4484080
  62.8206160  71.0374340  37.6075040  62.5390430  71.5407940  36.8435860
  63.2025860  70.2396090  37.2417170  61.7115260  88.3050000  22.3942720
  62.4434080  88.0209280  21.8466610  61.9708930  88.0663280  23.2842100
  60.8730050  84.4214730  22.3989050  60.2438930  84.8899830  22.9474880
  60.9877880  83.5763950  22.8335240  69.4221620  70.4527920  38.1855510
  69.3087070  70.7722530  39.0807030  70.2391360  70.8540430  37.8892790
  72.2020110  87.5999450  37.6674200  72.9945430  87.1048680  37.4600160
  72.4953260  88.2789590  38.2749810  68.3279770  78.4720390   8.5490250
  68.2473820  77.5575000   8.2781960  67.9144190  78.9687460   7.8429960
  66.4597810  80.2499410  10.4299520  65.6839910  79.7699850  10.7198090
  67.1110740  79.5705060  10.2555680  60.4763640  80.5619220  11.3075280
  59.6448520  80.3067930  11.7071790  61.0844620  80.6329990  12.0433200
  70.4805240  84.6559600   9.2098650  70.0186770  83.8846840   9.5385820
  71.2930790  84.6825670   9.7151100  60.4564900  84.5959310  11.5033300
  60.7592940  83.7057050  11.3243520  61.2008490  85.1529530  11.2755550
  58.8855590  75.5221110   5.0917670  57.9972290  75.8637080   4.9897550
  59.1696780  75.3221430   4.1998500  56.8488600  78.1226760  10.9757370
  57.4204710  77.3548960  10.9761010  56.8490140  78.4215520  10.0663980
  66.7068550  86.9417610   8.8302640  66.0879990  87.3975110   8.2597080
  67.5620330  87.0969070   8.4292340  65.9006800  82.9256600  10.4369680
  65.8315080  81.9846540  10.2758810  66.6626660  83.0158010  11.0092250
  58.0913470  73.5311120  12.7626300  57.9116310  72.6336870  13.0429060
  57.6893550  74.0782990  13.4373250  66.9311970  75.7326980  10.6638610
  67.3076790  74.8598860  10.5512280  66.8331480  76.0685680   9.7729050
  61.0616980  74.1052610   6.1256050  61.1683730  75.0056340   6.4324810
  60.1509340  74.0570580   5.8350700  70.7136090  73.2277420   7.5966950
  71.5345710  72.7373990   7.6392430  70.7470170  73.8175080   8.3498790
  58.7100140  76.0271620  11.3708640  59.3910250  76.2909990  11.9896040
  58.3948190  75.1872490  11.7046650  62.9024710  77.0738980  10.4581230
  63.4102930  77.5719950  11.0986250  63.4337950  76.2974180  10.2820590
  75.0035640  75.2444170  14.1610580  74.2987810  75.6325880  13.6425690
  75.2693560  75.9394460  14.7631510  61.1860810  71.7137540  14.7244650
  61.1879250  72.2309930  13.9190550  60.3565120  71.2367720  14.7014580
  67.5731900  81.8256850   6.2234550  66.9549170  82.2906300   5.6597270
  68.0855150  82.5184330   6.6404060  62.4363660  81.3532720  12.9018150
  62.1033040  81.9801640  13.5439220  62.6130340  81.8794600  12.1219820
  70.9497570  75.1677800  10.3694490  70.2453140  75.4562690  10.9497600
  71.3109730  75.9777910  10.0094050  60.8676140  73.4247500  12.7315100
  61.2092950  74.2689550  12.4368970  59.9291950  73.5731240  12.8480440
  61.6482760  83.3213520  14.7167330  62.2656760  83.9964600  14.4351780
  60.7875880  83.7301500  14.6254830  56.9415100  82.5113380   3.5974180
  56.5643080  83.0000480   2.8659080  57.1988170  83.1838660   4.2280710
  72.5660350  84.7852930  12.6321970  71.8823870  85.4552040  12.6238640
  73.1054640  84.9833580  11.8666830  74.0184490  74.6132590  10.7603700
  73.0709400  74.6471570  10.8919130  74.3434480  75.4271540  11.1453060
  64.5504030  70.9129770   9.0559690  64.8579010  70.3576660   8.3395190
  63.6204730  71.0474230   8.8732680  70.1019090  86.6297060  11.3467150
  70.1146250  86.2259350  10.4789410  69.5494310  87.4044350  11.2428580
  71.3964510  83.3513280   6.4357320  71.2860840  82.4087610   6.5606740
  71.3932760  83.7128920   7.3220080  69.5004530  81.5326900  12.6749760
  69.9173320  81.3187010  11.8403220  70.2244350  81.7899690  13.2458380
  66.9384790  78.9778600   5.7919810  66.0114070  78.9115980   6.0208280
  67.0909610  79.9158730   5.6775050  66.9253870  75.2495600   2.7886970
  65.9857540  75.4109560   2.8739430  67.2437130  75.9681280   2.2422960
  73.4466630  79.9314120  12.7666000  72.6185260  80.0007210  12.2916130
  74.0417110  80.5168430  12.2981830  70.9682080  80.5398900   6.2955060
  70.3494500  80.2018450   5.6481360  70.9506530  79.8958660   7.0034250
  70.4108640  76.7183440  13.7120870  69.9979820  77.5437150  13.9660860
  69.6784590  76.1328480  13.5197230  62.5441430  79.5043340   8.5739540
  62.1398430  78.7920590   8.0785440  62.6304550  79.1596580   9.4627580
  63.0123130  83.1910900  10.7378750  62.7151420  82.5856370  10.0586530
  63.9622950  83.2288210  10.6268110  61.2570050  76.2786550  12.3538580
  61.8084640  76.3881890  11.5791830  61.7713560  76.6524150  13.0693810
  71.1008740  86.7642770  14.4001850  70.6239300  87.5714960  14.2074460
  70.4170530  86.1121100  14.5528060  62.1041560  82.9292590  17.3886550
  61.2070090  83.1532560  17.6359950  62.1294430  83.0527530  16.4397950
  69.1446780  79.7785710   3.3027810  69.5840060  78.9408140   3.1565630
  69.8575200  80.4115110   3.3891950  60.9312780  79.8005910  15.9643920
  60.7920550  80.6728710  16.3331320  60.0494140  79.4578720  15.8191860
  67.2542160  84.7181780   7.2709050  67.6938070  85.4606110   6.8564440
  67.1929050  84.9608350   8.1948010  62.7293130  85.7427610  18.1729070
  62.7008560  86.1470560  17.3057500  62.5658100  84.8137970  18.0100670
  59.2446060  78.3988320   6.0746190  59.1243660  79.1250410   5.4627460
  58.9346950  77.6291230   5.5974100  74.6807950  86.5254710  19.4693240
  75.1567670  87.0037600  20.1482320  75.3015110  86.4572200  18.7438740
  56.8831430  81.5703460  11.8814830  56.9611850  81.7052230  10.9370550
  57.4973110  80.8619350  12.0742950  58.1279060  83.2703650   8.2921010
  57.7207140  83.4118240   7.4374610  59.0192070  82.9863810   8.0892220
  74.0841200  83.7167560  16.6293250  74.2104260  83.4779440  15.7110430
  74.1262580  82.8852100  17.1015330  67.9457940  87.4195560  15.1988060
  68.4602610  87.3303570  16.0010490  67.1027020  87.7655260  15.4915970
  69.9212340  87.7050900   4.6272060  69.7613480  87.4153840   5.5253890
  69.7559050  86.9291030   4.0917290  62.4000720  87.4849430   6.4043680
  62.2243200  86.5684970   6.1911480  61.5456460  87.8436720   6.6441480
  69.6238470  85.2138460   3.1870060  68.9303630  85.2115750   2.5272340
  70.3661330  84.7897780   2.7564230  69.1888400  86.8401170   7.2618550
  69.6445350  86.0590550   7.5757170  69.5280920  87.5507990   7.8059730
  73.9365210  75.7700020  17.5942990  73.3209480  76.2779690  17.0658450
  73.6161630  74.8698350  17.5368930  56.9390950  82.6117630  14.4209290
  57.1021990  82.1422990  13.6028660  57.4043400  82.1041190  15.0858130
  61.7109720  71.7423390   9.4569860  61.2677870  72.5232930   9.1254380
  62.2694710  72.0653280  10.1640800  65.9979530  74.6091910  15.0605180
  65.5358900  74.8174930  15.8725120  65.5957640  73.7951260  14.7575850
  70.9984040  75.8300860  16.1901840  70.1477630  75.5306610  16.5110910
  70.8385830  76.0742870  15.2785660  68.0933750  77.3302610  18.2900630
  68.4187160  76.4966360  17.9502860  68.8814080  77.8531130  18.4378960
  64.8268540  71.3634090   4.3375690  64.2022720  71.3593960   5.0629000
  64.7398660  70.4965050   3.9411660  63.7485620  72.2870720  11.3159460
  64.0457950  73.1933550  11.2351480  64.2971180  71.7989500  10.7019030
  61.5023940  76.8656960   7.1851110  61.2764860  76.6494130   8.0897730
  60.7216470  77.2985420   6.8397080  68.7321700  76.8720330   5.7841760
  68.1330590  77.5956130   5.6005380  69.2801310  76.8097110   5.0018210
  63.9423150  77.7642540  17.8511380  63.8466750  76.8237270  17.7011780
  64.7855130  77.9857610  17.4559450  67.3386570  75.5083870   7.8145040
  67.7316140  75.8256070   7.0013730  67.7003420  74.6295750   7.9289560
  59.0733690  74.1756210  16.0045160  58.6797080  75.0231420  16.2117940
  58.3852090  73.5382580  16.1953800  65.6478740  74.2591180  19.0741900
  64.9577060  74.0663380  19.7087990  66.3911040  74.5425820  19.6066200
  56.3750740  72.0984670  10.0375240  56.0863790  72.6687530  10.7500220
  57.1196500  71.6189120  10.4006470  67.9241710  78.0989620  11.9095820
  67.1922830  78.6076430  12.2585920  67.5266050  77.2819600  11.6084600
  64.3619100  74.7743820  10.3148310  64.3655160  74.3333770   9.4652850
  65.2570220  75.0961150  10.4220130  60.2121480  74.6570310   9.2742520
  59.8721530  75.1345540  10.0309570  59.4498800  74.2035430   8.9143620
  64.4239250  75.7755900   3.3055070  64.5452070  75.7342380   4.2540890
  64.0387760  76.6380050   3.1501800  68.3867620  73.5523300  11.3218760
  68.4040360  74.0031950  12.1660610  68.1383200  72.6528940  11.5352200
  63.4360750  78.0857040   2.7038370  62.8677650  77.6375290   2.0774280
  64.1449750  78.4449820   2.1703520  71.8138370  70.9655480  17.1605140
  72.1384140  70.2345140  17.6863120  71.8494880  70.6469120  16.2586130
  58.5129930  81.9869060  16.5805100  58.1284720  81.3462730  17.1788060
  58.8242120  82.6905180  17.1499830  64.6627070  78.8345600  12.0613720
  65.0297200  78.3604170  12.8075060  64.4732130  79.7087170  12.4022060
  57.5267560  73.5789290   8.1907190  57.2414480  73.2144960   9.0285810
  57.4646420  72.8469750   7.5770330  62.4526440  77.8754240  14.3797930
  62.1483510  78.7546220  14.6048290  63.4072900  77.9354030  14.4155370
  60.9808230  82.0815230   4.9764780  60.2070490  81.5412850   4.8163500
  61.7102860  81.5621840   4.6382540  71.7396210  81.0780590  10.7691170
  72.4595330  81.5735880  10.3787280  71.5378030  80.3998480  10.1245040
  67.2006150  72.4718550   4.9120560  66.3870760  71.9731720   4.8365870
  67.0068100  73.3116800   4.4956910  67.1215010  81.1489650  16.6560170
  67.0552320  80.2285320  16.4017760  66.4920150  81.2465090  17.3704810
  69.9154540  76.8438200   3.2082720  70.8034160  77.1555430   3.0334060
  69.8859630  75.9710450   2.8163300  61.0245630  81.7495610   8.6143590
  61.5424300  80.9463870   8.5600480  60.5729650  81.6874750   9.4560420
  65.9115130  83.0161890   3.8870890  66.2530830  83.7604120   3.3914210
  65.0827840  83.3293010   4.2495720  58.5090170  78.7156980  15.5269290
  58.1505110  79.3810830  16.1142630  58.2144730  77.8840530  15.8981910
  61.7103290  79.1741220  18.4108840  61.4103430  79.3198400  17.5136660
  62.4814530  78.6146510  18.3182230  67.0531740  83.9710220  16.4063970
  67.0676280  83.0391180  16.1882880  66.3456840  84.0569980  17.0453740
  72.1868810  78.1550040   2.6762580  72.1032530  78.5864260   1.8259020
  72.9063000  78.6148390   3.1089400  73.2642950  80.6117560  15.7532550
  72.5391140  81.2046340  15.5561940  73.7918410  80.6041100  14.9545920
  73.2156060  85.0092300   5.4044710  72.5732220  84.3547920   5.6788430
  72.8286720  85.4147390   4.6285380  68.7942540  82.3377730   9.2516400
  69.1466360  81.7405860   8.5917770  67.9104870  82.0121960   9.4224650
  64.8805820  83.0975420   6.6586810  65.5676950  83.6444630   7.0394400
  64.0938240  83.6416150   6.6936420  57.0198220  78.7148240   2.1503890
  57.8893070  78.9973040   2.4339810  56.5288540  79.5284110   2.0352700
  64.1833030  80.1021450   6.2712170  64.6395810  80.9126700   6.4972360
  63.8321240  79.7844590   7.1030660  66.4865640  85.6127790  13.5004470
  67.1307860  85.8187170  14.1777890  66.8495080  84.8516190  13.0475320
  60.0844810  70.4459100   6.7434690  59.9559440  70.4377000   7.6919610
  59.2606830  70.7842190   6.3925700  67.7597720  83.6160140  12.2181920
  68.4019950  82.9153300  12.3314090  68.2847070  84.3958580  12.0378810
  69.5335340  84.4155040  15.4217980  69.8691580  85.0021730  16.0995900
  68.6135680  84.2847750  15.6515770  57.3869470  87.9275620   2.7165520
  57.7467110  88.5264960   2.0622790  57.2461810  88.4735510   3.4900550
  57.0838740  72.2050220  16.2041390  56.3697260  72.4047140  16.8094000
  57.5033780  71.4289790  16.5756190  71.1869690  81.8180700   3.6035220
  70.8991390  82.2793390   4.3913100  71.9821860  81.3578470   3.8719440
  57.3711330  86.1930480  17.1907920  57.4802450  85.2525220  17.0503310
  56.7191890  86.4585230  16.5421650  65.3623920  84.4646370  18.5906040
  65.0420790  83.7455610  19.1351730  64.6882280  85.1401440  18.6642100
  63.4038090  85.3106820   3.5339190  63.3948190  86.0436510   2.9183700
  62.4836450  85.0638400   3.6266150  59.0044730  80.5321710   4.2785950
  58.3972680  81.2720610   4.2881250  59.4794080  80.6221070   3.4524150
  68.5777520  74.6972530  13.9542840  68.9458340  73.8767740  14.2822410
  67.7175720  74.7574420  14.3698490  71.9439550  73.6529470   4.7630400
  71.3152710  73.7575140   4.0488630  71.4491470  73.8726250   5.5524280
  63.9123580  75.9315420   6.1788280  63.2039730  76.4001760   6.6201890
  64.1968060  75.2737430   6.8133470  65.5379510  77.3512120  14.1780810
  66.0364760  77.8257940  14.8432660  65.6802460  76.4275640  14.3850840
  67.9439010  72.6566080   7.6184070  67.8206790  72.6752210   6.6693580
  68.8923570  72.7045020   7.7382470  65.0315800  87.8921380   6.8912050
  65.2857300  87.8542770   5.9691420  64.0828280  87.7654710   6.8840300
  62.1158600  74.2400500   3.5538990  62.9649130  74.6770650   3.4879180
  61.7489870  74.5520760   4.3811050  72.7446370  73.5680080  15.0209200
  72.2419970  74.3085480  15.3603010  73.5603030  73.9564080  14.7045990
  71.0368380  78.8113260   8.4670560  70.0958520  78.8263490   8.6418250
  71.3512450  78.0249220   8.9130860  59.7096780  77.9257930   2.7107410
  59.7900370  76.9785440   2.8224810  60.6016530  78.2564810   2.8168070
  73.0393960  85.9822110  10.1424820  73.1641380  86.8053280  10.6148630
  73.9059520  85.7712840   9.7948970  60.5111490  88.0753320   9.8141950
  61.2473970  87.5268780  10.0850520  60.8952410  88.9409330   9.6747940
  57.3956970  84.1426890   5.6883460  56.4696750  84.3848030   5.6788870
  57.8613400  84.9701150   5.5668210  59.5169770  87.2599390  19.0027530
  60.3182500  87.5811440  19.4162930  59.0021590  86.8994970  19.7247440
  68.3534400  83.3679260  18.9502940  67.7472560  83.3910860  18.2098690
  68.0488510  82.6362300  19.4870190  69.7834770  87.0959550  17.5612350
  70.7356520  87.0117570  17.5112590  69.6362990  87.7601260  18.2346140
  72.6743970  86.4753760   3.0604260  72.3885480  86.0618900   2.2458440
  72.4763520  87.4041470   2.9404780  57.2367580  79.7472850  17.9463580
  57.7406600  79.1680130  18.5179810  56.4975000  80.0313080  18.4839950
  64.2905520  81.1543840  17.4799100  63.5251190  81.7228840  17.3953770
  64.4721480  80.8620050  16.5867330  67.3793930  81.5307070   2.1051860
  66.8304030  81.9776370   2.7494600  68.0013190  81.0256320   2.6289530
  71.4328870  82.8849170  18.0374120  72.1738340  83.2224930  17.5341580
  70.6701550  83.0541230  17.4843890  59.2690660  77.8902440  18.8413650
  59.3096000  77.5916310  19.7498880  60.1236160  78.2910050  18.6821170
  63.0469050  80.4897990   4.0017160  63.4685470  80.3237860   4.8448550
  63.1719890  79.6798220   3.5072300  61.2096470  76.4694540  16.8088140
  60.6792930  75.9785490  16.1811480  61.8784540  76.8978740  16.2746070
  70.1074530  80.9364000  16.5729330  70.5215550  81.0909080  17.4219750
  69.1725530  81.0619220  16.7355110  70.5796700  78.2760160  18.5768480
  71.1617470  77.5212480  18.4888960  70.7558470  78.8067600  17.7999960
  61.6968770  73.4356910  16.8885430  61.6025640  72.8177660  16.1636300
  61.1166160  74.1623200  16.6615340  64.4630210  71.9930150  13.9212820
  64.0147510  72.0154410  13.0758370  63.8295410  71.5949170  14.5183120
  64.8689760  80.8884480  14.5425260  65.2877870  81.7317210  14.3701500
  63.9498390  81.0256520  14.3132040  67.2053660  78.6200660  15.9263100
  67.3249870  78.0241800  16.6657940  68.0647660  78.6570350  15.5064400
  69.5441560  79.1737850  14.5025610  69.0176780  79.6980470  13.8990750
  69.8872900  79.8065240  15.1335340  62.7197180  87.1937490  15.6582990
  62.1818270  87.9183550  15.3391690  62.9731140  86.7167830  14.8680330
  63.9722430  75.1622010  17.1838920  64.5622120  74.8537860  17.8716740
  63.1542670  74.6901760  17.3398820  68.7915860  74.7787820  17.4171940
  68.1031380  74.1169360  17.3521930  69.5121880  74.3326090  17.8620400
  69.4216260  71.3739450   3.4762200  69.7018550  70.5307350   3.8321620
  68.6481990  71.6062560   3.9900950  65.5759390  88.4288700  15.9169640
  65.5018090  89.3323840  16.2242010  64.6738230  88.1100600  15.8891710
  66.1244720  87.5947210   3.5396000  67.0195510  87.9332180   3.5614760
  66.1562350  86.8726620   2.9120280  59.7640880  82.9674260   1.7683000
  60.2015750  83.5103930   2.4240580  60.2488610  82.1421210   1.7779340
  56.9786680  85.7563290   9.2203260  57.3089690  84.8884350   8.9881900
  57.4077680  85.9621810  10.0508220  61.5748600  84.0872300   6.8805230
  61.2744140  83.9637270   7.7809140  61.4686090  83.2280890   6.4720960
  57.4676890  86.6233880  11.9584890  57.0307880  86.8034680  12.7909040
  58.0354570  87.3808500  11.8166610  73.1039070  86.1250880  16.2462200
  72.5041060  86.1843440  15.5026120  73.2332970  85.1855860  16.3759050
  73.7996980  80.6116180   4.0866110  74.5615890  81.1812830   4.1925800
  73.8151350  80.0443380   4.8574420  57.3001320  79.1354110   8.3173770
  56.6450160  78.8665750   7.6733470  58.1379270  79.0258590   7.8675750
  74.8056950  81.4666280   8.9308040  75.1765780  80.6833600   8.5244010
  75.4458880  82.1555380   8.7525340  71.7890710  82.8502860  14.3438360
  70.9750550  83.2800020  14.6064150  72.1964910  83.4621270  13.7307410
  70.2491760  73.9295400   2.5392260  70.6676640  73.7426380   1.6988920
  69.9427820  73.0774450   2.8495190  73.7481490  78.8419540   6.2368060
  73.3725090  78.0747470   5.8049350  73.0184610  79.2242240   6.7242990
  58.3377250  79.5206680  12.8577110  58.7050290  79.4334080  13.7373130
  57.7688070  78.7573230  12.7583970  73.1381110  77.9891060  15.8707580
  72.9067200  77.7603810  14.9705530  73.3985660  78.9090610  15.8252470
  57.8893250  76.4315770  16.7635530  56.9949300  76.3982530  17.1029240
  58.4290800  76.6302560  17.5286780  71.5769180  73.2147490  18.6487280
  72.4539360  73.2230890  19.0321280  71.5890020  72.4778330  18.0379630
  56.5139400  76.3453040   4.2599100  55.6103480  76.6083240   4.0850760
  56.9980020  76.6164210   3.4799060  73.0232450  77.0677030   9.5375300
  73.5469930  76.5739680   8.9065470  73.6091870  77.2027390  10.2822870
  73.2022170  77.1516900  13.0594850  72.2524880  77.1180440  13.1739840
  73.3835180  78.0617010  12.8244620  72.5132420  76.3250380   5.4767710
  73.0091540  76.0921250   6.2616590  72.3148490  75.4862220   5.0605350
  58.3932960  70.7064100  11.1118750  59.0409150  70.1561480  10.6713910
  58.8134800  70.9607250  11.9334560  73.9419580  74.9611330   8.0105390
  73.8318860  74.8067370   8.9487660  74.7027170  74.4332270   7.7680800
  72.2885300  70.9005460  14.4688390  72.9257520  71.5139600  14.8347580
  72.4360190  70.9366120  13.5237620  74.9048340  73.5629910   3.8768240
  74.1099840  73.4975030   4.4061150  75.1091620  74.4980550   3.8653590
  71.8466760  87.6021460   7.8706630  72.4425830  87.2806030   7.1941050
  72.1044910  87.1293280   8.6619900  58.1464960  70.8619770  13.8544070
  57.7979780  71.3183590  14.6202250  57.8152660  69.9676900  13.9366500
  59.7529330  84.0339370  18.0197260  59.7098960  83.6632280  18.9011720
  59.8840340  84.9716940  18.1599080  63.4535360  85.5898960  13.6206980
  63.2126720  85.8573520  12.7337500  64.3938000  85.7604690  13.6757840
  65.6589780  72.0531650  17.3763490  65.5978670  72.6453480  18.1258900
  66.5990160  71.9457610  17.2313750  68.2964340  71.7101710  17.0155780
  68.9104750  72.0281000  16.3536860  68.8413900  71.2250300  17.6351640
  74.7139520  87.6093340  14.4217620  74.2197800  88.0062210  13.7044750
  74.1052810  86.9842550  14.8154900  58.8185600  70.3895970  17.1294840
  59.3668590  70.2084020  16.3660950  58.8840910  69.5990080  17.6651150
  59.5917360  86.9801620  15.1395040  58.9977680  86.8486320  15.8785080
  59.5841200  86.1439760  14.6737140  69.0372380  70.2733850  13.3425070
  68.1632220  70.6068960  13.1398000  68.9283130  69.8007030  14.1676940
  69.9444360  72.4804720  14.7266790  69.6157720  71.6656480  14.3468520
  70.8926660  72.4374530  14.6032480  72.3978970  88.2516760  11.7004360
  71.9381940  89.0032570  11.3262380  71.7691430  87.5323230  11.6419160
  59.2229590  84.3460000  14.0903080  58.4963650  83.7265290  14.0229030
  59.2838740  84.7400610  13.2201160  62.8274690  86.5605000  10.8752490
  63.3439710  85.9492360  10.3500750  63.4772070  87.0633780  11.3663500
  65.5670190  87.4513490  11.7021470  65.8548000  87.1967790  10.8254480
  66.0793410  86.8990850  12.2927040  66.7847200  71.1903690  12.2817980
  66.0018990  71.6649190  12.5614740  66.4910130  70.2858520  12.1731160
  71.3368270  71.8926790  10.3267070  71.7776360  71.8371890   9.4788670
  71.0675860  72.8084800  10.3977250  73.2006840  71.5242030   8.3375890
  73.1395240  70.5803250   8.1906910  73.9798870  71.6322120   8.8829350
  57.5059590  87.6634390   7.2999840  57.3381630  87.0305070   7.9981730
  56.6394100  87.8693790   6.9494030  58.1287610  71.4951170   4.8031700
  58.8866970  71.6080050   4.2295730  57.6664780  72.3320370   4.7575130
  64.6701420  73.6090440   7.7934010  63.8575930  73.2347330   7.4529890
  65.1743060  72.8535520   8.0955200  69.1726400  70.2732890   9.0317080
  69.7755770  70.8453100   9.5065600  68.4319390  70.8372330   8.8090980
  72.3161000  70.6754450   4.3057360  72.5111630  71.5737900   4.5724790
  71.5290870  70.4441530   4.7990310  59.1122290  86.3567620   4.7449980
  58.5869910  86.7375650   4.0411940  59.0366870  86.9818390   5.4659690
  60.5012760  72.0215220   3.3433670  61.0305520  71.2345020   3.2141620
  61.1341080  72.7006410   3.5769200  62.6950600  71.7590360   6.3979060
  62.0653340  71.0577670   6.5649190  62.1555740  72.5194490   6.1812220
  65.6342550  88.3729590  19.0689670  66.5609860  88.1373860  19.1125630
  65.6192980  89.2001590  18.5875700  73.8687610  87.9155160   6.0663920
  74.0439800  87.2292900   5.4224840  73.1709180  88.4402210   5.6740590
  62.8206160  71.0374340  18.8331550  62.5390430  71.5407940  18.0692370
  63.2025860  70.2396090  18.4673680  61.7115260  88.3050000   3.6199230
  62.4434080  88.0209280   3.0723120  61.9708930  88.0663280   4.5098610
  60.8730050  84.4214730   3.6245560  60.2438930  84.8899830   4.1731390
  60.9877880  83.5763950   4.0591750  69.4221620  70.4527920  19.4112020
  69.3087070  70.7722530  20.3063540  70.2391360  70.8540430  19.1149300
  72.2020110  87.5999450  18.8930710  72.9945430  87.1048680  18.6856670
  72.4953260  88.2789590  19.5006320  68.3279770  59.6976900  64.8720720
  68.2473820  58.7831510  64.6012430  67.9144190  60.1943970  64.1660430
  66.4597810  61.4755920  66.7529990  65.6839910  60.9956360  67.0428560
  67.1110740  60.7961570  66.5786150  60.4763640  61.7875730  67.6305750
  59.6448520  61.5324440  68.0302260  61.0844620  61.8586500  68.3663670
  70.4805240  65.8816110  65.5329120  70.0186770  65.1103350  65.8616290
  71.2930790  65.9082180  66.0381570  60.4564900  65.8215820  67.8263770
  60.7592940  64.9313560  67.6473990  61.2008490  66.3786040  67.5986020
  58.8855590  56.7477620  61.4148140  57.9972290  57.0893590  61.3128020
  59.1696780  56.5477940  60.5228970  56.8488600  59.3483270  67.2987840
  57.4204710  58.5805470  67.2991480  56.8490140  59.6472030  66.3894450
  66.7068550  68.1674120  65.1533110  66.0879990  68.6231620  64.5827550
  67.5620330  68.3225580  64.7522810  65.9006800  64.1513110  66.7600150
  65.8315080  63.2103050  66.5989280  66.6626660  64.2414520  67.3322720
  58.0913470  54.7567630  69.0856770  57.9116310  53.8593380  69.3659530
  57.6893550  55.3039500  69.7603720  66.9311970  56.9583490  66.9869080
  67.3076790  56.0855370  66.8742750  66.8331480  57.2942190  66.0959520
  61.0616980  55.3309120  62.4486520  61.1683730  56.2312850  62.7555280
  60.1509340  55.2827090  62.1581170  70.7136090  54.4533930  63.9197420
  71.5345710  53.9630500  63.9622900  70.7470170  55.0431590  64.6729260
  58.7100140  57.2528130  67.6939110  59.3910250  57.5166500  68.3126510
  58.3948190  56.4129000  68.0277120  62.9024710  58.2995490  66.7811700
  63.4102930  58.7976460  67.4216720  63.4337950  57.5230690  66.6051060
  75.0035640  56.4700680  70.4841050  74.2987810  56.8582390  69.9656160
  75.2693560  57.1650970  71.0861980  61.1860810  52.9394050  71.0475120
  61.1879250  53.4566440  70.2421020  60.3565120  52.4624230  71.0245050
  67.5731900  63.0513360  62.5465020  66.9549170  63.5162810  61.9827740
  68.0855150  63.7440840  62.9634530  62.4363660  62.5789230  69.2248620
  62.1033040  63.2058150  69.8669690  62.6130340  63.1051110  68.4450290
  70.9497570  56.3934310  66.6924960  70.2453140  56.6819200  67.2728070
  71.3109730  57.2034420  66.3324520  60.8676140  54.6504010  69.0545570
  61.2092950  55.4946060  68.7599440  59.9291950  54.7987750  69.1710910
  61.6482760  64.5470030  71.0397800  62.2656760  65.2221110  70.7582250
  60.7875880  64.9558010  70.9485300  56.9415100  63.7369890  59.9204650
  56.5643080  64.2256990  59.1889550  57.1988170  64.4095170  60.5511180
  72.5660350  66.0109440  68.9552440  71.8823870  66.6808550  68.9469110
  73.1054640  66.2090090  68.1897300  74.0184490  55.8389100  67.0834170
  73.0709400  55.8728080  67.2149600  74.3434480  56.6528050  67.4683530
  64.5504030  52.1386280  65.3790160  64.8579010  51.5833170  64.6625660
  63.6204730  52.2730740  65.1963150  70.1019090  67.8553570  67.6697620
  70.1146250  67.4515860  66.8019880  69.5494310  68.6300860  67.5659050
  71.3964510  64.5769790  62.7587790  71.2860840  63.6344120  62.8837210
  71.3932760  64.9385430  63.6450550  69.5004530  62.7583410  68.9980230
  69.9173320  62.5443520  68.1633690  70.2244350  63.0156200  69.5688850
  66.9384790  60.2035110  62.1150280  66.0114070  60.1372490  62.3438750
  67.0909610  61.1415240  62.0005520  66.9253870  56.4752110  59.1117440
  65.9857540  56.6366070  59.1969900  67.2437130  57.1937790  58.5653430
  73.4466630  61.1570630  69.0896470  72.6185260  61.2263720  68.6146600
  74.0417110  61.7424940  68.6212300  70.9682080  61.7655410  62.6185530
  70.3494500  61.4274960  61.9711830  70.9506530  61.1215170  63.3264720
  70.4108640  57.9439950  70.0351340  69.9979820  58.7693660  70.2891330
  69.6784590  57.3584990  69.8427700  62.5441430  60.7299850  64.8970010
  62.1398430  60.0177100  64.4015910  62.6304550  60.3853090  65.7858050
  63.0123130  64.4167410  67.0609220  62.7151420  63.8112880  66.3817000
  63.9622950  64.4544720  66.9498580  61.2570050  57.5043060  68.6769050
  61.8084640  57.6138400  67.9022300  61.7713560  57.8780660  69.3924280
  71.1008740  67.9899280  70.7232320  70.6239300  68.7971470  70.5304930
  70.4170530  67.3377610  70.8758530  62.1041560  64.1549100  73.7117020
  61.2070090  64.3789070  73.9590420  62.1294430  64.2784040  72.7628420
  69.1446780  61.0042220  59.6258280  69.5840060  60.1664650  59.4796100
  69.8575200  61.6371620  59.7122420  60.9312780  61.0262420  72.2874390
  60.7920550  61.8985220  72.6561790  60.0494140  60.6835230  72.1422330
  67.2542160  65.9438290  63.5939520  67.6938070  66.6862620  63.1794910
  67.1929050  66.1864860  64.5178480  62.7293130  66.9684120  74.4959540
  62.7008560  67.3727070  73.6287970  62.5658100  66.0394480  74.3331140
  72.7263920  52.2585030  57.9399320  72.4136580  52.3511860  58.8398390
  73.4876390  52.8366060  57.8896750  59.2446060  59.6244830  62.3976660
  59.1243660  60.3506920  61.7857930  58.9346950  58.8547740  61.9204570
  56.8831430  62.7959970  68.2045300  56.9611850  62.9308740  67.2601020
  57.4973110  62.0875860  68.3973420  58.1279060  64.4960160  64.6151480
  57.7207140  64.6374750  63.7605080  59.0192070  64.2120320  64.4122690
  74.0841200  64.9424070  72.9523720  74.2104260  64.7035950  72.0340900
  74.1262580  64.1108610  73.4245800  67.9457940  68.6452070  71.5218530
  68.4602610  68.5560080  72.3240960  67.1027020  68.9911770  71.8146440
  69.9212340  68.9307410  60.9502530  69.7613480  68.6410350  61.8484360
  69.7559050  68.1547540  60.4147760  62.4000720  68.7105940  62.7274150
  62.2243200  67.7941480  62.5141950  61.5456460  69.0693230  62.9671950
  69.6238470  66.4394970  59.5100530  68.9303630  66.4372260  58.8502810
  70.3661330  66.0154290  59.0794700  69.1888400  68.0657680  63.5849020
  69.6445350  67.2847060  63.8987640  69.5280920  68.7764500  64.1290200
  73.9365210  56.9956530  73.9173460  73.3209480  57.5036200  73.3888920
  73.6161630  56.0954860  73.8599400  56.9390950  63.8374140  70.7439760
  57.1021990  63.3679500  69.9259130  57.4043400  63.3297700  71.4088600
  61.7109720  52.9679900  65.7800330  61.2677870  53.7489440  65.4484850
  62.2694710  53.2909790  66.4871270  65.9979530  55.8348420  71.3835650
  65.5358900  56.0431440  72.1955590  65.5957640  55.0207770  71.0806320
  70.9984040  57.0557370  72.5132310  70.1477630  56.7563120  72.8341380
  70.8385830  57.2999380  71.6016130  68.0933750  58.5559120  74.6131100
  68.4187160  57.7222870  74.2733330  68.8814080  59.0787640  74.7609430
  64.8268540  52.5890600  60.6606160  64.2022720  52.5850470  61.3859470
  64.7398660  51.7221560  60.2642130  63.7485620  53.5127230  67.6389930
  64.0457950  54.4190060  67.5581950  64.2971180  53.0246010  67.0249500
  61.5023940  58.0913470  63.5081580  61.2764860  57.8750640  64.4128200
  60.7216470  58.5241930  63.1627550  68.7321700  58.0976840  62.1072230
  68.1330590  58.8212640  61.9235850  69.2801310  58.0353620  61.3248680
  63.9423150  58.9899050  74.1741850  63.8466750  58.0493780  74.0242250
  64.7855130  59.2114120  73.7789920  67.3386570  56.7340380  64.1375510
  67.7316140  57.0512580  63.3244200  67.7003420  55.8552260  64.2520030
  59.0733690  55.4012720  72.3275630  58.6797080  56.2487930  72.5348410
  58.3852090  54.7639090  72.5184270  56.3750740  53.3241180  66.3605710
  56.0863790  53.8944040  67.0730690  57.1196500  52.8445630  66.7236940
  56.5620970  57.2661300  57.5708430  56.4795640  58.2092060  57.7123420
  56.2104030  57.1236210  56.6920780  67.9241710  59.3246130  68.2326290
  67.1922830  59.8332940  68.5816390  67.5266050  58.5076110  67.9315070
  64.3619100  56.0000330  66.6378780  64.3655160  55.5590280  65.7883320
  65.2570220  56.3217660  66.7450600  60.2121480  55.8826820  65.5972990
  59.8721530  56.3602050  66.3540040  59.4498800  55.4291940  65.2374090
  64.4239250  57.0012410  59.6285540  64.5452070  56.9598890  60.5771360
  64.0387760  57.8636560  59.4732270  68.3867620  54.7779810  67.6449230
  68.4040360  55.2288460  68.4891080  68.1383200  53.8785450  67.8582670
  63.4360750  59.3113550  59.0268840  62.8677650  58.8631800  58.4004750
  64.1449750  59.6706330  58.4933990  71.8138370  52.1911990  73.4835610
  72.1384140  51.4601650  74.0093590  71.8494880  51.8725630  72.5816600
  58.5129930  63.2125570  72.9035570  58.1284720  62.5719240  73.5018530
  58.8242120  63.9161690  73.4730300  64.6627070  60.0602110  68.3844190
  65.0297200  59.5860680  69.1305530  64.4732130  60.9343680  68.7252530
  57.5267560  54.8045800  64.5137660  57.2414480  54.4401470  65.3516280
  57.4646420  54.0726260  63.9000800  62.4526440  59.1010750  70.7028400
  62.1483510  59.9802730  70.9278760  63.4072900  59.1610540  70.7385840
  60.9808230  63.3071740  61.2995250  60.2070490  62.7669360  61.1393970
  61.7102860  62.7878350  60.9613010  71.7396210  62.3037100  67.0921640
  72.4595330  62.7992390  66.7017750  71.5378030  61.6254990  66.4475510
  67.2006150  53.6975060  61.2351030  66.3870760  53.1988230  61.1596340
  67.0068100  54.5373310  60.8187380  67.1215010  62.3746160  72.9790640
  67.0552320  61.4541830  72.7248230  66.4920150  62.4721600  73.6935280
  69.9154540  58.0694710  59.5313190  70.8034160  58.3811940  59.3564530
  69.8859630  57.1966960  59.1393770  61.0245630  62.9752120  64.9374060
  61.5424300  62.1720380  64.8830950  60.5729650  62.9131260  65.7790890
  65.9115130  64.2418400  60.2101360  66.2530830  64.9860630  59.7144680
  65.0827840  64.5549520  60.5726190  58.5090170  59.9413490  71.8499760
  58.1505110  60.6067340  72.4373100  58.2144730  59.1097040  72.2212380
  61.7103290  60.3997730  74.7339310  61.4103430  60.5454910  73.8367130
  62.4814530  59.8403020  74.6412700  67.0531740  65.1966730  72.7294440
  67.0676280  64.2647690  72.5113350  66.3456840  65.2826490  73.3684210
  72.1868810  59.3806550  58.9993050  72.1032530  59.8120770  58.1489490
  72.9063000  59.8404900  59.4319870  73.2642950  61.8374070  72.0763020
  72.5391140  62.4302850  71.8792410  73.7918410  61.8297610  71.2776390
  73.2156060  66.2348810  61.7275180  72.5732220  65.5804430  62.0018900
  72.8286720  66.6403900  60.9515850  68.7942540  63.5634240  65.5746870
  69.1466360  62.9662370  64.9148240  67.9104870  63.2378470  65.7455120
  64.8805820  64.3231930  62.9817280  65.5676950  64.8701140  63.3624870
  64.0938240  64.8672660  63.0166890  57.0198220  59.9404750  58.4734360
  57.8893070  60.2229550  58.7570280  56.5288540  60.7540620  58.3583170
  64.1833030  61.3277960  62.5942640  64.6395810  62.1383210  62.8202830
  63.8321240  61.0101100  63.4261130  66.4865640  66.8384300  69.8234940
  67.1307860  67.0443680  70.5008360  66.8495080  66.0772700  69.3705790
  60.0844810  51.6715610  63.0665160  59.9559440  51.6633510  64.0150080
  59.2606830  52.0098700  62.7156170  67.7597720  64.8416650  68.5412390
  68.4019950  64.1409810  68.6544560  68.2847070  65.6215090  68.3609280
  71.6053440  65.1265270  58.2651530  71.3791020  64.4095710  58.8576170
  71.2149640  64.8777710  57.4273280  69.5335340  65.6411550  71.7448450
  69.8691580  66.2278240  72.4226370  68.6135680  65.5104260  71.9746240
  57.3869470  69.1532130  59.0395990  57.7467110  69.7521470  58.3853260
  57.2461810  69.6992020  59.8131020  57.0838740  53.4306730  72.5271860
  56.3697260  53.6303650  73.1324470  57.5033780  52.6546300  72.8986660
  71.1869690  63.0437210  59.9265690  70.8991390  63.5049900  60.7143570
  71.9821860  62.5834980  60.1949910  57.3711330  67.4186990  73.5138390
  57.4802450  66.4781730  73.3733780  56.7191890  67.6841740  72.8652120
  63.4038090  66.5363330  59.8569660  63.3948190  67.2693020  59.2414170
  62.4836450  66.2894910  59.9496620  59.0044730  61.7578220  60.6016420
  58.3972680  62.4977120  60.6111720  59.4794080  61.8477580  59.7754620
  68.5777520  55.9229040  70.2773310  68.9458340  55.1024250  70.6052880
  67.7175720  55.9830930  70.6928960  71.9439550  54.8785980  61.0860870
  71.3152710  54.9831650  60.3719100  71.4491470  55.0982760  61.8754750
  66.3897690  66.5991570  58.5194850  66.4909670  66.3955560  57.5896830
  65.4899430  66.3449850  58.7242630  63.9123580  57.1571930  62.5018750
  63.2039730  57.6258270  62.9432360  64.1968060  56.4993940  63.1363940
  65.5379510  58.5768630  70.5011280  66.0364760  59.0514450  71.1663130
  65.6802460  57.6532150  70.7081310  67.9439010  53.8822590  63.9414540
  67.8206790  53.9008720  62.9924050  68.8923570  53.9301530  64.0612940
  65.0315800  69.1177890  63.2142520  65.2857300  69.0799280  62.2921890
  64.0828280  68.9911220  63.2070770  62.1158600  55.4657010  59.8769460
  62.9649130  55.9027160  59.8109650  61.7489870  55.7777270  60.7041520
  72.7446370  54.7936590  71.3439670  72.2419970  55.5341990  71.6833480
  73.5603030  55.1820590  71.0276460  71.0368380  60.0369770  64.7901030
  70.0958520  60.0520000  64.9648720  71.3512450  59.2505730  65.2361330
  61.0150020  61.7189370  58.3504990  61.7813290  61.6070730  58.9130420
  61.0924710  61.0227340  57.6981760  59.7096780  59.1514440  59.0337880
  59.7900370  58.2041950  59.1455280  60.6016530  59.4821320  59.1398540
  73.0393960  67.2078620  66.4655290  73.1641380  68.0309790  66.9379100
  73.9059520  66.9969350  66.1179440  60.5111490  69.3009830  66.1372420
  61.2473970  68.7525290  66.4080990  60.8952410  70.1665840  65.9978410
  57.3956970  65.3683400  62.0113930  56.4696750  65.6104540  62.0019340
  57.8613400  66.1957660  61.8898680  63.6213800  68.4740140  57.9597990
  64.4142410  68.7628970  57.5079780  63.1018150  68.0432310  57.2810470
  69.7834770  68.3216060  73.8842820  70.7356520  68.2374080  73.8343060
  69.6362990  68.9857770  74.5576610  72.6743970  67.7010270  59.3834730
  72.3885480  67.2875410  58.5688910  72.4763520  68.6297980  59.2635250
  57.2367580  60.9729360  74.2694050  57.7406600  60.3936640  74.8410280
  56.4975000  61.2569590  74.8070420  64.1391200  63.6943550  57.8240340
  64.0341840  63.0795900  58.5501720  63.9715420  63.1709440  57.0403350
  64.2905520  62.3800350  73.8029570  63.5251190  62.9485350  73.7184240
  64.4721480  62.0876560  72.9097800  67.3793930  62.7563580  58.4282330
  66.8304030  63.2032880  59.0725070  68.0013190  62.2512830  58.9520000
  71.4328870  64.1105680  74.3604590  72.1738340  64.4481440  73.8572050
  70.6701550  64.2797740  73.8074360  63.0469050  61.7154500  60.3247630
  63.4685470  61.5494370  61.1679020  63.1719890  60.9054730  59.8302770
  61.2096470  57.6951050  73.1318610  60.6792930  57.2042000  72.5041950
  61.8784540  58.1235250  72.5976540  65.5596690  60.7392110  57.5724730
  66.0802350  60.0241130  57.2065880  66.2065090  61.3777980  57.8725240
  70.1074530  62.1620510  72.8959800  70.5215550  62.3165590  73.7450220
  69.1725530  62.2875730  73.0585580  70.5796700  59.5016670  74.8998950
  71.1617470  58.7468990  74.8119430  70.7558470  60.0324110  74.1230430
  61.6968770  54.6613420  73.2115900  61.6025640  54.0434170  72.4866770
  61.1166160  55.3879710  72.9845810  64.4630210  53.2186660  70.2443290
  64.0147510  53.2410920  69.3988840  63.8295410  52.8205680  70.8413590
  64.8689760  62.1140990  70.8655730  65.2877870  62.9573720  70.6931970
  63.9498390  62.2513030  70.6362510  67.2053660  59.8457170  72.2493570
  67.3249870  59.2498310  72.9888410  68.0647660  59.8826860  71.8294870
  69.5441560  60.3994360  70.8256080  69.0176780  60.9236980  70.2221220
  69.8872900  61.0321750  71.4565810  61.9427950  57.7887730  57.2705790
  61.7417010  56.9255090  57.6319130  61.7720000  57.7021090  56.3327390
  62.7197180  68.4194000  71.9813460  62.1818270  69.1440060  71.6622160
  62.9731140  67.9424340  71.1910800  63.9722430  56.3878520  73.5069390
  64.5622120  56.0794370  74.1947210  63.1542670  55.9158270  73.6629290
  68.7915860  56.0044330  73.7402410  68.1031380  55.3425870  73.6752400
  69.5121880  55.5582600  74.1850870  69.4216260  52.5995960  59.7992670
  69.7018550  51.7563860  60.1552090  68.6481990  52.8319070  60.3131420
  60.7410750  54.8888350  57.2583670  61.0436650  54.8955780  56.3502820
  61.4805340  54.5386210  57.7551330  65.5759390  69.6545210  72.2400110
  65.5018090  70.5580350  72.5472480  64.6738230  69.3357110  72.2122180
  63.9595680  53.8322970  58.2439870  63.6117680  53.1546960  57.6642320
  64.1608450  53.3712480  59.0583260  66.1244720  68.8203720  59.8626470
  67.0195510  69.1588690  59.8845230  66.1562350  68.0983130  59.2350750
  59.7640880  64.1930770  58.0913470  60.2015750  64.7360440  58.7471050
  60.2488610  63.3677720  58.1009810  56.9786680  66.9819800  65.5433730
  57.3089690  66.1140860  65.3112370  57.4077680  67.1878320  66.3738690
  61.5748600  65.3128810  63.2035700  61.2744140  65.1893780  64.1039610
  61.4686090  64.4537400  62.7951430  57.4676890  67.8490390  68.2815360
  57.0307880  68.0291190  69.1139510  58.0354570  68.6065010  68.1397080
  73.1039070  67.3507390  72.5692670  72.5041060  67.4099950  71.8256590
  73.2332970  66.4112370  72.6989520  74.3440520  65.0925210  57.9062380
  73.5133480  65.1601860  58.3769610  74.5212350  65.9829330  57.6029240
  73.7996980  61.8372690  60.4096580  74.5615890  62.4069340  60.5156270
  73.8151350  61.2699890  61.1804890  57.3001320  60.3610620  64.6404240
  56.6450160  60.0922260  63.9963940  58.1379270  60.2515100  64.1906220
  74.8056950  62.6922790  65.2538510  75.1765780  61.9090110  64.8474480
  75.4458880  63.3811890  65.0755810  71.7890710  64.0759370  70.6668830
  70.9750550  64.5056530  70.9294620  72.1964910  64.6877780  70.0537880
  73.8516150  62.1307060  57.5669100  74.1264990  63.0385940  57.4388320
  73.6626890  62.0669590  58.5031090  70.2491760  55.1551910  58.8622730
  70.6676640  54.9682890  58.0219390  69.9427820  54.3030960  59.1725660
  73.7481490  60.0676050  62.5598530  73.3725090  59.3003980  62.1279820
  73.0184610  60.4498750  63.0473460  58.3377250  60.7463190  69.1807580
  58.7050290  60.6590590  70.0603600  57.7688070  59.9829740  69.0814440
  73.1381110  59.2147570  72.1938050  72.9067200  58.9860320  71.2936000
  73.3985660  60.1347120  72.1482940  57.8893250  57.6572280  73.0866000
  56.9949300  57.6239040  73.4259710  58.4290800  57.8559070  73.8517250
  56.5139400  57.5709550  60.5829570  55.6103480  57.8339750  60.4081230
  56.9980020  57.8420720  59.8029530  73.0232450  58.2933540  65.8605770
  73.5469930  57.7996190  65.2295940  73.6091870  58.4283900  66.6053340
  73.2022170  58.3773410  69.3825320  72.2524880  58.3436950  69.4970310
  73.3835180  59.2873520  69.1475090  59.0566610  56.6275090  58.4923950
  59.7658310  56.2058310  58.0071230  58.3406550  56.6950320  57.8607300
  58.7040770  52.6814420  57.5326600  59.4268900  53.2223360  57.8507820
  58.9765290  52.4077840  56.6568140  72.5132420  57.5506890  61.7998180
  73.0091540  57.3177760  62.5847060  72.3148490  56.7118730  61.3835820
  58.3932960  51.9320610  67.4349220  59.0409150  51.3817990  66.9944380
  58.8134800  52.1863760  68.2565030  73.9419580  56.1867840  64.3335860
  73.8318860  56.0323880  65.2718130  74.7027170  55.6588780  64.0911270
  72.2885300  52.1261970  70.7918860  72.9257520  52.7396110  71.1578050
  72.4360190  52.1622630  69.8468090  74.8309850  54.0175760  57.5742000
  75.7559160  53.8856940  57.3660290  74.8085640  54.0968580  58.5278450
  74.9048340  54.7886420  60.1998710  74.1099840  54.7231540  60.7291620
  75.1091620  55.7237060  60.1884060  71.8466760  68.8277970  64.1937100
  72.4425830  68.5062540  63.5171520  72.1044910  68.3549790  64.9850370
  58.1464960  52.0876280  70.1774540  57.7979780  52.5440100  70.9432720
  57.8152660  51.1933410  70.2596970  63.4535360  66.8155470  69.9437450
  63.2126720  67.0830030  69.0567970  64.3938000  66.9861200  69.9988310
  65.6589780  53.2788160  73.6993960  65.5978670  53.8709990  74.4489370
  66.5990160  53.1714120  73.5544220  68.2964340  52.9358220  73.3386250
  68.9104750  53.2537510  72.6767330  68.8413900  52.4506810  73.9582110
  74.7139520  68.8349850  70.7448090  74.2197800  69.2318720  70.0275220
  74.1052810  68.2099060  71.1385370  58.8185600  51.6152480  73.4525310
  59.3668590  51.4340530  72.6891420  58.8840910  50.8246590  73.9881620
  59.5917360  68.2058130  71.4625510  58.9977680  68.0742830  72.2015550
  59.5841200  67.3696270  70.9967610  69.0372380  51.4990360  69.6655540
  68.1632220  51.8325470  69.4628470  68.9283130  51.0263540  70.4907410
  69.9444360  53.7061230  71.0497260  69.6157720  52.8912990  70.6698990
  70.8926660  53.6631040  70.9262950  72.3978970  69.4773270  68.0234830
  71.9381940  70.2289080  67.6492850  71.7691430  68.7579740  67.9649630
  59.2229590  65.5716510  70.4133550  58.4963650  64.9521800  70.3459500
  59.2838740  65.9657120  69.5431630  62.8274690  67.7861510  67.1982960
  63.3439710  67.1748870  66.6731220  63.4772070  68.2890290  67.6893970
  65.5670190  68.6770000  68.0251940  65.8548000  68.4224300  67.1484950
  66.0793410  68.1247360  68.6157510  66.7847200  52.4160200  68.6048450
  66.0018990  52.8905700  68.8845210  66.4910130  51.5115030  68.4961630
  71.3368270  53.1183300  66.6497540  71.7776360  53.0628400  65.8019140
  71.0675860  54.0341310  66.7207720  73.2006840  52.7498540  64.6606360
  73.1395240  51.8059760  64.5137380  73.9798870  52.8578630  65.2059820
  57.5059590  68.8890900  63.6230310  57.3381630  68.2561580  64.3212200
  56.6394100  69.0950300  63.2724500  58.1287610  52.7207680  61.1262170
  58.8866970  52.8336560  60.5526200  57.6664780  53.5576880  61.0805600
  64.6701420  54.8346950  64.1164480  63.8575930  54.4603840  63.7760360
  65.1743060  54.0792030  64.4185670  69.1726400  51.4989400  65.3547550
  69.7755770  52.0709610  65.8296070  68.4319390  52.0628840  65.1321450
  72.3161000  51.9010960  60.6287830  72.5111630  52.7994410  60.8955260
  71.5290870  51.6698040  61.1220780  59.1122290  67.5824130  61.0680450
  58.5869910  67.9632160  60.3642410  59.0366870  68.2074900  61.7890160
  60.5012760  53.2471730  59.6664140  61.0305520  52.4601530  59.5372090
  61.1341080  53.9262920  59.8999670  62.6950600  52.9846870  62.7209530
  62.0653340  52.2834180  62.8879660  62.1555740  53.7451000  62.5042690
  73.8687610  69.1411670  62.3894390  74.0439800  68.4549410  61.7455310
  73.1709180  69.6658720  61.9971060  61.7115260  69.5306510  59.9429700
  62.4434080  69.2465790  59.3953590  61.9708930  69.2919790  60.8329080
  60.8730050  65.6471240  59.9476030  60.2438930  66.1156340  60.4961860
  60.9877880  64.8020460  60.3822220  68.3279770  59.6976900  46.0977230
  68.2473820  58.7831510  45.8268940  67.9144190  60.1943970  45.3916940
  60.4763640  61.7875730  48.8562260  59.6448520  61.5324440  49.2558770
  61.0844620  61.8586500  49.5920180  70.4805240  65.8816110  46.7585630
  70.0186770  65.1103350  47.0872800  71.2930790  65.9082180  47.2638080
  60.4564900  65.8215820  49.0520280  60.7592940  64.9313560  48.8730500
  61.2008490  66.3786040  48.8242530  56.8488600  59.3483270  48.5244350
  57.4204710  58.5805470  48.5247990  56.8490140  59.6472030  47.6150960
  66.7068550  68.1674120  46.3789620  66.0879990  68.6231620  45.8084060
  67.5620330  68.3225580  45.9779320  65.9006800  64.1513110  47.9856660
  65.8315080  63.2103050  47.8245790  66.6626660  64.2414520  48.5579230
  58.0913470  54.7567630  50.3113280  57.9116310  53.8593380  50.5916040
  57.6893550  55.3039500  50.9860230  70.7136090  54.4533930  45.1453930
  71.5345710  53.9630500  45.1879410  70.7470170  55.0431590  45.8985770
  58.7100140  57.2528130  48.9195620  59.3910250  57.5166500  49.5383020
  58.3948190  56.4129000  49.2533630  75.0035640  56.4700680  51.7097560
  74.2987810  56.8582390  51.1912670  75.2693560  57.1650970  52.3118490
  61.1860810  52.9394050  52.2731630  61.1879250  53.4566440  51.4677530
  60.3565120  52.4624230  52.2501560  67.5731900  63.0513360  43.7721530
  66.9549170  63.5162810  43.2084250  68.0855150  63.7440840  44.1891040
  62.4363660  62.5789230  50.4505130  62.1033040  63.2058150  51.0926200
  62.6130340  63.1051110  49.6706800  70.9497570  56.3934310  47.9181470
  70.2453140  56.6819200  48.4984580  71.3109730  57.2034420  47.5581030
  60.8676140  54.6504010  50.2802080  61.2092950  55.4946060  49.9855950
  59.9291950  54.7987750  50.3967420  61.6482760  64.5470030  52.2654310
  62.2656760  65.2221110  51.9838760  60.7875880  64.9558010  52.1741810
  72.5660350  66.0109440  50.1808950  71.8823870  66.6808550  50.1725620
  73.1054640  66.2090090  49.4153810  74.0184490  55.8389100  48.3090680
  73.0709400  55.8728080  48.4406110  74.3434480  56.6528050  48.6940040
  70.1019090  67.8553570  48.8954130  70.1146250  67.4515860  48.0276390
  69.5494310  68.6300860  48.7915560  71.3964510  64.5769790  43.9844300
  71.2860840  63.6344120  44.1093720  71.3932760  64.9385430  44.8707060
  69.5004530  62.7583410  50.2236740  69.9173320  62.5443520  49.3890200
  70.2244350  63.0156200  50.7945360  66.9253870  56.4752110  40.3373950
  65.9857540  56.6366070  40.4226410  67.2437130  57.1937790  39.7909940
  73.4466630  61.1570630  50.3152980  72.6185260  61.2263720  49.8403110
  74.0417110  61.7424940  49.8468810  70.9682080  61.7655410  43.8442040
  70.3494500  61.4274960  43.1968340  70.9506530  61.1215170  44.5521230
  70.4108640  57.9439950  51.2607850  69.9979820  58.7693660  51.5147840
  69.6784590  57.3584990  51.0684210  63.0123130  64.4167410  48.2865730
  62.7151420  63.8112880  47.6073510  63.9622950  64.4544720  48.1755090
  61.2570050  57.5043060  49.9025560  61.8084640  57.6138400  49.1278810
  61.7713560  57.8780660  50.6180790  71.1008740  67.9899280  51.9488830
  70.6239300  68.7971470  51.7561440  70.4170530  67.3377610  52.1015040
  62.1041560  64.1549100  54.9373530  61.2070090  64.3789070  55.1846930
  62.1294430  64.2784040  53.9884930  69.1446780  61.0042220  40.8514790
  69.5840060  60.1664650  40.7052610  69.8575200  61.6371620  40.9378930
  60.9312780  61.0262420  53.5130900  60.7920550  61.8985220  53.8818300
  60.0494140  60.6835230  53.3678840  67.2542160  65.9438290  44.8196030
  67.6938070  66.6862620  44.4051420  67.1929050  66.1864860  45.7434990
  62.7293130  66.9684120  55.7216050  62.7008560  67.3727070  54.8544480
  62.5658100  66.0394480  55.5587650  72.7263920  52.2585030  39.1655830
  72.4136580  52.3511860  40.0654900  73.4876390  52.8366060  39.1153260
  74.6807950  67.7511220  57.0180220  75.1567670  68.2294110  57.6969300
  75.3015110  67.6828710  56.2925720  56.8831430  62.7959970  49.4301810
  56.9611850  62.9308740  48.4857530  57.4973110  62.0875860  49.6229930
  58.1279060  64.4960160  45.8407990  57.7207140  64.6374750  44.9861590
  59.0192070  64.2120320  45.6379200  74.0841200  64.9424070  54.1780230
  74.2104260  64.7035950  53.2597410  74.1262580  64.1108610  54.6502310
  67.9457940  68.6452070  52.7475040  68.4602610  68.5560080  53.5497470
  67.1027020  68.9911770  53.0402950  69.9212340  68.9307410  42.1759040
  69.7613480  68.6410350  43.0740870  69.7559050  68.1547540  41.6404270
  62.4000720  68.7105940  43.9530660  62.2243200  67.7941480  43.7398460
  61.5456460  69.0693230  44.1928460  69.6238470  66.4394970  40.7357040
  68.9303630  66.4372260  40.0759320  70.3661330  66.0154290  40.3051210
  69.1888400  68.0657680  44.8105530  69.6445350  67.2847060  45.1244150
  69.5280920  68.7764500  45.3546710  73.9365210  56.9956530  55.1429970
  73.3209480  57.5036200  54.6145430  73.6161630  56.0954860  55.0855910
  56.9390950  63.8374140  51.9696270  57.1021990  63.3679500  51.1515640
  57.4043400  63.3297700  52.6345110  65.9979530  55.8348420  52.6092160
  65.5358900  56.0431440  53.4212100  65.5957640  55.0207770  52.3062830
  70.9984040  57.0557370  53.7388820  70.1477630  56.7563120  54.0597890
  70.8385830  57.2999380  52.8272640  68.0933750  58.5559120  55.8387610
  68.4187160  57.7222870  55.4989840  68.8814080  59.0787640  55.9865940
  68.7321700  58.0976840  43.3328740  68.1330590  58.8212640  43.1492360
  69.2801310  58.0353620  42.5505190  63.9423150  58.9899050  55.3998360
  63.8466750  58.0493780  55.2498760  64.7855130  59.2114120  55.0046430
  59.0733690  55.4012720  53.5532140  58.6797080  56.2487930  53.7604920
  58.3852090  54.7639090  53.7440780  65.6478740  55.4847690  56.6228880
  64.9577060  55.2919890  57.2574970  66.3911040  55.7682330  57.1553180
  56.3750740  53.3241180  47.5862220  56.0863790  53.8944040  48.2987200
  57.1196500  52.8445630  47.9493450  67.9241710  59.3246130  49.4582800
  67.1922830  59.8332940  49.8072900  67.5266050  58.5076110  49.1571580
  68.3867620  54.7779810  48.8705740  68.4040360  55.2288460  49.7147590
  68.1383200  53.8785450  49.0839180  71.8138370  52.1911990  54.7092120
  72.1384140  51.4601650  55.2350100  71.8494880  51.8725630  53.8073110
  58.5129930  63.2125570  54.1292080  58.1284720  62.5719240  54.7275040
  58.8242120  63.9161690  54.6986810  62.4526440  59.1010750  51.9284910
  62.1483510  59.9802730  52.1535270  63.4072900  59.1610540  51.9642350
  71.7396210  62.3037100  48.3178150  72.4595330  62.7992390  47.9274260
  71.5378030  61.6254990  47.6732020  67.1215010  62.3746160  54.2047150
  67.0552320  61.4541830  53.9504740  66.4920150  62.4721600  54.9191790
  69.9154540  58.0694710  40.7569700  70.8034160  58.3811940  40.5821040
  69.8859630  57.1966960  40.3650280  65.9115130  64.2418400  41.4357870
  66.2530830  64.9860630  40.9401190  65.0827840  64.5549520  41.7982700
  58.5090170  59.9413490  53.0756270  58.1505110  60.6067340  53.6629610
  58.2144730  59.1097040  53.4468890  61.7103290  60.3997730  55.9595820
  61.4103430  60.5454910  55.0623640  62.4814530  59.8403020  55.8669210
  67.0531740  65.1966730  53.9550950  67.0676280  64.2647690  53.7369860
  66.3456840  65.2826490  54.5940720  72.1868810  59.3806550  40.2249560
  72.1032530  59.8120770  39.3746000  72.9063000  59.8404900  40.6576380
  73.2642950  61.8374070  53.3019530  72.5391140  62.4302850  53.1048920
  73.7918410  61.8297610  52.5032900  73.2156060  66.2348810  42.9531690
  72.5732220  65.5804430  43.2275410  72.8286720  66.6403900  42.1772360
  68.7942540  63.5634240  46.8003380  69.1466360  62.9662370  46.1404750
  67.9104870  63.2378470  46.9711630  64.8805820  64.3231930  44.2073790
  65.5676950  64.8701140  44.5881380  64.0938240  64.8672660  44.2423400
  66.4865640  66.8384300  51.0491450  67.1307860  67.0443680  51.7264870
  66.8495080  66.0772700  50.5962300  67.7597720  64.8416650  49.7668900
  68.4019950  64.1409810  49.8801070  68.2847070  65.6215090  49.5865790
  71.6053440  65.1265270  39.4908040  71.3791020  64.4095710  40.0832680
  71.2149640  64.8777710  38.6529790  69.5335340  65.6411550  52.9704960
  69.8691580  66.2278240  53.6482880  68.6135680  65.5104260  53.2002750
  57.3869470  69.1532130  40.2652500  57.7467110  69.7521470  39.6109770
  57.2461810  69.6992020  41.0387530  57.0838740  53.4306730  53.7528370
  56.3697260  53.6303650  54.3580980  57.5033780  52.6546300  54.1243170
  71.1869690  63.0437210  41.1522200  70.8991390  63.5049900  41.9400080
  71.9821860  62.5834980  41.4206420  57.3711330  67.4186990  54.7394900
  57.4802450  66.4781730  54.5990290  56.7191890  67.6841740  54.0908630
  65.3623920  65.6902880  56.1393020  65.0420790  64.9712120  56.6838710
  64.6882280  66.3657950  56.2129080  63.4038090  66.5363330  41.0826170
  63.3948190  67.2693020  40.4670680  62.4836450  66.2894910  41.1753130
  68.5777520  55.9229040  51.5029820  68.9458340  55.1024250  51.8309390
  67.7175720  55.9830930  51.9185470  71.9439550  54.8785980  42.3117380
  71.3152710  54.9831650  41.5975610  71.4491470  55.0982760  43.1011260
  66.3897690  66.5991570  39.7451360  66.4909670  66.3955560  38.8153340
  65.4899430  66.3449850  39.9499140  65.5379510  58.5768630  51.7267790
  66.0364760  59.0514450  52.3919640  65.6802460  57.6532150  51.9337820
  65.0315800  69.1177890  44.4399030  65.2857300  69.0799280  43.5178400
  64.0828280  68.9911220  44.4327280  72.7446370  54.7936590  52.5696180
  72.2419970  55.5341990  52.9089990  73.5603030  55.1820590  52.2532970
  71.0368380  60.0369770  46.0157540  70.0958520  60.0520000  46.1905230
  71.3512450  59.2505730  46.4617840  73.0393960  67.2078620  47.6911800
  73.1641380  68.0309790  48.1635610  73.9059520  66.9969350  47.3435950
  60.5111490  69.3009830  47.3628930  61.2473970  68.7525290  47.6337500
  60.8952410  70.1665840  47.2234920  57.3956970  65.3683400  43.2370440
  56.4696750  65.6104540  43.2275850  57.8613400  66.1957660  43.1155190
  59.5169770  68.4855900  56.5514510  60.3182500  68.8067950  56.9649910
  59.0021590  68.1251480  57.2734420  63.6213800  68.4740140  39.1854500
  64.4142410  68.7628970  38.7336290  63.1018150  68.0432310  38.5066980
  68.3534400  64.5935770  56.4989920  67.7472560  64.6167370  55.7585670
  68.0488510  63.8618810  57.0357170  69.7834770  68.3216060  55.1099330
  70.7356520  68.2374080  55.0599570  69.6362990  68.9857770  55.7833120
  72.6743970  67.7010270  40.6091240  72.3885480  67.2875410  39.7945420
  72.4763520  68.6297980  40.4891760  57.2367580  60.9729360  55.4950560
  57.7406600  60.3936640  56.0666790  56.4975000  61.2569590  56.0326930
  64.1391200  63.6943550  39.0496850  64.0341840  63.0795900  39.7758230
  63.9715420  63.1709440  38.2659860  64.2905520  62.3800350  55.0286080
  63.5251190  62.9485350  54.9440750  64.4721480  62.0876560  54.1354310
  67.3793930  62.7563580  39.6538840  66.8304030  63.2032880  40.2981580
  68.0013190  62.2512830  40.1776510  71.4328870  64.1105680  55.5861100
  72.1738340  64.4481440  55.0828560  70.6701550  64.2797740  55.0330870
  59.2690660  59.1158950  56.3900630  59.3096000  58.8172820  57.2985860
  60.1236160  59.5166560  56.2308150  61.2096470  57.6951050  54.3575120
  60.6792930  57.2042000  53.7298460  61.8784540  58.1235250  53.8233050
  65.5596690  60.7392110  38.7981240  66.0802350  60.0241130  38.4322390
  66.2065090  61.3777980  39.0981750  70.1074530  62.1620510  54.1216310
  70.5215550  62.3165590  54.9706730  69.1725530  62.2875730  54.2842090
  70.5796700  59.5016670  56.1255460  71.1617470  58.7468990  56.0375940
  70.7558470  60.0324110  55.3486940  61.6968770  54.6613420  54.4372410
  61.6025640  54.0434170  53.7123280  61.1166160  55.3879710  54.2102320
  64.4630210  53.2186660  51.4699800  64.0147510  53.2410920  50.6245350
  63.8295410  52.8205680  52.0670100  64.8689760  62.1140990  52.0912240
  65.2877870  62.9573720  51.9188480  63.9498390  62.2513030  51.8619020
  67.2053660  59.8457170  53.4750080  67.3249870  59.2498310  54.2144920
  68.0647660  59.8826860  53.0551380  69.5441560  60.3994360  52.0512590
  69.0176780  60.9236980  51.4477730  69.8872900  61.0321750  52.6822320
  62.7197180  68.4194000  53.2069970  62.1818270  69.1440060  52.8878670
  62.9731140  67.9424340  52.4167310  63.9722430  56.3878520  54.7325900
  64.5622120  56.0794370  55.4203720  63.1542670  55.9158270  54.8885800
  68.7915860  56.0044330  54.9658920  68.1031380  55.3425870  54.9008910
  69.5121880  55.5582600  55.4107380  69.4216260  52.5995960  41.0249180
  69.7018550  51.7563860  41.3808600  68.6481990  52.8319070  41.5387930
  65.5759390  69.6545210  53.4656620  65.5018090  70.5580350  53.7728990
  64.6738230  69.3357110  53.4378690  66.1244720  68.8203720  41.0882980
  67.0195510  69.1588690  41.1101740  66.1562350  68.0983130  40.4607260
  56.9786680  66.9819800  46.7690240  57.3089690  66.1140860  46.5368880
  57.4077680  67.1878320  47.5995200  61.5748600  65.3128810  44.4292210
  61.2744140  65.1893780  45.3296120  61.4686090  64.4537400  44.0207940
  57.4676890  67.8490390  49.5071870  57.0307880  68.0291190  50.3396020
  58.0354570  68.6065010  49.3653590  73.1039070  67.3507390  53.7949180
  72.5041060  67.4099950  53.0513100  73.2332970  66.4112370  53.9246030
  74.3440520  65.0925210  39.1318890  73.5133480  65.1601860  39.6026120
  74.5212350  65.9829330  38.8285750  73.7996980  61.8372690  41.6353090
  74.5615890  62.4069340  41.7412780  73.8151350  61.2699890  42.4061400
  74.8056950  62.6922790  46.4795020  75.1765780  61.9090110  46.0730990
  75.4458880  63.3811890  46.3012320  71.7890710  64.0759370  51.8925340
  70.9750550  64.5056530  52.1551130  72.1964910  64.6877780  51.2794390
  73.8516150  62.1307060  38.7925610  74.1264990  63.0385940  38.6644830
  73.6626890  62.0669590  39.7287600  70.2491760  55.1551910  40.0879240
  70.6676640  54.9682890  39.2475900  69.9427820  54.3030960  40.3982170
  73.7481490  60.0676050  43.7855040  73.3725090  59.3003980  43.3536330
  73.0184610  60.4498750  44.2729970  58.3377250  60.7463190  50.4064090
  58.7050290  60.6590590  51.2860110  57.7688070  59.9829740  50.3070950
  73.1381110  59.2147570  53.4194560  72.9067200  58.9860320  52.5192510
  73.3985660  60.1347120  53.3739450  57.8893250  57.6572280  54.3122510
  56.9949300  57.6239040  54.6516220  58.4290800  57.8559070  55.0773760
  71.5769180  54.4404000  56.1974260  72.4539360  54.4487400  56.5808260
  71.5890020  53.7034840  55.5866610  73.0232450  58.2933540  47.0862280
  73.5469930  57.7996190  46.4552450  73.6091870  58.4283900  47.8309850
  73.2022170  58.3773410  50.6081830  72.2524880  58.3436950  50.7226820
  73.3835180  59.2873520  50.3731600  72.5132420  57.5506890  43.0254690
  73.0091540  57.3177760  43.8103570  72.3148490  56.7118730  42.6092330
  58.3932960  51.9320610  48.6605730  59.0409150  51.3817990  48.2200890
  58.8134800  52.1863760  49.4821540  73.9419580  56.1867840  45.5592370
  73.8318860  56.0323880  46.4974640  74.7027170  55.6588780  45.3167780
  72.2885300  52.1261970  52.0175370  72.9257520  52.7396110  52.3834560
  72.4360190  52.1622630  51.0724600  74.8309850  54.0175760  38.7998510
  75.7559160  53.8856940  38.5916800  74.8085640  54.0968580  39.7534960
  74.9048340  54.7886420  41.4255220  74.1099840  54.7231540  41.9548130
  75.1091620  55.7237060  41.4140570  71.8466760  68.8277970  45.4193610
  72.4425830  68.5062540  44.7428030  72.1044910  68.3549790  46.2106880
  58.1464960  52.0876280  51.4031050  57.7979780  52.5440100  52.1689230
  57.8152660  51.1933410  51.4853480  59.7529330  65.2595880  55.5684240
  59.7098960  64.8888790  56.4498700  59.8840340  66.1973450  55.7086060
  63.4535360  66.8155470  51.1693960  63.2126720  67.0830030  50.2824480
  64.3938000  66.9861200  51.2244820  65.6589780  53.2788160  54.9250470
  65.5978670  53.8709990  55.6745880  66.5990160  53.1714120  54.7800730
  68.2964340  52.9358220  54.5642760  68.9104750  53.2537510  53.9023840
  68.8413900  52.4506810  55.1838620  74.7139520  68.8349850  51.9704600
  74.2197800  69.2318720  51.2531730  74.1052810  68.2099060  52.3641880
  58.8185600  51.6152480  54.6781820  59.3668590  51.4340530  53.9147930
  58.8840910  50.8246590  55.2138130  59.5917360  68.2058130  52.6882020
  58.9977680  68.0742830  53.4272060  59.5841200  67.3696270  52.2224120
  69.0372380  51.4990360  50.8912050  68.1632220  51.8325470  50.6884980
  68.9283130  51.0263540  51.7163920  69.9444360  53.7061230  52.2753770
  69.6157720  52.8912990  51.8955500  70.8926660  53.6631040  52.1519460
  72.3978970  69.4773270  49.2491340  71.9381940  70.2289080  48.8749360
  71.7691430  68.7579740  49.1906140  59.2229590  65.5716510  51.6390060
  58.4963650  64.9521800  51.5716010  59.2838740  65.9657120  50.7688140
  62.8274690  67.7861510  48.4239470  63.3439710  67.1748870  47.8987730
  63.4772070  68.2890290  48.9150480  65.5670190  68.6770000  49.2508450
  65.8548000  68.4224300  48.3741460  66.0793410  68.1247360  49.8414020
  66.7847200  52.4160200  49.8304960  66.0018990  52.8905700  50.1101720
  66.4910130  51.5115030  49.7218140  71.3368270  53.1183300  47.8754050
  71.7776360  53.0628400  47.0275650  71.0675860  54.0341310  47.9464230
  73.2006840  52.7498540  45.8862870  73.1395240  51.8059760  45.7393890
  73.9798870  52.8578630  46.4316330  57.5059590  68.8890900  44.8486820
  57.3381630  68.2561580  45.5468710  56.6394100  69.0950300  44.4981010
  72.3161000  51.9010960  41.8544340  72.5111630  52.7994410  42.1211770
  71.5290870  51.6698040  42.3477290  59.1122290  67.5824130  42.2936960
  58.5869910  67.9632160  41.5898920  59.0366870  68.2074900  43.0146670
  65.6342550  69.5986100  56.6176650  66.5609860  69.3630370  56.6612610
  65.6192980  70.4258100  56.1362680  73.8687610  69.1411670  43.6150900
  74.0439800  68.4549410  42.9711820  73.1709180  69.6658720  43.2227570
  62.8206160  52.2630850  56.3818530  62.5390430  52.7664450  55.6179350
  63.2025860  51.4652600  56.0160660  61.7115260  69.5306510  41.1686210
  62.4434080  69.2465790  40.6210100  61.9708930  69.2919790  42.0585590
  60.8730050  65.6471240  41.1732540  60.2438930  66.1156340  41.7218370
  60.9877880  64.8020460  41.6078730  69.4221620  51.6784430  56.9599000
  69.3087070  51.9979040  57.8550520  70.2391360  52.0796940  56.6636280
  72.2020110  68.8255960  56.4417690  72.9945430  68.3305190  56.2343650
  72.4953260  69.5046100  57.0493300  68.3279770  59.6976900  27.3233740
  68.2473820  58.7831510  27.0525450  67.9144190  60.1943970  26.6173450
  66.4597810  61.4755920  29.2043010  65.6839910  60.9956360  29.4941580
  67.1110740  60.7961570  29.0299170  60.4763640  61.7875730  30.0818770
  59.6448520  61.5324440  30.4815280  61.0844620  61.8586500  30.8176690
  70.4805240  65.8816110  27.9842140  70.0186770  65.1103350  28.3129310
  71.2930790  65.9082180  28.4894590  60.4564900  65.8215820  30.2776790
  60.7592940  64.9313560  30.0987010  61.2008490  66.3786040  30.0499040
  56.8488600  59.3483270  29.7500860  57.4204710  58.5805470  29.7504500
  56.8490140  59.6472030  28.8407470  66.7068550  68.1674120  27.6046130
  66.0879990  68.6231620  27.0340570  67.5620330  68.3225580  27.2035830
  65.9006800  64.1513110  29.2113170  65.8315080  63.2103050  29.0502300
  66.6626660  64.2414520  29.7835740  58.0913470  54.7567630  31.5369790
  57.9116310  53.8593380  31.8172550  57.6893550  55.3039500  32.2116740
  66.9311970  56.9583490  29.4382100  67.3076790  56.0855370  29.3255770
  66.8331480  57.2942190  28.5472540  70.7136090  54.4533930  26.3710440
  71.5345710  53.9630500  26.4135920  70.7470170  55.0431590  27.1242280
  58.7100140  57.2528130  30.1452130  59.3910250  57.5166500  30.7639530
  58.3948190  56.4129000  30.4790140  62.9024710  58.2995490  29.2324720
  63.4102930  58.7976460  29.8729740  63.4337950  57.5230690  29.0564080
  75.0035640  56.4700680  32.9354070  74.2987810  56.8582390  32.4169180
  75.2693560  57.1650970  33.5375000  61.1860810  52.9394050  33.4988140
  61.1879250  53.4566440  32.6934040  60.3565120  52.4624230  33.4758070
  67.5731900  63.0513360  24.9978040  66.9549170  63.5162810  24.4340760
  68.0855150  63.7440840  25.4147550  62.4363660  62.5789230  31.6761640
  62.1033040  63.2058150  32.3182710  62.6130340  63.1051110  30.8963310
  70.9497570  56.3934310  29.1437980  70.2453140  56.6819200  29.7241090
  71.3109730  57.2034420  28.7837540  60.8676140  54.6504010  31.5058590
  61.2092950  55.4946060  31.2112460  59.9291950  54.7987750  31.6223930
  61.6482760  64.5470030  33.4910820  62.2656760  65.2221110  33.2095270
  60.7875880  64.9558010  33.3998320  56.9415100  63.7369890  22.3717670
  56.5643080  64.2256990  21.6402570  57.1988170  64.4095170  23.0024200
  72.5660350  66.0109440  31.4065460  71.8823870  66.6808550  31.3982130
  73.1054640  66.2090090  30.6410320  74.0184490  55.8389100  29.5347190
  73.0709400  55.8728080  29.6662620  74.3434480  56.6528050  29.9196550
  64.5504030  52.1386280  27.8303180  64.8579010  51.5833170  27.1138680
  63.6204730  52.2730740  27.6476170  70.1019090  67.8553570  30.1210640
  70.1146250  67.4515860  29.2532900  69.5494310  68.6300860  30.0172070
  71.3964510  64.5769790  25.2100810  71.2860840  63.6344120  25.3350230
  71.3932760  64.9385430  26.0963570  69.5004530  62.7583410  31.4493250
  69.9173320  62.5443520  30.6146710  70.2244350  63.0156200  32.0201870
  66.9384790  60.2035110  24.5663300  66.0114070  60.1372490  24.7951770
  67.0909610  61.1415240  24.4518540  66.9253870  56.4752110  21.5630460
  65.9857540  56.6366070  21.6482920  67.2437130  57.1937790  21.0166450
  73.4466630  61.1570630  31.5409490  72.6185260  61.2263720  31.0659620
  74.0417110  61.7424940  31.0725320  70.9682080  61.7655410  25.0698550
  70.3494500  61.4274960  24.4224850  70.9506530  61.1215170  25.7777740
  70.4108640  57.9439950  32.4864360  69.9979820  58.7693660  32.7404350
  69.6784590  57.3584990  32.2940720  62.5441430  60.7299850  27.3483030
  62.1398430  60.0177100  26.8528930  62.6304550  60.3853090  28.2371070
  63.0123130  64.4167410  29.5122240  62.7151420  63.8112880  28.8330020
  63.9622950  64.4544720  29.4011600  61.2570050  57.5043060  31.1282070
  61.8084640  57.6138400  30.3535320  61.7713560  57.8780660  31.8437300
  71.1008740  67.9899280  33.1745340  70.6239300  68.7971470  32.9817950
  70.4170530  67.3377610  33.3271550  62.1041560  64.1549100  36.1630040
  61.2070090  64.3789070  36.4103440  62.1294430  64.2784040  35.2141440
  69.1446780  61.0042220  22.0771300  69.5840060  60.1664650  21.9309120
  69.8575200  61.6371620  22.1635440  60.9312780  61.0262420  34.7387410
  60.7920550  61.8985220  35.1074810  60.0494140  60.6835230  34.5935350
  67.2542160  65.9438290  26.0452540  67.6938070  66.6862620  25.6307930
  67.1929050  66.1864860  26.9691500  62.7293130  66.9684120  36.9472560
  62.7008560  67.3727070  36.0800990  62.5658100  66.0394480  36.7844160
  72.7263920  52.2585030  20.3912340  72.4136580  52.3511860  21.2911410
  73.4876390  52.8366060  20.3409770  59.2446060  59.6244830  24.8489680
  59.1243660  60.3506920  24.2370950  58.9346950  58.8547740  24.3717590
  74.6807950  67.7511220  38.2436730  75.1567670  68.2294110  38.9225810
  75.3015110  67.6828710  37.5182230  56.8831430  62.7959970  30.6558320
  56.9611850  62.9308740  29.7114040  57.4973110  62.0875860  30.8486440
  58.1279060  64.4960160  27.0664500  57.7207140  64.6374750  26.2118100
  59.0192070  64.2120320  26.8635710  74.0841200  64.9424070  35.4036740
  74.2104260  64.7035950  34.4853920  74.1262580  64.1108610  35.8758820
  67.9457940  68.6452070  33.9731550  68.4602610  68.5560080  34.7753980
  67.1027020  68.9911770  34.2659460  69.9212340  68.9307410  23.4015550
  69.7613480  68.6410350  24.2997380  69.7559050  68.1547540  22.8660780
  62.4000720  68.7105940  25.1787170  62.2243200  67.7941480  24.9654970
  61.5456460  69.0693230  25.4184970  69.6238470  66.4394970  21.9613550
  68.9303630  66.4372260  21.3015830  70.3661330  66.0154290  21.5307720
  69.1888400  68.0657680  26.0362040  69.6445350  67.2847060  26.3500660
  69.5280920  68.7764500  26.5803220  73.9365210  56.9956530  36.3686480
  73.3209480  57.5036200  35.8401940  73.6161630  56.0954860  36.3112420
  56.9390950  63.8374140  33.1952780  57.1021990  63.3679500  32.3772150
  57.4043400  63.3297700  33.8601620  61.7109720  52.9679900  28.2313350
  61.2677870  53.7489440  27.8997870  62.2694710  53.2909790  28.9384290
  65.9979530  55.8348420  33.8348670  65.5358900  56.0431440  34.6468610
  65.5957640  55.0207770  33.5319340  70.9984040  57.0557370  34.9645330
  70.1477630  56.7563120  35.2854400  70.8385830  57.2999380  34.0529150
  68.0933750  58.5559120  37.0644120  68.4187160  57.7222870  36.7246350
  68.8814080  59.0787640  37.2122450  64.8268540  52.5890600  23.1119180
  64.2022720  52.5850470  23.8372490  64.7398660  51.7221560  22.7155150
  63.7485620  53.5127230  30.0902950  64.0457950  54.4190060  30.0094970
  64.2971180  53.0246010  29.4762520  61.5023940  58.0913470  25.9594600
  61.2764860  57.8750640  26.8641220  60.7216470  58.5241930  25.6140570
  68.7321700  58.0976840  24.5585250  68.1330590  58.8212640  24.3748870
  69.2801310  58.0353620  23.7761700  63.9423150  58.9899050  36.6254870
  63.8466750  58.0493780  36.4755270  64.7855130  59.2114120  36.2302940
  67.3386570  56.7340380  26.5888530  67.7316140  57.0512580  25.7757220
  67.7003420  55.8552260  26.7033050  65.6478740  55.4847690  37.8485390
  64.9577060  55.2919890  38.4831480  66.3911040  55.7682330  38.3809690
  56.3750740  53.3241180  28.8118730  56.0863790  53.8944040  29.5243710
  57.1196500  52.8445630  29.1749960  56.5620970  57.2661300  20.0221450
  56.4795640  58.2092060  20.1636440  56.2104030  57.1236210  19.1433800
  67.9241710  59.3246130  30.6839310  67.1922830  59.8332940  31.0329410
  67.5266050  58.5076110  30.3828090  64.3619100  56.0000330  29.0891800
  64.3655160  55.5590280  28.2396340  65.2570220  56.3217660  29.1963620
  60.2121480  55.8826820  28.0486010  59.8721530  56.3602050  28.8053060
  59.4498800  55.4291940  27.6887110  64.4239250  57.0012410  22.0798560
  64.5452070  56.9598890  23.0284380  64.0387760  57.8636560  21.9245290
  68.3867620  54.7779810  30.0962250  68.4040360  55.2288460  30.9404100
  68.1383200  53.8785450  30.3095690  63.4360750  59.3113550  21.4781860
  62.8677650  58.8631800  20.8517770  64.1449750  59.6706330  20.9447010
  71.8138370  52.1911990  35.9348630  72.1384140  51.4601650  36.4606610
  71.8494880  51.8725630  35.0329620  58.5129930  63.2125570  35.3548590
  58.1284720  62.5719240  35.9531550  58.8242120  63.9161690  35.9243320
  64.6627070  60.0602110  30.8357210  65.0297200  59.5860680  31.5818550
  64.4732130  60.9343680  31.1765550  62.4526440  59.1010750  33.1541420
  62.1483510  59.9802730  33.3791780  63.4072900  59.1610540  33.1898860
  60.9808230  63.3071740  23.7508270  60.2070490  62.7669360  23.5906990
  61.7102860  62.7878350  23.4126030  71.7396210  62.3037100  29.5434660
  72.4595330  62.7992390  29.1530770  71.5378030  61.6254990  28.8988530
  67.2006150  53.6975060  23.6864050  66.3870760  53.1988230  23.6109360
  67.0068100  54.5373310  23.2700400  67.1215010  62.3746160  35.4303660
  67.0552320  61.4541830  35.1761250  66.4920150  62.4721600  36.1448300
  69.9154540  58.0694710  21.9826210  70.8034160  58.3811940  21.8077550
  69.8859630  57.1966960  21.5906790  61.0245630  62.9752120  27.3887080
  61.5424300  62.1720380  27.3343970  60.5729650  62.9131260  28.2303910
  65.9115130  64.2418400  22.6614380  66.2530830  64.9860630  22.1657700
  65.0827840  64.5549520  23.0239210  58.5090170  59.9413490  34.3012780
  58.1505110  60.6067340  34.8886120  58.2144730  59.1097040  34.6725400
  67.0531740  65.1966730  35.1807460  67.0676280  64.2647690  34.9626370
  66.3456840  65.2826490  35.8197230  72.1868810  59.3806550  21.4506070
  72.1032530  59.8120770  20.6002510  72.9063000  59.8404900  21.8832890
  73.2642950  61.8374070  34.5276040  72.5391140  62.4302850  34.3305430
  73.7918410  61.8297610  33.7289410  73.2156060  66.2348810  24.1788200
  72.5732220  65.5804430  24.4531920  72.8286720  66.6403900  23.4028870
  68.7942540  63.5634240  28.0259890  69.1466360  62.9662370  27.3661260
  67.9104870  63.2378470  28.1968140  64.8805820  64.3231930  25.4330300
  65.5676950  64.8701140  25.8137890  64.0938240  64.8672660  25.4679910
  57.0198220  59.9404750  20.9247380  57.8893070  60.2229550  21.2083300
  56.5288540  60.7540620  20.8096190  64.1833030  61.3277960  25.0455660
  64.6395810  62.1383210  25.2715850  63.8321240  61.0101100  25.8774150
  66.4865640  66.8384300  32.2747960  67.1307860  67.0443680  32.9521380
  66.8495080  66.0772700  31.8218810  60.0844810  51.6715610  25.5178180
  59.9559440  51.6633510  26.4663100  59.2606830  52.0098700  25.1669190
  67.7597720  64.8416650  30.9925410  68.4019950  64.1409810  31.1057580
  68.2847070  65.6215090  30.8122300  71.6053440  65.1265270  20.7164550
  71.3791020  64.4095710  21.3089190  71.2149640  64.8777710  19.8786300
  69.5335340  65.6411550  34.1961470  69.8691580  66.2278240  34.8739390
  68.6135680  65.5104260  34.4259260  57.3869470  69.1532130  21.4909010
  57.7467110  69.7521470  20.8366280  57.2461810  69.6992020  22.2644040
  71.1869690  63.0437210  22.3778710  70.8991390  63.5049900  23.1656590
  71.9821860  62.5834980  22.6462930  57.3711330  67.4186990  35.9651410
  57.4802450  66.4781730  35.8246800  56.7191890  67.6841740  35.3165140
  65.3623920  65.6902880  37.3649530  65.0420790  64.9712120  37.9095220
  64.6882280  66.3657950  37.4385590  63.4038090  66.5363330  22.3082680
  63.3948190  67.2693020  21.6927190  62.4836450  66.2894910  22.4009640
  59.0044730  61.7578220  23.0529440  58.3972680  62.4977120  23.0624740
  59.4794080  61.8477580  22.2267640  68.5777520  55.9229040  32.7286330
  68.9458340  55.1024250  33.0565900  67.7175720  55.9830930  33.1441980
  71.9439550  54.8785980  23.5373890  71.3152710  54.9831650  22.8232120
  71.4491470  55.0982760  24.3267770  66.3897690  66.5991570  20.9707870
  66.4909670  66.3955560  20.0409850  65.4899430  66.3449850  21.1755650
  63.9123580  57.1571930  24.9531770  63.2039730  57.6258270  25.3945380
  64.1968060  56.4993940  25.5876960  65.5379510  58.5768630  32.9524300
  66.0364760  59.0514450  33.6176150  65.6802460  57.6532150  33.1594330
  67.9439010  53.8822590  26.3927560  67.8206790  53.9008720  25.4437070
  68.8923570  53.9301530  26.5125960  65.0315800  69.1177890  25.6655540
  65.2857300  69.0799280  24.7434910  64.0828280  68.9911220  25.6583790
  62.1158600  55.4657010  22.3282480  62.9649130  55.9027160  22.2622670
  61.7489870  55.7777270  23.1554540  72.7446370  54.7936590  33.7952690
  72.2419970  55.5341990  34.1346500  73.5603030  55.1820590  33.4789480
  71.0368380  60.0369770  27.2414050  70.0958520  60.0520000  27.4161740
  71.3512450  59.2505730  27.6874350  61.0150020  61.7189370  20.8018010
  61.7813290  61.6070730  21.3643440  61.0924710  61.0227340  20.1494780
  59.7096780  59.1514440  21.4850900  59.7900370  58.2041950  21.5968300
  60.6016530  59.4821320  21.5911560  73.0393960  67.2078620  28.9168310
  73.1641380  68.0309790  29.3892120  73.9059520  66.9969350  28.5692460
  60.5111490  69.3009830  28.5885440  61.2473970  68.7525290  28.8594010
  60.8952410  70.1665840  28.4491430  57.3956970  65.3683400  24.4626950
  56.4696750  65.6104540  24.4532360  57.8613400  66.1957660  24.3411700
  59.5169770  68.4855900  37.7771020  60.3182500  68.8067950  38.1906420
  59.0021590  68.1251480  38.4990930  63.6213800  68.4740140  20.4111010
  64.4142410  68.7628970  19.9592800  63.1018150  68.0432310  19.7323490
  68.3534400  64.5935770  37.7246430  67.7472560  64.6167370  36.9842180
  68.0488510  63.8618810  38.2613680  69.7834770  68.3216060  36.3355840
  70.7356520  68.2374080  36.2856080  69.6362990  68.9857770  37.0089630
  72.6743970  67.7010270  21.8347750  72.3885480  67.2875410  21.0201930
  72.4763520  68.6297980  21.7148270  57.2367580  60.9729360  36.7207070
  57.7406600  60.3936640  37.2923300  56.4975000  61.2569590  37.2583440
  64.1391200  63.6943550  20.2753360  64.0341840  63.0795900  21.0014740
  63.9715420  63.1709440  19.4916370  64.2905520  62.3800350  36.2542590
  63.5251190  62.9485350  36.1697260  64.4721480  62.0876560  35.3610820
  67.3793930  62.7563580  20.8795350  66.8304030  63.2032880  21.5238090
  68.0013190  62.2512830  21.4033020  71.4328870  64.1105680  36.8117610
  72.1738340  64.4481440  36.3085070  70.6701550  64.2797740  36.2587380
  63.0469050  61.7154500  22.7760650  63.4685470  61.5494370  23.6192040
  63.1719890  60.9054730  22.2815790  61.2096470  57.6951050  35.5831630
  60.6792930  57.2042000  34.9554970  61.8784540  58.1235250  35.0489560
  65.5596690  60.7392110  20.0237750  66.0802350  60.0241130  19.6578900
  66.2065090  61.3777980  20.3238260  70.1074530  62.1620510  35.3472820
  70.5215550  62.3165590  36.1963240  69.1725530  62.2875730  35.5098600
  70.5796700  59.5016670  37.3511970  71.1617470  58.7468990  37.2632450
  70.7558470  60.0324110  36.5743450  61.6968770  54.6613420  35.6628920
  61.6025640  54.0434170  34.9379790  61.1166160  55.3879710  35.4358830
  64.4630210  53.2186660  32.6956310  64.0147510  53.2410920  31.8501860
  63.8295410  52.8205680  33.2926610  64.8689760  62.1140990  33.3168750
  65.2877870  62.9573720  33.1444990  63.9498390  62.2513030  33.0875530
  67.2053660  59.8457170  34.7006590  67.3249870  59.2498310  35.4401430
  68.0647660  59.8826860  34.2807890  69.5441560  60.3994360  33.2769100
  69.0176780  60.9236980  32.6734240  69.8872900  61.0321750  33.9078830
  61.9427950  57.7887730  19.7218810  61.7417010  56.9255090  20.0832150
  61.7720000  57.7021090  18.7840410  62.7197180  68.4194000  34.4326480
  62.1818270  69.1440060  34.1135180  62.9731140  67.9424340  33.6423820
  63.9722430  56.3878520  35.9582410  64.5622120  56.0794370  36.6460230
  63.1542670  55.9158270  36.1142310  68.7915860  56.0044330  36.1915430
  68.1031380  55.3425870  36.1265420  69.5121880  55.5582600  36.6363890
  69.4216260  52.5995960  22.2505690  69.7018550  51.7563860  22.6065110
  68.6481990  52.8319070  22.7644440  60.7410750  54.8888350  19.7096690
  61.0436650  54.8955780  18.8015840  61.4805340  54.5386210  20.2064350
  65.5759390  69.6545210  34.6913130  65.5018090  70.5580350  34.9985500
  64.6738230  69.3357110  34.6635200  63.9595680  53.8322970  20.6952890
  63.6117680  53.1546960  20.1155340  64.1608450  53.3712480  21.5096280
  66.1244720  68.8203720  22.3139490  67.0195510  69.1588690  22.3358250
  66.1562350  68.0983130  21.6863770  59.7640880  64.1930770  20.5426490
  60.2015750  64.7360440  21.1984070  60.2488610  63.3677720  20.5522830
  56.9786680  66.9819800  27.9946750  57.3089690  66.1140860  27.7625390
  57.4077680  67.1878320  28.8251710  61.5748600  65.3128810  25.6548720
  61.2744140  65.1893780  26.5552630  61.4686090  64.4537400  25.2464450
  57.4676890  67.8490390  30.7328380  57.0307880  68.0291190  31.5652530
  58.0354570  68.6065010  30.5910100  73.1039070  67.3507390  35.0205690
  72.5041060  67.4099950  34.2769610  73.2332970  66.4112370  35.1502540
  74.3440520  65.0925210  20.3575400  73.5133480  65.1601860  20.8282630
  74.5212350  65.9829330  20.0542260  73.7996980  61.8372690  22.8609600
  74.5615890  62.4069340  22.9669290  73.8151350  61.2699890  23.6317910
  57.3001320  60.3610620  27.0917260  56.6450160  60.0922260  26.4476960
  58.1379270  60.2515100  26.6419240  74.8056950  62.6922790  27.7051530
  75.1765780  61.9090110  27.2987500  75.4458880  63.3811890  27.5268830
  71.7890710  64.0759370  33.1181850  70.9750550  64.5056530  33.3807640
  72.1964910  64.6877780  32.5050900  73.8516150  62.1307060  20.0182120
  74.1264990  63.0385940  19.8901340  73.6626890  62.0669590  20.9544110
  70.2491760  55.1551910  21.3135750  70.6676640  54.9682890  20.4732410
  69.9427820  54.3030960  21.6238680  73.7481490  60.0676050  25.0111550
  73.3725090  59.3003980  24.5792840  73.0184610  60.4498750  25.4986480
  58.3377250  60.7463190  31.6320600  58.7050290  60.6590590  32.5116620
  57.7688070  59.9829740  31.5327460  73.1381110  59.2147570  34.6451070
  72.9067200  58.9860320  33.7449020  73.3985660  60.1347120  34.5995960
  57.8893250  57.6572280  35.5379020  56.9949300  57.6239040  35.8772730
  58.4290800  57.8559070  36.3030270  71.5769180  54.4404000  37.4230770
  72.4539360  54.4487400  37.8064770  71.5890020  53.7034840  36.8123120
  73.0232450  58.2933540  28.3118790  73.5469930  57.7996190  27.6808960
  73.6091870  58.4283900  29.0566360  73.2022170  58.3773410  31.8338340
  72.2524880  58.3436950  31.9483330  73.3835180  59.2873520  31.5988110
  59.0566610  56.6275090  20.9436970  59.7658310  56.2058310  20.4584250
  58.3406550  56.6950320  20.3120320  58.7040770  52.6814420  19.9839620
  59.4268900  53.2223360  20.3020840  58.9765290  52.4077840  19.1081160
  72.5132420  57.5506890  24.2511200  73.0091540  57.3177760  25.0360080
  72.3148490  56.7118730  23.8348840  58.3932960  51.9320610  29.8862240
  59.0409150  51.3817990  29.4457400  58.8134800  52.1863760  30.7078050
  73.9419580  56.1867840  26.7848880  73.8318860  56.0323880  27.7231150
  74.7027170  55.6588780  26.5424290  72.2885300  52.1261970  33.2431880
  72.9257520  52.7396110  33.6091070  72.4360190  52.1622630  32.2981110
  74.8309850  54.0175760  20.0255020  75.7559160  53.8856940  19.8173310
  74.8085640  54.0968580  20.9791470  74.9048340  54.7886420  22.6511730
  74.1099840  54.7231540  23.1804640  75.1091620  55.7237060  22.6397080
  71.8466760  68.8277970  26.6450120  72.4425830  68.5062540  25.9684540
  72.1044910  68.3549790  27.4363390  58.1464960  52.0876280  32.6287560
  57.7979780  52.5440100  33.3945740  57.8152660  51.1933410  32.7109990
  59.7529330  65.2595880  36.7940750  59.7098960  64.8888790  37.6755210
  59.8840340  66.1973450  36.9342570  63.4535360  66.8155470  32.3950470
  63.2126720  67.0830030  31.5080990  64.3938000  66.9861200  32.4501330
  65.6589780  53.2788160  36.1506980  65.5978670  53.8709990  36.9002390
  66.5990160  53.1714120  36.0057240  68.2964340  52.9358220  35.7899270
  68.9104750  53.2537510  35.1280350  68.8413900  52.4506810  36.4095130
  74.7139520  68.8349850  33.1961110  74.2197800  69.2318720  32.4788240
  74.1052810  68.2099060  33.5898390  59.5917360  68.2058130  33.9138530
  58.9977680  68.0742830  34.6528570  59.5841200  67.3696270  33.4480630
  69.0372380  51.4990360  32.1168560  68.1632220  51.8325470  31.9141490
  68.9283130  51.0263540  32.9420430  69.9444360  53.7061230  33.5010280
  69.6157720  52.8912990  33.1212010  70.8926660  53.6631040  33.3775970
  72.3978970  69.4773270  30.4747850  71.9381940  70.2289080  30.1005870
  71.7691430  68.7579740  30.4162650  59.2229590  65.5716510  32.8646570
  58.4963650  64.9521800  32.7972520  59.2838740  65.9657120  31.9944650
  62.8274690  67.7861510  29.6495980  63.3439710  67.1748870  29.1244240
  63.4772070  68.2890290  30.1406990  65.5670190  68.6770000  30.4764960
  65.8548000  68.4224300  29.5997970  66.0793410  68.1247360  31.0670530
  66.7847200  52.4160200  31.0561470  66.0018990  52.8905700  31.3358230
  66.4910130  51.5115030  30.9474650  71.3368270  53.1183300  29.1010560
  71.7776360  53.0628400  28.2532160  71.0675860  54.0341310  29.1720740
  73.2006840  52.7498540  27.1119380  73.1395240  51.8059760  26.9650400
  73.9798870  52.8578630  27.6572840  57.5059590  68.8890900  26.0743330
  57.3381630  68.2561580  26.7725220  56.6394100  69.0950300  25.7237520
  64.6701420  54.8346950  26.5677500  63.8575930  54.4603840  26.2273380
  65.1743060  54.0792030  26.8698690  69.1726400  51.4989400  27.8060570
  69.7755770  52.0709610  28.2809090  68.4319390  52.0628840  27.5834470
  72.3161000  51.9010960  23.0800850  72.5111630  52.7994410  23.3468280
  71.5290870  51.6698040  23.5733800  59.1122290  67.5824130  23.5193470
  58.5869910  67.9632160  22.8155430  59.0366870  68.2074900  24.2403180
  60.5012760  53.2471730  22.1177160  61.0305520  52.4601530  21.9885110
  61.1341080  53.9262920  22.3512690  62.6950600  52.9846870  25.1722550
  62.0653340  52.2834180  25.3392680  62.1555740  53.7451000  24.9555710
  65.6342550  69.5986100  37.8433160  66.5609860  69.3630370  37.8869120
  65.6192980  70.4258100  37.3619190  73.8687610  69.1411670  24.8407410
  74.0439800  68.4549410  24.1968330  73.1709180  69.6658720  24.4484080
  61.7115260  69.5306510  22.3942720  62.4434080  69.2465790  21.8466610
  61.9708930  69.2919790  23.2842100  60.8730050  65.6471240  22.3989050
  60.2438930  66.1156340  22.9474880  60.9877880  64.8020460  22.8335240
  72.2020110  68.8255960  37.6674200  72.9945430  68.3305190  37.4600160
  72.4953260  69.5046100  38.2749810  68.3279770  59.6976900   8.5490250
  68.2473820  58.7831510   8.2781960  67.9144190  60.1943970   7.8429960
  66.4597810  61.4755920  10.4299520  65.6839910  60.9956360  10.7198090
  67.1110740  60.7961570  10.2555680  60.4763640  61.7875730  11.3075280
  59.6448520  61.5324440  11.7071790  61.0844620  61.8586500  12.0433200
  70.4805240  65.8816110   9.2098650  70.0186770  65.1103350   9.5385820
  71.2930790  65.9082180   9.7151100  60.4564900  65.8215820  11.5033300
  60.7592940  64.9313560  11.3243520  61.2008490  66.3786040  11.2755550
  58.8855590  56.7477620   5.0917670  57.9972290  57.0893590   4.9897550
  59.1696780  56.5477940   4.1998500  56.8488600  59.3483270  10.9757370
  57.4204710  58.5805470  10.9761010  56.8490140  59.6472030  10.0663980
  66.7068550  68.1674120   8.8302640  66.0879990  68.6231620   8.2597080
  67.5620330  68.3225580   8.4292340  65.9006800  64.1513110  10.4369680
  65.8315080  63.2103050  10.2758810  66.6626660  64.2414520  11.0092250
  58.0913470  54.7567630  12.7626300  57.9116310  53.8593380  13.0429060
  57.6893550  55.3039500  13.4373250  66.9311970  56.9583490  10.6638610
  67.3076790  56.0855370  10.5512280  66.8331480  57.2942190   9.7729050
  61.0616980  55.3309120   6.1256050  61.1683730  56.2312850   6.4324810
  60.1509340  55.2827090   5.8350700  70.7136090  54.4533930   7.5966950
  71.5345710  53.9630500   7.6392430  70.7470170  55.0431590   8.3498790
  58.7100140  57.2528130  11.3708640  59.3910250  57.5166500  11.9896040
  58.3948190  56.4129000  11.7046650  62.9024710  58.2995490  10.4581230
  63.4102930  58.7976460  11.0986250  63.4337950  57.5230690  10.2820590
  75.0035640  56.4700680  14.1610580  74.2987810  56.8582390  13.6425690
  75.2693560  57.1650970  14.7631510  61.1860810  52.9394050  14.7244650
  61.1879250  53.4566440  13.9190550  60.3565120  52.4624230  14.7014580
  67.5731900  63.0513360   6.2234550  66.9549170  63.5162810   5.6597270
  68.0855150  63.7440840   6.6404060  62.4363660  62.5789230  12.9018150
  62.1033040  63.2058150  13.5439220  62.6130340  63.1051110  12.1219820
  70.9497570  56.3934310  10.3694490  70.2453140  56.6819200  10.9497600
  71.3109730  57.2034420  10.0094050  60.8676140  54.6504010  12.7315100
  61.2092950  55.4946060  12.4368970  59.9291950  54.7987750  12.8480440
  61.6482760  64.5470030  14.7167330  62.2656760  65.2221110  14.4351780
  60.7875880  64.9558010  14.6254830  56.9415100  63.7369890   3.5974180
  56.5643080  64.2256990   2.8659080  57.1988170  64.4095170   4.2280710
  72.5660350  66.0109440  12.6321970  71.8823870  66.6808550  12.6238640
  73.1054640  66.2090090  11.8666830  74.0184490  55.8389100  10.7603700
  73.0709400  55.8728080  10.8919130  74.3434480  56.6528050  11.1453060
  64.5504030  52.1386280   9.0559690  64.8579010  51.5833170   8.3395190
  63.6204730  52.2730740   8.8732680  70.1019090  67.8553570  11.3467150
  70.1146250  67.4515860  10.4789410  69.5494310  68.6300860  11.2428580
  71.3964510  64.5769790   6.4357320  71.2860840  63.6344120   6.5606740
  71.3932760  64.9385430   7.3220080  69.5004530  62.7583410  12.6749760
  69.9173320  62.5443520  11.8403220  70.2244350  63.0156200  13.2458380
  66.9384790  60.2035110   5.7919810  66.0114070  60.1372490   6.0208280
  67.0909610  61.1415240   5.6775050  66.9253870  56.4752110   2.7886970
  65.9857540  56.6366070   2.8739430  67.2437130  57.1937790   2.2422960
  73.4466630  61.1570630  12.7666000  72.6185260  61.2263720  12.2916130
  74.0417110  61.7424940  12.2981830  70.9682080  61.7655410   6.2955060
  70.3494500  61.4274960   5.6481360  70.9506530  61.1215170   7.0034250
  70.4108640  57.9439950  13.7120870  69.9979820  58.7693660  13.9660860
  69.6784590  57.3584990  13.5197230  62.5441430  60.7299850   8.5739540
  62.1398430  60.0177100   8.0785440  62.6304550  60.3853090   9.4627580
  63.0123130  64.4167410  10.7378750  62.7151420  63.8112880  10.0586530
  63.9622950  64.4544720  10.6268110  61.2570050  57.5043060  12.3538580
  61.8084640  57.6138400  11.5791830  61.7713560  57.8780660  13.0693810
  71.1008740  67.9899280  14.4001850  70.6239300  68.7971470  14.2074460
  70.4170530  67.3377610  14.5528060  62.1041560  64.1549100  17.3886550
  61.2070090  64.3789070  17.6359950  62.1294430  64.2784040  16.4397950
  69.1446780  61.0042220   3.3027810  69.5840060  60.1664650   3.1565630
  69.8575200  61.6371620   3.3891950  60.9312780  61.0262420  15.9643920
  60.7920550  61.8985220  16.3331320  60.0494140  60.6835230  15.8191860
  67.2542160  65.9438290   7.2709050  67.6938070  66.6862620   6.8564440
  67.1929050  66.1864860   8.1948010  62.7293130  66.9684120  18.1729070
  62.7008560  67.3727070  17.3057500  62.5658100  66.0394480  18.0100670
  59.2446060  59.6244830   6.0746190  59.1243660  60.3506920   5.4627460
  58.9346950  58.8547740   5.5974100  74.6807950  67.7511220  19.4693240
  75.1567670  68.2294110  20.1482320  75.3015110  67.6828710  18.7438740
  56.8831430  62.7959970  11.8814830  56.9611850  62.9308740  10.9370550
  57.4973110  62.0875860  12.0742950  58.1279060  64.4960160   8.2921010
  57.7207140  64.6374750   7.4374610  59.0192070  64.2120320   8.0892220
  74.0841200  64.9424070  16.6293250  74.2104260  64.7035950  15.7110430
  74.1262580  64.1108610  17.1015330  67.9457940  68.6452070  15.1988060
  68.4602610  68.5560080  16.0010490  67.1027020  68.9911770  15.4915970
  69.9212340  68.9307410   4.6272060  69.7613480  68.6410350   5.5253890
  69.7559050  68.1547540   4.0917290  62.4000720  68.7105940   6.4043680
  62.2243200  67.7941480   6.1911480  61.5456460  69.0693230   6.6441480
  69.6238470  66.4394970   3.1870060  68.9303630  66.4372260   2.5272340
  70.3661330  66.0154290   2.7564230  69.1888400  68.0657680   7.2618550
  69.6445350  67.2847060   7.5757170  69.5280920  68.7764500   7.8059730
  73.9365210  56.9956530  17.5942990  73.3209480  57.5036200  17.0658450
  73.6161630  56.0954860  17.5368930  56.9390950  63.8374140  14.4209290
  57.1021990  63.3679500  13.6028660  57.4043400  63.3297700  15.0858130
  61.7109720  52.9679900   9.4569860  61.2677870  53.7489440   9.1254380
  62.2694710  53.2909790  10.1640800  65.9979530  55.8348420  15.0605180
  65.5358900  56.0431440  15.8725120  65.5957640  55.0207770  14.7575850
  70.9984040  57.0557370  16.1901840  70.1477630  56.7563120  16.5110910
  70.8385830  57.2999380  15.2785660  68.0933750  58.5559120  18.2900630
  68.4187160  57.7222870  17.9502860  68.8814080  59.0787640  18.4378960
  64.8268540  52.5890600   4.3375690  64.2022720  52.5850470   5.0629000
  64.7398660  51.7221560   3.9411660  63.7485620  53.5127230  11.3159460
  64.0457950  54.4190060  11.2351480  64.2971180  53.0246010  10.7019030
  61.5023940  58.0913470   7.1851110  61.2764860  57.8750640   8.0897730
  60.7216470  58.5241930   6.8397080  68.7321700  58.0976840   5.7841760
  68.1330590  58.8212640   5.6005380  69.2801310  58.0353620   5.0018210
  63.9423150  58.9899050  17.8511380  63.8466750  58.0493780  17.7011780
  64.7855130  59.2114120  17.4559450  67.3386570  56.7340380   7.8145040
  67.7316140  57.0512580   7.0013730  67.7003420  55.8552260   7.9289560
  59.0733690  55.4012720  16.0045160  58.6797080  56.2487930  16.2117940
  58.3852090  54.7639090  16.1953800  65.6478740  55.4847690  19.0741900
  64.9577060  55.2919890  19.7087990  66.3911040  55.7682330  19.6066200
  56.3750740  53.3241180  10.0375240  56.0863790  53.8944040  10.7500220
  57.1196500  52.8445630  10.4006470  67.9241710  59.3246130  11.9095820
  67.1922830  59.8332940  12.2585920  67.5266050  58.5076110  11.6084600
  64.3619100  56.0000330  10.3148310  64.3655160  55.5590280   9.4652850
  65.2570220  56.3217660  10.4220130  60.2121480  55.8826820   9.2742520
  59.8721530  56.3602050  10.0309570  59.4498800  55.4291940   8.9143620
  64.4239250  57.0012410   3.3055070  64.5452070  56.9598890   4.2540890
  64.0387760  57.8636560   3.1501800  68.3867620  54.7779810  11.3218760
  68.4040360  55.2288460  12.1660610  68.1383200  53.8785450  11.5352200
  63.4360750  59.3113550   2.7038370  62.8677650  58.8631800   2.0774280
  64.1449750  59.6706330   2.1703520  71.8138370  52.1911990  17.1605140
  72.1384140  51.4601650  17.6863120  71.8494880  51.8725630  16.2586130
  58.5129930  63.2125570  16.5805100  58.1284720  62.5719240  17.1788060
  58.8242120  63.9161690  17.1499830  64.6627070  60.0602110  12.0613720
  65.0297200  59.5860680  12.8075060  64.4732130  60.9343680  12.4022060
  57.5267560  54.8045800   8.1907190  57.2414480  54.4401470   9.0285810
  57.4646420  54.0726260   7.5770330  62.4526440  59.1010750  14.3797930
  62.1483510  59.9802730  14.6048290  63.4072900  59.1610540  14.4155370
  60.9808230  63.3071740   4.9764780  60.2070490  62.7669360   4.8163500
  61.7102860  62.7878350   4.6382540  71.7396210  62.3037100  10.7691170
  72.4595330  62.7992390  10.3787280  71.5378030  61.6254990  10.1245040
  67.2006150  53.6975060   4.9120560  66.3870760  53.1988230   4.8365870
  67.0068100  54.5373310   4.4956910  67.1215010  62.3746160  16.6560170
  67.0552320  61.4541830  16.4017760  66.4920150  62.4721600  17.3704810
  69.9154540  58.0694710   3.2082720  70.8034160  58.3811940   3.0334060
  69.8859630  57.1966960   2.8163300  61.0245630  62.9752120   8.6143590
  61.5424300  62.1720380   8.5600480  60.5729650  62.9131260   9.4560420
  65.9115130  64.2418400   3.8870890  66.2530830  64.9860630   3.3914210
  65.0827840  64.5549520   4.2495720  58.5090170  59.9413490  15.5269290
  58.1505110  60.6067340  16.1142630  58.2144730  59.1097040  15.8981910
  61.7103290  60.3997730  18.4108840  61.4103430  60.5454910  17.5136660
  62.4814530  59.8403020  18.3182230  67.0531740  65.1966730  16.4063970
  67.0676280  64.2647690  16.1882880  66.3456840  65.2826490  17.0453740
  72.1868810  59.3806550   2.6762580  72.1032530  59.8120770   1.8259020
  72.9063000  59.8404900   3.1089400  73.2642950  61.8374070  15.7532550
  72.5391140  62.4302850  15.5561940  73.7918410  61.8297610  14.9545920
  73.2156060  66.2348810   5.4044710  72.5732220  65.5804430   5.6788430
  72.8286720  66.6403900   4.6285380  68.7942540  63.5634240   9.2516400
  69.1466360  62.9662370   8.5917770  67.9104870  63.2378470   9.4224650
  64.8805820  64.3231930   6.6586810  65.5676950  64.8701140   7.0394400
  64.0938240  64.8672660   6.6936420  57.0198220  59.9404750   2.1503890
  57.8893070  60.2229550   2.4339810  56.5288540  60.7540620   2.0352700
  64.1833030  61.3277960   6.2712170  64.6395810  62.1383210   6.4972360
  63.8321240  61.0101100   7.1030660  66.4865640  66.8384300  13.5004470
  67.1307860  67.0443680  14.1777890  66.8495080  66.0772700  13.0475320
  60.0844810  51.6715610   6.7434690  59.9559440  51.6633510   7.6919610
  59.2606830  52.0098700   6.3925700  67.7597720  64.8416650  12.2181920
  68.4019950  64.1409810  12.3314090  68.2847070  65.6215090  12.0378810
  69.5335340  65.6411550  15.4217980  69.8691580  66.2278240  16.0995900
  68.6135680  65.5104260  15.6515770  57.3869470  69.1532130   2.7165520
  57.7467110  69.7521470   2.0622790  57.2461810  69.6992020   3.4900550
  57.0838740  53.4306730  16.2041390  56.3697260  53.6303650  16.8094000
  57.5033780  52.6546300  16.5756190  71.1869690  63.0437210   3.6035220
  70.8991390  63.5049900   4.3913100  71.9821860  62.5834980   3.8719440
  57.3711330  67.4186990  17.1907920  57.4802450  66.4781730  17.0503310
  56.7191890  67.6841740  16.5421650  65.3623920  65.6902880  18.5906040
  65.0420790  64.9712120  19.1351730  64.6882280  66.3657950  18.6642100
  63.4038090  66.5363330   3.5339190  63.3948190  67.2693020   2.9183700
  62.4836450  66.2894910   3.6266150  59.0044730  61.7578220   4.2785950
  58.3972680  62.4977120   4.2881250  59.4794080  61.8477580   3.4524150
  68.5777520  55.9229040  13.9542840  68.9458340  55.1024250  14.2822410
  67.7175720  55.9830930  14.3698490  71.9439550  54.8785980   4.7630400
  71.3152710  54.9831650   4.0488630  71.4491470  55.0982760   5.5524280
  63.9123580  57.1571930   6.1788280  63.2039730  57.6258270   6.6201890
  64.1968060  56.4993940   6.8133470  65.5379510  58.5768630  14.1780810
  66.0364760  59.0514450  14.8432660  65.6802460  57.6532150  14.3850840
  67.9439010  53.8822590   7.6184070  67.8206790  53.9008720   6.6693580
  68.8923570  53.9301530   7.7382470  65.0315800  69.1177890   6.8912050
  65.2857300  69.0799280   5.9691420  64.0828280  68.9911220   6.8840300
  62.1158600  55.4657010   3.5538990  62.9649130  55.9027160   3.4879180
  61.7489870  55.7777270   4.3811050  72.7446370  54.7936590  15.0209200
  72.2419970  55.5341990  15.3603010  73.5603030  55.1820590  14.7045990
  71.0368380  60.0369770   8.4670560  70.0958520  60.0520000   8.6418250
  71.3512450  59.2505730   8.9130860  59.7096780  59.1514440   2.7107410
  59.7900370  58.2041950   2.8224810  60.6016530  59.4821320   2.8168070
  73.0393960  67.2078620  10.1424820  73.1641380  68.0309790  10.6148630
  73.9059520  66.9969350   9.7948970  60.5111490  69.3009830   9.8141950
  61.2473970  68.7525290  10.0850520  60.8952410  70.1665840   9.6747940
  57.3956970  65.3683400   5.6883460  56.4696750  65.6104540   5.6788870
  57.8613400  66.1957660   5.5668210  59.5169770  68.4855900  19.0027530
  60.3182500  68.8067950  19.4162930  59.0021590  68.1251480  19.7247440
  68.3534400  64.5935770  18.9502940  67.7472560  64.6167370  18.2098690
  68.0488510  63.8618810  19.4870190  69.7834770  68.3216060  17.5612350
  70.7356520  68.2374080  17.5112590  69.6362990  68.9857770  18.2346140
  72.6743970  67.7010270   3.0604260  72.3885480  67.2875410   2.2458440
  72.4763520  68.6297980   2.9404780  57.2367580  60.9729360  17.9463580
  57.7406600  60.3936640  18.5179810  56.4975000  61.2569590  18.4839950
  64.2905520  62.3800350  17.4799100  63.5251190  62.9485350  17.3953770
  64.4721480  62.0876560  16.5867330  67.3793930  62.7563580   2.1051860
  66.8304030  63.2032880   2.7494600  68.0013190  62.2512830   2.6289530
  71.4328870  64.1105680  18.0374120  72.1738340  64.4481440  17.5341580
  70.6701550  64.2797740  17.4843890  59.2690660  59.1158950  18.8413650
  59.3096000  58.8172820  19.7498880  60.1236160  59.5166560  18.6821170
  63.0469050  61.7154500   4.0017160  63.4685470  61.5494370   4.8448550
  63.1719890  60.9054730   3.5072300  61.2096470  57.6951050  16.8088140
  60.6792930  57.2042000  16.1811480  61.8784540  58.1235250  16.2746070
  70.1074530  62.1620510  16.5729330  70.5215550  62.3165590  17.4219750
  69.1725530  62.2875730  16.7355110  70.5796700  59.5016670  18.5768480
  71.1617470  58.7468990  18.4888960  70.7558470  60.0324110  17.7999960
  61.6968770  54.6613420  16.8885430  61.6025640  54.0434170  16.1636300
  61.1166160  55.3879710  16.6615340  64.4630210  53.2186660  13.9212820
  64.0147510  53.2410920  13.0758370  63.8295410  52.8205680  14.5183120
  64.8689760  62.1140990  14.5425260  65.2877870  62.9573720  14.3701500
  63.9498390  62.2513030  14.3132040  67.2053660  59.8457170  15.9263100
  67.3249870  59.2498310  16.6657940  68.0647660  59.8826860  15.5064400
  69.5441560  60.3994360  14.5025610  69.0176780  60.9236980  13.8990750
  69.8872900  61.0321750  15.1335340  62.7197180  68.4194000  15.6582990
  62.1818270  69.1440060  15.3391690  62.9731140  67.9424340  14.8680330
  63.9722430  56.3878520  17.1838920  64.5622120  56.0794370  17.8716740
  63.1542670  55.9158270  17.3398820  68.7915860  56.0044330  17.4171940
  68.1031380  55.3425870  17.3521930  69.5121880  55.5582600  17.8620400
  69.4216260  52.5995960   3.4762200  69.7018550  51.7563860   3.8321620
  68.6481990  52.8319070   3.9900950  65.5759390  69.6545210  15.9169640
  65.5018090  70.5580350  16.2242010  64.6738230  69.3357110  15.8891710
  66.1244720  68.8203720   3.5396000  67.0195510  69.1588690   3.5614760
  66.1562350  68.0983130   2.9120280  59.7640880  64.1930770   1.7683000
  60.2015750  64.7360440   2.4240580  60.2488610  63.3677720   1.7779340
  56.9786680  66.9819800   9.2203260  57.3089690  66.1140860   8.9881900
  57.4077680  67.1878320  10.0508220  61.5748600  65.3128810   6.8805230
  61.2744140  65.1893780   7.7809140  61.4686090  64.4537400   6.4720960
  57.4676890  67.8490390  11.9584890  57.0307880  68.0291190  12.7909040
  58.0354570  68.6065010  11.8166610  73.1039070  67.3507390  16.2462200
  72.5041060  67.4099950  15.5026120  73.2332970  66.4112370  16.3759050
  73.7996980  61.8372690   4.0866110  74.5615890  62.4069340   4.1925800
  73.8151350  61.2699890   4.8574420  57.3001320  60.3610620   8.3173770
  56.6450160  60.0922260   7.6733470  58.1379270  60.2515100   7.8675750
  74.8056950  62.6922790   8.9308040  75.1765780  61.9090110   8.5244010
  75.4458880  63.3811890   8.7525340  71.7890710  64.0759370  14.3438360
  70.9750550  64.5056530  14.6064150  72.1964910  64.6877780  13.7307410
  70.2491760  55.1551910   2.5392260  70.6676640  54.9682890   1.6988920
  69.9427820  54.3030960   2.8495190  73.7481490  60.0676050   6.2368060
  73.3725090  59.3003980   5.8049350  73.0184610  60.4498750   6.7242990
  58.3377250  60.7463190  12.8577110  58.7050290  60.6590590  13.7373130
  57.7688070  59.9829740  12.7583970  73.1381110  59.2147570  15.8707580
  72.9067200  58.9860320  14.9705530  73.3985660  60.1347120  15.8252470
  57.8893250  57.6572280  16.7635530  56.9949300  57.6239040  17.1029240
  58.4290800  57.8559070  17.5286780  71.5769180  54.4404000  18.6487280
  72.4539360  54.4487400  19.0321280  71.5890020  53.7034840  18.0379630
  56.5139400  57.5709550   4.2599100  55.6103480  57.8339750   4.0850760
  56.9980020  57.8420720   3.4799060  73.0232450  58.2933540   9.5375300
  73.5469930  57.7996190   8.9065470  73.6091870  58.4283900  10.2822870
  73.2022170  58.3773410  13.0594850  72.2524880  58.3436950  13.1739840
  73.3835180  59.2873520  12.8244620  72.5132420  57.5506890   5.4767710
  73.0091540  57.3177760   6.2616590  72.3148490  56.7118730   5.0605350
  58.3932960  51.9320610  11.1118750  59.0409150  51.3817990  10.6713910
  58.8134800  52.1863760  11.9334560  73.9419580  56.1867840   8.0105390
  73.8318860  56.0323880   8.9487660  74.7027170  55.6588780   7.7680800
  72.2885300  52.1261970  14.4688390  72.9257520  52.7396110  14.8347580
  72.4360190  52.1622630  13.5237620  74.9048340  54.7886420   3.8768240
  74.1099840  54.7231540   4.4061150  75.1091620  55.7237060   3.8653590
  71.8466760  68.8277970   7.8706630  72.4425830  68.5062540   7.1941050
  72.1044910  68.3549790   8.6619900  58.1464960  52.0876280  13.8544070
  57.7979780  52.5440100  14.6202250  57.8152660  51.1933410  13.9366500
  59.7529330  65.2595880  18.0197260  59.7098960  64.8888790  18.9011720
  59.8840340  66.1973450  18.1599080  63.4535360  66.8155470  13.6206980
  63.2126720  67.0830030  12.7337500  64.3938000  66.9861200  13.6757840
  65.6589780  53.2788160  17.3763490  65.5978670  53.8709990  18.1258900
  66.5990160  53.1714120  17.2313750  68.2964340  52.9358220  17.0155780
  68.9104750  53.2537510  16.3536860  68.8413900  52.4506810  17.6351640
  74.7139520  68.8349850  14.4217620  74.2197800  69.2318720  13.7044750
  74.1052810  68.2099060  14.8154900  58.8185600  51.6152480  17.1294840
  59.3668590  51.4340530  16.3660950  58.8840910  50.8246590  17.6651150
  59.5917360  68.2058130  15.1395040  58.9977680  68.0742830  15.8785080
  59.5841200  67.3696270  14.6737140  69.0372380  51.4990360  13.3425070
  68.1632220  51.8325470  13.1398000  68.9283130  51.0263540  14.1676940
  69.9444360  53.7061230  14.7266790  69.6157720  52.8912990  14.3468520
  70.8926660  53.6631040  14.6032480  72.3978970  69.4773270  11.7004360
  71.9381940  70.2289080  11.3262380  71.7691430  68.7579740  11.6419160
  59.2229590  65.5716510  14.0903080  58.4963650  64.9521800  14.0229030
  59.2838740  65.9657120  13.2201160  62.8274690  67.7861510  10.8752490
  63.3439710  67.1748870  10.3500750  63.4772070  68.2890290  11.3663500
  65.5670190  68.6770000  11.7021470  65.8548000  68.4224300  10.8254480
  66.0793410  68.1247360  12.2927040  66.7847200  52.4160200  12.2817980
  66.0018990  52.8905700  12.5614740  66.4910130  51.5115030  12.1731160
  71.3368270  53.1183300  10.3267070  71.7776360  53.0628400   9.4788670
  71.0675860  54.0341310  10.3977250  73.2006840  52.7498540   8.3375890
  73.1395240  51.8059760   8.1906910  73.9798870  52.8578630   8.8829350
  57.5059590  68.8890900   7.2999840  57.3381630  68.2561580   7.9981730
  56.6394100  69.0950300   6.9494030  58.1287610  52.7207680   4.8031700
  58.8866970  52.8336560   4.2295730  57.6664780  53.5576880   4.7575130
  64.6701420  54.8346950   7.7934010  63.8575930  54.4603840   7.4529890
  65.1743060  54.0792030   8.0955200  69.1726400  51.4989400   9.0317080
  69.7755770  52.0709610   9.5065600  68.4319390  52.0628840   8.8090980
  72.3161000  51.9010960   4.3057360  72.5111630  52.7994410   4.5724790
  71.5290870  51.6698040   4.7990310  59.1122290  67.5824130   4.7449980
  58.5869910  67.9632160   4.0411940  59.0366870  68.2074900   5.4659690
  60.5012760  53.2471730   3.3433670  61.0305520  52.4601530   3.2141620
  61.1341080  53.9262920   3.5769200  62.6950600  52.9846870   6.3979060
  62.0653340  52.2834180   6.5649190  62.1555740  53.7451000   6.1812220
  65.6342550  69.5986100  19.0689670  66.5609860  69.3630370  19.1125630
  65.6192980  70.4258100  18.5875700  73.8687610  69.1411670   6.0663920
  74.0439800  68.4549410   5.4224840  73.1709180  69.6658720   5.6740590
  62.8206160  52.2630850  18.8331550  62.5390430  52.7664450  18.0692370
  63.2025860  51.4652600  18.4673680  61.7115260  69.5306510   3.6199230
  62.4434080  69.2465790   3.0723120  61.9708930  69.2919790   4.5098610
  60.8730050  65.6471240   3.6245560  60.2438930  66.1156340   4.1731390
  60.9877880  64.8020460   4.0591750  69.4221620  51.6784430  19.4112020
  69.3087070  51.9979040  20.3063540  70.2391360  52.0796940  19.1149300
  72.2020110  68.8255960  18.8930710  72.9945430  68.3305190  18.6856670
  72.4953260  69.5046100  19.5006320  68.3279770  40.9233410  64.8720720
  68.2473820  40.0088020  64.6012430  67.9144190  41.4200480  64.1660430
  66.4597810  42.7012430  66.7529990  65.6839910  42.2212870  67.0428560
  67.1110740  42.0218080  66.5786150  60.4763640  43.0132240  67.6305750
  59.6448520  42.7580950  68.0302260  61.0844620  43.0843010  68.3663670
  70.4805240  47.1072620  65.5329120  70.0186770  46.3359860  65.8616290
  71.2930790  47.1338690  66.0381570  60.4564900  47.0472330  67.8263770
  60.7592940  46.1570070  67.6473990  61.2008490  47.6042550  67.5986020
  58.8855590  37.9734130  61.4148140  57.9972290  38.3150100  61.3128020
  59.1696780  37.7734450  60.5228970  56.8488600  40.5739780  67.2987840
  57.4204710  39.8061980  67.2991480  56.8490140  40.8728540  66.3894450
  66.7068550  49.3930630  65.1533110  66.0879990  49.8488130  64.5827550
  67.5620330  49.5482090  64.7522810  65.9006800  45.3769620  66.7600150
  65.8315080  44.4359560  66.5989280  66.6626660  45.4671030  67.3322720
  58.0913470  35.9824140  69.0856770  57.9116310  35.0849890  69.3659530
  57.6893550  36.5296010  69.7603720  66.9311970  38.1840000  66.9869080
  67.3076790  37.3111880  66.8742750  66.8331480  38.5198700  66.0959520
  61.0616980  36.5565630  62.4486520  61.1683730  37.4569360  62.7555280
  60.1509340  36.5083600  62.1581170  70.7136090  35.6790440  63.9197420
  71.5345710  35.1887010  63.9622900  70.7470170  36.2688100  64.6729260
  58.7100140  38.4784640  67.6939110  59.3910250  38.7423010  68.3126510
  58.3948190  37.6385510  68.0277120  62.9024710  39.5252000  66.7811700
  63.4102930  40.0232970  67.4216720  63.4337950  38.7487200  66.6051060
  75.0035640  37.6957190  70.4841050  74.2987810  38.0838900  69.9656160
  75.2693560  38.3907480  71.0861980  61.1860810  34.1650560  71.0475120
  61.1879250  34.6822950  70.2421020  60.3565120  33.6880740  71.0245050
  67.5731900  44.2769870  62.5465020  66.9549170  44.7419320  61.9827740
  68.0855150  44.9697350  62.9634530  62.4363660  43.8045740  69.2248620
  62.1033040  44.4314660  69.8669690  62.6130340  44.3307620  68.4450290
  70.9497570  37.6190820  66.6924960  70.2453140  37.9075710  67.2728070
  71.3109730  38.4290930  66.3324520  60.8676140  35.8760520  69.0545570
  61.2092950  36.7202570  68.7599440  59.9291950  36.0244260  69.1710910
  61.6482760  45.7726540  71.0397800  62.2656760  46.4477620  70.7582250
  60.7875880  46.1814520  70.9485300  56.9415100  44.9626400  59.9204650
  56.5643080  45.4513500  59.1889550  57.1988170  45.6351680  60.5511180
  72.5660350  47.2365950  68.9552440  71.8823870  47.9065060  68.9469110
  73.1054640  47.4346600  68.1897300  74.0184490  37.0645610  67.0834170
  73.0709400  37.0984590  67.2149600  74.3434480  37.8784560  67.4683530
  64.5504030  33.3642790  65.3790160  64.8579010  32.8089680  64.6625660
  63.6204730  33.4987250  65.1963150  70.1019090  49.0810080  67.6697620
  70.1146250  48.6772370  66.8019880  69.5494310  49.8557370  67.5659050
  71.3964510  45.8026300  62.7587790  71.2860840  44.8600630  62.8837210
  71.3932760  46.1641940  63.6450550  69.5004530  43.9839920  68.9980230
  69.9173320  43.7700030  68.1633690  70.2244350  44.2412710  69.5688850
  66.9384790  41.4291620  62.1150280  66.0114070  41.3629000  62.3438750
  67.0909610  42.3671750  62.0005520  66.9253870  37.7008620  59.1117440
  65.9857540  37.8622580  59.1969900  67.2437130  38.4194300  58.5653430
  73.4466630  42.3827140  69.0896470  72.6185260  42.4520230  68.6146600
  74.0417110  42.9681450  68.6212300  70.9682080  42.9911920  62.6185530
  70.3494500  42.6531470  61.9711830  70.9506530  42.3471680  63.3264720
  70.4108640  39.1696460  70.0351340  69.9979820  39.9950170  70.2891330
  69.6784590  38.5841500  69.8427700  62.5441430  41.9556360  64.8970010
  62.1398430  41.2433610  64.4015910  62.6304550  41.6109600  65.7858050
  63.0123130  45.6423920  67.0609220  62.7151420  45.0369390  66.3817000
  63.9622950  45.6801230  66.9498580  61.2570050  38.7299570  68.6769050
  61.8084640  38.8394910  67.9022300  61.7713560  39.1037170  69.3924280
  71.1008740  49.2155790  70.7232320  70.6239300  50.0227980  70.5304930
  70.4170530  48.5634120  70.8758530  62.1041560  45.3805610  73.7117020
  61.2070090  45.6045580  73.9590420  62.1294430  45.5040550  72.7628420
  69.1446780  42.2298730  59.6258280  69.5840060  41.3921160  59.4796100
  69.8575200  42.8628130  59.7122420  60.9312780  42.2518930  72.2874390
  60.7920550  43.1241730  72.6561790  60.0494140  41.9091740  72.1422330
  67.2542160  47.1694800  63.5939520  67.6938070  47.9119130  63.1794910
  67.1929050  47.4121370  64.5178480  62.7293130  48.1940630  74.4959540
  62.7008560  48.5983580  73.6287970  62.5658100  47.2650990  74.3331140
  72.7263920  33.4841540  57.9399320  72.4136580  33.5768370  58.8398390
  73.4876390  34.0622570  57.8896750  59.2446060  40.8501340  62.3976660
  59.1243660  41.5763430  61.7857930  58.9346950  40.0804250  61.9204570
  56.8831430  44.0216480  68.2045300  56.9611850  44.1565250  67.2601020
  57.4973110  43.3132370  68.3973420  58.1279060  45.7216670  64.6151480
  57.7207140  45.8631260  63.7605080  59.0192070  45.4376830  64.4122690
  74.0841200  46.1680580  72.9523720  74.2104260  45.9292460  72.0340900
  74.1262580  45.3365120  73.4245800  67.9457940  49.8708580  71.5218530
  68.4602610  49.7816590  72.3240960  67.1027020  50.2168280  71.8146440
  69.9212340  50.1563920  60.9502530  69.7613480  49.8666860  61.8484360
  69.7559050  49.3804050  60.4147760  62.4000720  49.9362450  62.7274150
  62.2243200  49.0197990  62.5141950  61.5456460  50.2949740  62.9671950
  69.6238470  47.6651480  59.5100530  68.9303630  47.6628770  58.8502810
  70.3661330  47.2410800  59.0794700  69.1888400  49.2914190  63.5849020
  69.6445350  48.5103570  63.8987640  69.5280920  50.0021010  64.1290200
  73.9365210  38.2213040  73.9173460  73.3209480  38.7292710  73.3888920
  73.6161630  37.3211370  73.8599400  56.9390950  45.0630650  70.7439760
  57.1021990  44.5936010  69.9259130  57.4043400  44.5554210  71.4088600
  61.7109720  34.1936410  65.7800330  61.2677870  34.9745950  65.4484850
  62.2694710  34.5166300  66.4871270  65.9979530  37.0604930  71.3835650
  65.5358900  37.2687950  72.1955590  65.5957640  36.2464280  71.0806320
  70.9984040  38.2813880  72.5132310  70.1477630  37.9819630  72.8341380
  70.8385830  38.5255890  71.6016130  68.0933750  39.7815630  74.6131100
  68.4187160  38.9479380  74.2733330  68.8814080  40.3044150  74.7609430
  64.8268540  33.8147110  60.6606160  64.2022720  33.8106980  61.3859470
  64.7398660  32.9478070  60.2642130  63.7485620  34.7383740  67.6389930
  64.0457950  35.6446570  67.5581950  64.2971180  34.2502520  67.0249500
  61.5023940  39.3169980  63.5081580  61.2764860  39.1007150  64.4128200
  60.7216470  39.7498440  63.1627550  68.7321700  39.3233350  62.1072230
  68.1330590  40.0469150  61.9235850  69.2801310  39.2610130  61.3248680
  63.9423150  40.2155560  74.1741850  63.8466750  39.2750290  74.0242250
  64.7855130  40.4370630  73.7789920  67.3386570  37.9596890  64.1375510
  67.7316140  38.2769090  63.3244200  67.7003420  37.0808770  64.2520030
  59.0733690  36.6269230  72.3275630  58.6797080  37.4744440  72.5348410
  58.3852090  35.9895600  72.5184270  56.3750740  34.5497690  66.3605710
  56.0863790  35.1200550  67.0730690  57.1196500  34.0702140  66.7236940
  56.5620970  38.4917810  57.5708430  56.4795640  39.4348570  57.7123420
  56.2104030  38.3492720  56.6920780  67.9241710  40.5502640  68.2326290
  67.1922830  41.0589450  68.5816390  67.5266050  39.7332620  67.9315070
  64.3619100  37.2256840  66.6378780  64.3655160  36.7846790  65.7883320
  65.2570220  37.5474170  66.7450600  60.2121480  37.1083330  65.5972990
  59.8721530  37.5858560  66.3540040  59.4498800  36.6548450  65.2374090
  64.4239250  38.2268920  59.6285540  64.5452070  38.1855400  60.5771360
  64.0387760  39.0893070  59.4732270  68.3867620  36.0036320  67.6449230
  68.4040360  36.4544970  68.4891080  68.1383200  35.1041960  67.8582670
  63.4360750  40.5370060  59.0268840  62.8677650  40.0888310  58.4004750
  64.1449750  40.8962840  58.4933990  71.8138370  33.4168500  73.4835610
  72.1384140  32.6858160  74.0093590  71.8494880  33.0982140  72.5816600
  58.5129930  44.4382080  72.9035570  58.1284720  43.7975750  73.5018530
  58.8242120  45.1418200  73.4730300  64.6627070  41.2858620  68.3844190
  65.0297200  40.8117190  69.1305530  64.4732130  42.1600190  68.7252530
  57.5267560  36.0302310  64.5137660  57.2414480  35.6657980  65.3516280
  57.4646420  35.2982770  63.9000800  62.4526440  40.3267260  70.7028400
  62.1483510  41.2059240  70.9278760  63.4072900  40.3867050  70.7385840
  60.9808230  44.5328250  61.2995250  60.2070490  43.9925870  61.1393970
  61.7102860  44.0134860  60.9613010  71.7396210  43.5293610  67.0921640
  72.4595330  44.0248900  66.7017750  71.5378030  42.8511500  66.4475510
  67.2006150  34.9231570  61.2351030  66.3870760  34.4244740  61.1596340
  67.0068100  35.7629820  60.8187380  67.1215010  43.6002670  72.9790640
  67.0552320  42.6798340  72.7248230  66.4920150  43.6978110  73.6935280
  69.9154540  39.2951220  59.5313190  70.8034160  39.6068450  59.3564530
  69.8859630  38.4223470  59.1393770  61.0245630  44.2008630  64.9374060
  61.5424300  43.3976890  64.8830950  60.5729650  44.1387770  65.7790890
  65.9115130  45.4674910  60.2101360  66.2530830  46.2117140  59.7144680
  65.0827840  45.7806030  60.5726190  58.5090170  41.1670000  71.8499760
  58.1505110  41.8323850  72.4373100  58.2144730  40.3353550  72.2212380
  61.7103290  41.6254240  74.7339310  61.4103430  41.7711420  73.8367130
  62.4814530  41.0659530  74.6412700  67.0531740  46.4223240  72.7294440
  67.0676280  45.4904200  72.5113350  66.3456840  46.5083000  73.3684210
  72.1868810  40.6063060  58.9993050  72.1032530  41.0377280  58.1489490
  72.9063000  41.0661410  59.4319870  73.2642950  43.0630580  72.0763020
  72.5391140  43.6559360  71.8792410  73.7918410  43.0554120  71.2776390
  73.2156060  47.4605320  61.7275180  72.5732220  46.8060940  62.0018900
  72.8286720  47.8660410  60.9515850  68.7942540  44.7890750  65.5746870
  69.1466360  44.1918880  64.9148240  67.9104870  44.4634980  65.7455120
  64.8805820  45.5488440  62.9817280  65.5676950  46.0957650  63.3624870
  64.0938240  46.0929170  63.0166890  57.0198220  41.1661260  58.4734360
  57.8893070  41.4486060  58.7570280  56.5288540  41.9797130  58.3583170
  64.1833030  42.5534470  62.5942640  64.6395810  43.3639720  62.8202830
  63.8321240  42.2357610  63.4261130  66.4865640  48.0640810  69.8234940
  67.1307860  48.2700190  70.5008360  66.8495080  47.3029210  69.3705790
  60.0844810  32.8972120  63.0665160  59.9559440  32.8890020  64.0150080
  59.2606830  33.2355210  62.7156170  67.7597720  46.0673160  68.5412390
  68.4019950  45.3666320  68.6544560  68.2847070  46.8471600  68.3609280
  71.6053440  46.3521780  58.2651530  71.3791020  45.6352220  58.8576170
  71.2149640  46.1034220  57.4273280  69.5335340  46.8668060  71.7448450
  69.8691580  47.4534750  72.4226370  68.6135680  46.7360770  71.9746240
  57.3869470  50.3788640  59.0395990  57.7467110  50.9777980  58.3853260
  57.2461810  50.9248530  59.8131020  57.0838740  34.6563240  72.5271860
  56.3697260  34.8560160  73.1324470  57.5033780  33.8802810  72.8986660
  71.1869690  44.2693720  59.9265690  70.8991390  44.7306410  60.7143570
  71.9821860  43.8091490  60.1949910  57.3711330  48.6443500  73.5138390
  57.4802450  47.7038240  73.3733780  56.7191890  48.9098250  72.8652120
  63.4038090  47.7619840  59.8569660  63.3948190  48.4949530  59.2414170
  62.4836450  47.5151420  59.9496620  59.0044730  42.9834730  60.6016420
  58.3972680  43.7233630  60.6111720  59.4794080  43.0734090  59.7754620
  68.5777520  37.1485550  70.2773310  68.9458340  36.3280760  70.6052880
  67.7175720  37.2087440  70.6928960  71.9439550  36.1042490  61.0860870
  71.3152710  36.2088160  60.3719100  71.4491470  36.3239270  61.8754750
  66.3897690  47.8248080  58.5194850  66.4909670  47.6212070  57.5896830
  65.4899430  47.5706360  58.7242630  63.9123580  38.3828440  62.5018750
  63.2039730  38.8514780  62.9432360  64.1968060  37.7250450  63.1363940
  65.5379510  39.8025140  70.5011280  66.0364760  40.2770960  71.1663130
  65.6802460  38.8788660  70.7081310  67.9439010  35.1079100  63.9414540
  67.8206790  35.1265230  62.9924050  68.8923570  35.1558040  64.0612940
  65.0315800  50.3434400  63.2142520  65.2857300  50.3055790  62.2921890
  64.0828280  50.2167730  63.2070770  62.1158600  36.6913520  59.8769460
  62.9649130  37.1283670  59.8109650  61.7489870  37.0033780  60.7041520
  72.7446370  36.0193100  71.3439670  72.2419970  36.7598500  71.6833480
  73.5603030  36.4077100  71.0276460  71.0368380  41.2626280  64.7901030
  70.0958520  41.2776510  64.9648720  71.3512450  40.4762240  65.2361330
  61.0150020  42.9445880  58.3504990  61.7813290  42.8327240  58.9130420
  61.0924710  42.2483850  57.6981760  59.7096780  40.3770950  59.0337880
  59.7900370  39.4298460  59.1455280  60.6016530  40.7077830  59.1398540
  73.0393960  48.4335130  66.4655290  73.1641380  49.2566300  66.9379100
  73.9059520  48.2225860  66.1179440  60.5111490  50.5266340  66.1372420
  61.2473970  49.9781800  66.4080990  60.8952410  51.3922350  65.9978410
  57.3956970  46.5939910  62.0113930  56.4696750  46.8361050  62.0019340
  57.8613400  47.4214170  61.8898680  63.6213800  49.6996650  57.9597990
  64.4142410  49.9885480  57.5079780  63.1018150  49.2688820  57.2810470
  69.7834770  49.5472570  73.8842820  70.7356520  49.4630590  73.8343060
  69.6362990  50.2114280  74.5576610  72.6743970  48.9266780  59.3834730
  72.3885480  48.5131920  58.5688910  72.4763520  49.8554490  59.2635250
  57.2367580  42.1985870  74.2694050  57.7406600  41.6193150  74.8410280
  56.4975000  42.4826100  74.8070420  64.1391200  44.9200060  57.8240340
  64.0341840  44.3052410  58.5501720  63.9715420  44.3965950  57.0403350
  64.2905520  43.6056860  73.8029570  63.5251190  44.1741860  73.7184240
  64.4721480  43.3133070  72.9097800  67.3793930  43.9820090  58.4282330
  66.8304030  44.4289390  59.0725070  68.0013190  43.4769340  58.9520000
  71.4328870  45.3362190  74.3604590  72.1738340  45.6737950  73.8572050
  70.6701550  45.5054250  73.8074360  63.0469050  42.9411010  60.3247630
  63.4685470  42.7750880  61.1679020  63.1719890  42.1311240  59.8302770
  61.2096470  38.9207560  73.1318610  60.6792930  38.4298510  72.5041950
  61.8784540  39.3491760  72.5976540  65.5596690  41.9648620  57.5724730
  66.0802350  41.2497640  57.2065880  66.2065090  42.6034490  57.8725240
  70.1074530  43.3877020  72.8959800  70.5215550  43.5422100  73.7450220
  69.1725530  43.5132240  73.0585580  70.5796700  40.7273180  74.8998950
  71.1617470  39.9725500  74.8119430  70.7558470  41.2580620  74.1230430
  61.6968770  35.8869930  73.2115900  61.6025640  35.2690680  72.4866770
  61.1166160  36.6136220  72.9845810  64.4630210  34.4443170  70.2443290
  64.0147510  34.4667430  69.3988840  63.8295410  34.0462190  70.8413590
  64.8689760  43.3397500  70.8655730  65.2877870  44.1830230  70.6931970
  63.9498390  43.4769540  70.6362510  67.2053660  41.0713680  72.2493570
  67.3249870  40.4754820  72.9888410  68.0647660  41.1083370  71.8294870
  69.5441560  41.6250870  70.8256080  69.0176780  42.1493490  70.2221220
  69.8872900  42.2578260  71.4565810  61.9427950  39.0144240  57.2705790
  61.7417010  38.1511600  57.6319130  61.7720000  38.9277600  56.3327390
  62.7197180  49.6450510  71.9813460  62.1818270  50.3696570  71.6622160
  62.9731140  49.1680850  71.1910800  63.9722430  37.6135030  73.5069390
  64.5622120  37.3050880  74.1947210  63.1542670  37.1414780  73.6629290
  68.7915860  37.2300840  73.7402410  68.1031380  36.5682380  73.6752400
  69.5121880  36.7839110  74.1850870  69.4216260  33.8252470  59.7992670
  69.7018550  32.9820370  60.1552090  68.6481990  34.0575580  60.3131420
  60.7410750  36.1144860  57.2583670  61.0436650  36.1212290  56.3502820
  61.4805340  35.7642720  57.7551330  65.5759390  50.8801720  72.2400110
  65.5018090  51.7836860  72.5472480  64.6738230  50.5613620  72.2122180
  63.9595680  35.0579480  58.2439870  63.6117680  34.3803470  57.6642320
  64.1608450  34.5968990  59.0583260  66.1244720  50.0460230  59.8626470
  67.0195510  50.3845200  59.8845230  66.1562350  49.3239640  59.2350750
  59.7640880  45.4187280  58.0913470  60.2015750  45.9616950  58.7471050
  60.2488610  44.5934230  58.1009810  56.9786680  48.2076310  65.5433730
  57.3089690  47.3397370  65.3112370  57.4077680  48.4134830  66.3738690
  61.5748600  46.5385320  63.2035700  61.2744140  46.4150290  64.1039610
  61.4686090  45.6793910  62.7951430  57.4676890  49.0746900  68.2815360
  57.0307880  49.2547700  69.1139510  58.0354570  49.8321520  68.1397080
  73.1039070  48.5763900  72.5692670  72.5041060  48.6356460  71.8256590
  73.2332970  47.6368880  72.6989520  74.3440520  46.3181720  57.9062380
  73.5133480  46.3858370  58.3769610  74.5212350  47.2085840  57.6029240
  73.7996980  43.0629200  60.4096580  74.5615890  43.6325850  60.5156270
  73.8151350  42.4956400  61.1804890  57.3001320  41.5867130  64.6404240
  56.6450160  41.3178770  63.9963940  58.1379270  41.4771610  64.1906220
  74.8056950  43.9179300  65.2538510  75.1765780  43.1346620  64.8474480
  75.4458880  44.6068400  65.0755810  71.7890710  45.3015880  70.6668830
  70.9750550  45.7313040  70.9294620  72.1964910  45.9134290  70.0537880
  73.8516150  43.3563570  57.5669100  74.1264990  44.2642450  57.4388320
  73.6626890  43.2926100  58.5031090  70.2491760  36.3808420  58.8622730
  70.6676640  36.1939400  58.0219390  69.9427820  35.5287470  59.1725660
  73.7481490  41.2932560  62.5598530  73.3725090  40.5260490  62.1279820
  73.0184610  41.6755260  63.0473460  58.3377250  41.9719700  69.1807580
  58.7050290  41.8847100  70.0603600  57.7688070  41.2086250  69.0814440
  73.1381110  40.4404080  72.1938050  72.9067200  40.2116830  71.2936000
  73.3985660  41.3603630  72.1482940  57.8893250  38.8828790  73.0866000
  56.9949300  38.8495550  73.4259710  58.4290800  39.0815580  73.8517250
  56.5139400  38.7966060  60.5829570  55.6103480  39.0596260  60.4081230
  56.9980020  39.0677230  59.8029530  73.0232450  39.5190050  65.8605770
  73.5469930  39.0252700  65.2295940  73.6091870  39.6540410  66.6053340
  73.2022170  39.6029920  69.3825320  72.2524880  39.5693460  69.4970310
  73.3835180  40.5130030  69.1475090  59.0566610  37.8531600  58.4923950
  59.7658310  37.4314820  58.0071230  58.3406550  37.9206830  57.8607300
  58.7040770  33.9070930  57.5326600  59.4268900  34.4479870  57.8507820
  58.9765290  33.6334350  56.6568140  72.5132420  38.7763400  61.7998180
  73.0091540  38.5434270  62.5847060  72.3148490  37.9375240  61.3835820
  58.3932960  33.1577120  67.4349220  59.0409150  32.6074500  66.9944380
  58.8134800  33.4120270  68.2565030  73.9419580  37.4124350  64.3335860
  73.8318860  37.2580390  65.2718130  74.7027170  36.8845290  64.0911270
  72.2885300  33.3518480  70.7918860  72.9257520  33.9652620  71.1578050
  72.4360190  33.3879140  69.8468090  74.8309850  35.2432270  57.5742000
  75.7559160  35.1113450  57.3660290  74.8085640  35.3225090  58.5278450
  74.9048340  36.0142930  60.1998710  74.1099840  35.9488050  60.7291620
  75.1091620  36.9493570  60.1884060  71.8466760  50.0534480  64.1937100
  72.4425830  49.7319050  63.5171520  72.1044910  49.5806300  64.9850370
  58.1464960  33.3132790  70.1774540  57.7979780  33.7696610  70.9432720
  57.8152660  32.4189920  70.2596970  63.4535360  48.0411980  69.9437450
  63.2126720  48.3086540  69.0567970  64.3938000  48.2117710  69.9988310
  65.6589780  34.5044670  73.6993960  65.5978670  35.0966500  74.4489370
  66.5990160  34.3970630  73.5544220  68.2964340  34.1614730  73.3386250
  68.9104750  34.4794020  72.6767330  68.8413900  33.6763320  73.9582110
  74.7139520  50.0606360  70.7448090  74.2197800  50.4575230  70.0275220
  74.1052810  49.4355570  71.1385370  58.8185600  32.8408990  73.4525310
  59.3668590  32.6597040  72.6891420  58.8840910  32.0503100  73.9881620
  59.5917360  49.4314640  71.4625510  58.9977680  49.2999340  72.2015550
  59.5841200  48.5952780  70.9967610  69.0372380  32.7246870  69.6655540
  68.1632220  33.0581980  69.4628470  68.9283130  32.2520050  70.4907410
  69.9444360  34.9317740  71.0497260  69.6157720  34.1169500  70.6698990
  70.8926660  34.8887550  70.9262950  72.3978970  50.7029780  68.0234830
  71.9381940  51.4545590  67.6492850  71.7691430  49.9836250  67.9649630
  59.2229590  46.7973020  70.4133550  58.4963650  46.1778310  70.3459500
  59.2838740  47.1913630  69.5431630  62.8274690  49.0118020  67.1982960
  63.3439710  48.4005380  66.6731220  63.4772070  49.5146800  67.6893970
  65.5670190  49.9026510  68.0251940  65.8548000  49.6480810  67.1484950
  66.0793410  49.3503870  68.6157510  66.7847200  33.6416710  68.6048450
  66.0018990  34.1162210  68.8845210  66.4910130  32.7371540  68.4961630
  71.3368270  34.3439810  66.6497540  71.7776360  34.2884910  65.8019140
  71.0675860  35.2597820  66.7207720  73.2006840  33.9755050  64.6606360
  73.1395240  33.0316270  64.5137380  73.9798870  34.0835140  65.2059820
  57.5059590  50.1147410  63.6230310  57.3381630  49.4818090  64.3212200
  56.6394100  50.3206810  63.2724500  58.1287610  33.9464190  61.1262170
  58.8866970  34.0593070  60.5526200  57.6664780  34.7833390  61.0805600
  64.6701420  36.0603460  64.1164480  63.8575930  35.6860350  63.7760360
  65.1743060  35.3048540  64.4185670  69.1726400  32.7245910  65.3547550
  69.7755770  33.2966120  65.8296070  68.4319390  33.2885350  65.1321450
  72.3161000  33.1267470  60.6287830  72.5111630  34.0250920  60.8955260
  71.5290870  32.8954550  61.1220780  59.1122290  48.8080640  61.0680450
  58.5869910  49.1888670  60.3642410  59.0366870  49.4331410  61.7890160
  60.5012760  34.4728240  59.6664140  61.0305520  33.6858040  59.5372090
  61.1341080  35.1519430  59.8999670  62.6950600  34.2103380  62.7209530
  62.0653340  33.5090690  62.8879660  62.1555740  34.9707510  62.5042690
  73.8687610  50.3668180  62.3894390  74.0439800  49.6805920  61.7455310
  73.1709180  50.8915230  61.9971060  61.7115260  50.7563020  59.9429700
  62.4434080  50.4722300  59.3953590  61.9708930  50.5176300  60.8329080
  60.8730050  46.8727750  59.9476030  60.2438930  47.3412850  60.4961860
  60.9877880  46.0276970  60.3822220  68.3279770  40.9233410  46.0977230
  68.2473820  40.0088020  45.8268940  67.9144190  41.4200480  45.3916940
  66.4597810  42.7012430  47.9786500  65.6839910  42.2212870  48.2685070
  67.1110740  42.0218080  47.8042660  58.8855590  37.9734130  42.6404650
  57.9972290  38.3150100  42.5384530  59.1696780  37.7734450  41.7485480
  65.9006800  45.3769620  47.9856660  65.8315080  44.4359560  47.8245790
  66.6626660  45.4671030  48.5579230  58.0913470  35.9824140  50.3113280
  57.9116310  35.0849890  50.5916040  57.6893550  36.5296010  50.9860230
  66.9311970  38.1840000  48.2125590  67.3076790  37.3111880  48.0999260
  66.8331480  38.5198700  47.3216030  61.0616980  36.5565630  43.6743030
  61.1683730  37.4569360  43.9811790  60.1509340  36.5083600  43.3837680
  70.7136090  35.6790440  45.1453930  71.5345710  35.1887010  45.1879410
  70.7470170  36.2688100  45.8985770  75.0035640  37.6957190  51.7097560
  74.2987810  38.0838900  51.1912670  75.2693560  38.3907480  52.3118490
  61.1860810  34.1650560  52.2731630  61.1879250  34.6822950  51.4677530
  60.3565120  33.6880740  52.2501560  70.9497570  37.6190820  47.9181470
  70.2453140  37.9075710  48.4984580  71.3109730  38.4290930  47.5581030
  60.8676140  35.8760520  50.2802080  61.2092950  36.7202570  49.9855950
  59.9291950  36.0244260  50.3967420  61.6482760  45.7726540  52.2654310
  62.2656760  46.4477620  51.9838760  60.7875880  46.1814520  52.1741810
  72.5660350  47.2365950  50.1808950  71.8823870  47.9065060  50.1725620
  73.1054640  47.4346600  49.4153810  74.0184490  37.0645610  48.3090680
  73.0709400  37.0984590  48.4406110  74.3434480  37.8784560  48.6940040
  64.5504030  33.3642790  46.6046670  64.8579010  32.8089680  45.8882170
  63.6204730  33.4987250  46.4219660  70.1019090  49.0810080  48.8954130
  70.1146250  48.6772370  48.0276390  69.5494310  49.8557370  48.7915560
  69.5004530  43.9839920  50.2236740  69.9173320  43.7700030  49.3890200
  70.2244350  44.2412710  50.7945360  66.9384790  41.4291620  43.3406790
  66.0114070  41.3629000  43.5695260  67.0909610  42.3671750  43.2262030
  66.9253870  37.7008620  40.3373950  65.9857540  37.8622580  40.4226410
  67.2437130  38.4194300  39.7909940  73.4466630  42.3827140  50.3152980
  72.6185260  42.4520230  49.8403110  74.0417110  42.9681450  49.8468810
  70.9682080  42.9911920  43.8442040  70.3494500  42.6531470  43.1968340
  70.9506530  42.3471680  44.5521230  70.4108640  39.1696460  51.2607850
  69.9979820  39.9950170  51.5147840  69.6784590  38.5841500  51.0684210
  71.1008740  49.2155790  51.9488830  70.6239300  50.0227980  51.7561440
  70.4170530  48.5634120  52.1015040  62.1041560  45.3805610  54.9373530
  61.2070090  45.6045580  55.1846930  62.1294430  45.5040550  53.9884930
  69.1446780  42.2298730  40.8514790  69.5840060  41.3921160  40.7052610
  69.8575200  42.8628130  40.9378930  60.9312780  42.2518930  53.5130900
  60.7920550  43.1241730  53.8818300  60.0494140  41.9091740  53.3678840
  62.7293130  48.1940630  55.7216050  62.7008560  48.5983580  54.8544480
  62.5658100  47.2650990  55.5587650  74.6807950  48.9767730  57.0180220
  75.1567670  49.4550620  57.6969300  75.3015110  48.9085220  56.2925720
  74.0841200  46.1680580  54.1780230  74.2104260  45.9292460  53.2597410
  74.1262580  45.3365120  54.6502310  67.9457940  49.8708580  52.7475040
  68.4602610  49.7816590  53.5497470  67.1027020  50.2168280  53.0402950
  73.9365210  38.2213040  55.1429970  73.3209480  38.7292710  54.6145430
  73.6161630  37.3211370  55.0855910  56.9390950  45.0630650  51.9696270
  57.1021990  44.5936010  51.1515640  57.4043400  44.5554210  52.6345110
  61.7109720  34.1936410  47.0056840  61.2677870  34.9745950  46.6741360
  62.2694710  34.5166300  47.7127780  65.9979530  37.0604930  52.6092160
  65.5358900  37.2687950  53.4212100  65.5957640  36.2464280  52.3062830
  70.9984040  38.2813880  53.7388820  70.1477630  37.9819630  54.0597890
  70.8385830  38.5255890  52.8272640  68.0933750  39.7815630  55.8387610
  68.4187160  38.9479380  55.4989840  68.8814080  40.3044150  55.9865940
  64.8268540  33.8147110  41.8862670  64.2022720  33.8106980  42.6115980
  64.7398660  32.9478070  41.4898640  63.7485620  34.7383740  48.8646440
  64.0457950  35.6446570  48.7838460  64.2971180  34.2502520  48.2506010
  68.7321700  39.3233350  43.3328740  68.1330590  40.0469150  43.1492360
  69.2801310  39.2610130  42.5505190  63.9423150  40.2155560  55.3998360
  63.8466750  39.2750290  55.2498760  64.7855130  40.4370630  55.0046430
  67.3386570  37.9596890  45.3632020  67.7316140  38.2769090  44.5500710
  67.7003420  37.0808770  45.4776540  59.0733690  36.6269230  53.5532140
  58.6797080  37.4744440  53.7604920  58.3852090  35.9895600  53.7440780
  65.6478740  36.7104200  56.6228880  64.9577060  36.5176400  57.2574970
  66.3911040  36.9938840  57.1553180  56.3750740  34.5497690  47.5862220
  56.0863790  35.1200550  48.2987200  57.1196500  34.0702140  47.9493450
  56.5620970  38.4917810  38.7964940  56.4795640  39.4348570  38.9379930
  56.2104030  38.3492720  37.9177290  67.9241710  40.5502640  49.4582800
  67.1922830  41.0589450  49.8072900  67.5266050  39.7332620  49.1571580
  64.3619100  37.2256840  47.8635290  64.3655160  36.7846790  47.0139830
  65.2570220  37.5474170  47.9707110  64.4239250  38.2268920  40.8542050
  64.5452070  38.1855400  41.8027870  64.0387760  39.0893070  40.6988780
  68.3867620  36.0036320  48.8705740  68.4040360  36.4544970  49.7147590
  68.1383200  35.1041960  49.0839180  71.8138370  33.4168500  54.7092120
  72.1384140  32.6858160  55.2350100  71.8494880  33.0982140  53.8073110
  58.5129930  44.4382080  54.1292080  58.1284720  43.7975750  54.7275040
  58.8242120  45.1418200  54.6986810  57.5267560  36.0302310  45.7394170
  57.2414480  35.6657980  46.5772790  57.4646420  35.2982770  45.1257310
  71.7396210  43.5293610  48.3178150  72.4595330  44.0248900  47.9274260
  71.5378030  42.8511500  47.6732020  67.2006150  34.9231570  42.4607540
  66.3870760  34.4244740  42.3852850  67.0068100  35.7629820  42.0443890
  67.1215010  43.6002670  54.2047150  67.0552320  42.6798340  53.9504740
  66.4920150  43.6978110  54.9191790  69.9154540  39.2951220  40.7569700
  70.8034160  39.6068450  40.5821040  69.8859630  38.4223470  40.3650280
  58.5090170  41.1670000  53.0756270  58.1505110  41.8323850  53.6629610
  58.2144730  40.3353550  53.4468890  61.7103290  41.6254240  55.9595820
  61.4103430  41.7711420  55.0623640  62.4814530  41.0659530  55.8669210
  67.0531740  46.4223240  53.9550950  67.0676280  45.4904200  53.7369860
  66.3456840  46.5083000  54.5940720  72.1868810  40.6063060  40.2249560
  72.1032530  41.0377280  39.3746000  72.9063000  41.0661410  40.6576380
  73.2642950  43.0630580  53.3019530  72.5391140  43.6559360  53.1048920
  73.7918410  43.0554120  52.5032900  73.2156060  47.4605320  42.9531690
  72.5732220  46.8060940  43.2275410  72.8286720  47.8660410  42.1772360
  57.0198220  41.1661260  39.6990870  57.8893070  41.4486060  39.9826790
  56.5288540  41.9797130  39.5839680  66.4865640  48.0640810  51.0491450
  67.1307860  48.2700190  51.7264870  66.8495080  47.3029210  50.5962300
  60.0844810  32.8972120  44.2921670  59.9559440  32.8890020  45.2406590
  59.2606830  33.2355210  43.9412680  67.7597720  46.0673160  49.7668900
  68.4019950  45.3666320  49.8801070  68.2847070  46.8471600  49.5865790
  71.6053440  46.3521780  39.4908040  71.3791020  45.6352220  40.0832680
  71.2149640  46.1034220  38.6529790  69.5335340  46.8668060  52.9704960
  69.8691580  47.4534750  53.6482880  68.6135680  46.7360770  53.2002750
  57.0838740  34.6563240  53.7528370  56.3697260  34.8560160  54.3580980
  57.5033780  33.8802810  54.1243170  71.1869690  44.2693720  41.1522200
  70.8991390  44.7306410  41.9400080  71.9821860  43.8091490  41.4206420
  57.3711330  48.6443500  54.7394900  57.4802450  47.7038240  54.5990290
  56.7191890  48.9098250  54.0908630  65.3623920  46.9159390  56.1393020
  65.0420790  46.1968630  56.6838710  64.6882280  47.5914460  56.2129080
  68.5777520  37.1485550  51.5029820  68.9458340  36.3280760  51.8309390
  67.7175720  37.2087440  51.9185470  65.5379510  39.8025140  51.7267790
  66.0364760  40.2770960  52.3919640  65.6802460  38.8788660  51.9337820
  67.9439010  35.1079100  45.1671050  67.8206790  35.1265230  44.2180560
  68.8923570  35.1558040  45.2869450  62.1158600  36.6913520  41.1025970
  62.9649130  37.1283670  41.0366160  61.7489870  37.0033780  41.9298030
  72.7446370  36.0193100  52.5696180  72.2419970  36.7598500  52.9089990
  73.5603030  36.4077100  52.2532970  71.0368380  41.2626280  46.0157540
  70.0958520  41.2776510  46.1905230  71.3512450  40.4762240  46.4617840
  73.0393960  48.4335130  47.6911800  73.1641380  49.2566300  48.1635610
  73.9059520  48.2225860  47.3435950  59.5169770  49.7112410  56.5514510
  60.3182500  50.0324460  56.9649910  59.0021590  49.3507990  57.2734420
  68.3534400  45.8192280  56.4989920  67.7472560  45.8423880  55.7585670
  68.0488510  45.0875320  57.0357170  69.7834770  49.5472570  55.1099330
  70.7356520  49.4630590  55.0599570  69.6362990  50.2114280  55.7833120
  72.6743970  48.9266780  40.6091240  72.3885480  48.5131920  39.7945420
  72.4763520  49.8554490  40.4891760  57.2367580  42.1985870  55.4950560
  57.7406600  41.6193150  56.0666790  56.4975000  42.4826100  56.0326930
  64.2905520  43.6056860  55.0286080  63.5251190  44.1741860  54.9440750
  64.4721480  43.3133070  54.1354310  67.3793930  43.9820090  39.6538840
  66.8304030  44.4289390  40.2981580  68.0013190  43.4769340  40.1776510
  71.4328870  45.3362190  55.5861100  72.1738340  45.6737950  55.0828560
  70.6701550  45.5054250  55.0330870  59.2690660  40.3415460  56.3900630
  59.3096000  40.0429330  57.2985860  60.1236160  40.7423070  56.2308150
  61.2096470  38.9207560  54.3575120  60.6792930  38.4298510  53.7298460
  61.8784540  39.3491760  53.8233050  70.1074530  43.3877020  54.1216310
  70.5215550  43.5422100  54.9706730  69.1725530  43.5132240  54.2842090
  70.5796700  40.7273180  56.1255460  71.1617470  39.9725500  56.0375940
  70.7558470  41.2580620  55.3486940  61.6968770  35.8869930  54.4372410
  61.6025640  35.2690680  53.7123280  61.1166160  36.6136220  54.2102320
  64.4630210  34.4443170  51.4699800  64.0147510  34.4667430  50.6245350
  63.8295410  34.0462190  52.0670100  64.8689760  43.3397500  52.0912240
  65.2877870  44.1830230  51.9188480  63.9498390  43.4769540  51.8619020
  67.2053660  41.0713680  53.4750080  67.3249870  40.4754820  54.2144920
  68.0647660  41.1083370  53.0551380  69.5441560  41.6250870  52.0512590
  69.0176780  42.1493490  51.4477730  69.8872900  42.2578260  52.6822320
  61.9427950  39.0144240  38.4962300  61.7417010  38.1511600  38.8575640
  61.7720000  38.9277600  37.5583900  62.7197180  49.6450510  53.2069970
  62.1818270  50.3696570  52.8878670  62.9731140  49.1680850  52.4167310
  63.9722430  37.6135030  54.7325900  64.5622120  37.3050880  55.4203720
  63.1542670  37.1414780  54.8885800  68.7915860  37.2300840  54.9658920
  68.1031380  36.5682380  54.9008910  69.5121880  36.7839110  55.4107380
  69.4216260  33.8252470  41.0249180  69.7018550  32.9820370  41.3808600
  68.6481990  34.0575580  41.5387930  60.7410750  36.1144860  38.4840180
  61.0436650  36.1212290  37.5759330  61.4805340  35.7642720  38.9807840
  65.5759390  50.8801720  53.4656620  65.5018090  51.7836860  53.7728990
  64.6738230  50.5613620  53.4378690  63.9595680  35.0579480  39.4696380
  63.6117680  34.3803470  38.8898830  64.1608450  34.5968990  40.2839770
  73.1039070  48.5763900  53.7949180  72.5041060  48.6356460  53.0513100
  73.2332970  47.6368880  53.9246030  74.3440520  46.3181720  39.1318890
  73.5133480  46.3858370  39.6026120  74.5212350  47.2085840  38.8285750
  73.7996980  43.0629200  41.6353090  74.5615890  43.6325850  41.7412780
  73.8151350  42.4956400  42.4061400  74.8056950  43.9179300  46.4795020
  75.1765780  43.1346620  46.0730990  75.4458880  44.6068400  46.3012320
  71.7890710  45.3015880  51.8925340  70.9750550  45.7313040  52.1551130
  72.1964910  45.9134290  51.2794390  73.8516150  43.3563570  38.7925610
  74.1264990  44.2642450  38.6644830  73.6626890  43.2926100  39.7287600
  73.7481490  41.2932560  43.7855040  73.3725090  40.5260490  43.3536330
  73.0184610  41.6755260  44.2729970  73.1381110  40.4404080  53.4194560
  72.9067200  40.2116830  52.5192510  73.3985660  41.3603630  53.3739450
  57.8893250  38.8828790  54.3122510  56.9949300  38.8495550  54.6516220
  58.4290800  39.0815580  55.0773760  71.5769180  35.6660510  56.1974260
  72.4539360  35.6743910  56.5808260  71.5890020  34.9291350  55.5866610
  56.5139400  38.7966060  41.8086080  55.6103480  39.0596260  41.6337740
  56.9980020  39.0677230  41.0286040  73.0232450  39.5190050  47.0862280
  73.5469930  39.0252700  46.4552450  73.6091870  39.6540410  47.8309850
  73.2022170  39.6029920  50.6081830  72.2524880  39.5693460  50.7226820
  73.3835180  40.5130030  50.3731600  59.0566610  37.8531600  39.7180460
  59.7658310  37.4314820  39.2327740  58.3406550  37.9206830  39.0863810
  58.7040770  33.9070930  38.7583110  59.4268900  34.4479870  39.0764330
  58.9765290  33.6334350  37.8824650  72.5132420  38.7763400  43.0254690
  73.0091540  38.5434270  43.8103570  72.3148490  37.9375240  42.6092330
  58.3932960  33.1577120  48.6605730  59.0409150  32.6074500  48.2200890
  58.8134800  33.4120270  49.4821540  73.9419580  37.4124350  45.5592370
  73.8318860  37.2580390  46.4974640  74.7027170  36.8845290  45.3167780
  72.2885300  33.3518480  52.0175370  72.9257520  33.9652620  52.3834560
  72.4360190  33.3879140  51.0724600  71.8466760  50.0534480  45.4193610
  72.4425830  49.7319050  44.7428030  72.1044910  49.5806300  46.2106880
  58.1464960  33.3132790  51.4031050  57.7979780  33.7696610  52.1689230
  57.8152660  32.4189920  51.4853480  59.7529330  46.4852390  55.5684240
  59.7098960  46.1145300  56.4498700  59.8840340  47.4229960  55.7086060
  63.4535360  48.0411980  51.1693960  63.2126720  48.3086540  50.2824480
  64.3938000  48.2117710  51.2244820  65.6589780  34.5044670  54.9250470
  65.5978670  35.0966500  55.6745880  66.5990160  34.3970630  54.7800730
  68.2964340  34.1614730  54.5642760  68.9104750  34.4794020  53.9023840
  68.8413900  33.6763320  55.1838620  74.7139520  50.0606360  51.9704600
  74.2197800  50.4575230  51.2531730  74.1052810  49.4355570  52.3641880
  58.8185600  32.8408990  54.6781820  59.3668590  32.6597040  53.9147930
  58.8840910  32.0503100  55.2138130  59.5917360  49.4314640  52.6882020
  58.9977680  49.2999340  53.4272060  59.5841200  48.5952780  52.2224120
  69.0372380  32.7246870  50.8912050  68.1632220  33.0581980  50.6884980
  68.9283130  32.2520050  51.7163920  69.9444360  34.9317740  52.2753770
  69.6157720  34.1169500  51.8955500  70.8926660  34.8887550  52.1519460
  72.3978970  50.7029780  49.2491340  71.9381940  51.4545590  48.8749360
  71.7691430  49.9836250  49.1906140  66.7847200  33.6416710  49.8304960
  66.0018990  34.1162210  50.1101720  66.4910130  32.7371540  49.7218140
  71.3368270  34.3439810  47.8754050  71.7776360  34.2884910  47.0275650
  71.0675860  35.2597820  47.9464230  73.2006840  33.9755050  45.8862870
  73.1395240  33.0316270  45.7393890  73.9798870  34.0835140  46.4316330
  58.1287610  33.9464190  42.3518680  58.8866970  34.0593070  41.7782710
  57.6664780  34.7833390  42.3062110  64.6701420  36.0603460  45.3420990
  63.8575930  35.6860350  45.0016870  65.1743060  35.3048540  45.6442180
  69.1726400  32.7245910  46.5804060  69.7755770  33.2966120  47.0552580
  68.4319390  33.2885350  46.3577960  60.5012760  34.4728240  40.8920650
  61.0305520  33.6858040  40.7628600  61.1341080  35.1519430  41.1256180
  62.6950600  34.2103380  43.9466040  62.0653340  33.5090690  44.1136170
  62.1555740  34.9707510  43.7299200  65.6342550  50.8242610  56.6176650
  66.5609860  50.5886880  56.6612610  65.6192980  51.6514610  56.1362680
  73.8687610  50.3668180  43.6150900  74.0439800  49.6805920  42.9711820
  73.1709180  50.8915230  43.2227570  62.8206160  33.4887360  56.3818530
  62.5390430  33.9920960  55.6179350  63.2025860  32.6909110  56.0160660
  69.4221620  32.9040940  56.9599000  69.3087070  33.2235550  57.8550520
  70.2391360  33.3053450  56.6636280  72.2020110  50.0512470  56.4417690
  72.9945430  49.5561700  56.2343650  72.4953260  50.7302610  57.0493300
  68.3279770  40.9233410  27.3233740  68.2473820  40.0088020  27.0525450
  67.9144190  41.4200480  26.6173450  66.4597810  42.7012430  29.2043010
  65.6839910  42.2212870  29.4941580  67.1110740  42.0218080  29.0299170
  70.4805240  47.1072620  27.9842140  70.0186770  46.3359860  28.3129310
  71.2930790  47.1338690  28.4894590  58.8855590  37.9734130  23.8661160
  57.9972290  38.3150100  23.7641040  59.1696780  37.7734450  22.9741990
  56.8488600  40.5739780  29.7500860  57.4204710  39.8061980  29.7504500
  56.8490140  40.8728540  28.8407470  66.7068550  49.3930630  27.6046130
  66.0879990  49.8488130  27.0340570  67.5620330  49.5482090  27.2035830
  65.9006800  45.3769620  29.2113170  65.8315080  44.4359560  29.0502300
  66.6626660  45.4671030  29.7835740  58.0913470  35.9824140  31.5369790
  57.9116310  35.0849890  31.8172550  57.6893550  36.5296010  32.2116740
  66.9311970  38.1840000  29.4382100  67.3076790  37.3111880  29.3255770
  66.8331480  38.5198700  28.5472540  61.0616980  36.5565630  24.8999540
  61.1683730  37.4569360  25.2068300  60.1509340  36.5083600  24.6094190
  58.7100140  38.4784640  30.1452130  59.3910250  38.7423010  30.7639530
  58.3948190  37.6385510  30.4790140  62.9024710  39.5252000  29.2324720
  63.4102930  40.0232970  29.8729740  63.4337950  38.7487200  29.0564080
  61.1860810  34.1650560  33.4988140  61.1879250  34.6822950  32.6934040
  60.3565120  33.6880740  33.4758070  67.5731900  44.2769870  24.9978040
  66.9549170  44.7419320  24.4340760  68.0855150  44.9697350  25.4147550
  60.8676140  35.8760520  31.5058590  61.2092950  36.7202570  31.2112460
  59.9291950  36.0244260  31.6223930  56.9415100  44.9626400  22.3717670
  56.5643080  45.4513500  21.6402570  57.1988170  45.6351680  23.0024200
  72.5660350  47.2365950  31.4065460  71.8823870  47.9065060  31.3982130
  73.1054640  47.4346600  30.6410320  64.5504030  33.3642790  27.8303180
  64.8579010  32.8089680  27.1138680  63.6204730  33.4987250  27.6476170
  70.1019090  49.0810080  30.1210640  70.1146250  48.6772370  29.2532900
  69.5494310  49.8557370  30.0172070  71.3964510  45.8026300  25.2100810
  71.2860840  44.8600630  25.3350230  71.3932760  46.1641940  26.0963570
  69.5004530  43.9839920  31.4493250  69.9173320  43.7700030  30.6146710
  70.2244350  44.2412710  32.0201870  66.9384790  41.4291620  24.5663300
  66.0114070  41.3629000  24.7951770  67.0909610  42.3671750  24.4518540
  66.9253870  37.7008620  21.5630460  65.9857540  37.8622580  21.6482920
  67.2437130  38.4194300  21.0166450  73.4466630  42.3827140  31.5409490
  72.6185260  42.4520230  31.0659620  74.0417110  42.9681450  31.0725320
  70.9682080  42.9911920  25.0698550  70.3494500  42.6531470  24.4224850
  70.9506530  42.3471680  25.7777740  70.4108640  39.1696460  32.4864360
  69.9979820  39.9950170  32.7404350  69.6784590  38.5841500  32.2940720
  62.5441430  41.9556360  27.3483030  62.1398430  41.2433610  26.8528930
  62.6304550  41.6109600  28.2371070  63.0123130  45.6423920  29.5122240
  62.7151420  45.0369390  28.8330020  63.9622950  45.6801230  29.4011600
  61.2570050  38.7299570  31.1282070  61.8084640  38.8394910  30.3535320
  61.7713560  39.1037170  31.8437300  71.1008740  49.2155790  33.1745340
  70.6239300  50.0227980  32.9817950  70.4170530  48.5634120  33.3271550
  69.1446780  42.2298730  22.0771300  69.5840060  41.3921160  21.9309120
  69.8575200  42.8628130  22.1635440  67.2542160  47.1694800  26.0452540
  67.6938070  47.9119130  25.6307930  67.1929050  47.4121370  26.9691500
  72.7263920  33.4841540  20.3912340  72.4136580  33.5768370  21.2911410
  73.4876390  34.0622570  20.3409770  59.2446060  40.8501340  24.8489680
  59.1243660  41.5763430  24.2370950  58.9346950  40.0804250  24.3717590
  74.6807950  48.9767730  38.2436730  75.1567670  49.4550620  38.9225810
  75.3015110  48.9085220  37.5182230  58.1279060  45.7216670  27.0664500
  57.7207140  45.8631260  26.2118100  59.0192070  45.4376830  26.8635710
  74.0841200  46.1680580  35.4036740  74.2104260  45.9292460  34.4853920
  74.1262580  45.3365120  35.8758820  69.9212340  50.1563920  23.4015550
  69.7613480  49.8666860  24.2997380  69.7559050  49.3804050  22.8660780
  62.4000720  49.9362450  25.1787170  62.2243200  49.0197990  24.9654970
  61.5456460  50.2949740  25.4184970  69.6238470  47.6651480  21.9613550
  68.9303630  47.6628770  21.3015830  70.3661330  47.2410800  21.5307720
  69.1888400  49.2914190  26.0362040  69.6445350  48.5103570  26.3500660
  69.5280920  50.0021010  26.5803220  61.7109720  34.1936410  28.2313350
  61.2677870  34.9745950  27.8997870  62.2694710  34.5166300  28.9384290
  65.9979530  37.0604930  33.8348670  65.5358900  37.2687950  34.6468610
  65.5957640  36.2464280  33.5319340  68.0933750  39.7815630  37.0644120
  68.4187160  38.9479380  36.7246350  68.8814080  40.3044150  37.2122450
  64.8268540  33.8147110  23.1119180  64.2022720  33.8106980  23.8372490
  64.7398660  32.9478070  22.7155150  63.7485620  34.7383740  30.0902950
  64.0457950  35.6446570  30.0094970  64.2971180  34.2502520  29.4762520
  61.5023940  39.3169980  25.9594600  61.2764860  39.1007150  26.8641220
  60.7216470  39.7498440  25.6140570  68.7321700  39.3233350  24.5585250
  68.1330590  40.0469150  24.3748870  69.2801310  39.2610130  23.7761700
  67.3386570  37.9596890  26.5888530  67.7316140  38.2769090  25.7757220
  67.7003420  37.0808770  26.7033050  59.0733690  36.6269230  34.7788650
  58.6797080  37.4744440  34.9861430  58.3852090  35.9895600  34.9697290
  65.6478740  36.7104200  37.8485390  64.9577060  36.5176400  38.4831480
  66.3911040  36.9938840  38.3809690  56.3750740  34.5497690  28.8118730
  56.0863790  35.1200550  29.5243710  57.1196500  34.0702140  29.1749960
  56.5620970  38.4917810  20.0221450  56.4795640  39.4348570  20.1636440
  56.2104030  38.3492720  19.1433800  67.9241710  40.5502640  30.6839310
  67.1922830  41.0589450  31.0329410  67.5266050  39.7332620  30.3828090
  64.3619100  37.2256840  29.0891800  64.3655160  36.7846790  28.2396340
  65.2570220  37.5474170  29.1963620  60.2121480  37.1083330  28.0486010
  59.8721530  37.5858560  28.8053060  59.4498800  36.6548450  27.6887110
  64.4239250  38.2268920  22.0798560  64.5452070  38.1855400  23.0284380
  64.0387760  39.0893070  21.9245290  63.4360750  40.5370060  21.4781860
  62.8677650  40.0888310  20.8517770  64.1449750  40.8962840  20.9447010
  64.6627070  41.2858620  30.8357210  65.0297200  40.8117190  31.5818550
  64.4732130  42.1600190  31.1765550  57.5267560  36.0302310  26.9650680
  57.2414480  35.6657980  27.8029300  57.4646420  35.2982770  26.3513820
  62.4526440  40.3267260  33.1541420  62.1483510  41.2059240  33.3791780
  63.4072900  40.3867050  33.1898860  60.9808230  44.5328250  23.7508270
  60.2070490  43.9925870  23.5906990  61.7102860  44.0134860  23.4126030
  71.7396210  43.5293610  29.5434660  72.4595330  44.0248900  29.1530770
  71.5378030  42.8511500  28.8988530  67.2006150  34.9231570  23.6864050
  66.3870760  34.4244740  23.6109360  67.0068100  35.7629820  23.2700400
  69.9154540  39.2951220  21.9826210  70.8034160  39.6068450  21.8077550
  69.8859630  38.4223470  21.5906790  61.0245630  44.2008630  27.3887080
  61.5424300  43.3976890  27.3343970  60.5729650  44.1387770  28.2303910
  65.9115130  45.4674910  22.6614380  66.2530830  46.2117140  22.1657700
  65.0827840  45.7806030  23.0239210  72.1868810  40.6063060  21.4506070
  72.1032530  41.0377280  20.6002510  72.9063000  41.0661410  21.8832890
  73.2642950  43.0630580  34.5276040  72.5391140  43.6559360  34.3305430
  73.7918410  43.0554120  33.7289410  73.2156060  47.4605320  24.1788200
  72.5732220  46.8060940  24.4531920  72.8286720  47.8660410  23.4028870
  68.7942540  44.7890750  28.0259890  69.1466360  44.1918880  27.3661260
  67.9104870  44.4634980  28.1968140  64.8805820  45.5488440  25.4330300
  65.5676950  46.0957650  25.8137890  64.0938240  46.0929170  25.4679910
  57.0198220  41.1661260  20.9247380  57.8893070  41.4486060  21.2083300
  56.5288540  41.9797130  20.8096190  64.1833030  42.5534470  25.0455660
  64.6395810  43.3639720  25.2715850  63.8321240  42.2357610  25.8774150
  60.0844810  32.8972120  25.5178180  59.9559440  32.8890020  26.4663100
  59.2606830  33.2355210  25.1669190  71.6053440  46.3521780  20.7164550
  71.3791020  45.6352220  21.3089190  71.2149640  46.1034220  19.8786300
  57.3869470  50.3788640  21.4909010  57.7467110  50.9777980  20.8366280
  57.2461810  50.9248530  22.2644040  57.0838740  34.6563240  34.9784880
  56.3697260  34.8560160  35.5837490  57.5033780  33.8802810  35.3499680
  71.1869690  44.2693720  22.3778710  70.8991390  44.7306410  23.1656590
  71.9821860  43.8091490  22.6462930  63.4038090  47.7619840  22.3082680
  63.3948190  48.4949530  21.6927190  62.4836450  47.5151420  22.4009640
  59.0044730  42.9834730  23.0529440  58.3972680  43.7233630  23.0624740
  59.4794080  43.0734090  22.2267640  71.9439550  36.1042490  23.5373890
  71.3152710  36.2088160  22.8232120  71.4491470  36.3239270  24.3267770
  66.3897690  47.8248080  20.9707870  66.4909670  47.6212070  20.0409850
  65.4899430  47.5706360  21.1755650  63.9123580  38.3828440  24.9531770
  63.2039730  38.8514780  25.3945380  64.1968060  37.7250450  25.5876960
  67.9439010  35.1079100  26.3927560  67.8206790  35.1265230  25.4437070
  68.8923570  35.1558040  26.5125960  65.0315800  50.3434400  25.6655540
  65.2857300  50.3055790  24.7434910  64.0828280  50.2167730  25.6583790
  62.1158600  36.6913520  22.3282480  62.9649130  37.1283670  22.2622670
  61.7489870  37.0033780  23.1554540  61.0150020  42.9445880  20.8018010
  61.7813290  42.8327240  21.3643440  61.0924710  42.2483850  20.1494780
  59.7096780  40.3770950  21.4850900  59.7900370  39.4298460  21.5968300
  60.6016530  40.7077830  21.5911560  73.0393960  48.4335130  28.9168310
  73.1641380  49.2566300  29.3892120  73.9059520  48.2225860  28.5692460
  60.5111490  50.5266340  28.5885440  61.2473970  49.9781800  28.8594010
  60.8952410  51.3922350  28.4491430  57.3956970  46.5939910  24.4626950
  56.4696750  46.8361050  24.4532360  57.8613400  47.4214170  24.3411700
  63.6213800  49.6996650  20.4111010  64.4142410  49.9885480  19.9592800
  63.1018150  49.2688820  19.7323490  72.6743970  48.9266780  21.8347750
  72.3885480  48.5131920  21.0201930  72.4763520  49.8554490  21.7148270
  64.1391200  44.9200060  20.2753360  64.0341840  44.3052410  21.0014740
  63.9715420  44.3965950  19.4916370  67.3793930  43.9820090  20.8795350
  66.8304030  44.4289390  21.5238090  68.0013190  43.4769340  21.4033020
  71.4328870  45.3362190  36.8117610  72.1738340  45.6737950  36.3085070
  70.6701550  45.5054250  36.2587380  63.0469050  42.9411010  22.7760650
  63.4685470  42.7750880  23.6192040  63.1719890  42.1311240  22.2815790
  65.5596690  41.9648620  20.0237750  66.0802350  41.2497640  19.6578900
  66.2065090  42.6034490  20.3238260  70.1074530  43.3877020  35.3472820
  70.5215550  43.5422100  36.1963240  69.1725530  43.5132240  35.5098600
  70.5796700  40.7273180  37.3511970  71.1617470  39.9725500  37.2632450
  70.7558470  41.2580620  36.5743450  61.6968770  35.8869930  35.6628920
  61.6025640  35.2690680  34.9379790  61.1166160  36.6136220  35.4358830
  64.4630210  34.4443170  32.6956310  64.0147510  34.4667430  31.8501860
  63.8295410  34.0462190  33.2926610  61.9427950  39.0144240  19.7218810
  61.7417010  38.1511600  20.0832150  61.7720000  38.9277600  18.7840410
  63.9722430  37.6135030  35.9582410  64.5622120  37.3050880  36.6460230
  63.1542670  37.1414780  36.1142310  68.7915860  37.2300840  36.1915430
  68.1031380  36.5682380  36.1265420  69.5121880  36.7839110  36.6363890
  69.4216260  33.8252470  22.2505690  69.7018550  32.9820370  22.6065110
  68.6481990  34.0575580  22.7644440  60.7410750  36.1144860  19.7096690
  61.0436650  36.1212290  18.8015840  61.4805340  35.7642720  20.2064350
  63.9595680  35.0579480  20.6952890  63.6117680  34.3803470  20.1155340
  64.1608450  34.5968990  21.5096280  66.1244720  50.0460230  22.3139490
  67.0195510  50.3845200  22.3358250  66.1562350  49.3239640  21.6863770
  59.7640880  45.4187280  20.5426490  60.2015750  45.9616950  21.1984070
  60.2488610  44.5934230  20.5522830  56.9786680  48.2076310  27.9946750
  57.3089690  47.3397370  27.7625390  57.4077680  48.4134830  28.8251710
  61.5748600  46.5385320  25.6548720  61.2744140  46.4150290  26.5552630
  61.4686090  45.6793910  25.2464450  57.4676890  49.0746900  30.7328380
  57.0307880  49.2547700  31.5652530  58.0354570  49.8321520  30.5910100
  73.1039070  48.5763900  35.0205690  72.5041060  48.6356460  34.2769610
  73.2332970  47.6368880  35.1502540  74.3440520  46.3181720  20.3575400
  73.5133480  46.3858370  20.8282630  74.5212350  47.2085840  20.0542260
  73.7996980  43.0629200  22.8609600  74.5615890  43.6325850  22.9669290
  73.8151350  42.4956400  23.6317910  57.3001320  41.5867130  27.0917260
  56.6450160  41.3178770  26.4476960  58.1379270  41.4771610  26.6419240
  74.8056950  43.9179300  27.7051530  75.1765780  43.1346620  27.2987500
  75.4458880  44.6068400  27.5268830  71.7890710  45.3015880  33.1181850
  70.9750550  45.7313040  33.3807640  72.1964910  45.9134290  32.5050900
  73.8516150  43.3563570  20.0182120  74.1264990  44.2642450  19.8901340
  73.6626890  43.2926100  20.9544110  70.2491760  36.3808420  21.3135750
  70.6676640  36.1939400  20.4732410  69.9427820  35.5287470  21.6238680
  73.7481490  41.2932560  25.0111550  73.3725090  40.5260490  24.5792840
  73.0184610  41.6755260  25.4986480  73.1381110  40.4404080  34.6451070
  72.9067200  40.2116830  33.7449020  73.3985660  41.3603630  34.5995960
  57.8893250  38.8828790  35.5379020  56.9949300  38.8495550  35.8772730
  58.4290800  39.0815580  36.3030270  56.5139400  38.7966060  23.0342590
  55.6103480  39.0596260  22.8594250  56.9980020  39.0677230  22.2542550
  59.0566610  37.8531600  20.9436970  59.7658310  37.4314820  20.4584250
  58.3406550  37.9206830  20.3120320  58.7040770  33.9070930  19.9839620
  59.4268900  34.4479870  20.3020840  58.9765290  33.6334350  19.1081160
  58.3932960  33.1577120  29.8862240  59.0409150  32.6074500  29.4457400
  58.8134800  33.4120270  30.7078050  74.8309850  35.2432270  20.0255020
  75.7559160  35.1113450  19.8173310  74.8085640  35.3225090  20.9791470
  71.8466760  50.0534480  26.6450120  72.4425830  49.7319050  25.9684540
  72.1044910  49.5806300  27.4363390  58.1464960  33.3132790  32.6287560
  57.7979780  33.7696610  33.3945740  57.8152660  32.4189920  32.7109990
  65.6589780  34.5044670  36.1506980  65.5978670  35.0966500  36.9002390
  66.5990160  34.3970630  36.0057240  68.2964340  34.1614730  35.7899270
  68.9104750  34.4794020  35.1280350  68.8413900  33.6763320  36.4095130
  74.7139520  50.0606360  33.1961110  74.2197800  50.4575230  32.4788240
  74.1052810  49.4355570  33.5898390  58.8185600  32.8408990  35.9038330
  59.3668590  32.6597040  35.1404440  58.8840910  32.0503100  36.4394640
  69.0372380  32.7246870  32.1168560  68.1632220  33.0581980  31.9141490
  68.9283130  32.2520050  32.9420430  72.3978970  50.7029780  30.4747850
  71.9381940  51.4545590  30.1005870  71.7691430  49.9836250  30.4162650
  62.8274690  49.0118020  29.6495980  63.3439710  48.4005380  29.1244240
  63.4772070  49.5146800  30.1406990  65.5670190  49.9026510  30.4764960
  65.8548000  49.6480810  29.5997970  66.0793410  49.3503870  31.0670530
  66.7847200  33.6416710  31.0561470  66.0018990  34.1162210  31.3358230
  66.4910130  32.7371540  30.9474650  57.5059590  50.1147410  26.0743330
  57.3381630  49.4818090  26.7725220  56.6394100  50.3206810  25.7237520
  58.1287610  33.9464190  23.5775190  58.8866970  34.0593070  23.0039220
  57.6664780  34.7833390  23.5318620  64.6701420  36.0603460  26.5677500
  63.8575930  35.6860350  26.2273380  65.1743060  35.3048540  26.8698690
  69.1726400  32.7245910  27.8060570  69.7755770  33.2966120  28.2809090
  68.4319390  33.2885350  27.5834470  72.3161000  33.1267470  23.0800850
  72.5111630  34.0250920  23.3468280  71.5290870  32.8954550  23.5733800
  59.1122290  48.8080640  23.5193470  58.5869910  49.1888670  22.8155430
  59.0366870  49.4331410  24.2403180  60.5012760  34.4728240  22.1177160
  61.0305520  33.6858040  21.9885110  61.1341080  35.1519430  22.3512690
  62.6950600  34.2103380  25.1722550  62.0653340  33.5090690  25.3392680
  62.1555740  34.9707510  24.9555710  73.8687610  50.3668180  24.8407410
  74.0439800  49.6805920  24.1968330  73.1709180  50.8915230  24.4484080
  62.8206160  33.4887360  37.6075040  62.5390430  33.9920960  36.8435860
  63.2025860  32.6909110  37.2417170  61.7115260  50.7563020  22.3942720
  62.4434080  50.4722300  21.8466610  61.9708930  50.5176300  23.2842100
  60.8730050  46.8727750  22.3989050  60.2438930  47.3412850  22.9474880
  60.9877880  46.0276970  22.8335240  69.4221620  32.9040940  38.1855510
  69.3087070  33.2235550  39.0807030  70.2391360  33.3053450  37.8892790
  72.2020110  50.0512470  37.6674200  72.9945430  49.5561700  37.4600160
  72.4953260  50.7302610  38.2749810  68.3279770  40.9233410   8.5490250
  68.2473820  40.0088020   8.2781960  67.9144190  41.4200480   7.8429960
  66.4597810  42.7012430  10.4299520  65.6839910  42.2212870  10.7198090
  67.1110740  42.0218080  10.2555680  60.4763640  43.0132240  11.3075280
  59.6448520  42.7580950  11.7071790  61.0844620  43.0843010  12.0433200
  70.4805240  47.1072620   9.2098650  70.0186770  46.3359860   9.5385820
  71.2930790  47.1338690   9.7151100  60.4564900  47.0472330  11.5033300
  60.7592940  46.1570070  11.3243520  61.2008490  47.6042550  11.2755550
  58.8855590  37.9734130   5.0917670  57.9972290  38.3150100   4.9897550
  59.1696780  37.7734450   4.1998500  56.8488600  40.5739780  10.9757370
  57.4204710  39.8061980  10.9761010  56.8490140  40.8728540  10.0663980
  66.7068550  49.3930630   8.8302640  66.0879990  49.8488130   8.2597080
  67.5620330  49.5482090   8.4292340  65.9006800  45.3769620  10.4369680
  65.8315080  44.4359560  10.2758810  66.6626660  45.4671030  11.0092250
  58.0913470  35.9824140  12.7626300  57.9116310  35.0849890  13.0429060
  57.6893550  36.5296010  13.4373250  66.9311970  38.1840000  10.6638610
  67.3076790  37.3111880  10.5512280  66.8331480  38.5198700   9.7729050
  61.0616980  36.5565630   6.1256050  61.1683730  37.4569360   6.4324810
  60.1509340  36.5083600   5.8350700  70.7136090  35.6790440   7.5966950
  71.5345710  35.1887010   7.6392430  70.7470170  36.2688100   8.3498790
  58.7100140  38.4784640  11.3708640  59.3910250  38.7423010  11.9896040
  58.3948190  37.6385510  11.7046650  62.9024710  39.5252000  10.4581230
  63.4102930  40.0232970  11.0986250  63.4337950  38.7487200  10.2820590
  75.0035640  37.6957190  14.1610580  74.2987810  38.0838900  13.6425690
  75.2693560  38.3907480  14.7631510  61.1860810  34.1650560  14.7244650
  61.1879250  34.6822950  13.9190550  60.3565120  33.6880740  14.7014580
  67.5731900  44.2769870   6.2234550  66.9549170  44.7419320   5.6597270
  68.0855150  44.9697350   6.6404060  62.4363660  43.8045740  12.9018150
  62.1033040  44.4314660  13.5439220  62.6130340  44.3307620  12.1219820
  70.9497570  37.6190820  10.3694490  70.2453140  37.9075710  10.9497600
  71.3109730  38.4290930  10.0094050  60.8676140  35.8760520  12.7315100
  61.2092950  36.7202570  12.4368970  59.9291950  36.0244260  12.8480440
  61.6482760  45.7726540  14.7167330  62.2656760  46.4477620  14.4351780
  60.7875880  46.1814520  14.6254830  56.9415100  44.9626400   3.5974180
  56.5643080  45.4513500   2.8659080  57.1988170  45.6351680   4.2280710
  72.5660350  47.2365950  12.6321970  71.8823870  47.9065060  12.6238640
  73.1054640  47.4346600  11.8666830  74.0184490  37.0645610  10.7603700
  73.0709400  37.0984590  10.8919130  74.3434480  37.8784560  11.1453060
  64.5504030  33.3642790   9.0559690  64.8579010  32.8089680   8.3395190
  63.6204730  33.4987250   8.8732680  70.1019090  49.0810080  11.3467150
  70.1146250  48.6772370  10.4789410  69.5494310  49.8557370  11.2428580
  71.3964510  45.8026300   6.4357320  71.2860840  44.8600630   6.5606740
  71.3932760  46.1641940   7.3220080  69.5004530  43.9839920  12.6749760
  69.9173320  43.7700030  11.8403220  70.2244350  44.2412710  13.2458380
  66.9384790  41.4291620   5.7919810  66.0114070  41.3629000   6.0208280
  67.0909610  42.3671750   5.6775050  66.9253870  37.7008620   2.7886970
  65.9857540  37.8622580   2.8739430  67.2437130  38.4194300   2.2422960
  73.4466630  42.3827140  12.7666000  72.6185260  42.4520230  12.2916130
  74.0417110  42.9681450  12.2981830  70.9682080  42.9911920   6.2955060
  70.3494500  42.6531470   5.6481360  70.9506530  42.3471680   7.0034250
  70.4108640  39.1696460  13.7120870  69.9979820  39.9950170  13.9660860
  69.6784590  38.5841500  13.5197230  62.5441430  41.9556360   8.5739540
  62.1398430  41.2433610   8.0785440  62.6304550  41.6109600   9.4627580
  63.0123130  45.6423920  10.7378750  62.7151420  45.0369390  10.0586530
  63.9622950  45.6801230  10.6268110  61.2570050  38.7299570  12.3538580
  61.8084640  38.8394910  11.5791830  61.7713560  39.1037170  13.0693810
  71.1008740  49.2155790  14.4001850  70.6239300  50.0227980  14.2074460
  70.4170530  48.5634120  14.5528060  62.1041560  45.3805610  17.3886550
  61.2070090  45.6045580  17.6359950  62.1294430  45.5040550  16.4397950
  69.1446780  42.2298730   3.3027810  69.5840060  41.3921160   3.1565630
  69.8575200  42.8628130   3.3891950  60.9312780  42.2518930  15.9643920
  60.7920550  43.1241730  16.3331320  60.0494140  41.9091740  15.8191860
  67.2542160  47.1694800   7.2709050  67.6938070  47.9119130   6.8564440
  67.1929050  47.4121370   8.1948010  62.7293130  48.1940630  18.1729070
  62.7008560  48.5983580  17.3057500  62.5658100  47.2650990  18.0100670
  59.2446060  40.8501340   6.0746190  59.1243660  41.5763430   5.4627460
  58.9346950  40.0804250   5.5974100  74.6807950  48.9767730  19.4693240
  75.1567670  49.4550620  20.1482320  75.3015110  48.9085220  18.7438740
  56.8831430  44.0216480  11.8814830  56.9611850  44.1565250  10.9370550
  57.4973110  43.3132370  12.0742950  58.1279060  45.7216670   8.2921010
  57.7207140  45.8631260   7.4374610  59.0192070  45.4376830   8.0892220
  74.0841200  46.1680580  16.6293250  74.2104260  45.9292460  15.7110430
  74.1262580  45.3365120  17.1015330  67.9457940  49.8708580  15.1988060
  68.4602610  49.7816590  16.0010490  67.1027020  50.2168280  15.4915970
  69.9212340  50.1563920   4.6272060  69.7613480  49.8666860   5.5253890
  69.7559050  49.3804050   4.0917290  62.4000720  49.9362450   6.4043680
  62.2243200  49.0197990   6.1911480  61.5456460  50.2949740   6.6441480
  69.6238470  47.6651480   3.1870060  68.9303630  47.6628770   2.5272340
  70.3661330  47.2410800   2.7564230  69.1888400  49.2914190   7.2618550
  69.6445350  48.5103570   7.5757170  69.5280920  50.0021010   7.8059730
  73.9365210  38.2213040  17.5942990  73.3209480  38.7292710  17.0658450
  73.6161630  37.3211370  17.5368930  56.9390950  45.0630650  14.4209290
  57.1021990  44.5936010  13.6028660  57.4043400  44.5554210  15.0858130
  61.7109720  34.1936410   9.4569860  61.2677870  34.9745950   9.1254380
  62.2694710  34.5166300  10.1640800  65.9979530  37.0604930  15.0605180
  65.5358900  37.2687950  15.8725120  65.5957640  36.2464280  14.7575850
  70.9984040  38.2813880  16.1901840  70.1477630  37.9819630  16.5110910
  70.8385830  38.5255890  15.2785660  68.0933750  39.7815630  18.2900630
  68.4187160  38.9479380  17.9502860  68.8814080  40.3044150  18.4378960
  64.8268540  33.8147110   4.3375690  64.2022720  33.8106980   5.0629000
  64.7398660  32.9478070   3.9411660  63.7485620  34.7383740  11.3159460
  64.0457950  35.6446570  11.2351480  64.2971180  34.2502520  10.7019030
  61.5023940  39.3169980   7.1851110  61.2764860  39.1007150   8.0897730
  60.7216470  39.7498440   6.8397080  68.7321700  39.3233350   5.7841760
  68.1330590  40.0469150   5.6005380  69.2801310  39.2610130   5.0018210
  63.9423150  40.2155560  17.8511380  63.8466750  39.2750290  17.7011780
  64.7855130  40.4370630  17.4559450  67.3386570  37.9596890   7.8145040
  67.7316140  38.2769090   7.0013730  67.7003420  37.0808770   7.9289560
  59.0733690  36.6269230  16.0045160  58.6797080  37.4744440  16.2117940
  58.3852090  35.9895600  16.1953800  65.6478740  36.7104200  19.0741900
  64.9577060  36.5176400  19.7087990  66.3911040  36.9938840  19.6066200
  56.3750740  34.5497690  10.0375240  56.0863790  35.1200550  10.7500220
  57.1196500  34.0702140  10.4006470  67.9241710  40.5502640  11.9095820
  67.1922830  41.0589450  12.2585920  67.5266050  39.7332620  11.6084600
  64.3619100  37.2256840  10.3148310  64.3655160  36.7846790   9.4652850
  65.2570220  37.5474170  10.4220130  60.2121480  37.1083330   9.2742520
  59.8721530  37.5858560  10.0309570  59.4498800  36.6548450   8.9143620
  64.4239250  38.2268920   3.3055070  64.5452070  38.1855400   4.2540890
  64.0387760  39.0893070   3.1501800  68.3867620  36.0036320  11.3218760
  68.4040360  36.4544970  12.1660610  68.1383200  35.1041960  11.5352200
  63.4360750  40.5370060   2.7038370  62.8677650  40.0888310   2.0774280
  64.1449750  40.8962840   2.1703520  71.8138370  33.4168500  17.1605140
  72.1384140  32.6858160  17.6863120  71.8494880  33.0982140  16.2586130
  58.5129930  44.4382080  16.5805100  58.1284720  43.7975750  17.1788060
  58.8242120  45.1418200  17.1499830  64.6627070  41.2858620  12.0613720
  65.0297200  40.8117190  12.8075060  64.4732130  42.1600190  12.4022060
  57.5267560  36.0302310   8.1907190  57.2414480  35.6657980   9.0285810
  57.4646420  35.2982770   7.5770330  62.4526440  40.3267260  14.3797930
  62.1483510  41.2059240  14.6048290  63.4072900  40.3867050  14.4155370
  60.9808230  44.5328250   4.9764780  60.2070490  43.9925870   4.8163500
  61.7102860  44.0134860   4.6382540  71.7396210  43.5293610  10.7691170
  72.4595330  44.0248900  10.3787280  71.5378030  42.8511500  10.1245040
  67.2006150  34.9231570   4.9120560  66.3870760  34.4244740   4.8365870
  67.0068100  35.7629820   4.4956910  67.1215010  43.6002670  16.6560170
  67.0552320  42.6798340  16.4017760  66.4920150  43.6978110  17.3704810
  69.9154540  39.2951220   3.2082720  70.8034160  39.6068450   3.0334060
  69.8859630  38.4223470   2.8163300  61.0245630  44.2008630   8.6143590
  61.5424300  43.3976890   8.5600480  60.5729650  44.1387770   9.4560420
  65.9115130  45.4674910   3.8870890  66.2530830  46.2117140   3.3914210
  65.0827840  45.7806030   4.2495720  58.5090170  41.1670000  15.5269290
  58.1505110  41.8323850  16.1142630  58.2144730  40.3353550  15.8981910
  61.7103290  41.6254240  18.4108840  61.4103430  41.7711420  17.5136660
  62.4814530  41.0659530  18.3182230  67.0531740  46.4223240  16.4063970
  67.0676280  45.4904200  16.1882880  66.3456840  46.5083000  17.0453740
  72.1868810  40.6063060   2.6762580  72.1032530  41.0377280   1.8259020
  72.9063000  41.0661410   3.1089400  73.2642950  43.0630580  15.7532550
  72.5391140  43.6559360  15.5561940  73.7918410  43.0554120  14.9545920
  73.2156060  47.4605320   5.4044710  72.5732220  46.8060940   5.6788430
  72.8286720  47.8660410   4.6285380  68.7942540  44.7890750   9.2516400
  69.1466360  44.1918880   8.5917770  67.9104870  44.4634980   9.4224650
  64.8805820  45.5488440   6.6586810  65.5676950  46.0957650   7.0394400
  64.0938240  46.0929170   6.6936420  57.0198220  41.1661260   2.1503890
  57.8893070  41.4486060   2.4339810  56.5288540  41.9797130   2.0352700
  64.1833030  42.5534470   6.2712170  64.6395810  43.3639720   6.4972360
  63.8321240  42.2357610   7.1030660  66.4865640  48.0640810  13.5004470
  67.1307860  48.2700190  14.1777890  66.8495080  47.3029210  13.0475320
  60.0844810  32.8972120   6.7434690  59.9559440  32.8890020   7.6919610
  59.2606830  33.2355210   6.3925700  67.7597720  46.0673160  12.2181920
  68.4019950  45.3666320  12.3314090  68.2847070  46.8471600  12.0378810
  69.5335340  46.8668060  15.4217980  69.8691580  47.4534750  16.0995900
  68.6135680  46.7360770  15.6515770  57.3869470  50.3788640   2.7165520
  57.7467110  50.9777980   2.0622790  57.2461810  50.9248530   3.4900550
  57.0838740  34.6563240  16.2041390  56.3697260  34.8560160  16.8094000
  57.5033780  33.8802810  16.5756190  71.1869690  44.2693720   3.6035220
  70.8991390  44.7306410   4.3913100  71.9821860  43.8091490   3.8719440
  57.3711330  48.6443500  17.1907920  57.4802450  47.7038240  17.0503310
  56.7191890  48.9098250  16.5421650  65.3623920  46.9159390  18.5906040
  65.0420790  46.1968630  19.1351730  64.6882280  47.5914460  18.6642100
  63.4038090  47.7619840   3.5339190  63.3948190  48.4949530   2.9183700
  62.4836450  47.5151420   3.6266150  59.0044730  42.9834730   4.2785950
  58.3972680  43.7233630   4.2881250  59.4794080  43.0734090   3.4524150
  68.5777520  37.1485550  13.9542840  68.9458340  36.3280760  14.2822410
  67.7175720  37.2087440  14.3698490  71.9439550  36.1042490   4.7630400
  71.3152710  36.2088160   4.0488630  71.4491470  36.3239270   5.5524280
  63.9123580  38.3828440   6.1788280  63.2039730  38.8514780   6.6201890
  64.1968060  37.7250450   6.8133470  65.5379510  39.8025140  14.1780810
  66.0364760  40.2770960  14.8432660  65.6802460  38.8788660  14.3850840
  67.9439010  35.1079100   7.6184070  67.8206790  35.1265230   6.6693580
  68.8923570  35.1558040   7.7382470  65.0315800  50.3434400   6.8912050
  65.2857300  50.3055790   5.9691420  64.0828280  50.2167730   6.8840300
  62.1158600  36.6913520   3.5538990  62.9649130  37.1283670   3.4879180
  61.7489870  37.0033780   4.3811050  72.7446370  36.0193100  15.0209200
  72.2419970  36.7598500  15.3603010  73.5603030  36.4077100  14.7045990
  71.0368380  41.2626280   8.4670560  70.0958520  41.2776510   8.6418250
  71.3512450  40.4762240   8.9130860  59.7096780  40.3770950   2.7107410
  59.7900370  39.4298460   2.8224810  60.6016530  40.7077830   2.8168070
  73.0393960  48.4335130  10.1424820  73.1641380  49.2566300  10.6148630
  73.9059520  48.2225860   9.7948970  60.5111490  50.5266340   9.8141950
  61.2473970  49.9781800  10.0850520  60.8952410  51.3922350   9.6747940
  57.3956970  46.5939910   5.6883460  56.4696750  46.8361050   5.6788870
  57.8613400  47.4214170   5.5668210  59.5169770  49.7112410  19.0027530
  60.3182500  50.0324460  19.4162930  59.0021590  49.3507990  19.7247440
  68.3534400  45.8192280  18.9502940  67.7472560  45.8423880  18.2098690
  68.0488510  45.0875320  19.4870190  69.7834770  49.5472570  17.5612350
  70.7356520  49.4630590  17.5112590  69.6362990  50.2114280  18.2346140
  72.6743970  48.9266780   3.0604260  72.3885480  48.5131920   2.2458440
  72.4763520  49.8554490   2.9404780  57.2367580  42.1985870  17.9463580
  57.7406600  41.6193150  18.5179810  56.4975000  42.4826100  18.4839950
  64.2905520  43.6056860  17.4799100  63.5251190  44.1741860  17.3953770
  64.4721480  43.3133070  16.5867330  67.3793930  43.9820090   2.1051860
  66.8304030  44.4289390   2.7494600  68.0013190  43.4769340   2.6289530
  71.4328870  45.3362190  18.0374120  72.1738340  45.6737950  17.5341580
  70.6701550  45.5054250  17.4843890  59.2690660  40.3415460  18.8413650
  59.3096000  40.0429330  19.7498880  60.1236160  40.7423070  18.6821170
  63.0469050  42.9411010   4.0017160  63.4685470  42.7750880   4.8448550
  63.1719890  42.1311240   3.5072300  61.2096470  38.9207560  16.8088140
  60.6792930  38.4298510  16.1811480  61.8784540  39.3491760  16.2746070
  70.1074530  43.3877020  16.5729330  70.5215550  43.5422100  17.4219750
  69.1725530  43.5132240  16.7355110  70.5796700  40.7273180  18.5768480
  71.1617470  39.9725500  18.4888960  70.7558470  41.2580620  17.7999960
  61.6968770  35.8869930  16.8885430  61.6025640  35.2690680  16.1636300
  61.1166160  36.6136220  16.6615340  64.4630210  34.4443170  13.9212820
  64.0147510  34.4667430  13.0758370  63.8295410  34.0462190  14.5183120
  64.8689760  43.3397500  14.5425260  65.2877870  44.1830230  14.3701500
  63.9498390  43.4769540  14.3132040  67.2053660  41.0713680  15.9263100
  67.3249870  40.4754820  16.6657940  68.0647660  41.1083370  15.5064400
  69.5441560  41.6250870  14.5025610  69.0176780  42.1493490  13.8990750
  69.8872900  42.2578260  15.1335340  62.7197180  49.6450510  15.6582990
  62.1818270  50.3696570  15.3391690  62.9731140  49.1680850  14.8680330
  63.9722430  37.6135030  17.1838920  64.5622120  37.3050880  17.8716740
  63.1542670  37.1414780  17.3398820  68.7915860  37.2300840  17.4171940
  68.1031380  36.5682380  17.3521930  69.5121880  36.7839110  17.8620400
  69.4216260  33.8252470   3.4762200  69.7018550  32.9820370   3.8321620
  68.6481990  34.0575580   3.9900950  65.5759390  50.8801720  15.9169640
  65.5018090  51.7836860  16.2242010  64.6738230  50.5613620  15.8891710
  66.1244720  50.0460230   3.5396000  67.0195510  50.3845200   3.5614760
  66.1562350  49.3239640   2.9120280  59.7640880  45.4187280   1.7683000
  60.2015750  45.9616950   2.4240580  60.2488610  44.5934230   1.7779340
  56.9786680  48.2076310   9.2203260  57.3089690  47.3397370   8.9881900
  57.4077680  48.4134830  10.0508220  61.5748600  46.5385320   6.8805230
  61.2744140  46.4150290   7.7809140  61.4686090  45.6793910   6.4720960
  57.4676890  49.0746900  11.9584890  57.0307880  49.2547700  12.7909040
  58.0354570  49.8321520  11.8166610  73.1039070  48.5763900  16.2462200
  72.5041060  48.6356460  15.5026120  73.2332970  47.6368880  16.3759050
  73.7996980  43.0629200   4.0866110  74.5615890  43.6325850   4.1925800
  73.8151350  42.4956400   4.8574420  57.3001320  41.5867130   8.3173770
  56.6450160  41.3178770   7.6733470  58.1379270  41.4771610   7.8675750
  74.8056950  43.9179300   8.9308040  75.1765780  43.1346620   8.5244010
  75.4458880  44.6068400   8.7525340  71.7890710  45.3015880  14.3438360
  70.9750550  45.7313040  14.6064150  72.1964910  45.9134290  13.7307410
  70.2491760  36.3808420   2.5392260  70.6676640  36.1939400   1.6988920
  69.9427820  35.5287470   2.8495190  73.7481490  41.2932560   6.2368060
  73.3725090  40.5260490   5.8049350  73.0184610  41.6755260   6.7242990
  58.3377250  41.9719700  12.8577110  58.7050290  41.8847100  13.7373130
  57.7688070  41.2086250  12.7583970  73.1381110  40.4404080  15.8707580
  72.9067200  40.2116830  14.9705530  73.3985660  41.3603630  15.8252470
  57.8893250  38.8828790  16.7635530  56.9949300  38.8495550  17.1029240
  58.4290800  39.0815580  17.5286780  71.5769180  35.6660510  18.6487280
  72.4539360  35.6743910  19.0321280  71.5890020  34.9291350  18.0379630
  56.5139400  38.7966060   4.2599100  55.6103480  39.0596260   4.0850760
  56.9980020  39.0677230   3.4799060  73.0232450  39.5190050   9.5375300
  73.5469930  39.0252700   8.9065470  73.6091870  39.6540410  10.2822870
  73.2022170  39.6029920  13.0594850  72.2524880  39.5693460  13.1739840
  73.3835180  40.5130030  12.8244620  72.5132420  38.7763400   5.4767710
  73.0091540  38.5434270   6.2616590  72.3148490  37.9375240   5.0605350
  58.3932960  33.1577120  11.1118750  59.0409150  32.6074500  10.6713910
  58.8134800  33.4120270  11.9334560  73.9419580  37.4124350   8.0105390
  73.8318860  37.2580390   8.9487660  74.7027170  36.8845290   7.7680800
  72.2885300  33.3518480  14.4688390  72.9257520  33.9652620  14.8347580
  72.4360190  33.3879140  13.5237620  74.9048340  36.0142930   3.8768240
  74.1099840  35.9488050   4.4061150  75.1091620  36.9493570   3.8653590
  71.8466760  50.0534480   7.8706630  72.4425830  49.7319050   7.1941050
  72.1044910  49.5806300   8.6619900  58.1464960  33.3132790  13.8544070
  57.7979780  33.7696610  14.6202250  57.8152660  32.4189920  13.9366500
  59.7529330  46.4852390  18.0197260  59.7098960  46.1145300  18.9011720
  59.8840340  47.4229960  18.1599080  63.4535360  48.0411980  13.6206980
  63.2126720  48.3086540  12.7337500  64.3938000  48.2117710  13.6757840
  65.6589780  34.5044670  17.3763490  65.5978670  35.0966500  18.1258900
  66.5990160  34.3970630  17.2313750  68.2964340  34.1614730  17.0155780
  68.9104750  34.4794020  16.3536860  68.8413900  33.6763320  17.6351640
  74.7139520  50.0606360  14.4217620  74.2197800  50.4575230  13.7044750
  74.1052810  49.4355570  14.8154900  58.8185600  32.8408990  17.1294840
  59.3668590  32.6597040  16.3660950  58.8840910  32.0503100  17.6651150
  59.5917360  49.4314640  15.1395040  58.9977680  49.2999340  15.8785080
  59.5841200  48.5952780  14.6737140  69.0372380  32.7246870  13.3425070
  68.1632220  33.0581980  13.1398000  68.9283130  32.2520050  14.1676940
  69.9444360  34.9317740  14.7266790  69.6157720  34.1169500  14.3468520
  70.8926660  34.8887550  14.6032480  72.3978970  50.7029780  11.7004360
  71.9381940  51.4545590  11.3262380  71.7691430  49.9836250  11.6419160
  59.2229590  46.7973020  14.0903080  58.4963650  46.1778310  14.0229030
  59.2838740  47.1913630  13.2201160  62.8274690  49.0118020  10.8752490
  63.3439710  48.4005380  10.3500750  63.4772070  49.5146800  11.3663500
  65.5670190  49.9026510  11.7021470  65.8548000  49.6480810  10.8254480
  66.0793410  49.3503870  12.2927040  66.7847200  33.6416710  12.2817980
  66.0018990  34.1162210  12.5614740  66.4910130  32.7371540  12.1731160
  71.3368270  34.3439810  10.3267070  71.7776360  34.2884910   9.4788670
  71.0675860  35.2597820  10.3977250  73.2006840  33.9755050   8.3375890
  73.1395240  33.0316270   8.1906910  73.9798870  34.0835140   8.8829350
  57.5059590  50.1147410   7.2999840  57.3381630  49.4818090   7.9981730
  56.6394100  50.3206810   6.9494030  58.1287610  33.9464190   4.8031700
  58.8866970  34.0593070   4.2295730  57.6664780  34.7833390   4.7575130
  64.6701420  36.0603460   7.7934010  63.8575930  35.6860350   7.4529890
  65.1743060  35.3048540   8.0955200  69.1726400  32.7245910   9.0317080
  69.7755770  33.2966120   9.5065600  68.4319390  33.2885350   8.8090980
  72.3161000  33.1267470   4.3057360  72.5111630  34.0250920   4.5724790
  71.5290870  32.8954550   4.7990310  59.1122290  48.8080640   4.7449980
  58.5869910  49.1888670   4.0411940  59.0366870  49.4331410   5.4659690
  60.5012760  34.4728240   3.3433670  61.0305520  33.6858040   3.2141620
  61.1341080  35.1519430   3.5769200  62.6950600  34.2103380   6.3979060
  62.0653340  33.5090690   6.5649190  62.1555740  34.9707510   6.1812220
  65.6342550  50.8242610  19.0689670  66.5609860  50.5886880  19.1125630
  65.6192980  51.6514610  18.5875700  73.8687610  50.3668180   6.0663920
  74.0439800  49.6805920   5.4224840  73.1709180  50.8915230   5.6740590
  62.8206160  33.4887360  18.8331550  62.5390430  33.9920960  18.0692370
  63.2025860  32.6909110  18.4673680  61.7115260  50.7563020   3.6199230
  62.4434080  50.4722300   3.0723120  61.9708930  50.5176300   4.5098610
  60.8730050  46.8727750   3.6245560  60.2438930  47.3412850   4.1731390
  60.9877880  46.0276970   4.0591750  69.4221620  32.9040940  19.4112020
  69.3087070  33.2235550  20.3063540  70.2391360  33.3053450  19.1149300
  72.2020110  50.0512470  18.8930710  72.9945430  49.5561700  18.6856670
  72.4953260  50.7302610  19.5006320  68.3279770  22.1489920  64.8720720
  68.2473820  21.2344530  64.6012430  67.9144190  22.6456990  64.1660430
  66.4597810  23.9268940  66.7529990  65.6839910  23.4469380  67.0428560
  67.1110740  23.2474590  66.5786150  60.4763640  24.2388750  67.6305750
  59.6448520  23.9837460  68.0302260  61.0844620  24.3099520  68.3663670
  70.4805240  28.3329130  65.5329120  70.0186770  27.5616370  65.8616290
  71.2930790  28.3595200  66.0381570  60.4564900  28.2728840  67.8263770
  60.7592940  27.3826580  67.6473990  61.2008490  28.8299060  67.5986020
  58.8855590  19.1990640  61.4148140  57.9972290  19.5406610  61.3128020
  59.1696780  18.9990960  60.5228970  56.8488600  21.7996290  67.2987840
  57.4204710  21.0318490  67.2991480  56.8490140  22.0985050  66.3894450
  66.7068550  30.6187140  65.1533110  66.0879990  31.0744640  64.5827550
  67.5620330  30.7738600  64.7522810  65.9006800  26.6026130  66.7600150
  65.8315080  25.6616070  66.5989280  66.6626660  26.6927540  67.3322720
  58.0913470  17.2080650  69.0856770  57.9116310  16.3106400  69.3659530
  57.6893550  17.7552520  69.7603720  66.9311970  19.4096510  66.9869080
  67.3076790  18.5368390  66.8742750  66.8331480  19.7455210  66.0959520
  61.0616980  17.7822140  62.4486520  61.1683730  18.6825870  62.7555280
  60.1509340  17.7340110  62.1581170  70.7136090  16.9046950  63.9197420
  71.5345710  16.4143520  63.9622900  70.7470170  17.4944610  64.6729260
  58.7100140  19.7041150  67.6939110  59.3910250  19.9679520  68.3126510
  58.3948190  18.8642020  68.0277120  62.9024710  20.7508510  66.7811700
  63.4102930  21.2489480  67.4216720  63.4337950  19.9743710  66.6051060
  75.0035640  18.9213700  70.4841050  74.2987810  19.3095410  69.9656160
  75.2693560  19.6163990  71.0861980  61.1860810  15.3907070  71.0475120
  61.1879250  15.9079460  70.2421020  60.3565120  14.9137250  71.0245050
  67.5731900  25.5026380  62.5465020  66.9549170  25.9675830  61.9827740
  68.0855150  26.1953860  62.9634530  62.4363660  25.0302250  69.2248620
  62.1033040  25.6571170  69.8669690  62.6130340  25.5564130  68.4450290
  70.9497570  18.8447330  66.6924960  70.2453140  19.1332220  67.2728070
  71.3109730  19.6547440  66.3324520  60.8676140  17.1017030  69.0545570
  61.2092950  17.9459080  68.7599440  59.9291950  17.2500770  69.1710910
  61.6482760  26.9983050  71.0397800  62.2656760  27.6734130  70.7582250
  60.7875880  27.4071030  70.9485300  56.9415100  26.1882910  59.9204650
  56.5643080  26.6770010  59.1889550  57.1988170  26.8608190  60.5511180
  72.5660350  28.4622460  68.9552440  71.8823870  29.1321570  68.9469110
  73.1054640  28.6603110  68.1897300  74.0184490  18.2902120  67.0834170
  73.0709400  18.3241100  67.2149600  74.3434480  19.1041070  67.4683530
  64.5504030  14.5899300  65.3790160  64.8579010  14.0346190  64.6625660
  63.6204730  14.7243760  65.1963150  70.1019090  30.3066590  67.6697620
  70.1146250  29.9028880  66.8019880  69.5494310  31.0813880  67.5659050
  71.3964510  27.0282810  62.7587790  71.2860840  26.0857140  62.8837210
  71.3932760  27.3898450  63.6450550  69.5004530  25.2096430  68.9980230
  69.9173320  24.9956540  68.1633690  70.2244350  25.4669220  69.5688850
  66.9384790  22.6548130  62.1150280  66.0114070  22.5885510  62.3438750
  67.0909610  23.5928260  62.0005520  66.9253870  18.9265130  59.1117440
  65.9857540  19.0879090  59.1969900  67.2437130  19.6450810  58.5653430
  73.4466630  23.6083650  69.0896470  72.6185260  23.6776740  68.6146600
  74.0417110  24.1937960  68.6212300  70.9682080  24.2168430  62.6185530
  70.3494500  23.8787980  61.9711830  70.9506530  23.5728190  63.3264720
  70.4108640  20.3952970  70.0351340  69.9979820  21.2206680  70.2891330
  69.6784590  19.8098010  69.8427700  62.5441430  23.1812870  64.8970010
  62.1398430  22.4690120  64.4015910  62.6304550  22.8366110  65.7858050
  63.0123130  26.8680430  67.0609220  62.7151420  26.2625900  66.3817000
  63.9622950  26.9057740  66.9498580  61.2570050  19.9556080  68.6769050
  61.8084640  20.0651420  67.9022300  61.7713560  20.3293680  69.3924280
  71.1008740  30.4412300  70.7232320  70.6239300  31.2484490  70.5304930
  70.4170530  29.7890630  70.8758530  62.1041560  26.6062120  73.7117020
  61.2070090  26.8302090  73.9590420  62.1294430  26.7297060  72.7628420
  69.1446780  23.4555240  59.6258280  69.5840060  22.6177670  59.4796100
  69.8575200  24.0884640  59.7122420  60.9312780  23.4775440  72.2874390
  60.7920550  24.3498240  72.6561790  60.0494140  23.1348250  72.1422330
  67.2542160  28.3951310  63.5939520  67.6938070  29.1375640  63.1794910
  67.1929050  28.6377880  64.5178480  62.7293130  29.4197140  74.4959540
  62.7008560  29.8240090  73.6287970  62.5658100  28.4907500  74.3331140
  72.7263920  14.7098050  57.9399320  72.4136580  14.8024880  58.8398390
  73.4876390  15.2879080  57.8896750  59.2446060  22.0757850  62.3976660
  59.1243660  22.8019940  61.7857930  58.9346950  21.3060760  61.9204570
  56.8831430  25.2472990  68.2045300  56.9611850  25.3821760  67.2601020
  57.4973110  24.5388880  68.3973420  58.1279060  26.9473180  64.6151480
  57.7207140  27.0887770  63.7605080  59.0192070  26.6633340  64.4122690
  74.0841200  27.3937090  72.9523720  74.2104260  27.1548970  72.0340900
  74.1262580  26.5621630  73.4245800  67.9457940  31.0965090  71.5218530
  68.4602610  31.0073100  72.3240960  67.1027020  31.4424790  71.8146440
  69.9212340  31.3820430  60.9502530  69.7613480  31.0923370  61.8484360
  69.7559050  30.6060560  60.4147760  62.4000720  31.1618960  62.7274150
  62.2243200  30.2454500  62.5141950  61.5456460  31.5206250  62.9671950
  69.6238470  28.8907990  59.5100530  68.9303630  28.8885280  58.8502810
  70.3661330  28.4667310  59.0794700  69.1888400  30.5170700  63.5849020
  69.6445350  29.7360080  63.8987640  69.5280920  31.2277520  64.1290200
  73.9365210  19.4469550  73.9173460  73.3209480  19.9549220  73.3888920
  73.6161630  18.5467880  73.8599400  56.9390950  26.2887160  70.7439760
  57.1021990  25.8192520  69.9259130  57.4043400  25.7810720  71.4088600
  61.7109720  15.4192920  65.7800330  61.2677870  16.2002460  65.4484850
  62.2694710  15.7422810  66.4871270  65.9979530  18.2861440  71.3835650
  65.5358900  18.4944460  72.1955590  65.5957640  17.4720790  71.0806320
  70.9984040  19.5070390  72.5132310  70.1477630  19.2076140  72.8341380
  70.8385830  19.7512400  71.6016130  68.0933750  21.0072140  74.6131100
  68.4187160  20.1735890  74.2733330  68.8814080  21.5300660  74.7609430
  64.8268540  15.0403620  60.6606160  64.2022720  15.0363490  61.3859470
  64.7398660  14.1734580  60.2642130  63.7485620  15.9640250  67.6389930
  64.0457950  16.8703080  67.5581950  64.2971180  15.4759030  67.0249500
  61.5023940  20.5426490  63.5081580  61.2764860  20.3263660  64.4128200
  60.7216470  20.9754950  63.1627550  68.7321700  20.5489860  62.1072230
  68.1330590  21.2725660  61.9235850  69.2801310  20.4866640  61.3248680
  63.9423150  21.4412070  74.1741850  63.8466750  20.5006800  74.0242250
  64.7855130  21.6627140  73.7789920  67.3386570  19.1853400  64.1375510
  67.7316140  19.5025600  63.3244200  67.7003420  18.3065280  64.2520030
  59.0733690  17.8525740  72.3275630  58.6797080  18.7000950  72.5348410
  58.3852090  17.2152110  72.5184270  56.3750740  15.7754200  66.3605710
  56.0863790  16.3457060  67.0730690  57.1196500  15.2958650  66.7236940
  56.5620970  19.7174320  57.5708430  56.4795640  20.6605080  57.7123420
  56.2104030  19.5749230  56.6920780  67.9241710  21.7759150  68.2326290
  67.1922830  22.2845960  68.5816390  67.5266050  20.9589130  67.9315070
  64.3619100  18.4513350  66.6378780  64.3655160  18.0103300  65.7883320
  65.2570220  18.7730680  66.7450600  60.2121480  18.3339840  65.5972990
  59.8721530  18.8115070  66.3540040  59.4498800  17.8804960  65.2374090
  64.4239250  19.4525430  59.6285540  64.5452070  19.4111910  60.5771360
  64.0387760  20.3149580  59.4732270  68.3867620  17.2292830  67.6449230
  68.4040360  17.6801480  68.4891080  68.1383200  16.3298470  67.8582670
  63.4360750  21.7626570  59.0268840  62.8677650  21.3144820  58.4004750
  64.1449750  22.1219350  58.4933990  71.8138370  14.6425010  73.4835610
  72.1384140  13.9114670  74.0093590  71.8494880  14.3238650  72.5816600
  58.5129930  25.6638590  72.9035570  58.1284720  25.0232260  73.5018530
  58.8242120  26.3674710  73.4730300  64.6627070  22.5115130  68.3844190
  65.0297200  22.0373700  69.1305530  64.4732130  23.3856700  68.7252530
  57.5267560  17.2558820  64.5137660  57.2414480  16.8914490  65.3516280
  57.4646420  16.5239280  63.9000800  62.4526440  21.5523770  70.7028400
  62.1483510  22.4315750  70.9278760  63.4072900  21.6123560  70.7385840
  60.9808230  25.7584760  61.2995250  60.2070490  25.2182380  61.1393970
  61.7102860  25.2391370  60.9613010  71.7396210  24.7550120  67.0921640
  72.4595330  25.2505410  66.7017750  71.5378030  24.0768010  66.4475510
  67.2006150  16.1488080  61.2351030  66.3870760  15.6501250  61.1596340
  67.0068100  16.9886330  60.8187380  67.1215010  24.8259180  72.9790640
  67.0552320  23.9054850  72.7248230  66.4920150  24.9234620  73.6935280
  69.9154540  20.5207730  59.5313190  70.8034160  20.8324960  59.3564530
  69.8859630  19.6479980  59.1393770  61.0245630  25.4265140  64.9374060
  61.5424300  24.6233400  64.8830950  60.5729650  25.3644280  65.7790890
  65.9115130  26.6931420  60.2101360  66.2530830  27.4373650  59.7144680
  65.0827840  27.0062540  60.5726190  58.5090170  22.3926510  71.8499760
  58.1505110  23.0580360  72.4373100  58.2144730  21.5610060  72.2212380
  61.7103290  22.8510750  74.7339310  61.4103430  22.9967930  73.8367130
  62.4814530  22.2916040  74.6412700  67.0531740  27.6479750  72.7294440
  67.0676280  26.7160710  72.5113350  66.3456840  27.7339510  73.3684210
  72.1868810  21.8319570  58.9993050  72.1032530  22.2633790  58.1489490
  72.9063000  22.2917920  59.4319870  73.2642950  24.2887090  72.0763020
  72.5391140  24.8815870  71.8792410  73.7918410  24.2810630  71.2776390
  73.2156060  28.6861830  61.7275180  72.5732220  28.0317450  62.0018900
  72.8286720  29.0916920  60.9515850  68.7942540  26.0147260  65.5746870
  69.1466360  25.4175390  64.9148240  67.9104870  25.6891490  65.7455120
  64.8805820  26.7744950  62.9817280  65.5676950  27.3214160  63.3624870
  64.0938240  27.3185680  63.0166890  57.0198220  22.3917770  58.4734360
  57.8893070  22.6742570  58.7570280  56.5288540  23.2053640  58.3583170
  64.1833030  23.7790980  62.5942640  64.6395810  24.5896230  62.8202830
  63.8321240  23.4614120  63.4261130  66.4865640  29.2897320  69.8234940
  67.1307860  29.4956700  70.5008360  66.8495080  28.5285720  69.3705790
  60.0844810  14.1228630  63.0665160  59.9559440  14.1146530  64.0150080
  59.2606830  14.4611720  62.7156170  67.7597720  27.2929670  68.5412390
  68.4019950  26.5922830  68.6544560  68.2847070  28.0728110  68.3609280
  71.6053440  27.5778290  58.2651530  71.3791020  26.8608730  58.8576170
  71.2149640  27.3290730  57.4273280  69.5335340  28.0924570  71.7448450
  69.8691580  28.6791260  72.4226370  68.6135680  27.9617280  71.9746240
  57.3869470  31.6045150  59.0395990  57.7467110  32.2034490  58.3853260
  57.2461810  32.1505040  59.8131020  57.0838740  15.8819750  72.5271860
  56.3697260  16.0816670  73.1324470  57.5033780  15.1059320  72.8986660
  71.1869690  25.4950230  59.9265690  70.8991390  25.9562920  60.7143570
  71.9821860  25.0348000  60.1949910  57.3711330  29.8700010  73.5138390
  57.4802450  28.9294750  73.3733780  56.7191890  30.1354760  72.8652120
  63.4038090  28.9876350  59.8569660  63.3948190  29.7206040  59.2414170
  62.4836450  28.7407930  59.9496620  59.0044730  24.2091240  60.6016420
  58.3972680  24.9490140  60.6111720  59.4794080  24.2990600  59.7754620
  68.5777520  18.3742060  70.2773310  68.9458340  17.5537270  70.6052880
  67.7175720  18.4343950  70.6928960  71.9439550  17.3299000  61.0860870
  71.3152710  17.4344670  60.3719100  71.4491470  17.5495780  61.8754750
  66.3897690  29.0504590  58.5194850  66.4909670  28.8468580  57.5896830
  65.4899430  28.7962870  58.7242630  63.9123580  19.6084950  62.5018750
  63.2039730  20.0771290  62.9432360  64.1968060  18.9506960  63.1363940
  65.5379510  21.0281650  70.5011280  66.0364760  21.5027470  71.1663130
  65.6802460  20.1045170  70.7081310  67.9439010  16.3335610  63.9414540
  67.8206790  16.3521740  62.9924050  68.8923570  16.3814550  64.0612940
  65.0315800  31.5690910  63.2142520  65.2857300  31.5312300  62.2921890
  64.0828280  31.4424240  63.2070770  62.1158600  17.9170030  59.8769460
  62.9649130  18.3540180  59.8109650  61.7489870  18.2290290  60.7041520
  72.7446370  17.2449610  71.3439670  72.2419970  17.9855010  71.6833480
  73.5603030  17.6333610  71.0276460  71.0368380  22.4882790  64.7901030
  70.0958520  22.5033020  64.9648720  71.3512450  21.7018750  65.2361330
  61.0150020  24.1702390  58.3504990  61.7813290  24.0583750  58.9130420
  61.0924710  23.4740360  57.6981760  59.7096780  21.6027460  59.0337880
  59.7900370  20.6554970  59.1455280  60.6016530  21.9334340  59.1398540
  73.0393960  29.6591640  66.4655290  73.1641380  30.4822810  66.9379100
  73.9059520  29.4482370  66.1179440  60.5111490  31.7522850  66.1372420
  61.2473970  31.2038310  66.4080990  60.8952410  32.6178860  65.9978410
  57.3956970  27.8196420  62.0113930  56.4696750  28.0617560  62.0019340
  57.8613400  28.6470680  61.8898680  63.6213800  30.9253160  57.9597990
  64.4142410  31.2141990  57.5079780  63.1018150  30.4945330  57.2810470
  69.7834770  30.7729080  73.8842820  70.7356520  30.6887100  73.8343060
  69.6362990  31.4370790  74.5576610  72.6743970  30.1523290  59.3834730
  72.3885480  29.7388430  58.5688910  72.4763520  31.0811000  59.2635250
  57.2367580  23.4242380  74.2694050  57.7406600  22.8449660  74.8410280
  56.4975000  23.7082610  74.8070420  64.1391200  26.1456570  57.8240340
  64.0341840  25.5308920  58.5501720  63.9715420  25.6222460  57.0403350
  64.2905520  24.8313370  73.8029570  63.5251190  25.3998370  73.7184240
  64.4721480  24.5389580  72.9097800  67.3793930  25.2076600  58.4282330
  66.8304030  25.6545900  59.0725070  68.0013190  24.7025850  58.9520000
  71.4328870  26.5618700  74.3604590  72.1738340  26.8994460  73.8572050
  70.6701550  26.7310760  73.8074360  63.0469050  24.1667520  60.3247630
  63.4685470  24.0007390  61.1679020  63.1719890  23.3567750  59.8302770
  61.2096470  20.1464070  73.1318610  60.6792930  19.6555020  72.5041950
  61.8784540  20.5748270  72.5976540  65.5596690  23.1905130  57.5724730
  66.0802350  22.4754150  57.2065880  66.2065090  23.8291000  57.8725240
  70.1074530  24.6133530  72.8959800  70.5215550  24.7678610  73.7450220
  69.1725530  24.7388750  73.0585580  70.5796700  21.9529690  74.8998950
  71.1617470  21.1982010  74.8119430  70.7558470  22.4837130  74.1230430
  61.6968770  17.1126440  73.2115900  61.6025640  16.4947190  72.4866770
  61.1166160  17.8392730  72.9845810  64.4630210  15.6699680  70.2443290
  64.0147510  15.6923940  69.3988840  63.8295410  15.2718700  70.8413590
  64.8689760  24.5654010  70.8655730  65.2877870  25.4086740  70.6931970
  63.9498390  24.7026050  70.6362510  67.2053660  22.2970190  72.2493570
  67.3249870  21.7011330  72.9888410  68.0647660  22.3339880  71.8294870
  69.5441560  22.8507380  70.8256080  69.0176780  23.3750000  70.2221220
  69.8872900  23.4834770  71.4565810  61.9427950  20.2400750  57.2705790
  61.7417010  19.3768110  57.6319130  61.7720000  20.1534110  56.3327390
  62.7197180  30.8707020  71.9813460  62.1818270  31.5953080  71.6622160
  62.9731140  30.3937360  71.1910800  63.9722430  18.8391540  73.5069390
  64.5622120  18.5307390  74.1947210  63.1542670  18.3671290  73.6629290
  68.7915860  18.4557350  73.7402410  68.1031380  17.7938890  73.6752400
  69.5121880  18.0095620  74.1850870  69.4216260  15.0508980  59.7992670
  69.7018550  14.2076880  60.1552090  68.6481990  15.2832090  60.3131420
  60.7410750  17.3401370  57.2583670  61.0436650  17.3468800  56.3502820
  61.4805340  16.9899230  57.7551330  65.5759390  32.1058230  72.2400110
  65.5018090  33.0093370  72.5472480  64.6738230  31.7870130  72.2122180
  63.9595680  16.2835990  58.2439870  63.6117680  15.6059980  57.6642320
  64.1608450  15.8225500  59.0583260  66.1244720  31.2716740  59.8626470
  67.0195510  31.6101710  59.8845230  66.1562350  30.5496150  59.2350750
  59.7640880  26.6443790  58.0913470  60.2015750  27.1873460  58.7471050
  60.2488610  25.8190740  58.1009810  56.9786680  29.4332820  65.5433730
  57.3089690  28.5653880  65.3112370  57.4077680  29.6391340  66.3738690
  61.5748600  27.7641830  63.2035700  61.2744140  27.6406800  64.1039610
  61.4686090  26.9050420  62.7951430  57.4676890  30.3003410  68.2815360
  57.0307880  30.4804210  69.1139510  58.0354570  31.0578030  68.1397080
  73.1039070  29.8020410  72.5692670  72.5041060  29.8612970  71.8256590
  73.2332970  28.8625390  72.6989520  74.3440520  27.5438230  57.9062380
  73.5133480  27.6114880  58.3769610  74.5212350  28.4342350  57.6029240
  73.7996980  24.2885710  60.4096580  74.5615890  24.8582360  60.5156270
  73.8151350  23.7212910  61.1804890  57.3001320  22.8123640  64.6404240
  56.6450160  22.5435280  63.9963940  58.1379270  22.7028120  64.1906220
  74.8056950  25.1435810  65.2538510  75.1765780  24.3603130  64.8474480
  75.4458880  25.8324910  65.0755810  71.7890710  26.5272390  70.6668830
  70.9750550  26.9569550  70.9294620  72.1964910  27.1390800  70.0537880
  73.8516150  24.5820080  57.5669100  74.1264990  25.4898960  57.4388320
  73.6626890  24.5182610  58.5031090  70.2491760  17.6064930  58.8622730
  70.6676640  17.4195910  58.0219390  69.9427820  16.7543980  59.1725660
  73.7481490  22.5189070  62.5598530  73.3725090  21.7517000  62.1279820
  73.0184610  22.9011770  63.0473460  58.3377250  23.1976210  69.1807580
  58.7050290  23.1103610  70.0603600  57.7688070  22.4342760  69.0814440
  73.1381110  21.6660590  72.1938050  72.9067200  21.4373340  71.2936000
  73.3985660  22.5860140  72.1482940  57.8893250  20.1085300  73.0866000
  56.9949300  20.0752060  73.4259710  58.4290800  20.3072090  73.8517250
  56.5139400  20.0222570  60.5829570  55.6103480  20.2852770  60.4081230
  56.9980020  20.2933740  59.8029530  73.0232450  20.7446560  65.8605770
  73.5469930  20.2509210  65.2295940  73.6091870  20.8796920  66.6053340
  73.2022170  20.8286430  69.3825320  72.2524880  20.7949970  69.4970310
  73.3835180  21.7386540  69.1475090  59.0566610  19.0788110  58.4923950
  59.7658310  18.6571330  58.0071230  58.3406550  19.1463340  57.8607300
  58.7040770  15.1327440  57.5326600  59.4268900  15.6736380  57.8507820
  58.9765290  14.8590860  56.6568140  72.5132420  20.0019910  61.7998180
  73.0091540  19.7690780  62.5847060  72.3148490  19.1631750  61.3835820
  58.3932960  14.3833630  67.4349220  59.0409150  13.8331010  66.9944380
  58.8134800  14.6376780  68.2565030  73.9419580  18.6380860  64.3335860
  73.8318860  18.4836900  65.2718130  74.7027170  18.1101800  64.0911270
  72.2885300  14.5774990  70.7918860  72.9257520  15.1909130  71.1578050
  72.4360190  14.6135650  69.8468090  74.8309850  16.4688780  57.5742000
  75.7559160  16.3369960  57.3660290  74.8085640  16.5481600  58.5278450
  74.9048340  17.2399440  60.1998710  74.1099840  17.1744560  60.7291620
  75.1091620  18.1750080  60.1884060  71.8466760  31.2790990  64.1937100
  72.4425830  30.9575560  63.5171520  72.1044910  30.8062810  64.9850370
  58.1464960  14.5389300  70.1774540  57.7979780  14.9953120  70.9432720
  57.8152660  13.6446430  70.2596970  63.4535360  29.2668490  69.9437450
  63.2126720  29.5343050  69.0567970  64.3938000  29.4374220  69.9988310
  65.6589780  15.7301180  73.6993960  65.5978670  16.3223010  74.4489370
  66.5990160  15.6227140  73.5544220  68.2964340  15.3871240  73.3386250
  68.9104750  15.7050530  72.6767330  68.8413900  14.9019830  73.9582110
  74.7139520  31.2862870  70.7448090  74.2197800  31.6831740  70.0275220
  74.1052810  30.6612080  71.1385370  58.8185600  14.0665500  73.4525310
  59.3668590  13.8853550  72.6891420  58.8840910  13.2759610  73.9881620
  59.5917360  30.6571150  71.4625510  58.9977680  30.5255850  72.2015550
  59.5841200  29.8209290  70.9967610  69.0372380  13.9503380  69.6655540
  68.1632220  14.2838490  69.4628470  68.9283130  13.4776560  70.4907410
  69.9444360  16.1574250  71.0497260  69.6157720  15.3426010  70.6698990
  70.8926660  16.1144060  70.9262950  72.3978970  31.9286290  68.0234830
  71.9381940  32.6802100  67.6492850  71.7691430  31.2092760  67.9649630
  59.2229590  28.0229530  70.4133550  58.4963650  27.4034820  70.3459500
  59.2838740  28.4170140  69.5431630  62.8274690  30.2374530  67.1982960
  63.3439710  29.6261890  66.6731220  63.4772070  30.7403310  67.6893970
  65.5670190  31.1283020  68.0251940  65.8548000  30.8737320  67.1484950
  66.0793410  30.5760380  68.6157510  66.7847200  14.8673220  68.6048450
  66.0018990  15.3418720  68.8845210  66.4910130  13.9628050  68.4961630
  71.3368270  15.5696320  66.6497540  71.7776360  15.5141420  65.8019140
  71.0675860  16.4854330  66.7207720  73.2006840  15.2011560  64.6606360
  73.1395240  14.2572780  64.5137380  73.9798870  15.3091650  65.2059820
  57.5059590  31.3403920  63.6230310  57.3381630  30.7074600  64.3212200
  56.6394100  31.5463320  63.2724500  58.1287610  15.1720700  61.1262170
  58.8866970  15.2849580  60.5526200  57.6664780  16.0089900  61.0805600
  64.6701420  17.2859970  64.1164480  63.8575930  16.9116860  63.7760360
  65.1743060  16.5305050  64.4185670  69.1726400  13.9502420  65.3547550
  69.7755770  14.5222630  65.8296070  68.4319390  14.5141860  65.1321450
  72.3161000  14.3523980  60.6287830  72.5111630  15.2507430  60.8955260
  71.5290870  14.1211060  61.1220780  59.1122290  30.0337150  61.0680450
  58.5869910  30.4145180  60.3642410  59.0366870  30.6587920  61.7890160
  60.5012760  15.6984750  59.6664140  61.0305520  14.9114550  59.5372090
  61.1341080  16.3775940  59.8999670  62.6950600  15.4359890  62.7209530
  62.0653340  14.7347200  62.8879660  62.1555740  16.1964020  62.5042690
  73.8687610  31.5924690  62.3894390  74.0439800  30.9062430  61.7455310
  73.1709180  32.1171740  61.9971060  61.7115260  31.9819530  59.9429700
  62.4434080  31.6978810  59.3953590  61.9708930  31.7432810  60.8329080
  60.8730050  28.0984260  59.9476030  60.2438930  28.5669360  60.4961860
  60.9877880  27.2533480  60.3822220  68.3279770  22.1489920  46.0977230
  68.2473820  21.2344530  45.8268940  67.9144190  22.6456990  45.3916940
  66.4597810  23.9268940  47.9786500  65.6839910  23.4469380  48.2685070
  67.1110740  23.2474590  47.8042660  60.4763640  24.2388750  48.8562260
  59.6448520  23.9837460  49.2558770  61.0844620  24.3099520  49.5920180
  70.4805240  28.3329130  46.7585630  70.0186770  27.5616370  47.0872800
  71.2930790  28.3595200  47.2638080  60.4564900  28.2728840  49.0520280
  60.7592940  27.3826580  48.8730500  61.2008490  28.8299060  48.8242530
  58.8855590  19.1990640  42.6404650  57.9972290  19.5406610  42.5384530
  59.1696780  18.9990960  41.7485480  56.8488600  21.7996290  48.5244350
  57.4204710  21.0318490  48.5247990  56.8490140  22.0985050  47.6150960
  66.7068550  30.6187140  46.3789620  66.0879990  31.0744640  45.8084060
  67.5620330  30.7738600  45.9779320  65.9006800  26.6026130  47.9856660
  65.8315080  25.6616070  47.8245790  66.6626660  26.6927540  48.5579230
  58.0913470  17.2080650  50.3113280  57.9116310  16.3106400  50.5916040
  57.6893550  17.7552520  50.9860230  66.9311970  19.4096510  48.2125590
  67.3076790  18.5368390  48.0999260  66.8331480  19.7455210  47.3216030
  61.0616980  17.7822140  43.6743030  61.1683730  18.6825870  43.9811790
  60.1509340  17.7340110  43.3837680  70.7136090  16.9046950  45.1453930
  71.5345710  16.4143520  45.1879410  70.7470170  17.4944610  45.8985770
  58.7100140  19.7041150  48.9195620  59.3910250  19.9679520  49.5383020
  58.3948190  18.8642020  49.2533630  62.9024710  20.7508510  48.0068210
  63.4102930  21.2489480  48.6473230  63.4337950  19.9743710  47.8307570
  75.0035640  18.9213700  51.7097560  74.2987810  19.3095410  51.1912670
  75.2693560  19.6163990  52.3118490  61.1860810  15.3907070  52.2731630
  61.1879250  15.9079460  51.4677530  60.3565120  14.9137250  52.2501560
  67.5731900  25.5026380  43.7721530  66.9549170  25.9675830  43.2084250
  68.0855150  26.1953860  44.1891040  62.4363660  25.0302250  50.4505130
  62.1033040  25.6571170  51.0926200  62.6130340  25.5564130  49.6706800
  70.9497570  18.8447330  47.9181470  70.2453140  19.1332220  48.4984580
  71.3109730  19.6547440  47.5581030  60.8676140  17.1017030  50.2802080
  61.2092950  17.9459080  49.9855950  59.9291950  17.2500770  50.3967420
  61.6482760  26.9983050  52.2654310  62.2656760  27.6734130  51.9838760
  60.7875880  27.4071030  52.1741810  56.9415100  26.1882910  41.1461160
  56.5643080  26.6770010  40.4146060  57.1988170  26.8608190  41.7767690
  72.5660350  28.4622460  50.1808950  71.8823870  29.1321570  50.1725620
  73.1054640  28.6603110  49.4153810  74.0184490  18.2902120  48.3090680
  73.0709400  18.3241100  48.4406110  74.3434480  19.1041070  48.6940040
  64.5504030  14.5899300  46.6046670  64.8579010  14.0346190  45.8882170
  63.6204730  14.7243760  46.4219660  70.1019090  30.3066590  48.8954130
  70.1146250  29.9028880  48.0276390  69.5494310  31.0813880  48.7915560
  71.3964510  27.0282810  43.9844300  71.2860840  26.0857140  44.1093720
  71.3932760  27.3898450  44.8707060  69.5004530  25.2096430  50.2236740
  69.9173320  24.9956540  49.3890200  70.2244350  25.4669220  50.7945360
  66.9384790  22.6548130  43.3406790  66.0114070  22.5885510  43.5695260
  67.0909610  23.5928260  43.2262030  66.9253870  18.9265130  40.3373950
  65.9857540  19.0879090  40.4226410  67.2437130  19.6450810  39.7909940
  73.4466630  23.6083650  50.3152980  72.6185260  23.6776740  49.8403110
  74.0417110  24.1937960  49.8468810  70.9682080  24.2168430  43.8442040
  70.3494500  23.8787980  43.1968340  70.9506530  23.5728190  44.5521230
  70.4108640  20.3952970  51.2607850  69.9979820  21.2206680  51.5147840
  69.6784590  19.8098010  51.0684210  62.5441430  23.1812870  46.1226520
  62.1398430  22.4690120  45.6272420  62.6304550  22.8366110  47.0114560
  63.0123130  26.8680430  48.2865730  62.7151420  26.2625900  47.6073510
  63.9622950  26.9057740  48.1755090  61.2570050  19.9556080  49.9025560
  61.8084640  20.0651420  49.1278810  61.7713560  20.3293680  50.6180790
  71.1008740  30.4412300  51.9488830  70.6239300  31.2484490  51.7561440
  70.4170530  29.7890630  52.1015040  62.1041560  26.6062120  54.9373530
  61.2070090  26.8302090  55.1846930  62.1294430  26.7297060  53.9884930
  69.1446780  23.4555240  40.8514790  69.5840060  22.6177670  40.7052610
  69.8575200  24.0884640  40.9378930  60.9312780  23.4775440  53.5130900
  60.7920550  24.3498240  53.8818300  60.0494140  23.1348250  53.3678840
  67.2542160  28.3951310  44.8196030  67.6938070  29.1375640  44.4051420
  67.1929050  28.6377880  45.7434990  62.7293130  29.4197140  55.7216050
  62.7008560  29.8240090  54.8544480  62.5658100  28.4907500  55.5587650
  72.7263920  14.7098050  39.1655830  72.4136580  14.8024880  40.0654900
  73.4876390  15.2879080  39.1153260  59.2446060  22.0757850  43.6233170
  59.1243660  22.8019940  43.0114440  58.9346950  21.3060760  43.1461080
  74.6807950  30.2024240  57.0180220  75.1567670  30.6807130  57.6969300
  75.3015110  30.1341730  56.2925720  56.8831430  25.2472990  49.4301810
  56.9611850  25.3821760  48.4857530  57.4973110  24.5388880  49.6229930
  58.1279060  26.9473180  45.8407990  57.7207140  27.0887770  44.9861590
  59.0192070  26.6633340  45.6379200  74.0841200  27.3937090  54.1780230
  74.2104260  27.1548970  53.2597410  74.1262580  26.5621630  54.6502310
  67.9457940  31.0965090  52.7475040  68.4602610  31.0073100  53.5497470
  67.1027020  31.4424790  53.0402950  69.9212340  31.3820430  42.1759040
  69.7613480  31.0923370  43.0740870  69.7559050  30.6060560  41.6404270
  62.4000720  31.1618960  43.9530660  62.2243200  30.2454500  43.7398460
  61.5456460  31.5206250  44.1928460  69.6238470  28.8907990  40.7357040
  68.9303630  28.8885280  40.0759320  70.3661330  28.4667310  40.3051210
  69.1888400  30.5170700  44.8105530  69.6445350  29.7360080  45.1244150
  69.5280920  31.2277520  45.3546710  73.9365210  19.4469550  55.1429970
  73.3209480  19.9549220  54.6145430  73.6161630  18.5467880  55.0855910
  56.9390950  26.2887160  51.9696270  57.1021990  25.8192520  51.1515640
  57.4043400  25.7810720  52.6345110  61.7109720  15.4192920  47.0056840
  61.2677870  16.2002460  46.6741360  62.2694710  15.7422810  47.7127780
  65.9979530  18.2861440  52.6092160  65.5358900  18.4944460  53.4212100
  65.5957640  17.4720790  52.3062830  70.9984040  19.5070390  53.7388820
  70.1477630  19.2076140  54.0597890  70.8385830  19.7512400  52.8272640
  68.0933750  21.0072140  55.8387610  68.4187160  20.1735890  55.4989840
  68.8814080  21.5300660  55.9865940  64.8268540  15.0403620  41.8862670
  64.2022720  15.0363490  42.6115980  64.7398660  14.1734580  41.4898640
  63.7485620  15.9640250  48.8646440  64.0457950  16.8703080  48.7838460
  64.2971180  15.4759030  48.2506010  61.5023940  20.5426490  44.7338090
  61.2764860  20.3263660  45.6384710  60.7216470  20.9754950  44.3884060
  68.7321700  20.5489860  43.3328740  68.1330590  21.2725660  43.1492360
  69.2801310  20.4866640  42.5505190  63.9423150  21.4412070  55.3998360
  63.8466750  20.5006800  55.2498760  64.7855130  21.6627140  55.0046430
  67.3386570  19.1853400  45.3632020  67.7316140  19.5025600  44.5500710
  67.7003420  18.3065280  45.4776540  59.0733690  17.8525740  53.5532140
  58.6797080  18.7000950  53.7604920  58.3852090  17.2152110  53.7440780
  65.6478740  17.9360710  56.6228880  64.9577060  17.7432910  57.2574970
  66.3911040  18.2195350  57.1553180  56.3750740  15.7754200  47.5862220
  56.0863790  16.3457060  48.2987200  57.1196500  15.2958650  47.9493450
  56.5620970  19.7174320  38.7964940  56.4795640  20.6605080  38.9379930
  56.2104030  19.5749230  37.9177290  67.9241710  21.7759150  49.4582800
  67.1922830  22.2845960  49.8072900  67.5266050  20.9589130  49.1571580
  64.3619100  18.4513350  47.8635290  64.3655160  18.0103300  47.0139830
  65.2570220  18.7730680  47.9707110  60.2121480  18.3339840  46.8229500
  59.8721530  18.8115070  47.5796550  59.4498800  17.8804960  46.4630600
  64.4239250  19.4525430  40.8542050  64.5452070  19.4111910  41.8027870
  64.0387760  20.3149580  40.6988780  68.3867620  17.2292830  48.8705740
  68.4040360  17.6801480  49.7147590  68.1383200  16.3298470  49.0839180
  63.4360750  21.7626570  40.2525350  62.8677650  21.3144820  39.6261260
  64.1449750  22.1219350  39.7190500  71.8138370  14.6425010  54.7092120
  72.1384140  13.9114670  55.2350100  71.8494880  14.3238650  53.8073110
  58.5129930  25.6638590  54.1292080  58.1284720  25.0232260  54.7275040
  58.8242120  26.3674710  54.6986810  64.6627070  22.5115130  49.6100700
  65.0297200  22.0373700  50.3562040  64.4732130  23.3856700  49.9509040
  57.5267560  17.2558820  45.7394170  57.2414480  16.8914490  46.5772790
  57.4646420  16.5239280  45.1257310  62.4526440  21.5523770  51.9284910
  62.1483510  22.4315750  52.1535270  63.4072900  21.6123560  51.9642350
  60.9808230  25.7584760  42.5251760  60.2070490  25.2182380  42.3650480
  61.7102860  25.2391370  42.1869520  71.7396210  24.7550120  48.3178150
  72.4595330  25.2505410  47.9274260  71.5378030  24.0768010  47.6732020
  67.2006150  16.1488080  42.4607540  66.3870760  15.6501250  42.3852850
  67.0068100  16.9886330  42.0443890  67.1215010  24.8259180  54.2047150
  67.0552320  23.9054850  53.9504740  66.4920150  24.9234620  54.9191790
  69.9154540  20.5207730  40.7569700  70.8034160  20.8324960  40.5821040
  69.8859630  19.6479980  40.3650280  61.0245630  25.4265140  46.1630570
  61.5424300  24.6233400  46.1087460  60.5729650  25.3644280  47.0047400
  65.9115130  26.6931420  41.4357870  66.2530830  27.4373650  40.9401190
  65.0827840  27.0062540  41.7982700  58.5090170  22.3926510  53.0756270
  58.1505110  23.0580360  53.6629610  58.2144730  21.5610060  53.4468890
  61.7103290  22.8510750  55.9595820  61.4103430  22.9967930  55.0623640
  62.4814530  22.2916040  55.8669210  67.0531740  27.6479750  53.9550950
  67.0676280  26.7160710  53.7369860  66.3456840  27.7339510  54.5940720
  72.1868810  21.8319570  40.2249560  72.1032530  22.2633790  39.3746000
  72.9063000  22.2917920  40.6576380  73.2642950  24.2887090  53.3019530
  72.5391140  24.8815870  53.1048920  73.7918410  24.2810630  52.5032900
  68.7942540  26.0147260  46.8003380  69.1466360  25.4175390  46.1404750
  67.9104870  25.6891490  46.9711630  64.8805820  26.7744950  44.2073790
  65.5676950  27.3214160  44.5881380  64.0938240  27.3185680  44.2423400
  57.0198220  22.3917770  39.6990870  57.8893070  22.6742570  39.9826790
  56.5288540  23.2053640  39.5839680  64.1833030  23.7790980  43.8199150
  64.6395810  24.5896230  44.0459340  63.8321240  23.4614120  44.6517640
  66.4865640  29.2897320  51.0491450  67.1307860  29.4956700  51.7264870
  66.8495080  28.5285720  50.5962300  60.0844810  14.1228630  44.2921670
  59.9559440  14.1146530  45.2406590  59.2606830  14.4611720  43.9412680
  67.7597720  27.2929670  49.7668900  68.4019950  26.5922830  49.8801070
  68.2847070  28.0728110  49.5865790  69.5335340  28.0924570  52.9704960
  69.8691580  28.6791260  53.6482880  68.6135680  27.9617280  53.2002750
  57.3869470  31.6045150  40.2652500  57.7467110  32.2034490  39.6109770
  57.2461810  32.1505040  41.0387530  57.0838740  15.8819750  53.7528370
  56.3697260  16.0816670  54.3580980  57.5033780  15.1059320  54.1243170
  71.1869690  25.4950230  41.1522200  70.8991390  25.9562920  41.9400080
  71.9821860  25.0348000  41.4206420  57.3711330  29.8700010  54.7394900
  57.4802450  28.9294750  54.5990290  56.7191890  30.1354760  54.0908630
  65.3623920  28.1415900  56.1393020  65.0420790  27.4225140  56.6838710
  64.6882280  28.8170970  56.2129080  63.4038090  28.9876350  41.0826170
  63.3948190  29.7206040  40.4670680  62.4836450  28.7407930  41.1753130
  59.0044730  24.2091240  41.8272930  58.3972680  24.9490140  41.8368230
  59.4794080  24.2990600  41.0011130  68.5777520  18.3742060  51.5029820
  68.9458340  17.5537270  51.8309390  67.7175720  18.4343950  51.9185470
  71.9439550  17.3299000  42.3117380  71.3152710  17.4344670  41.5975610
  71.4491470  17.5495780  43.1011260  66.3897690  29.0504590  39.7451360
  66.4909670  28.8468580  38.8153340  65.4899430  28.7962870  39.9499140
  63.9123580  19.6084950  43.7275260  63.2039730  20.0771290  44.1688870
  64.1968060  18.9506960  44.3620450  65.5379510  21.0281650  51.7267790
  66.0364760  21.5027470  52.3919640  65.6802460  20.1045170  51.9337820
  67.9439010  16.3335610  45.1671050  67.8206790  16.3521740  44.2180560
  68.8923570  16.3814550  45.2869450  65.0315800  31.5690910  44.4399030
  65.2857300  31.5312300  43.5178400  64.0828280  31.4424240  44.4327280
  62.1158600  17.9170030  41.1025970  62.9649130  18.3540180  41.0366160
  61.7489870  18.2290290  41.9298030  72.7446370  17.2449610  52.5696180
  72.2419970  17.9855010  52.9089990  73.5603030  17.6333610  52.2532970
  71.0368380  22.4882790  46.0157540  70.0958520  22.5033020  46.1905230
  71.3512450  21.7018750  46.4617840  61.0150020  24.1702390  39.5761500
  61.7813290  24.0583750  40.1386930  61.0924710  23.4740360  38.9238270
  59.7096780  21.6027460  40.2594390  59.7900370  20.6554970  40.3711790
  60.6016530  21.9334340  40.3655050  73.0393960  29.6591640  47.6911800
  73.1641380  30.4822810  48.1635610  73.9059520  29.4482370  47.3435950
  60.5111490  31.7522850  47.3628930  61.2473970  31.2038310  47.6337500
  60.8952410  32.6178860  47.2234920  57.3956970  27.8196420  43.2370440
  56.4696750  28.0617560  43.2275850  57.8613400  28.6470680  43.1155190
  59.5169770  30.9368920  56.5514510  60.3182500  31.2580970  56.9649910
  59.0021590  30.5764500  57.2734420  63.6213800  30.9253160  39.1854500
  64.4142410  31.2141990  38.7336290  63.1018150  30.4945330  38.5066980
  68.3534400  27.0448790  56.4989920  67.7472560  27.0680390  55.7585670
  68.0488510  26.3131830  57.0357170  69.7834770  30.7729080  55.1099330
  70.7356520  30.6887100  55.0599570  69.6362990  31.4370790  55.7833120
  57.2367580  23.4242380  55.4950560  57.7406600  22.8449660  56.0666790
  56.4975000  23.7082610  56.0326930  64.1391200  26.1456570  39.0496850
  64.0341840  25.5308920  39.7758230  63.9715420  25.6222460  38.2659860
  64.2905520  24.8313370  55.0286080  63.5251190  25.3998370  54.9440750
  64.4721480  24.5389580  54.1354310  67.3793930  25.2076600  39.6538840
  66.8304030  25.6545900  40.2981580  68.0013190  24.7025850  40.1776510
  71.4328870  26.5618700  55.5861100  72.1738340  26.8994460  55.0828560
  70.6701550  26.7310760  55.0330870  59.2690660  21.5671970  56.3900630
  59.3096000  21.2685840  57.2985860  60.1236160  21.9679580  56.2308150
  63.0469050  24.1667520  41.5504140  63.4685470  24.0007390  42.3935530
  63.1719890  23.3567750  41.0559280  61.2096470  20.1464070  54.3575120
  60.6792930  19.6555020  53.7298460  61.8784540  20.5748270  53.8233050
  65.5596690  23.1905130  38.7981240  66.0802350  22.4754150  38.4322390
  66.2065090  23.8291000  39.0981750  70.1074530  24.6133530  54.1216310
  70.5215550  24.7678610  54.9706730  69.1725530  24.7388750  54.2842090
  70.5796700  21.9529690  56.1255460  71.1617470  21.1982010  56.0375940
  70.7558470  22.4837130  55.3486940  61.6968770  17.1126440  54.4372410
  61.6025640  16.4947190  53.7123280  61.1166160  17.8392730  54.2102320
  64.4630210  15.6699680  51.4699800  64.0147510  15.6923940  50.6245350
  63.8295410  15.2718700  52.0670100  64.8689760  24.5654010  52.0912240
  65.2877870  25.4086740  51.9188480  63.9498390  24.7026050  51.8619020
  67.2053660  22.2970190  53.4750080  67.3249870  21.7011330  54.2144920
  68.0647660  22.3339880  53.0551380  69.5441560  22.8507380  52.0512590
  69.0176780  23.3750000  51.4477730  69.8872900  23.4834770  52.6822320
  61.9427950  20.2400750  38.4962300  61.7417010  19.3768110  38.8575640
  61.7720000  20.1534110  37.5583900  62.7197180  30.8707020  53.2069970
  62.1818270  31.5953080  52.8878670  62.9731140  30.3937360  52.4167310
  63.9722430  18.8391540  54.7325900  64.5622120  18.5307390  55.4203720
  63.1542670  18.3671290  54.8885800  68.7915860  18.4557350  54.9658920
  68.1031380  17.7938890  54.9008910  69.5121880  18.0095620  55.4107380
  69.4216260  15.0508980  41.0249180  69.7018550  14.2076880  41.3808600
  68.6481990  15.2832090  41.5387930  60.7410750  17.3401370  38.4840180
  61.0436650  17.3468800  37.5759330  61.4805340  16.9899230  38.9807840
  65.5759390  32.1058230  53.4656620  65.5018090  33.0093370  53.7728990
  64.6738230  31.7870130  53.4378690  63.9595680  16.2835990  39.4696380
  63.6117680  15.6059980  38.8898830  64.1608450  15.8225500  40.2839770
  66.1244720  31.2716740  41.0882980  67.0195510  31.6101710  41.1101740
  66.1562350  30.5496150  40.4607260  59.7640880  26.6443790  39.3169980
  60.2015750  27.1873460  39.9727560  60.2488610  25.8190740  39.3266320
  56.9786680  29.4332820  46.7690240  57.3089690  28.5653880  46.5368880
  57.4077680  29.6391340  47.5995200  61.5748600  27.7641830  44.4292210
  61.2744140  27.6406800  45.3296120  61.4686090  26.9050420  44.0207940
  57.4676890  30.3003410  49.5071870  57.0307880  30.4804210  50.3396020
  58.0354570  31.0578030  49.3653590  73.1039070  29.8020410  53.7949180
  72.5041060  29.8612970  53.0513100  73.2332970  28.8625390  53.9246030
  73.7996980  24.2885710  41.6353090  74.5615890  24.8582360  41.7412780
  73.8151350  23.7212910  42.4061400  57.3001320  22.8123640  45.8660750
  56.6450160  22.5435280  45.2220450  58.1379270  22.7028120  45.4162730
  74.8056950  25.1435810  46.4795020  75.1765780  24.3603130  46.0730990
  75.4458880  25.8324910  46.3012320  71.7890710  26.5272390  51.8925340
  70.9750550  26.9569550  52.1551130  72.1964910  27.1390800  51.2794390
  70.2491760  17.6064930  40.0879240  70.6676640  17.4195910  39.2475900
  69.9427820  16.7543980  40.3982170  73.7481490  22.5189070  43.7855040
  73.3725090  21.7517000  43.3536330  73.0184610  22.9011770  44.2729970
  58.3377250  23.1976210  50.4064090  58.7050290  23.1103610  51.2860110
  57.7688070  22.4342760  50.3070950  73.1381110  21.6660590  53.4194560
  72.9067200  21.4373340  52.5192510  73.3985660  22.5860140  53.3739450
  57.8893250  20.1085300  54.3122510  56.9949300  20.0752060  54.6516220
  58.4290800  20.3072090  55.0773760  71.5769180  16.8917020  56.1974260
  72.4539360  16.9000420  56.5808260  71.5890020  16.1547860  55.5866610
  56.5139400  20.0222570  41.8086080  55.6103480  20.2852770  41.6337740
  56.9980020  20.2933740  41.0286040  73.0232450  20.7446560  47.0862280
  73.5469930  20.2509210  46.4552450  73.6091870  20.8796920  47.8309850
  73.2022170  20.8286430  50.6081830  72.2524880  20.7949970  50.7226820
  73.3835180  21.7386540  50.3731600  59.0566610  19.0788110  39.7180460
  59.7658310  18.6571330  39.2327740  58.3406550  19.1463340  39.0863810
  58.7040770  15.1327440  38.7583110  59.4268900  15.6736380  39.0764330
  58.9765290  14.8590860  37.8824650  72.5132420  20.0019910  43.0254690
  73.0091540  19.7690780  43.8103570  72.3148490  19.1631750  42.6092330
  58.3932960  14.3833630  48.6605730  59.0409150  13.8331010  48.2200890
  58.8134800  14.6376780  49.4821540  73.9419580  18.6380860  45.5592370
  73.8318860  18.4836900  46.4974640  74.7027170  18.1101800  45.3167780
  72.2885300  14.5774990  52.0175370  72.9257520  15.1909130  52.3834560
  72.4360190  14.6135650  51.0724600  74.9048340  17.2399440  41.4255220
  74.1099840  17.1744560  41.9548130  75.1091620  18.1750080  41.4140570
  71.8466760  31.2790990  45.4193610  72.4425830  30.9575560  44.7428030
  72.1044910  30.8062810  46.2106880  58.1464960  14.5389300  51.4031050
  57.7979780  14.9953120  52.1689230  57.8152660  13.6446430  51.4853480
  59.7529330  27.7108900  55.5684240  59.7098960  27.3401810  56.4498700
  59.8840340  28.6486470  55.7086060  63.4535360  29.2668490  51.1693960
  63.2126720  29.5343050  50.2824480  64.3938000  29.4374220  51.2244820
  65.6589780  15.7301180  54.9250470  65.5978670  16.3223010  55.6745880
  66.5990160  15.6227140  54.7800730  68.2964340  15.3871240  54.5642760
  68.9104750  15.7050530  53.9023840  68.8413900  14.9019830  55.1838620
  74.7139520  31.2862870  51.9704600  74.2197800  31.6831740  51.2531730
  74.1052810  30.6612080  52.3641880  58.8185600  14.0665500  54.6781820
  59.3668590  13.8853550  53.9147930  58.8840910  13.2759610  55.2138130
  59.5917360  30.6571150  52.6882020  58.9977680  30.5255850  53.4272060
  59.5841200  29.8209290  52.2224120  69.0372380  13.9503380  50.8912050
  68.1632220  14.2838490  50.6884980  68.9283130  13.4776560  51.7163920
  69.9444360  16.1574250  52.2753770  69.6157720  15.3426010  51.8955500
  70.8926660  16.1144060  52.1519460  72.3978970  31.9286290  49.2491340
  71.9381940  32.6802100  48.8749360  71.7691430  31.2092760  49.1906140
  59.2229590  28.0229530  51.6390060  58.4963650  27.4034820  51.5716010
  59.2838740  28.4170140  50.7688140  62.8274690  30.2374530  48.4239470
  63.3439710  29.6261890  47.8987730  63.4772070  30.7403310  48.9150480
  65.5670190  31.1283020  49.2508450  65.8548000  30.8737320  48.3741460
  66.0793410  30.5760380  49.8414020  66.7847200  14.8673220  49.8304960
  66.0018990  15.3418720  50.1101720  66.4910130  13.9628050  49.7218140
  71.3368270  15.5696320  47.8754050  71.7776360  15.5141420  47.0275650
  71.0675860  16.4854330  47.9464230  73.2006840  15.2011560  45.8862870
  73.1395240  14.2572780  45.7393890  73.9798870  15.3091650  46.4316330
  57.5059590  31.3403920  44.8486820  57.3381630  30.7074600  45.5468710
  56.6394100  31.5463320  44.4981010  58.1287610  15.1720700  42.3518680
  58.8866970  15.2849580  41.7782710  57.6664780  16.0089900  42.3062110
  64.6701420  17.2859970  45.3420990  63.8575930  16.9116860  45.0016870
  65.1743060  16.5305050  45.6442180  69.1726400  13.9502420  46.5804060
  69.7755770  14.5222630  47.0552580  68.4319390  14.5141860  46.3577960
  72.3161000  14.3523980  41.8544340  72.5111630  15.2507430  42.1211770
  71.5290870  14.1211060  42.3477290  59.1122290  30.0337150  42.2936960
  58.5869910  30.4145180  41.5898920  59.0366870  30.6587920  43.0146670
  60.5012760  15.6984750  40.8920650  61.0305520  14.9114550  40.7628600
  61.1341080  16.3775940  41.1256180  62.6950600  15.4359890  43.9466040
  62.0653340  14.7347200  44.1136170  62.1555740  16.1964020  43.7299200
  65.6342550  32.0499120  56.6176650  66.5609860  31.8143390  56.6612610
  65.6192980  32.8771120  56.1362680  62.8206160  14.7143870  56.3818530
  62.5390430  15.2177470  55.6179350  63.2025860  13.9165620  56.0160660
  61.7115260  31.9819530  41.1686210  62.4434080  31.6978810  40.6210100
  61.9708930  31.7432810  42.0585590  60.8730050  28.0984260  41.1732540
  60.2438930  28.5669360  41.7218370  60.9877880  27.2533480  41.6078730
  69.4221620  14.1297450  56.9599000  69.3087070  14.4492060  57.8550520
  70.2391360  14.5309960  56.6636280  72.2020110  31.2768980  56.4417690
  72.9945430  30.7818210  56.2343650  72.4953260  31.9559120  57.0493300
  66.4597810  23.9268940  29.2043010  65.6839910  23.4469380  29.4941580
  67.1110740  23.2474590  29.0299170  60.4763640  24.2388750  30.0818770
  59.6448520  23.9837460  30.4815280  61.0844620  24.3099520  30.8176690
  60.4564900  28.2728840  30.2776790  60.7592940  27.3826580  30.0987010
  61.2008490  28.8299060  30.0499040  58.8855590  19.1990640  23.8661160
  57.9972290  19.5406610  23.7641040  59.1696780  18.9990960  22.9741990
  56.8488600  21.7996290  29.7500860  57.4204710  21.0318490  29.7504500
  56.8490140  22.0985050  28.8407470  66.7068550  30.6187140  27.6046130
  66.0879990  31.0744640  27.0340570  67.5620330  30.7738600  27.2035830
  65.9006800  26.6026130  29.2113170  65.8315080  25.6616070  29.0502300
  66.6626660  26.6927540  29.7835740  58.0913470  17.2080650  31.5369790
  57.9116310  16.3106400  31.8172550  57.6893550  17.7552520  32.2116740
  66.9311970  19.4096510  29.4382100  67.3076790  18.5368390  29.3255770
  66.8331480  19.7455210  28.5472540  61.0616980  17.7822140  24.8999540
  61.1683730  18.6825870  25.2068300  60.1509340  17.7340110  24.6094190
  70.7136090  16.9046950  26.3710440  71.5345710  16.4143520  26.4135920
  70.7470170  17.4944610  27.1242280  58.7100140  19.7041150  30.1452130
  59.3910250  19.9679520  30.7639530  58.3948190  18.8642020  30.4790140
  62.9024710  20.7508510  29.2324720  63.4102930  21.2489480  29.8729740
  63.4337950  19.9743710  29.0564080  61.1860810  15.3907070  33.4988140
  61.1879250  15.9079460  32.6934040  60.3565120  14.9137250  33.4758070
  67.5731900  25.5026380  24.9978040  66.9549170  25.9675830  24.4340760
  68.0855150  26.1953860  25.4147550  62.4363660  25.0302250  31.6761640
  62.1033040  25.6571170  32.3182710  62.6130340  25.5564130  30.8963310
  60.8676140  17.1017030  31.5058590  61.2092950  17.9459080  31.2112460
  59.9291950  17.2500770  31.6223930  61.6482760  26.9983050  33.4910820
  62.2656760  27.6734130  33.2095270  60.7875880  27.4071030  33.3998320
  56.9415100  26.1882910  22.3717670  56.5643080  26.6770010  21.6402570
  57.1988170  26.8608190  23.0024200  64.5504030  14.5899300  27.8303180
  64.8579010  14.0346190  27.1138680  63.6204730  14.7243760  27.6476170
  69.5004530  25.2096430  31.4493250  69.9173320  24.9956540  30.6146710
  70.2244350  25.4669220  32.0201870  66.9384790  22.6548130  24.5663300
  66.0114070  22.5885510  24.7951770  67.0909610  23.5928260  24.4518540
  66.9253870  18.9265130  21.5630460  65.9857540  19.0879090  21.6482920
  67.2437130  19.6450810  21.0166450  62.5441430  23.1812870  27.3483030
  62.1398430  22.4690120  26.8528930  62.6304550  22.8366110  28.2371070
  63.0123130  26.8680430  29.5122240  62.7151420  26.2625900  28.8330020
  63.9622950  26.9057740  29.4011600  61.2570050  19.9556080  31.1282070
  61.8084640  20.0651420  30.3535320  61.7713560  20.3293680  31.8437300
  62.1041560  26.6062120  36.1630040  61.2070090  26.8302090  36.4103440
  62.1294430  26.7297060  35.2141440  60.9312780  23.4775440  34.7387410
  60.7920550  24.3498240  35.1074810  60.0494140  23.1348250  34.5935350
  67.2542160  28.3951310  26.0452540  67.6938070  29.1375640  25.6307930
  67.1929050  28.6377880  26.9691500  62.7293130  29.4197140  36.9472560
  62.7008560  29.8240090  36.0800990  62.5658100  28.4907500  36.7844160
  59.2446060  22.0757850  24.8489680  59.1243660  22.8019940  24.2370950
  58.9346950  21.3060760  24.3717590  56.8831430  25.2472990  30.6558320
  56.9611850  25.3821760  29.7114040  57.4973110  24.5388880  30.8486440
  58.1279060  26.9473180  27.0664500  57.7207140  27.0887770  26.2118100
  59.0192070  26.6633340  26.8635710  67.9457940  31.0965090  33.9731550
  68.4602610  31.0073100  34.7753980  67.1027020  31.4424790  34.2659460
  69.9212340  31.3820430  23.4015550  69.7613480  31.0923370  24.2997380
  69.7559050  30.6060560  22.8660780  62.4000720  31.1618960  25.1787170
  62.2243200  30.2454500  24.9654970  61.5456460  31.5206250  25.4184970
  69.6238470  28.8907990  21.9613550  68.9303630  28.8885280  21.3015830
  70.3661330  28.4667310  21.5307720  69.1888400  30.5170700  26.0362040
  69.6445350  29.7360080  26.3500660  69.5280920  31.2277520  26.5803220
  56.9390950  26.2887160  33.1952780  57.1021990  25.8192520  32.3772150
  57.4043400  25.7810720  33.8601620  61.7109720  15.4192920  28.2313350
  61.2677870  16.2002460  27.8997870  62.2694710  15.7422810  28.9384290
  65.9979530  18.2861440  33.8348670  65.5358900  18.4944460  34.6468610
  65.5957640  17.4720790  33.5319340  68.0933750  21.0072140  37.0644120
  68.4187160  20.1735890  36.7246350  68.8814080  21.5300660  37.2122450
  64.8268540  15.0403620  23.1119180  64.2022720  15.0363490  23.8372490
  64.7398660  14.1734580  22.7155150  63.7485620  15.9640250  30.0902950
  64.0457950  16.8703080  30.0094970  64.2971180  15.4759030  29.4762520
  61.5023940  20.5426490  25.9594600  61.2764860  20.3263660  26.8641220
  60.7216470  20.9754950  25.6140570  68.7321700  20.5489860  24.5585250
  68.1330590  21.2725660  24.3748870  69.2801310  20.4866640  23.7761700
  63.9423150  21.4412070  36.6254870  63.8466750  20.5006800  36.4755270
  64.7855130  21.6627140  36.2302940  67.3386570  19.1853400  26.5888530
  67.7316140  19.5025600  25.7757220  67.7003420  18.3065280  26.7033050
  59.0733690  17.8525740  34.7788650  58.6797080  18.7000950  34.9861430
  58.3852090  17.2152110  34.9697290  65.6478740  17.9360710  37.8485390
  64.9577060  17.7432910  38.4831480  66.3911040  18.2195350  38.3809690
  56.3750740  15.7754200  28.8118730  56.0863790  16.3457060  29.5243710
  57.1196500  15.2958650  29.1749960  56.5620970  19.7174320  20.0221450
  56.4795640  20.6605080  20.1636440  56.2104030  19.5749230  19.1433800
  64.3619100  18.4513350  29.0891800  64.3655160  18.0103300  28.2396340
  65.2570220  18.7730680  29.1963620  60.2121480  18.3339840  28.0486010
  59.8721530  18.8115070  28.8053060  59.4498800  17.8804960  27.6887110
  64.4239250  19.4525430  22.0798560  64.5452070  19.4111910  23.0284380
  64.0387760  20.3149580  21.9245290  63.4360750  21.7626570  21.4781860
  62.8677650  21.3144820  20.8517770  64.1449750  22.1219350  20.9447010
  71.8138370  14.6425010  35.9348630  72.1384140  13.9114670  36.4606610
  71.8494880  14.3238650  35.0329620  58.5129930  25.6638590  35.3548590
  58.1284720  25.0232260  35.9531550  58.8242120  26.3674710  35.9243320
  64.6627070  22.5115130  30.8357210  65.0297200  22.0373700  31.5818550
  64.4732130  23.3856700  31.1765550  57.5267560  17.2558820  26.9650680
  57.2414480  16.8914490  27.8029300  57.4646420  16.5239280  26.3513820
  62.4526440  21.5523770  33.1541420  62.1483510  22.4315750  33.3791780
  63.4072900  21.6123560  33.1898860  60.9808230  25.7584760  23.7508270
  60.2070490  25.2182380  23.5906990  61.7102860  25.2391370  23.4126030
  67.2006150  16.1488080  23.6864050  66.3870760  15.6501250  23.6109360
  67.0068100  16.9886330  23.2700400  67.1215010  24.8259180  35.4303660
  67.0552320  23.9054850  35.1761250  66.4920150  24.9234620  36.1448300
  61.0245630  25.4265140  27.3887080  61.5424300  24.6233400  27.3343970
  60.5729650  25.3644280  28.2303910  65.9115130  26.6931420  22.6614380
  66.2530830  27.4373650  22.1657700  65.0827840  27.0062540  23.0239210
  58.5090170  22.3926510  34.3012780  58.1505110  23.0580360  34.8886120
  58.2144730  21.5610060  34.6725400  61.7103290  22.8510750  37.1852330
  61.4103430  22.9967930  36.2880150  62.4814530  22.2916040  37.0925720
  67.0531740  27.6479750  35.1807460  67.0676280  26.7160710  34.9626370
  66.3456840  27.7339510  35.8197230  68.7942540  26.0147260  28.0259890
  69.1466360  25.4175390  27.3661260  67.9104870  25.6891490  28.1968140
  64.8805820  26.7744950  25.4330300  65.5676950  27.3214160  25.8137890
  64.0938240  27.3185680  25.4679910  57.0198220  22.3917770  20.9247380
  57.8893070  22.6742570  21.2083300  56.5288540  23.2053640  20.8096190
  64.1833030  23.7790980  25.0455660  64.6395810  24.5896230  25.2715850
  63.8321240  23.4614120  25.8774150  66.4865640  29.2897320  32.2747960
  67.1307860  29.4956700  32.9521380  66.8495080  28.5285720  31.8218810
  60.0844810  14.1228630  25.5178180  59.9559440  14.1146530  26.4663100
  59.2606830  14.4611720  25.1669190  67.7597720  27.2929670  30.9925410
  68.4019950  26.5922830  31.1057580  68.2847070  28.0728110  30.8122300
  69.5335340  28.0924570  34.1961470  69.8691580  28.6791260  34.8739390
  68.6135680  27.9617280  34.4259260  57.3869470  31.6045150  21.4909010
  57.7467110  32.2034490  20.8366280  57.2461810  32.1505040  22.2644040
  57.0838740  15.8819750  34.9784880  56.3697260  16.0816670  35.5837490
  57.5033780  15.1059320  35.3499680  57.3711330  29.8700010  35.9651410
  57.4802450  28.9294750  35.8246800  56.7191890  30.1354760  35.3165140
  65.3623920  28.1415900  37.3649530  65.0420790  27.4225140  37.9095220
  64.6882280  28.8170970  37.4385590  63.4038090  28.9876350  22.3082680
  63.3948190  29.7206040  21.6927190  62.4836450  28.7407930  22.4009640
  59.0044730  24.2091240  23.0529440  58.3972680  24.9490140  23.0624740
  59.4794080  24.2990600  22.2267640  66.3897690  29.0504590  20.9707870
  66.4909670  28.8468580  20.0409850  65.4899430  28.7962870  21.1755650
  63.9123580  19.6084950  24.9531770  63.2039730  20.0771290  25.3945380
  64.1968060  18.9506960  25.5876960  65.5379510  21.0281650  32.9524300
  66.0364760  21.5027470  33.6176150  65.6802460  20.1045170  33.1594330
  67.9439010  16.3335610  26.3927560  67.8206790  16.3521740  25.4437070
  68.8923570  16.3814550  26.5125960  65.0315800  31.5690910  25.6655540
  65.2857300  31.5312300  24.7434910  64.0828280  31.4424240  25.6583790
  62.1158600  17.9170030  22.3282480  62.9649130  18.3540180  22.2622670
  61.7489870  18.2290290  23.1554540  61.0150020  24.1702390  20.8018010
  61.7813290  24.0583750  21.3643440  61.0924710  23.4740360  20.1494780
  59.7096780  21.6027460  21.4850900  59.7900370  20.6554970  21.5968300
  60.6016530  21.9334340  21.5911560  60.5111490  31.7522850  28.5885440
  61.2473970  31.2038310  28.8594010  60.8952410  32.6178860  28.4491430
  57.3956970  27.8196420  24.4626950  56.4696750  28.0617560  24.4532360
  57.8613400  28.6470680  24.3411700  59.5169770  30.9368920  37.7771020
  60.3182500  31.2580970  38.1906420  59.0021590  30.5764500  38.4990930
  63.6213800  30.9253160  20.4111010  64.4142410  31.2141990  19.9592800
  63.1018150  30.4945330  19.7323490  68.3534400  27.0448790  37.7246430
  67.7472560  27.0680390  36.9842180  68.0488510  26.3131830  38.2613680
  72.6743970  30.1523290  21.8347750  72.3885480  29.7388430  21.0201930
  72.4763520  31.0811000  21.7148270  57.2367580  23.4242380  36.7207070
  57.7406600  22.8449660  37.2923300  56.4975000  23.7082610  37.2583440
  64.1391200  26.1456570  20.2753360  64.0341840  25.5308920  21.0014740
  63.9715420  25.6222460  19.4916370  64.2905520  24.8313370  36.2542590
  63.5251190  25.3998370  36.1697260  64.4721480  24.5389580  35.3610820
  67.3793930  25.2076600  20.8795350  66.8304030  25.6545900  21.5238090
  68.0013190  24.7025850  21.4033020  59.2690660  21.5671970  37.6157140
  59.3096000  21.2685840  38.5242370  60.1236160  21.9679580  37.4564660
  63.0469050  24.1667520  22.7760650  63.4685470  24.0007390  23.6192040
  63.1719890  23.3567750  22.2815790  61.2096470  20.1464070  35.5831630
  60.6792930  19.6555020  34.9554970  61.8784540  20.5748270  35.0489560
  65.5596690  23.1905130  20.0237750  66.0802350  22.4754150  19.6578900
  66.2065090  23.8291000  20.3238260  70.1074530  24.6133530  35.3472820
  70.5215550  24.7678610  36.1963240  69.1725530  24.7388750  35.5098600
  70.5796700  21.9529690  37.3511970  71.1617470  21.1982010  37.2632450
  70.7558470  22.4837130  36.5743450  61.6968770  17.1126440  35.6628920
  61.6025640  16.4947190  34.9379790  61.1166160  17.8392730  35.4358830
  64.4630210  15.6699680  32.6956310  64.0147510  15.6923940  31.8501860
  63.8295410  15.2718700  33.2926610  64.8689760  24.5654010  33.3168750
  65.2877870  25.4086740  33.1444990  63.9498390  24.7026050  33.0875530
  67.2053660  22.2970190  34.7006590  67.3249870  21.7011330  35.4401430
  68.0647660  22.3339880  34.2807890  61.9427950  20.2400750  19.7218810
  61.7417010  19.3768110  20.0832150  61.7720000  20.1534110  18.7840410
  62.7197180  30.8707020  34.4326480  62.1818270  31.5953080  34.1135180
  62.9731140  30.3937360  33.6423820  63.9722430  18.8391540  35.9582410
  64.5622120  18.5307390  36.6460230  63.1542670  18.3671290  36.1142310
  68.7915860  18.4557350  36.1915430  68.1031380  17.7938890  36.1265420
  69.5121880  18.0095620  36.6363890  69.4216260  15.0508980  22.2505690
  69.7018550  14.2076880  22.6065110  68.6481990  15.2832090  22.7644440
  60.7410750  17.3401370  19.7096690  61.0436650  17.3468800  18.8015840
  61.4805340  16.9899230  20.2064350  65.5759390  32.1058230  34.6913130
  65.5018090  33.0093370  34.9985500  64.6738230  31.7870130  34.6635200
  63.9595680  16.2835990  20.6952890  63.6117680  15.6059980  20.1155340
  64.1608450  15.8225500  21.5096280  66.1244720  31.2716740  22.3139490
  67.0195510  31.6101710  22.3358250  66.1562350  30.5496150  21.6863770
  59.7640880  26.6443790  20.5426490  60.2015750  27.1873460  21.1984070
  60.2488610  25.8190740  20.5522830  56.9786680  29.4332820  27.9946750
  57.3089690  28.5653880  27.7625390  57.4077680  29.6391340  28.8251710
  61.5748600  27.7641830  25.6548720  61.2744140  27.6406800  26.5552630
  61.4686090  26.9050420  25.2464450  57.4676890  30.3003410  30.7328380
  57.0307880  30.4804210  31.5652530  58.0354570  31.0578030  30.5910100
  57.3001320  22.8123640  27.0917260  56.6450160  22.5435280  26.4476960
  58.1379270  22.7028120  26.6419240  58.3377250  23.1976210  31.6320600
  58.7050290  23.1103610  32.5116620  57.7688070  22.4342760  31.5327460
  57.8893250  20.1085300  35.5379020  56.9949300  20.0752060  35.8772730
  58.4290800  20.3072090  36.3030270  71.5769180  16.8917020  37.4230770
  72.4539360  16.9000420  37.8064770  71.5890020  16.1547860  36.8123120
  56.5139400  20.0222570  23.0342590  55.6103480  20.2852770  22.8594250
  56.9980020  20.2933740  22.2542550  59.0566610  19.0788110  20.9436970
  59.7658310  18.6571330  20.4584250  58.3406550  19.1463340  20.3120320
  58.7040770  15.1327440  19.9839620  59.4268900  15.6736380  20.3020840
  58.9765290  14.8590860  19.1081160  58.3932960  14.3833630  29.8862240
  59.0409150  13.8331010  29.4457400  58.8134800  14.6376780  30.7078050
  71.8466760  31.2790990  26.6450120  72.4425830  30.9575560  25.9684540
  72.1044910  30.8062810  27.4363390  58.1464960  14.5389300  32.6287560
  57.7979780  14.9953120  33.3945740  57.8152660  13.6446430  32.7109990
  59.7529330  27.7108900  36.7940750  59.7098960  27.3401810  37.6755210
  59.8840340  28.6486470  36.9342570  63.4535360  29.2668490  32.3950470
  63.2126720  29.5343050  31.5080990  64.3938000  29.4374220  32.4501330
  65.6589780  15.7301180  36.1506980  65.5978670  16.3223010  36.9002390
  66.5990160  15.6227140  36.0057240  68.2964340  15.3871240  35.7899270
  68.9104750  15.7050530  35.1280350  68.8413900  14.9019830  36.4095130
  58.8185600  14.0665500  35.9038330  59.3668590  13.8853550  35.1404440
  58.8840910  13.2759610  36.4394640  59.5917360  30.6571150  33.9138530
  58.9977680  30.5255850  34.6528570  59.5841200  29.8209290  33.4480630
  69.0372380  13.9503380  32.1168560  68.1632220  14.2838490  31.9141490
  68.9283130  13.4776560  32.9420430  59.2229590  28.0229530  32.8646570
  58.4963650  27.4034820  32.7972520  59.2838740  28.4170140  31.9944650
  62.8274690  30.2374530  29.6495980  63.3439710  29.6261890  29.1244240
  63.4772070  30.7403310  30.1406990  65.5670190  31.1283020  30.4764960
  65.8548000  30.8737320  29.5997970  66.0793410  30.5760380  31.0670530
  66.7847200  14.8673220  31.0561470  66.0018990  15.3418720  31.3358230
  66.4910130  13.9628050  30.9474650  73.2006840  15.2011560  27.1119380
  73.1395240  14.2572780  26.9650400  73.9798870  15.3091650  27.6572840
  57.5059590  31.3403920  26.0743330  57.3381630  30.7074600  26.7725220
  56.6394100  31.5463320  25.7237520  58.1287610  15.1720700  23.5775190
  58.8866970  15.2849580  23.0039220  57.6664780  16.0089900  23.5318620
  64.6701420  17.2859970  26.5677500  63.8575930  16.9116860  26.2273380
  65.1743060  16.5305050  26.8698690  69.1726400  13.9502420  27.8060570
  69.7755770  14.5222630  28.2809090  68.4319390  14.5141860  27.5834470
  59.1122290  30.0337150  23.5193470  58.5869910  30.4145180  22.8155430
  59.0366870  30.6587920  24.2403180  60.5012760  15.6984750  22.1177160
  61.0305520  14.9114550  21.9885110  61.1341080  16.3775940  22.3512690
  62.6950600  15.4359890  25.1722550  62.0653340  14.7347200  25.3392680
  62.1555740  16.1964020  24.9555710  65.6342550  32.0499120  37.8433160
  66.5609860  31.8143390  37.8869120  65.6192980  32.8771120  37.3619190
  73.8687610  31.5924690  24.8407410  74.0439800  30.9062430  24.1968330
  73.1709180  32.1171740  24.4484080  62.8206160  14.7143870  37.6075040
  62.5390430  15.2177470  36.8435860  63.2025860  13.9165620  37.2417170
  61.7115260  31.9819530  22.3942720  62.4434080  31.6978810  21.8466610
  61.9708930  31.7432810  23.2842100  60.8730050  28.0984260  22.3989050
  60.2438930  28.5669360  22.9474880  60.9877880  27.2533480  22.8335240
  69.4221620  14.1297450  38.1855510  69.3087070  14.4492060  39.0807030
  70.2391360  14.5309960  37.8892790  68.3279770  22.1489920   8.5490250
  68.2473820  21.2344530   8.2781960  67.9144190  22.6456990   7.8429960
  66.4597810  23.9268940  10.4299520  65.6839910  23.4469380  10.7198090
  67.1110740  23.2474590  10.2555680  60.4763640  24.2388750  11.3075280
  59.6448520  23.9837460  11.7071790  61.0844620  24.3099520  12.0433200
  70.4805240  28.3329130   9.2098650  70.0186770  27.5616370   9.5385820
  71.2930790  28.3595200   9.7151100  60.4564900  28.2728840  11.5033300
  60.7592940  27.3826580  11.3243520  61.2008490  28.8299060  11.2755550
  58.8855590  19.1990640   5.0917670  57.9972290  19.5406610   4.9897550
  59.1696780  18.9990960   4.1998500  56.8488600  21.7996290  10.9757370
  57.4204710  21.0318490  10.9761010  56.8490140  22.0985050  10.0663980
  66.7068550  30.6187140   8.8302640  66.0879990  31.0744640   8.2597080
  67.5620330  30.7738600   8.4292340  65.9006800  26.6026130  10.4369680
  65.8315080  25.6616070  10.2758810  66.6626660  26.6927540  11.0092250
  58.0913470  17.2080650  12.7626300  57.9116310  16.3106400  13.0429060
  57.6893550  17.7552520  13.4373250  66.9311970  19.4096510  10.6638610
  67.3076790  18.5368390  10.5512280  66.8331480  19.7455210   9.7729050
  61.0616980  17.7822140   6.1256050  61.1683730  18.6825870   6.4324810
  60.1509340  17.7340110   5.8350700  70.7136090  16.9046950   7.5966950
  71.5345710  16.4143520   7.6392430  70.7470170  17.4944610   8.3498790
  58.7100140  19.7041150  11.3708640  59.3910250  19.9679520  11.9896040
  58.3948190  18.8642020  11.7046650  62.9024710  20.7508510  10.4581230
  63.4102930  21.2489480  11.0986250  63.4337950  19.9743710  10.2820590
  75.0035640  18.9213700  14.1610580  74.2987810  19.3095410  13.6425690
  75.2693560  19.6163990  14.7631510  61.1860810  15.3907070  14.7244650
  61.1879250  15.9079460  13.9190550  60.3565120  14.9137250  14.7014580
  67.5731900  25.5026380   6.2234550  66.9549170  25.9675830   5.6597270
  68.0855150  26.1953860   6.6404060  62.4363660  25.0302250  12.9018150
  62.1033040  25.6571170  13.5439220  62.6130340  25.5564130  12.1219820
  70.9497570  18.8447330  10.3694490  70.2453140  19.1332220  10.9497600
  71.3109730  19.6547440  10.0094050  60.8676140  17.1017030  12.7315100
  61.2092950  17.9459080  12.4368970  59.9291950  17.2500770  12.8480440
  61.6482760  26.9983050  14.7167330  62.2656760  27.6734130  14.4351780
  60.7875880  27.4071030  14.6254830  56.9415100  26.1882910   3.5974180
  56.5643080  26.6770010   2.8659080  57.1988170  26.8608190   4.2280710
  72.5660350  28.4622460  12.6321970  71.8823870  29.1321570  12.6238640
  73.1054640  28.6603110  11.8666830  74.0184490  18.2902120  10.7603700
  73.0709400  18.3241100  10.8919130  74.3434480  19.1041070  11.1453060
  64.5504030  14.5899300   9.0559690  64.8579010  14.0346190   8.3395190
  63.6204730  14.7243760   8.8732680  70.1019090  30.3066590  11.3467150
  70.1146250  29.9028880  10.4789410  69.5494310  31.0813880  11.2428580
  71.3964510  27.0282810   6.4357320  71.2860840  26.0857140   6.5606740
  71.3932760  27.3898450   7.3220080  69.5004530  25.2096430  12.6749760
  69.9173320  24.9956540  11.8403220  70.2244350  25.4669220  13.2458380
  66.9384790  22.6548130   5.7919810  66.0114070  22.5885510   6.0208280
  67.0909610  23.5928260   5.6775050  66.9253870  18.9265130   2.7886970
  65.9857540  19.0879090   2.8739430  67.2437130  19.6450810   2.2422960
  73.4466630  23.6083650  12.7666000  72.6185260  23.6776740  12.2916130
  74.0417110  24.1937960  12.2981830  70.9682080  24.2168430   6.2955060
  70.3494500  23.8787980   5.6481360  70.9506530  23.5728190   7.0034250
  62.5441430  23.1812870   8.5739540  62.1398430  22.4690120   8.0785440
  62.6304550  22.8366110   9.4627580  63.0123130  26.8680430  10.7378750
  62.7151420  26.2625900  10.0586530  63.9622950  26.9057740  10.6268110
  61.2570050  19.9556080  12.3538580  61.8084640  20.0651420  11.5791830
  61.7713560  20.3293680  13.0693810  71.1008740  30.4412300  14.4001850
  70.6239300  31.2484490  14.2074460  70.4170530  29.7890630  14.5528060
  62.1041560  26.6062120  17.3886550  61.2070090  26.8302090  17.6359950
  62.1294430  26.7297060  16.4397950  69.1446780  23.4555240   3.3027810
  69.5840060  22.6177670   3.1565630  69.8575200  24.0884640   3.3891950
  60.9312780  23.4775440  15.9643920  60.7920550  24.3498240  16.3331320
  60.0494140  23.1348250  15.8191860  67.2542160  28.3951310   7.2709050
  67.6938070  29.1375640   6.8564440  67.1929050  28.6377880   8.1948010
  62.7293130  29.4197140  18.1729070  62.7008560  29.8240090  17.3057500
  62.5658100  28.4907500  18.0100670  59.2446060  22.0757850   6.0746190
  59.1243660  22.8019940   5.4627460  58.9346950  21.3060760   5.5974100
  74.6807950  30.2024240  19.4693240  75.1567670  30.6807130  20.1482320
  75.3015110  30.1341730  18.7438740  56.8831430  25.2472990  11.8814830
  56.9611850  25.3821760  10.9370550  57.4973110  24.5388880  12.0742950
  58.1279060  26.9473180   8.2921010  57.7207140  27.0887770   7.4374610
  59.0192070  26.6633340   8.0892220  74.0841200  27.3937090  16.6293250
  74.2104260  27.1548970  15.7110430  74.1262580  26.5621630  17.1015330
  67.9457940  31.0965090  15.1988060  68.4602610  31.0073100  16.0010490
  67.1027020  31.4424790  15.4915970  69.9212340  31.3820430   4.6272060
  69.7613480  31.0923370   5.5253890  69.7559050  30.6060560   4.0917290
  62.4000720  31.1618960   6.4043680  62.2243200  30.2454500   6.1911480
  61.5456460  31.5206250   6.6441480  69.6238470  28.8907990   3.1870060
  68.9303630  28.8885280   2.5272340  70.3661330  28.4667310   2.7564230
  69.1888400  30.5170700   7.2618550  69.6445350  29.7360080   7.5757170
  69.5280920  31.2277520   7.8059730  56.9390950  26.2887160  14.4209290
  57.1021990  25.8192520  13.6028660  57.4043400  25.7810720  15.0858130
  61.7109720  15.4192920   9.4569860  61.2677870  16.2002460   9.1254380
  62.2694710  15.7422810  10.1640800  64.8268540  15.0403620   4.3375690
  64.2022720  15.0363490   5.0629000  64.7398660  14.1734580   3.9411660
  63.7485620  15.9640250  11.3159460  64.0457950  16.8703080  11.2351480
  64.2971180  15.4759030  10.7019030  61.5023940  20.5426490   7.1851110
  61.2764860  20.3263660   8.0897730  60.7216470  20.9754950   6.8397080
  68.7321700  20.5489860   5.7841760  68.1330590  21.2725660   5.6005380
  69.2801310  20.4866640   5.0018210  63.9423150  21.4412070  17.8511380
  63.8466750  20.5006800  17.7011780  64.7855130  21.6627140  17.4559450
  67.3386570  19.1853400   7.8145040  67.7316140  19.5025600   7.0013730
  67.7003420  18.3065280   7.9289560  59.0733690  17.8525740  16.0045160
  58.6797080  18.7000950  16.2117940  58.3852090  17.2152110  16.1953800
  65.6478740  17.9360710  19.0741900  64.9577060  17.7432910  19.7087990
  66.3911040  18.2195350  19.6066200  56.3750740  15.7754200  10.0375240
  56.0863790  16.3457060  10.7500220  57.1196500  15.2958650  10.4006470
  67.9241710  21.7759150  11.9095820  67.1922830  22.2845960  12.2585920
  67.5266050  20.9589130  11.6084600  64.3619100  18.4513350  10.3148310
  64.3655160  18.0103300   9.4652850  65.2570220  18.7730680  10.4220130
  60.2121480  18.3339840   9.2742520  59.8721530  18.8115070  10.0309570
  59.4498800  17.8804960   8.9143620  64.4239250  19.4525430   3.3055070
  64.5452070  19.4111910   4.2540890  64.0387760  20.3149580   3.1501800
  68.3867620  17.2292830  11.3218760  68.4040360  17.6801480  12.1660610
  68.1383200  16.3298470  11.5352200  63.4360750  21.7626570   2.7038370
  62.8677650  21.3144820   2.0774280  64.1449750  22.1219350   2.1703520
  71.8138370  14.6425010  17.1605140  72.1384140  13.9114670  17.6863120
  71.8494880  14.3238650  16.2586130  58.5129930  25.6638590  16.5805100
  58.1284720  25.0232260  17.1788060  58.8242120  26.3674710  17.1499830
  64.6627070  22.5115130  12.0613720  65.0297200  22.0373700  12.8075060
  64.4732130  23.3856700  12.4022060  57.5267560  17.2558820   8.1907190
  57.2414480  16.8914490   9.0285810  57.4646420  16.5239280   7.5770330
  62.4526440  21.5523770  14.3797930  62.1483510  22.4315750  14.6048290
  63.4072900  21.6123560  14.4155370  60.9808230  25.7584760   4.9764780
  60.2070490  25.2182380   4.8163500  61.7102860  25.2391370   4.6382540
  71.7396210  24.7550120  10.7691170  72.4595330  25.2505410  10.3787280
  71.5378030  24.0768010  10.1245040  67.2006150  16.1488080   4.9120560
  66.3870760  15.6501250   4.8365870  67.0068100  16.9886330   4.4956910
  67.1215010  24.8259180  16.6560170  67.0552320  23.9054850  16.4017760
  66.4920150  24.9234620  17.3704810  69.9154540  20.5207730   3.2082720
  70.8034160  20.8324960   3.0334060  69.8859630  19.6479980   2.8163300
  61.0245630  25.4265140   8.6143590  61.5424300  24.6233400   8.5600480
  60.5729650  25.3644280   9.4560420  65.9115130  26.6931420   3.8870890
  66.2530830  27.4373650   3.3914210  65.0827840  27.0062540   4.2495720
  58.5090170  22.3926510  15.5269290  58.1505110  23.0580360  16.1142630
  58.2144730  21.5610060  15.8981910  61.7103290  22.8510750  18.4108840
  61.4103430  22.9967930  17.5136660  62.4814530  22.2916040  18.3182230
  67.0531740  27.6479750  16.4063970  67.0676280  26.7160710  16.1882880
  66.3456840  27.7339510  17.0453740  72.1868810  21.8319570   2.6762580
  72.1032530  22.2633790   1.8259020  72.9063000  22.2917920   3.1089400
  73.2156060  28.6861830   5.4044710  72.5732220  28.0317450   5.6788430
  72.8286720  29.0916920   4.6285380  68.7942540  26.0147260   9.2516400
  69.1466360  25.4175390   8.5917770  67.9104870  25.6891490   9.4224650
  64.8805820  26.7744950   6.6586810  65.5676950  27.3214160   7.0394400
  64.0938240  27.3185680   6.6936420  57.0198220  22.3917770   2.1503890
  57.8893070  22.6742570   2.4339810  56.5288540  23.2053640   2.0352700
  64.1833030  23.7790980   6.2712170  64.6395810  24.5896230   6.4972360
  63.8321240  23.4614120   7.1030660  66.4865640  29.2897320  13.5004470
  67.1307860  29.4956700  14.1777890  66.8495080  28.5285720  13.0475320
  60.0844810  14.1228630   6.7434690  59.9559440  14.1146530   7.6919610
  59.2606830  14.4611720   6.3925700  67.7597720  27.2929670  12.2181920
  68.4019950  26.5922830  12.3314090  68.2847070  28.0728110  12.0378810
  69.5335340  28.0924570  15.4217980  69.8691580  28.6791260  16.0995900
  68.6135680  27.9617280  15.6515770  57.3869470  31.6045150   2.7165520
  57.7467110  32.2034490   2.0622790  57.2461810  32.1505040   3.4900550
  57.0838740  15.8819750  16.2041390  56.3697260  16.0816670  16.8094000
  57.5033780  15.1059320  16.5756190  71.1869690  25.4950230   3.6035220
  70.8991390  25.9562920   4.3913100  71.9821860  25.0348000   3.8719440
  57.3711330  29.8700010  17.1907920  57.4802450  28.9294750  17.0503310
  56.7191890  30.1354760  16.5421650  65.3623920  28.1415900  18.5906040
  65.0420790  27.4225140  19.1351730  64.6882280  28.8170970  18.6642100
  63.4038090  28.9876350   3.5339190  63.3948190  29.7206040   2.9183700
  62.4836450  28.7407930   3.6266150  59.0044730  24.2091240   4.2785950
  58.3972680  24.9490140   4.2881250  59.4794080  24.2990600   3.4524150
  71.9439550  17.3299000   4.7630400  71.3152710  17.4344670   4.0488630
  71.4491470  17.5495780   5.5524280  63.9123580  19.6084950   6.1788280
  63.2039730  20.0771290   6.6201890  64.1968060  18.9506960   6.8133470
  65.5379510  21.0281650  14.1780810  66.0364760  21.5027470  14.8432660
  65.6802460  20.1045170  14.3850840  67.9439010  16.3335610   7.6184070
  67.8206790  16.3521740   6.6693580  68.8923570  16.3814550   7.7382470
  65.0315800  31.5690910   6.8912050  65.2857300  31.5312300   5.9691420
  64.0828280  31.4424240   6.8840300  62.1158600  17.9170030   3.5538990
  62.9649130  18.3540180   3.4879180  61.7489870  18.2290290   4.3811050
  71.0368380  22.4882790   8.4670560  70.0958520  22.5033020   8.6418250
  71.3512450  21.7018750   8.9130860  59.7096780  21.6027460   2.7107410
  59.7900370  20.6554970   2.8224810  60.6016530  21.9334340   2.8168070
  73.0393960  29.6591640  10.1424820  73.1641380  30.4822810  10.6148630
  73.9059520  29.4482370   9.7948970  60.5111490  31.7522850   9.8141950
  61.2473970  31.2038310  10.0850520  60.8952410  32.6178860   9.6747940
  57.3956970  27.8196420   5.6883460  56.4696750  28.0617560   5.6788870
  57.8613400  28.6470680   5.5668210  59.5169770  30.9368920  19.0027530
  60.3182500  31.2580970  19.4162930  59.0021590  30.5764500  19.7247440
  68.3534400  27.0448790  18.9502940  67.7472560  27.0680390  18.2098690
  68.0488510  26.3131830  19.4870190  69.7834770  30.7729080  17.5612350
  70.7356520  30.6887100  17.5112590  69.6362990  31.4370790  18.2346140
  72.6743970  30.1523290   3.0604260  72.3885480  29.7388430   2.2458440
  72.4763520  31.0811000   2.9404780  57.2367580  23.4242380  17.9463580
  57.7406600  22.8449660  18.5179810  56.4975000  23.7082610  18.4839950
  64.2905520  24.8313370  17.4799100  63.5251190  25.3998370  17.3953770
  64.4721480  24.5389580  16.5867330  67.3793930  25.2076600   2.1051860
  66.8304030  25.6545900   2.7494600  68.0013190  24.7025850   2.6289530
  71.4328870  26.5618700  18.0374120  72.1738340  26.8994460  17.5341580
  70.6701550  26.7310760  17.4843890  59.2690660  21.5671970  18.8413650
  59.3096000  21.2685840  19.7498880  60.1236160  21.9679580  18.6821170
  63.0469050  24.1667520   4.0017160  63.4685470  24.0007390   4.8448550
  63.1719890  23.3567750   3.5072300  61.2096470  20.1464070  16.8088140
  60.6792930  19.6555020  16.1811480  61.8784540  20.5748270  16.2746070
  61.6968770  17.1126440  16.8885430  61.6025640  16.4947190  16.1636300
  61.1166160  17.8392730  16.6615340  64.4630210  15.6699680  13.9212820
  64.0147510  15.6923940  13.0758370  63.8295410  15.2718700  14.5183120
  64.8689760  24.5654010  14.5425260  65.2877870  25.4086740  14.3701500
  63.9498390  24.7026050  14.3132040  62.7197180  30.8707020  15.6582990
  62.1818270  31.5953080  15.3391690  62.9731140  30.3937360  14.8680330
  63.9722430  18.8391540  17.1838920  64.5622120  18.5307390  17.8716740
  63.1542670  18.3671290  17.3398820  69.4216260  15.0508980   3.4762200
  69.7018550  14.2076880   3.8321620  68.6481990  15.2832090   3.9900950
  65.5759390  32.1058230  15.9169640  65.5018090  33.0093370  16.2242010
  64.6738230  31.7870130  15.8891710  66.1244720  31.2716740   3.5396000
  67.0195510  31.6101710   3.5614760  66.1562350  30.5496150   2.9120280
  59.7640880  26.6443790   1.7683000  60.2015750  27.1873460   2.4240580
  60.2488610  25.8190740   1.7779340  56.9786680  29.4332820   9.2203260
  57.3089690  28.5653880   8.9881900  57.4077680  29.6391340  10.0508220
  61.5748600  27.7641830   6.8805230  61.2744140  27.6406800   7.7809140
  61.4686090  26.9050420   6.4720960  57.4676890  30.3003410  11.9584890
  57.0307880  30.4804210  12.7909040  58.0354570  31.0578030  11.8166610
  73.1039070  29.8020410  16.2462200  72.5041060  29.8612970  15.5026120
  73.2332970  28.8625390  16.3759050  73.7996980  24.2885710   4.0866110
  74.5615890  24.8582360   4.1925800  73.8151350  23.7212910   4.8574420
  57.3001320  22.8123640   8.3173770  56.6450160  22.5435280   7.6733470
  58.1379270  22.7028120   7.8675750  74.8056950  25.1435810   8.9308040
  75.1765780  24.3603130   8.5244010  75.4458880  25.8324910   8.7525340
  71.7890710  26.5272390  14.3438360  70.9750550  26.9569550  14.6064150
  72.1964910  27.1390800  13.7307410  70.2491760  17.6064930   2.5392260
  70.6676640  17.4195910   1.6988920  69.9427820  16.7543980   2.8495190
  73.7481490  22.5189070   6.2368060  73.3725090  21.7517000   5.8049350
  73.0184610  22.9011770   6.7242990  58.3377250  23.1976210  12.8577110
  58.7050290  23.1103610  13.7373130  57.7688070  22.4342760  12.7583970
  57.8893250  20.1085300  16.7635530  56.9949300  20.0752060  17.1029240
  58.4290800  20.3072090  17.5286780  56.5139400  20.0222570   4.2599100
  55.6103480  20.2852770   4.0850760  56.9980020  20.2933740   3.4799060
  73.0232450  20.7446560   9.5375300  73.5469930  20.2509210   8.9065470
  73.6091870  20.8796920  10.2822870  73.2022170  20.8286430  13.0594850
  72.2524880  20.7949970  13.1739840  73.3835180  21.7386540  12.8244620
  72.5132420  20.0019910   5.4767710  73.0091540  19.7690780   6.2616590
  72.3148490  19.1631750   5.0605350  58.3932960  14.3833630  11.1118750
  59.0409150  13.8331010  10.6713910  58.8134800  14.6376780  11.9334560
  73.9419580  18.6380860   8.0105390  73.8318860  18.4836900   8.9487660
  74.7027170  18.1101800   7.7680800  72.2885300  14.5774990  14.4688390
  72.9257520  15.1909130  14.8347580  72.4360190  14.6135650  13.5237620
  74.9048340  17.2399440   3.8768240  74.1099840  17.1744560   4.4061150
  75.1091620  18.1750080   3.8653590  71.8466760  31.2790990   7.8706630
  72.4425830  30.9575560   7.1941050  72.1044910  30.8062810   8.6619900
  58.1464960  14.5389300  13.8544070  57.7979780  14.9953120  14.6202250
  57.8152660  13.6446430  13.9366500  59.7529330  27.7108900  18.0197260
  59.7098960  27.3401810  18.9011720  59.8840340  28.6486470  18.1599080
  63.4535360  29.2668490  13.6206980  63.2126720  29.5343050  12.7337500
  64.3938000  29.4374220  13.6757840  65.6589780  15.7301180  17.3763490
  65.5978670  16.3223010  18.1258900  66.5990160  15.6227140  17.2313750
  68.2964340  15.3871240  17.0155780  68.9104750  15.7050530  16.3536860
  68.8413900  14.9019830  17.6351640  74.7139520  31.2862870  14.4217620
  74.2197800  31.6831740  13.7044750  74.1052810  30.6612080  14.8154900
  58.8185600  14.0665500  17.1294840  59.3668590  13.8853550  16.3660950
  58.8840910  13.2759610  17.6651150  59.5917360  30.6571150  15.1395040
  58.9977680  30.5255850  15.8785080  59.5841200  29.8209290  14.6737140
  69.0372380  13.9503380  13.3425070  68.1632220  14.2838490  13.1398000
  68.9283130  13.4776560  14.1676940  69.9444360  16.1574250  14.7266790
  69.6157720  15.3426010  14.3468520  70.8926660  16.1144060  14.6032480
  72.3978970  31.9286290  11.7004360  71.9381940  32.6802100  11.3262380
  71.7691430  31.2092760  11.6419160  59.2229590  28.0229530  14.0903080
  58.4963650  27.4034820  14.0229030  59.2838740  28.4170140  13.2201160
  62.8274690  30.2374530  10.8752490  63.3439710  29.6261890  10.3500750
  63.4772070  30.7403310  11.3663500  65.5670190  31.1283020  11.7021470
  65.8548000  30.8737320  10.8254480  66.0793410  30.5760380  12.2927040
  66.7847200  14.8673220  12.2817980  66.0018990  15.3418720  12.5614740
  66.4910130  13.9628050  12.1731160  71.3368270  15.5696320  10.3267070
  71.7776360  15.5141420   9.4788670  71.0675860  16.4854330  10.3977250
  73.2006840  15.2011560   8.3375890  73.1395240  14.2572780   8.1906910
  73.9798870  15.3091650   8.8829350  57.5059590  31.3403920   7.2999840
  57.3381630  30.7074600   7.9981730  56.6394100  31.5463320   6.9494030
  58.1287610  15.1720700   4.8031700  58.8866970  15.2849580   4.2295730
  57.6664780  16.0089900   4.7575130  64.6701420  17.2859970   7.7934010
  63.8575930  16.9116860   7.4529890  65.1743060  16.5305050   8.0955200
  69.1726400  13.9502420   9.0317080  69.7755770  14.5222630   9.5065600
  68.4319390  14.5141860   8.8090980  72.3161000  14.3523980   4.3057360
  72.5111630  15.2507430   4.5724790  71.5290870  14.1211060   4.7990310
  59.1122290  30.0337150   4.7449980  58.5869910  30.4145180   4.0411940
  59.0366870  30.6587920   5.4659690  60.5012760  15.6984750   3.3433670
  61.0305520  14.9114550   3.2141620  61.1341080  16.3775940   3.5769200
  62.6950600  15.4359890   6.3979060  62.0653340  14.7347200   6.5649190
  62.1555740  16.1964020   6.1812220  65.6342550  32.0499120  19.0689670
  66.5609860  31.8143390  19.1125630  65.6192980  32.8771120  18.5875700
  73.8687610  31.5924690   6.0663920  74.0439800  30.9062430   5.4224840
  73.1709180  32.1171740   5.6740590  62.8206160  14.7143870  18.8331550
  62.5390430  15.2177470  18.0692370  63.2025860  13.9165620  18.4673680
  61.7115260  31.9819530   3.6199230  62.4434080  31.6978810   3.0723120
  61.9708930  31.7432810   4.5098610  60.8730050  28.0984260   3.6245560
  60.2438930  28.5669360   4.1731390  60.9877880  27.2533480   4.0591750
  69.4221620  14.1297450  19.4112020  69.3087070  14.4492060  20.3063540
  70.2391360  14.5309960  19.1149300  72.2020110  31.2768980  18.8930710
  72.9945430  30.7818210  18.6856670  72.4953260  31.9559120  19.5006320
  68.3279770   3.3746430  64.8720720  68.2473820   2.4601040  64.6012430
  67.9144190   3.8713500  64.1660430  66.4597810   5.1525450  66.7529990
  65.6839910   4.6725890  67.0428560  67.1110740   4.4731100  66.5786150
  60.4763640   5.4645260  67.6305750  59.6448520   5.2093970  68.0302260
  61.0844620   5.5356030  68.3663670  70.4805240   9.5585640  65.5329120
  70.0186770   8.7872880  65.8616290  71.2930790   9.5851710  66.0381570
  60.4564900   9.4985350  67.8263770  60.7592940   8.6083090  67.6473990
  61.2008490  10.0555570  67.5986020  56.8488600   3.0252800  67.2987840
  57.4204710   2.2575000  67.2991480  56.8490140   3.3241560  66.3894450
  66.7068550  11.8443650  65.1533110  66.0879990  12.3001150  64.5827550
  67.5620330  11.9995110  64.7522810  65.9006800   7.8282640  66.7600150
  65.8315080   6.8872580  66.5989280  66.6626660   7.9184050  67.3322720
  67.5731900   6.7282890  62.5465020  66.9549170   7.1932340  61.9827740
  68.0855150   7.4210370  62.9634530  62.4363660   6.2558760  69.2248620
  62.1033040   6.8827680  69.8669690  62.6130340   6.7820640  68.4450290
  61.6482760   8.2239560  71.0397800  62.2656760   8.8990640  70.7582250
  60.7875880   8.6327540  70.9485300  56.9415100   7.4139420  59.9204650
  56.5643080   7.9026520  59.1889550  57.1988170   8.0864700  60.5511180
  72.5660350   9.6878970  68.9552440  71.8823870  10.3578080  68.9469110
  73.1054640   9.8859620  68.1897300  70.1019090  11.5323100  67.6697620
  70.1146250  11.1285390  66.8019880  69.5494310  12.3070390  67.5659050
  71.3964510   8.2539320  62.7587790  71.2860840   7.3113650  62.8837210
  71.3932760   8.6154960  63.6450550  69.5004530   6.4352940  68.9980230
  69.9173320   6.2213050  68.1633690  70.2244350   6.6925730  69.5688850
  66.9384790   3.8804640  62.1150280  66.0114070   3.8142020  62.3438750
  67.0909610   4.8184770  62.0005520  73.4466630   4.8340160  69.0896470
  72.6185260   4.9033250  68.6146600  74.0417110   5.4194470  68.6212300
  70.9682080   5.4424940  62.6185530  70.3494500   5.1044490  61.9711830
  70.9506530   4.7984700  63.3264720  62.5441430   4.4069380  64.8970010
  62.1398430   3.6946630  64.4015910  62.6304550   4.0622620  65.7858050
  63.0123130   8.0936940  67.0609220  62.7151420   7.4882410  66.3817000
  63.9622950   8.1314250  66.9498580  71.1008740  11.6668810  70.7232320
  70.6239300  12.4741000  70.5304930  70.4170530  11.0147140  70.8758530
  62.1041560   7.8318630  73.7117020  61.2070090   8.0558600  73.9590420
  62.1294430   7.9553570  72.7628420  69.1446780   4.6811750  59.6258280
  69.5840060   3.8434180  59.4796100  69.8575200   5.3141150  59.7122420
  60.9312780   4.7031950  72.2874390  60.7920550   5.5754750  72.6561790
  60.0494140   4.3604760  72.1422330  67.2542160   9.6207820  63.5939520
  67.6938070  10.3632150  63.1794910  67.1929050   9.8634390  64.5178480
  62.7293130  10.6453650  74.4959540  62.7008560  11.0496600  73.6287970
  62.5658100   9.7164010  74.3331140  59.2446060   3.3014360  62.3976660
  59.1243660   4.0276450  61.7857930  58.9346950   2.5317270  61.9204570
  56.8831430   6.4729500  68.2045300  56.9611850   6.6078270  67.2601020
  57.4973110   5.7645390  68.3973420  58.1279060   8.1729690  64.6151480
  57.7207140   8.3144280  63.7605080  59.0192070   7.8889850  64.4122690
  74.0841200   8.6193600  72.9523720  74.2104260   8.3805480  72.0340900
  74.1262580   7.7878140  73.4245800  67.9457940  12.3221600  71.5218530
  68.4602610  12.2329610  72.3240960  67.1027020  12.6681300  71.8146440
  69.9212340  12.6076940  60.9502530  69.7613480  12.3179880  61.8484360
  69.7559050  11.8317070  60.4147760  62.4000720  12.3875470  62.7274150
  62.2243200  11.4711010  62.5141950  61.5456460  12.7462760  62.9671950
  69.6238470  10.1164500  59.5100530  68.9303630  10.1141790  58.8502810
  70.3661330   9.6923820  59.0794700  69.1888400  11.7427210  63.5849020
  69.6445350  10.9616590  63.8987640  69.5280920  12.4534030  64.1290200
  56.9390950   7.5143670  70.7439760  57.1021990   7.0449030  69.9259130
  57.4043400   7.0067230  71.4088600  68.0933750   2.2328650  74.6131100
  68.4187160   1.3992400  74.2733330  68.8814080   2.7557170  74.7609430
  61.5023940   1.7683000  63.5081580  61.2764860   1.5520170  64.4128200
  60.7216470   2.2011460  63.1627550  68.7321700   1.7746370  62.1072230
  68.1330590   2.4982170  61.9235850  69.2801310   1.7123150  61.3248680
  63.9423150   2.6668580  74.1741850  63.8466750   1.7263310  74.0242250
  64.7855130   2.8883650  73.7789920  67.9241710   3.0015660  68.2326290
  67.1922830   3.5102470  68.5816390  67.5266050   2.1845640  67.9315070
  63.4360750   2.9883080  59.0268840  62.8677650   2.5401330  58.4004750
  64.1449750   3.3475860  58.4933990  58.5129930   6.8895100  72.9035570
  58.1284720   6.2488770  73.5018530  58.8242120   7.5931220  73.4730300
  64.6627070   3.7371640  68.3844190  65.0297200   3.2630210  69.1305530
  64.4732130   4.6113210  68.7252530  62.4526440   2.7780280  70.7028400
  62.1483510   3.6572260  70.9278760  63.4072900   2.8380070  70.7385840
  60.9808230   6.9841270  61.2995250  60.2070490   6.4438890  61.1393970
  61.7102860   6.4647880  60.9613010  71.7396210   5.9806630  67.0921640
  72.4595330   6.4761920  66.7017750  71.5378030   5.3024520  66.4475510
  67.1215010   6.0515690  72.9790640  67.0552320   5.1311360  72.7248230
  66.4920150   6.1491130  73.6935280  61.0245630   6.6521650  64.9374060
  61.5424300   5.8489910  64.8830950  60.5729650   6.5900790  65.7790890
  65.9115130   7.9187930  60.2101360  66.2530830   8.6630160  59.7144680
  65.0827840   8.2319050  60.5726190  58.5090170   3.6183020  71.8499760
  58.1505110   4.2836870  72.4373100  58.2144730   2.7866570  72.2212380
  61.7103290   4.0767260  74.7339310  61.4103430   4.2224440  73.8367130
  62.4814530   3.5172550  74.6412700  67.0531740   8.8736260  72.7294440
  67.0676280   7.9417220  72.5113350  66.3456840   8.9596020  73.3684210
  72.1868810   3.0576080  58.9993050  72.1032530   3.4890300  58.1489490
  72.9063000   3.5174430  59.4319870  73.2642950   5.5143600  72.0763020
  72.5391140   6.1072380  71.8792410  73.7918410   5.5067140  71.2776390
  73.2156060   9.9118340  61.7275180  72.5732220   9.2573960  62.0018900
  72.8286720  10.3173430  60.9515850  68.7942540   7.2403770  65.5746870
  69.1466360   6.6431900  64.9148240  67.9104870   6.9148000  65.7455120
  64.8805820   8.0001460  62.9817280  65.5676950   8.5470670  63.3624870
  64.0938240   8.5442190  63.0166890  57.0198220   3.6174280  58.4734360
  57.8893070   3.8999080  58.7570280  56.5288540   4.4310150  58.3583170
  64.1833030   5.0047490  62.5942640  64.6395810   5.8152740  62.8202830
  63.8321240   4.6870630  63.4261130  66.4865640  10.5153830  69.8234940
  67.1307860  10.7213210  70.5008360  66.8495080   9.7542230  69.3705790
  67.7597720   8.5186180  68.5412390  68.4019950   7.8179340  68.6544560
  68.2847070   9.2984620  68.3609280  71.6053440   8.8034800  58.2651530
  71.3791020   8.0865240  58.8576170  71.2149640   8.5547240  57.4273280
  69.5335340   9.3181080  71.7448450  69.8691580   9.9047770  72.4226370
  68.6135680   9.1873790  71.9746240  57.3869470  12.8301660  59.0395990
  57.7467110  13.4291000  58.3853260  57.2461810  13.3761550  59.8131020
  71.1869690   6.7206740  59.9265690  70.8991390   7.1819430  60.7143570
  71.9821860   6.2604510  60.1949910  57.3711330  11.0956520  73.5138390
  57.4802450  10.1551260  73.3733780  56.7191890  11.3611270  72.8652120
  63.4038090  10.2132860  59.8569660  63.3948190  10.9462550  59.2414170
  62.4836450   9.9664440  59.9496620  59.0044730   5.4347750  60.6016420
  58.3972680   6.1746650  60.6111720  59.4794080   5.5247110  59.7754620
  66.3897690  10.2761100  58.5194850  66.4909670  10.0725090  57.5896830
  65.4899430  10.0219380  58.7242630  65.5379510   2.2538160  70.5011280
  66.0364760   2.7283980  71.1663130  65.6802460   1.3301680  70.7081310
  65.0315800  12.7947420  63.2142520  65.2857300  12.7568810  62.2921890
  64.0828280  12.6680750  63.2070770  71.0368380   3.7139300  64.7901030
  70.0958520   3.7289530  64.9648720  71.3512450   2.9275260  65.2361330
  61.0150020   5.3958900  58.3504990  61.7813290   5.2840260  58.9130420
  61.0924710   4.6996870  57.6981760  59.7096780   2.8283970  59.0337880
  59.7900370   1.8811480  59.1455280  60.6016530   3.1590850  59.1398540
  73.0393960  10.8848150  66.4655290  73.1641380  11.7079320  66.9379100
  73.9059520  10.6738880  66.1179440  60.5111490  12.9779360  66.1372420
  61.2473970  12.4294820  66.4080990  60.8952410  13.8435370  65.9978410
  57.3956970   9.0452930  62.0113930  56.4696750   9.2874070  62.0019340
  57.8613400   9.8727190  61.8898680  63.6213800  12.1509670  57.9597990
  64.4142410  12.4398500  57.5079780  63.1018150  11.7201840  57.2810470
  69.7834770  11.9985590  73.8842820  70.7356520  11.9143610  73.8343060
  69.6362990  12.6627300  74.5576610  72.6743970  11.3779800  59.3834730
  72.3885480  10.9644940  58.5688910  72.4763520  12.3067510  59.2635250
  57.2367580   4.6498890  74.2694050  57.7406600   4.0706170  74.8410280
  56.4975000   4.9339120  74.8070420  64.1391200   7.3713080  57.8240340
  64.0341840   6.7565430  58.5501720  63.9715420   6.8478970  57.0403350
  64.2905520   6.0569880  73.8029570  63.5251190   6.6254880  73.7184240
  64.4721480   5.7646090  72.9097800  67.3793930   6.4333110  58.4282330
  66.8304030   6.8802410  59.0725070  68.0013190   5.9282360  58.9520000
  71.4328870   7.7875210  74.3604590  72.1738340   8.1250970  73.8572050
  70.6701550   7.9567270  73.8074360  63.0469050   5.3924030  60.3247630
  63.4685470   5.2263900  61.1679020  63.1719890   4.5824260  59.8302770
  65.5596690   4.4161640  57.5724730  66.0802350   3.7010660  57.2065880
  66.2065090   5.0547510  57.8725240  70.1074530   5.8390040  72.8959800
  70.5215550   5.9935120  73.7450220  69.1725530   5.9645260  73.0585580
  70.5796700   3.1786200  74.8998950  71.1617470   2.4238520  74.8119430
  70.7558470   3.7093640  74.1230430  64.8689760   5.7910520  70.8655730
  65.2877870   6.6343250  70.6931970  63.9498390   5.9282560  70.6362510
  67.2053660   3.5226700  72.2493570  67.3249870   2.9267840  72.9888410
  68.0647660   3.5596390  71.8294870  69.5441560   4.0763890  70.8256080
  69.0176780   4.6006510  70.2221220  69.8872900   4.7091280  71.4565810
  62.7197180  12.0963530  71.9813460  62.1818270  12.8209590  71.6622160
  62.9731140  11.6193870  71.1910800  65.5759390  13.3314740  72.2400110
  65.5018090  14.2349880  72.5472480  64.6738230  13.0126640  72.2122180
  66.1244720  12.4973250  59.8626470  67.0195510  12.8358220  59.8845230
  66.1562350  11.7752660  59.2350750  59.7640880   7.8700300  58.0913470
  60.2015750   8.4129970  58.7471050  60.2488610   7.0447250  58.1009810
  56.9786680  10.6589330  65.5433730  57.3089690   9.7910390  65.3112370
  57.4077680  10.8647850  66.3738690  61.5748600   8.9898340  63.2035700
  61.2744140   8.8663310  64.1039610  61.4686090   8.1306930  62.7951430
  57.4676890  11.5259920  68.2815360  57.0307880  11.7060720  69.1139510
  58.0354570  12.2834540  68.1397080  73.1039070  11.0276920  72.5692670
  72.5041060  11.0869480  71.8256590  73.2332970  10.0881900  72.6989520
  74.3440520   8.7694740  57.9062380  73.5133480   8.8371390  58.3769610
  74.5212350   9.6598860  57.6029240  73.7996980   5.5142220  60.4096580
  74.5615890   6.0838870  60.5156270  73.8151350   4.9469420  61.1804890
  57.3001320   4.0380150  64.6404240  56.6450160   3.7691790  63.9963940
  58.1379270   3.9284630  64.1906220  74.8056950   6.3692320  65.2538510
  75.1765780   5.5859640  64.8474480  75.4458880   7.0581420  65.0755810
  71.7890710   7.7528900  70.6668830  70.9750550   8.1826060  70.9294620
  72.1964910   8.3647310  70.0537880  73.8516150   5.8076590  57.5669100
  74.1264990   6.7155470  57.4388320  73.6626890   5.7439120  58.5031090
  73.7481490   3.7445580  62.5598530  73.3725090   2.9773510  62.1279820
  73.0184610   4.1268280  63.0473460  58.3377250   4.4232720  69.1807580
  58.7050290   4.3360120  70.0603600  57.7688070   3.6599270  69.0814440
  73.1381110   2.8917100  72.1938050  72.9067200   2.6629850  71.2936000
  73.3985660   3.8116650  72.1482940  73.0232450   1.9703070  65.8605770
  73.5469930   1.4765720  65.2295940  73.6091870   2.1053430  66.6053340
  73.2022170   2.0542940  69.3825320  72.2524880   2.0206480  69.4970310
  73.3835180   2.9643050  69.1475090  71.8466760  12.5047500  64.1937100
  72.4425830  12.1832070  63.5171520  72.1044910  12.0319320  64.9850370
  63.4535360  10.4925000  69.9437450  63.2126720  10.7599560  69.0567970
  64.3938000  10.6630730  69.9988310  74.7139520  12.5119380  70.7448090
  74.2197800  12.9088250  70.0275220  74.1052810  11.8868590  71.1385370
  59.5917360  11.8827660  71.4625510  58.9977680  11.7512360  72.2015550
  59.5841200  11.0465800  70.9967610  72.3978970  13.1542800  68.0234830
  71.9381940  13.9058610  67.6492850  71.7691430  12.4349270  67.9649630
  59.2229590   9.2486040  70.4133550  58.4963650   8.6291330  70.3459500
  59.2838740   9.6426650  69.5431630  62.8274690  11.4631040  67.1982960
  63.3439710  10.8518400  66.6731220  63.4772070  11.9659820  67.6893970
  65.5670190  12.3539530  68.0251940  65.8548000  12.0993830  67.1484950
  66.0793410  11.8016890  68.6157510  57.5059590  12.5660430  63.6230310
  57.3381630  11.9331110  64.3212200  56.6394100  12.7719830  63.2724500
  59.1122290  11.2593660  61.0680450  58.5869910  11.6401690  60.3642410
  59.0366870  11.8844430  61.7890160  73.8687610  12.8181200  62.3894390
  74.0439800  12.1318940  61.7455310  73.1709180  13.3428250  61.9971060
  61.7115260  13.2076040  59.9429700  62.4434080  12.9235320  59.3953590
  61.9708930  12.9689320  60.8329080  60.8730050   9.3240770  59.9476030
  60.2438930   9.7925870  60.4961860  60.9877880   8.4789990  60.3822220
  68.3279770   3.3746430  46.0977230  68.2473820   2.4601040  45.8268940
  67.9144190   3.8713500  45.3916940  66.4597810   5.1525450  47.9786500
  65.6839910   4.6725890  48.2685070  67.1110740   4.4731100  47.8042660
  60.4763640   5.4645260  48.8562260  59.6448520   5.2093970  49.2558770
  61.0844620   5.5356030  49.5920180  70.4805240   9.5585640  46.7585630
  70.0186770   8.7872880  47.0872800  71.2930790   9.5851710  47.2638080
  60.4564900   9.4985350  49.0520280  60.7592940   8.6083090  48.8730500
  61.2008490  10.0555570  48.8242530  56.8488600   3.0252800  48.5244350
  57.4204710   2.2575000  48.5247990  56.8490140   3.3241560  47.6150960
  66.7068550  11.8443650  46.3789620  66.0879990  12.3001150  45.8084060
  67.5620330  11.9995110  45.9779320  65.9006800   7.8282640  47.9856660
  65.8315080   6.8872580  47.8245790  66.6626660   7.9184050  48.5579230
  67.5731900   6.7282890  43.7721530  66.9549170   7.1932340  43.2084250
  68.0855150   7.4210370  44.1891040  62.4363660   6.2558760  50.4505130
  62.1033040   6.8827680  51.0926200  62.6130340   6.7820640  49.6706800
  61.6482760   8.2239560  52.2654310  62.2656760   8.8990640  51.9838760
  60.7875880   8.6327540  52.1741810  56.9415100   7.4139420  41.1461160
  56.5643080   7.9026520  40.4146060  57.1988170   8.0864700  41.7767690
  72.5660350   9.6878970  50.1808950  71.8823870  10.3578080  50.1725620
  73.1054640   9.8859620  49.4153810  70.1019090  11.5323100  48.8954130
  70.1146250  11.1285390  48.0276390  69.5494310  12.3070390  48.7915560
  71.3964510   8.2539320  43.9844300  71.2860840   7.3113650  44.1093720
  71.3932760   8.6154960  44.8707060  69.5004530   6.4352940  50.2236740
  69.9173320   6.2213050  49.3890200  70.2244350   6.6925730  50.7945360
  66.9384790   3.8804640  43.3406790  66.0114070   3.8142020  43.5695260
  67.0909610   4.8184770  43.2262030  73.4466630   4.8340160  50.3152980
  72.6185260   4.9033250  49.8403110  74.0417110   5.4194470  49.8468810
  70.9682080   5.4424940  43.8442040  70.3494500   5.1044490  43.1968340
  70.9506530   4.7984700  44.5521230  62.5441430   4.4069380  46.1226520
  62.1398430   3.6946630  45.6272420  62.6304550   4.0622620  47.0114560
  63.0123130   8.0936940  48.2865730  62.7151420   7.4882410  47.6073510
  63.9622950   8.1314250  48.1755090  71.1008740  11.6668810  51.9488830
  70.6239300  12.4741000  51.7561440  70.4170530  11.0147140  52.1015040
  62.1041560   7.8318630  54.9373530  61.2070090   8.0558600  55.1846930
  62.1294430   7.9553570  53.9884930  69.1446780   4.6811750  40.8514790
  69.5840060   3.8434180  40.7052610  69.8575200   5.3141150  40.9378930
  60.9312780   4.7031950  53.5130900  60.7920550   5.5754750  53.8818300
  60.0494140   4.3604760  53.3678840  67.2542160   9.6207820  44.8196030
  67.6938070  10.3632150  44.4051420  67.1929050   9.8634390  45.7434990
  62.7293130  10.6453650  55.7216050  62.7008560  11.0496600  54.8544480
  62.5658100   9.7164010  55.5587650  59.2446060   3.3014360  43.6233170
  59.1243660   4.0276450  43.0114440  58.9346950   2.5317270  43.1461080
  74.6807950  11.4280750  57.0180220  75.1567670  11.9063640  57.6969300
  75.3015110  11.3598240  56.2925720  56.8831430   6.4729500  49.4301810
  56.9611850   6.6078270  48.4857530  57.4973110   5.7645390  49.6229930
  58.1279060   8.1729690  45.8407990  57.7207140   8.3144280  44.9861590
  59.0192070   7.8889850  45.6379200  74.0841200   8.6193600  54.1780230
  74.2104260   8.3805480  53.2597410  74.1262580   7.7878140  54.6502310
  67.9457940  12.3221600  52.7475040  68.4602610  12.2329610  53.5497470
  67.1027020  12.6681300  53.0402950  69.9212340  12.6076940  42.1759040
  69.7613480  12.3179880  43.0740870  69.7559050  11.8317070  41.6404270
  62.4000720  12.3875470  43.9530660  62.2243200  11.4711010  43.7398460
  61.5456460  12.7462760  44.1928460  69.6238470  10.1164500  40.7357040
  68.9303630  10.1141790  40.0759320  70.3661330   9.6923820  40.3051210
  69.1888400  11.7427210  44.8105530  69.6445350  10.9616590  45.1244150
  69.5280920  12.4534030  45.3546710  56.9390950   7.5143670  51.9696270
  57.1021990   7.0449030  51.1515640  57.4043400   7.0067230  52.6345110
  68.0933750   2.2328650  55.8387610  68.4187160   1.3992400  55.4989840
  68.8814080   2.7557170  55.9865940  61.5023940   1.7683000  44.7338090
  61.2764860   1.5520170  45.6384710  60.7216470   2.2011460  44.3884060
  68.7321700   1.7746370  43.3328740  68.1330590   2.4982170  43.1492360
  69.2801310   1.7123150  42.5505190  63.9423150   2.6668580  55.3998360
  63.8466750   1.7263310  55.2498760  64.7855130   2.8883650  55.0046430
  67.9241710   3.0015660  49.4582800  67.1922830   3.5102470  49.8072900
  67.5266050   2.1845640  49.1571580  63.4360750   2.9883080  40.2525350
  62.8677650   2.5401330  39.6261260  64.1449750   3.3475860  39.7190500
  58.5129930   6.8895100  54.1292080  58.1284720   6.2488770  54.7275040
  58.8242120   7.5931220  54.6986810  64.6627070   3.7371640  49.6100700
  65.0297200   3.2630210  50.3562040  64.4732130   4.6113210  49.9509040
  62.4526440   2.7780280  51.9284910  62.1483510   3.6572260  52.1535270
  63.4072900   2.8380070  51.9642350  60.9808230   6.9841270  42.5251760
  60.2070490   6.4438890  42.3650480  61.7102860   6.4647880  42.1869520
  71.7396210   5.9806630  48.3178150  72.4595330   6.4761920  47.9274260
  71.5378030   5.3024520  47.6732020  67.1215010   6.0515690  54.2047150
  67.0552320   5.1311360  53.9504740  66.4920150   6.1491130  54.9191790
  61.0245630   6.6521650  46.1630570  61.5424300   5.8489910  46.1087460
  60.5729650   6.5900790  47.0047400  65.9115130   7.9187930  41.4357870
  66.2530830   8.6630160  40.9401190  65.0827840   8.2319050  41.7982700
  58.5090170   3.6183020  53.0756270  58.1505110   4.2836870  53.6629610
  58.2144730   2.7866570  53.4468890  61.7103290   4.0767260  55.9595820
  61.4103430   4.2224440  55.0623640  62.4814530   3.5172550  55.8669210
  67.0531740   8.8736260  53.9550950  67.0676280   7.9417220  53.7369860
  66.3456840   8.9596020  54.5940720  72.1868810   3.0576080  40.2249560
  72.1032530   3.4890300  39.3746000  72.9063000   3.5174430  40.6576380
  73.2642950   5.5143600  53.3019530  72.5391140   6.1072380  53.1048920
  73.7918410   5.5067140  52.5032900  73.2156060   9.9118340  42.9531690
  72.5732220   9.2573960  43.2275410  72.8286720  10.3173430  42.1772360
  68.7942540   7.2403770  46.8003380  69.1466360   6.6431900  46.1404750
  67.9104870   6.9148000  46.9711630  64.8805820   8.0001460  44.2073790
  65.5676950   8.5470670  44.5881380  64.0938240   8.5442190  44.2423400
  57.0198220   3.6174280  39.6990870  57.8893070   3.8999080  39.9826790
  56.5288540   4.4310150  39.5839680  64.1833030   5.0047490  43.8199150
  64.6395810   5.8152740  44.0459340  63.8321240   4.6870630  44.6517640
  66.4865640  10.5153830  51.0491450  67.1307860  10.7213210  51.7264870
  66.8495080   9.7542230  50.5962300  67.7597720   8.5186180  49.7668900
  68.4019950   7.8179340  49.8801070  68.2847070   9.2984620  49.5865790
  71.6053440   8.8034800  39.4908040  71.3791020   8.0865240  40.0832680
  71.2149640   8.5547240  38.6529790  69.5335340   9.3181080  52.9704960
  69.8691580   9.9047770  53.6482880  68.6135680   9.1873790  53.2002750
  57.3869470  12.8301660  40.2652500  57.7467110  13.4291000  39.6109770
  57.2461810  13.3761550  41.0387530  71.1869690   6.7206740  41.1522200
  70.8991390   7.1819430  41.9400080  71.9821860   6.2604510  41.4206420
  57.3711330  11.0956520  54.7394900  57.4802450  10.1551260  54.5990290
  56.7191890  11.3611270  54.0908630  65.3623920   9.3672410  56.1393020
  65.0420790   8.6481650  56.6838710  64.6882280  10.0427480  56.2129080
  63.4038090  10.2132860  41.0826170  63.3948190  10.9462550  40.4670680
  62.4836450   9.9664440  41.1753130  59.0044730   5.4347750  41.8272930
  58.3972680   6.1746650  41.8368230  59.4794080   5.5247110  41.0011130
  66.3897690  10.2761100  39.7451360  66.4909670  10.0725090  38.8153340
  65.4899430  10.0219380  39.9499140  65.5379510   2.2538160  51.7267790
  66.0364760   2.7283980  52.3919640  65.6802460   1.3301680  51.9337820
  65.0315800  12.7947420  44.4399030  65.2857300  12.7568810  43.5178400
  64.0828280  12.6680750  44.4327280  71.0368380   3.7139300  46.0157540
  70.0958520   3.7289530  46.1905230  71.3512450   2.9275260  46.4617840
  61.0150020   5.3958900  39.5761500  61.7813290   5.2840260  40.1386930
  61.0924710   4.6996870  38.9238270  59.7096780   2.8283970  40.2594390
  59.7900370   1.8811480  40.3711790  60.6016530   3.1590850  40.3655050
  73.0393960  10.8848150  47.6911800  73.1641380  11.7079320  48.1635610
  73.9059520  10.6738880  47.3435950  60.5111490  12.9779360  47.3628930
  61.2473970  12.4294820  47.6337500  60.8952410  13.8435370  47.2234920
  57.3956970   9.0452930  43.2370440  56.4696750   9.2874070  43.2275850
  57.8613400   9.8727190  43.1155190  59.5169770  12.1625430  56.5514510
  60.3182500  12.4837480  56.9649910  59.0021590  11.8021010  57.2734420
  63.6213800  12.1509670  39.1854500  64.4142410  12.4398500  38.7336290
  63.1018150  11.7201840  38.5066980  68.3534400   8.2705300  56.4989920
  67.7472560   8.2936900  55.7585670  68.0488510   7.5388340  57.0357170
  69.7834770  11.9985590  55.1099330  70.7356520  11.9143610  55.0599570
  69.6362990  12.6627300  55.7833120  72.6743970  11.3779800  40.6091240
  72.3885480  10.9644940  39.7945420  72.4763520  12.3067510  40.4891760
  57.2367580   4.6498890  55.4950560  57.7406600   4.0706170  56.0666790
  56.4975000   4.9339120  56.0326930  64.1391200   7.3713080  39.0496850
  64.0341840   6.7565430  39.7758230  63.9715420   6.8478970  38.2659860
  64.2905520   6.0569880  55.0286080  63.5251190   6.6254880  54.9440750
  64.4721480   5.7646090  54.1354310  67.3793930   6.4333110  39.6538840
  66.8304030   6.8802410  40.2981580  68.0013190   5.9282360  40.1776510
  71.4328870   7.7875210  55.5861100  72.1738340   8.1250970  55.0828560
  70.6701550   7.9567270  55.0330870  59.2690660   2.7928480  56.3900630
  59.3096000   2.4942350  57.2985860  60.1236160   3.1936090  56.2308150
  63.0469050   5.3924030  41.5504140  63.4685470   5.2263900  42.3935530
  63.1719890   4.5824260  41.0559280  65.5596690   4.4161640  38.7981240
  66.0802350   3.7010660  38.4322390  66.2065090   5.0547510  39.0981750
  70.1074530   5.8390040  54.1216310  70.5215550   5.9935120  54.9706730
  69.1725530   5.9645260  54.2842090  70.5796700   3.1786200  56.1255460
  71.1617470   2.4238520  56.0375940  70.7558470   3.7093640  55.3486940
  64.8689760   5.7910520  52.0912240  65.2877870   6.6343250  51.9188480
  63.9498390   5.9282560  51.8619020  67.2053660   3.5226700  53.4750080
  67.3249870   2.9267840  54.2144920  68.0647660   3.5596390  53.0551380
  69.5441560   4.0763890  52.0512590  69.0176780   4.6006510  51.4477730
  69.8872900   4.7091280  52.6822320  62.7197180  12.0963530  53.2069970
  62.1818270  12.8209590  52.8878670  62.9731140  11.6193870  52.4167310
  65.5759390  13.3314740  53.4656620  65.5018090  14.2349880  53.7728990
  64.6738230  13.0126640  53.4378690  66.1244720  12.4973250  41.0882980
  67.0195510  12.8358220  41.1101740  66.1562350  11.7752660  40.4607260
  59.7640880   7.8700300  39.3169980  60.2015750   8.4129970  39.9727560
  60.2488610   7.0447250  39.3266320  56.9786680  10.6589330  46.7690240
  57.3089690   9.7910390  46.5368880  57.4077680  10.8647850  47.5995200
  61.5748600   8.9898340  44.4292210  61.2744140   8.8663310  45.3296120
  61.4686090   8.1306930  44.0207940  57.4676890  11.5259920  49.5071870
  57.0307880  11.7060720  50.3396020  58.0354570  12.2834540  49.3653590
  73.1039070  11.0276920  53.7949180  72.5041060  11.0869480  53.0513100
  73.2332970  10.0881900  53.9246030  74.3440520   8.7694740  39.1318890
  73.5133480   8.8371390  39.6026120  74.5212350   9.6598860  38.8285750
  73.7996980   5.5142220  41.6353090  74.5615890   6.0838870  41.7412780
  73.8151350   4.9469420  42.4061400  57.3001320   4.0380150  45.8660750
  56.6450160   3.7691790  45.2220450  58.1379270   3.9284630  45.4162730
  74.8056950   6.3692320  46.4795020  75.1765780   5.5859640  46.0730990
  75.4458880   7.0581420  46.3012320  71.7890710   7.7528900  51.8925340
  70.9750550   8.1826060  52.1551130  72.1964910   8.3647310  51.2794390
  73.8516150   5.8076590  38.7925610  74.1264990   6.7155470  38.6644830
  73.6626890   5.7439120  39.7287600  73.7481490   3.7445580  43.7855040
  73.3725090   2.9773510  43.3536330  73.0184610   4.1268280  44.2729970
  58.3377250   4.4232720  50.4064090  58.7050290   4.3360120  51.2860110
  57.7688070   3.6599270  50.3070950  73.1381110   2.8917100  53.4194560
  72.9067200   2.6629850  52.5192510  73.3985660   3.8116650  53.3739450
  73.0232450   1.9703070  47.0862280  73.5469930   1.4765720  46.4552450
  73.6091870   2.1053430  47.8309850  73.2022170   2.0542940  50.6081830
  72.2524880   2.0206480  50.7226820  73.3835180   2.9643050  50.3731600
  71.8466760  12.5047500  45.4193610  72.4425830  12.1832070  44.7428030
  72.1044910  12.0319320  46.2106880  59.7529330   8.9365410  55.5684240
  59.7098960   8.5658320  56.4498700  59.8840340   9.8742980  55.7086060
  63.4535360  10.4925000  51.1693960  63.2126720  10.7599560  50.2824480
  64.3938000  10.6630730  51.2244820  74.7139520  12.5119380  51.9704600
  74.2197800  12.9088250  51.2531730  74.1052810  11.8868590  52.3641880
  59.5917360  11.8827660  52.6882020  58.9977680  11.7512360  53.4272060
  59.5841200  11.0465800  52.2224120  72.3978970  13.1542800  49.2491340
  71.9381940  13.9058610  48.8749360  71.7691430  12.4349270  49.1906140
  59.2229590   9.2486040  51.6390060  58.4963650   8.6291330  51.5716010
  59.2838740   9.6426650  50.7688140  62.8274690  11.4631040  48.4239470
  63.3439710  10.8518400  47.8987730  63.4772070  11.9659820  48.9150480
  65.5670190  12.3539530  49.2508450  65.8548000  12.0993830  48.3741460
  66.0793410  11.8016890  49.8414020  57.5059590  12.5660430  44.8486820
  57.3381630  11.9331110  45.5468710  56.6394100  12.7719830  44.4981010
  59.1122290  11.2593660  42.2936960  58.5869910  11.6401690  41.5898920
  59.0366870  11.8844430  43.0146670  65.6342550  13.2755630  56.6176650
  66.5609860  13.0399900  56.6612610  65.6192980  14.1027630  56.1362680
  73.8687610  12.8181200  43.6150900  74.0439800  12.1318940  42.9711820
  73.1709180  13.3428250  43.2227570  61.7115260  13.2076040  41.1686210
  62.4434080  12.9235320  40.6210100  61.9708930  12.9689320  42.0585590
  60.8730050   9.3240770  41.1732540  60.2438930   9.7925870  41.7218370
  60.9877880   8.4789990  41.6078730  72.2020110  12.5025490  56.4417690
  72.9945430  12.0074720  56.2343650  72.4953260  13.1815630  57.0493300
  68.3279770   3.3746430  27.3233740  68.2473820   2.4601040  27.0525450
  67.9144190   3.8713500  26.6173450  66.4597810   5.1525450  29.2043010
  65.6839910   4.6725890  29.4941580  67.1110740   4.4731100  29.0299170
  60.4763640   5.4645260  30.0818770  59.6448520   5.2093970  30.4815280
  61.0844620   5.5356030  30.8176690  70.4805240   9.5585640  27.9842140
  70.0186770   8.7872880  28.3129310  71.2930790   9.5851710  28.4894590
  60.4564900   9.4985350  30.2776790  60.7592940   8.6083090  30.0987010
  61.2008490  10.0555570  30.0499040  56.8488600   3.0252800  29.7500860
  57.4204710   2.2575000  29.7504500  56.8490140   3.3241560  28.8407470
  66.7068550  11.8443650  27.6046130  66.0879990  12.3001150  27.0340570
  67.5620330  11.9995110  27.2035830  65.9006800   7.8282640  29.2113170
  65.8315080   6.8872580  29.0502300  66.6626660   7.9184050  29.7835740
  67.5731900   6.7282890  24.9978040  66.9549170   7.1932340  24.4340760
  68.0855150   7.4210370  25.4147550  62.4363660   6.2558760  31.6761640
  62.1033040   6.8827680  32.3182710  62.6130340   6.7820640  30.8963310
  61.6482760   8.2239560  33.4910820  62.2656760   8.8990640  33.2095270
  60.7875880   8.6327540  33.3998320  56.9415100   7.4139420  22.3717670
  56.5643080   7.9026520  21.6402570  57.1988170   8.0864700  23.0024200
  72.5660350   9.6878970  31.4065460  71.8823870  10.3578080  31.3982130
  73.1054640   9.8859620  30.6410320  70.1019090  11.5323100  30.1210640
  70.1146250  11.1285390  29.2532900  69.5494310  12.3070390  30.0172070
  71.3964510   8.2539320  25.2100810  71.2860840   7.3113650  25.3350230
  71.3932760   8.6154960  26.0963570  69.5004530   6.4352940  31.4493250
  69.9173320   6.2213050  30.6146710  70.2244350   6.6925730  32.0201870
  66.9384790   3.8804640  24.5663300  66.0114070   3.8142020  24.7951770
  67.0909610   4.8184770  24.4518540  73.4466630   4.8340160  31.5409490
  72.6185260   4.9033250  31.0659620  74.0417110   5.4194470  31.0725320
  70.9682080   5.4424940  25.0698550  70.3494500   5.1044490  24.4224850
  70.9506530   4.7984700  25.7777740  62.5441430   4.4069380  27.3483030
  62.1398430   3.6946630  26.8528930  62.6304550   4.0622620  28.2371070
  63.0123130   8.0936940  29.5122240  62.7151420   7.4882410  28.8330020
  63.9622950   8.1314250  29.4011600  71.1008740  11.6668810  33.1745340
  70.6239300  12.4741000  32.9817950  70.4170530  11.0147140  33.3271550
  62.1041560   7.8318630  36.1630040  61.2070090   8.0558600  36.4103440
  62.1294430   7.9553570  35.2141440  69.1446780   4.6811750  22.0771300
  69.5840060   3.8434180  21.9309120  69.8575200   5.3141150  22.1635440
  60.9312780   4.7031950  34.7387410  60.7920550   5.5754750  35.1074810
  60.0494140   4.3604760  34.5935350  67.2542160   9.6207820  26.0452540
  67.6938070  10.3632150  25.6307930  67.1929050   9.8634390  26.9691500
  62.7293130  10.6453650  36.9472560  62.7008560  11.0496600  36.0800990
  62.5658100   9.7164010  36.7844160  59.2446060   3.3014360  24.8489680
  59.1243660   4.0276450  24.2370950  58.9346950   2.5317270  24.3717590
  74.6807950  11.4280750  38.2436730  75.1567670  11.9063640  38.9225810
  75.3015110  11.3598240  37.5182230  56.8831430   6.4729500  30.6558320
  56.9611850   6.6078270  29.7114040  57.4973110   5.7645390  30.8486440
  58.1279060   8.1729690  27.0664500  57.7207140   8.3144280  26.2118100
  59.0192070   7.8889850  26.8635710  74.0841200   8.6193600  35.4036740
  74.2104260   8.3805480  34.4853920  74.1262580   7.7878140  35.8758820
  67.9457940  12.3221600  33.9731550  68.4602610  12.2329610  34.7753980
  67.1027020  12.6681300  34.2659460  69.9212340  12.6076940  23.4015550
  69.7613480  12.3179880  24.2997380  69.7559050  11.8317070  22.8660780
  62.4000720  12.3875470  25.1787170  62.2243200  11.4711010  24.9654970
  61.5456460  12.7462760  25.4184970  69.6238470  10.1164500  21.9613550
  68.9303630  10.1141790  21.3015830  70.3661330   9.6923820  21.5307720
  69.1888400  11.7427210  26.0362040  69.6445350  10.9616590  26.3500660
  69.5280920  12.4534030  26.5803220  56.9390950   7.5143670  33.1952780
  57.1021990   7.0449030  32.3772150  57.4043400   7.0067230  33.8601620
  68.0933750   2.2328650  37.0644120  68.4187160   1.3992400  36.7246350
  68.8814080   2.7557170  37.2122450  61.5023940   1.7683000  25.9594600
  61.2764860   1.5520170  26.8641220  60.7216470   2.2011460  25.6140570
  68.7321700   1.7746370  24.5585250  68.1330590   2.4982170  24.3748870
  69.2801310   1.7123150  23.7761700  63.9423150   2.6668580  36.6254870
  63.8466750   1.7263310  36.4755270  64.7855130   2.8883650  36.2302940
  67.9241710   3.0015660  30.6839310  67.1922830   3.5102470  31.0329410
  67.5266050   2.1845640  30.3828090  63.4360750   2.9883080  21.4781860
  62.8677650   2.5401330  20.8517770  64.1449750   3.3475860  20.9447010
  58.5129930   6.8895100  35.3548590  58.1284720   6.2488770  35.9531550
  58.8242120   7.5931220  35.9243320  64.6627070   3.7371640  30.8357210
  65.0297200   3.2630210  31.5818550  64.4732130   4.6113210  31.1765550
  62.4526440   2.7780280  33.1541420  62.1483510   3.6572260  33.3791780
  63.4072900   2.8380070  33.1898860  60.9808230   6.9841270  23.7508270
  60.2070490   6.4438890  23.5906990  61.7102860   6.4647880  23.4126030
  71.7396210   5.9806630  29.5434660  72.4595330   6.4761920  29.1530770
  71.5378030   5.3024520  28.8988530  67.1215010   6.0515690  35.4303660
  67.0552320   5.1311360  35.1761250  66.4920150   6.1491130  36.1448300
  61.0245630   6.6521650  27.3887080  61.5424300   5.8489910  27.3343970
  60.5729650   6.5900790  28.2303910  65.9115130   7.9187930  22.6614380
  66.2530830   8.6630160  22.1657700  65.0827840   8.2319050  23.0239210
  58.5090170   3.6183020  34.3012780  58.1505110   4.2836870  34.8886120
  58.2144730   2.7866570  34.6725400  61.7103290   4.0767260  37.1852330
  61.4103430   4.2224440  36.2880150  62.4814530   3.5172550  37.0925720
  67.0531740   8.8736260  35.1807460  67.0676280   7.9417220  34.9626370
  66.3456840   8.9596020  35.8197230  72.1868810   3.0576080  21.4506070
  72.1032530   3.4890300  20.6002510  72.9063000   3.5174430  21.8832890
  73.2642950   5.5143600  34.5276040  72.5391140   6.1072380  34.3305430
  73.7918410   5.5067140  33.7289410  73.2156060   9.9118340  24.1788200
  72.5732220   9.2573960  24.4531920  72.8286720  10.3173430  23.4028870
  68.7942540   7.2403770  28.0259890  69.1466360   6.6431900  27.3661260
  67.9104870   6.9148000  28.1968140  64.8805820   8.0001460  25.4330300
  65.5676950   8.5470670  25.8137890  64.0938240   8.5442190  25.4679910
  57.0198220   3.6174280  20.9247380  57.8893070   3.8999080  21.2083300
  56.5288540   4.4310150  20.8096190  64.1833030   5.0047490  25.0455660
  64.6395810   5.8152740  25.2715850  63.8321240   4.6870630  25.8774150
  66.4865640  10.5153830  32.2747960  67.1307860  10.7213210  32.9521380
  66.8495080   9.7542230  31.8218810  67.7597720   8.5186180  30.9925410
  68.4019950   7.8179340  31.1057580  68.2847070   9.2984620  30.8122300
  71.6053440   8.8034800  20.7164550  71.3791020   8.0865240  21.3089190
  71.2149640   8.5547240  19.8786300  69.5335340   9.3181080  34.1961470
  69.8691580   9.9047770  34.8739390  68.6135680   9.1873790  34.4259260
  57.3869470  12.8301660  21.4909010  57.7467110  13.4291000  20.8366280
  57.2461810  13.3761550  22.2644040  71.1869690   6.7206740  22.3778710
  70.8991390   7.1819430  23.1656590  71.9821860   6.2604510  22.6462930
  57.3711330  11.0956520  35.9651410  57.4802450  10.1551260  35.8246800
  56.7191890  11.3611270  35.3165140  65.3623920   9.3672410  37.3649530
  65.0420790   8.6481650  37.9095220  64.6882280  10.0427480  37.4385590
  63.4038090  10.2132860  22.3082680  63.3948190  10.9462550  21.6927190
  62.4836450   9.9664440  22.4009640  59.0044730   5.4347750  23.0529440
  58.3972680   6.1746650  23.0624740  59.4794080   5.5247110  22.2267640
  66.3897690  10.2761100  20.9707870  66.4909670  10.0725090  20.0409850
  65.4899430  10.0219380  21.1755650  65.5379510   2.2538160  32.9524300
  66.0364760   2.7283980  33.6176150  65.6802460   1.3301680  33.1594330
  65.0315800  12.7947420  25.6655540  65.2857300  12.7568810  24.7434910
  64.0828280  12.6680750  25.6583790  71.0368380   3.7139300  27.2414050
  70.0958520   3.7289530  27.4161740  71.3512450   2.9275260  27.6874350
  61.0150020   5.3958900  20.8018010  61.7813290   5.2840260  21.3643440
  61.0924710   4.6996870  20.1494780  59.7096780   2.8283970  21.4850900
  59.7900370   1.8811480  21.5968300  60.6016530   3.1590850  21.5911560
  73.0393960  10.8848150  28.9168310  73.1641380  11.7079320  29.3892120
  73.9059520  10.6738880  28.5692460  60.5111490  12.9779360  28.5885440
  61.2473970  12.4294820  28.8594010  60.8952410  13.8435370  28.4491430
  57.3956970   9.0452930  24.4626950  56.4696750   9.2874070  24.4532360
  57.8613400   9.8727190  24.3411700  59.5169770  12.1625430  37.7771020
  60.3182500  12.4837480  38.1906420  59.0021590  11.8021010  38.4990930
  63.6213800  12.1509670  20.4111010  64.4142410  12.4398500  19.9592800
  63.1018150  11.7201840  19.7323490  68.3534400   8.2705300  37.7246430
  67.7472560   8.2936900  36.9842180  68.0488510   7.5388340  38.2613680
  69.7834770  11.9985590  36.3355840  70.7356520  11.9143610  36.2856080
  69.6362990  12.6627300  37.0089630  72.6743970  11.3779800  21.8347750
  72.3885480  10.9644940  21.0201930  72.4763520  12.3067510  21.7148270
  57.2367580   4.6498890  36.7207070  57.7406600   4.0706170  37.2923300
  56.4975000   4.9339120  37.2583440  64.1391200   7.3713080  20.2753360
  64.0341840   6.7565430  21.0014740  63.9715420   6.8478970  19.4916370
  64.2905520   6.0569880  36.2542590  63.5251190   6.6254880  36.1697260
  64.4721480   5.7646090  35.3610820  67.3793930   6.4333110  20.8795350
  66.8304030   6.8802410  21.5238090  68.0013190   5.9282360  21.4033020
  71.4328870   7.7875210  36.8117610  72.1738340   8.1250970  36.3085070
  70.6701550   7.9567270  36.2587380  59.2690660   2.7928480  37.6157140
  59.3096000   2.4942350  38.5242370  60.1236160   3.1936090  37.4564660
  63.0469050   5.3924030  22.7760650  63.4685470   5.2263900  23.6192040
  63.1719890   4.5824260  22.2815790  65.5596690   4.4161640  20.0237750
  66.0802350   3.7010660  19.6578900  66.2065090   5.0547510  20.3238260
  70.1074530   5.8390040  35.3472820  70.5215550   5.9935120  36.1963240
  69.1725530   5.9645260  35.5098600  70.5796700   3.1786200  37.3511970
  71.1617470   2.4238520  37.2632450  70.7558470   3.7093640  36.5743450
  64.8689760   5.7910520  33.3168750  65.2877870   6.6343250  33.1444990
  63.9498390   5.9282560  33.0875530  67.2053660   3.5226700  34.7006590
  67.3249870   2.9267840  35.4401430  68.0647660   3.5596390  34.2807890
  69.5441560   4.0763890  33.2769100  69.0176780   4.6006510  32.6734240
  69.8872900   4.7091280  33.9078830  62.7197180  12.0963530  34.4326480
  62.1818270  12.8209590  34.1135180  62.9731140  11.6193870  33.6423820
  65.5759390  13.3314740  34.6913130  65.5018090  14.2349880  34.9985500
  64.6738230  13.0126640  34.6635200  66.1244720  12.4973250  22.3139490
  67.0195510  12.8358220  22.3358250  66.1562350  11.7752660  21.6863770
  59.7640880   7.8700300  20.5426490  60.2015750   8.4129970  21.1984070
  60.2488610   7.0447250  20.5522830  56.9786680  10.6589330  27.9946750
  57.3089690   9.7910390  27.7625390  57.4077680  10.8647850  28.8251710
  61.5748600   8.9898340  25.6548720  61.2744140   8.8663310  26.5552630
  61.4686090   8.1306930  25.2464450  57.4676890  11.5259920  30.7328380
  57.0307880  11.7060720  31.5652530  58.0354570  12.2834540  30.5910100
  73.1039070  11.0276920  35.0205690  72.5041060  11.0869480  34.2769610
  73.2332970  10.0881900  35.1502540  74.3440520   8.7694740  20.3575400
  73.5133480   8.8371390  20.8282630  74.5212350   9.6598860  20.0542260
  73.7996980   5.5142220  22.8609600  74.5615890   6.0838870  22.9669290
  73.8151350   4.9469420  23.6317910  57.3001320   4.0380150  27.0917260
  56.6450160   3.7691790  26.4476960  58.1379270   3.9284630  26.6419240
  74.8056950   6.3692320  27.7051530  75.1765780   5.5859640  27.2987500
  75.4458880   7.0581420  27.5268830  71.7890710   7.7528900  33.1181850
  70.9750550   8.1826060  33.3807640  72.1964910   8.3647310  32.5050900
  73.8516150   5.8076590  20.0182120  74.1264990   6.7155470  19.8901340
  73.6626890   5.7439120  20.9544110  73.7481490   3.7445580  25.0111550
  73.3725090   2.9773510  24.5792840  73.0184610   4.1268280  25.4986480
  58.3377250   4.4232720  31.6320600  58.7050290   4.3360120  32.5116620
  57.7688070   3.6599270  31.5327460  73.1381110   2.8917100  34.6451070
  72.9067200   2.6629850  33.7449020  73.3985660   3.8116650  34.5995960
  73.0232450   1.9703070  28.3118790  73.5469930   1.4765720  27.6808960
  73.6091870   2.1053430  29.0566360  73.2022170   2.0542940  31.8338340
  72.2524880   2.0206480  31.9483330  73.3835180   2.9643050  31.5988110
  71.8466760  12.5047500  26.6450120  72.4425830  12.1832070  25.9684540
  72.1044910  12.0319320  27.4363390  59.7529330   8.9365410  36.7940750
  59.7098960   8.5658320  37.6755210  59.8840340   9.8742980  36.9342570
  63.4535360  10.4925000  32.3950470  63.2126720  10.7599560  31.5080990
  64.3938000  10.6630730  32.4501330  59.5917360  11.8827660  33.9138530
  58.9977680  11.7512360  34.6528570  59.5841200  11.0465800  33.4480630
  72.3978970  13.1542800  30.4747850  71.9381940  13.9058610  30.1005870
  71.7691430  12.4349270  30.4162650  59.2229590   9.2486040  32.8646570
  58.4963650   8.6291330  32.7972520  59.2838740   9.6426650  31.9944650
  62.8274690  11.4631040  29.6495980  63.3439710  10.8518400  29.1244240
  63.4772070  11.9659820  30.1406990  65.5670190  12.3539530  30.4764960
  65.8548000  12.0993830  29.5997970  66.0793410  11.8016890  31.0670530
  57.5059590  12.5660430  26.0743330  57.3381630  11.9331110  26.7725220
  56.6394100  12.7719830  25.7237520  59.1122290  11.2593660  23.5193470
  58.5869910  11.6401690  22.8155430  59.0366870  11.8844430  24.2403180
  65.6342550  13.2755630  37.8433160  66.5609860  13.0399900  37.8869120
  65.6192980  14.1027630  37.3619190  73.8687610  12.8181200  24.8407410
  74.0439800  12.1318940  24.1968330  73.1709180  13.3428250  24.4484080
  61.7115260  13.2076040  22.3942720  62.4434080  12.9235320  21.8466610
  61.9708930  12.9689320  23.2842100  60.8730050   9.3240770  22.3989050
  60.2438930   9.7925870  22.9474880  60.9877880   8.4789990  22.8335240
  72.2020110  12.5025490  37.6674200  72.9945430  12.0074720  37.4600160
  72.4953260  13.1815630  38.2749810  68.3279770   3.3746430   8.5490250
  68.2473820   2.4601040   8.2781960  67.9144190   3.8713500   7.8429960
  66.4597810   5.1525450  10.4299520  65.6839910   4.6725890  10.7198090
  67.1110740   4.4731100  10.2555680  60.4763640   5.4645260  11.3075280
  59.6448520   5.2093970  11.7071790  61.0844620   5.5356030  12.0433200
  70.4805240   9.5585640   9.2098650  70.0186770   8.7872880   9.5385820
  71.2930790   9.5851710   9.7151100  60.4564900   9.4985350  11.5033300
  60.7592940   8.6083090  11.3243520  61.2008490  10.0555570  11.2755550
  56.8488600   3.0252800  10.9757370  57.4204710   2.2575000  10.9761010
  56.8490140   3.3241560  10.0663980  66.7068550  11.8443650   8.8302640
  66.0879990  12.3001150   8.2597080  67.5620330  11.9995110   8.4292340
  65.9006800   7.8282640  10.4369680  65.8315080   6.8872580  10.2758810
  66.6626660   7.9184050  11.0092250  67.5731900   6.7282890   6.2234550
  66.9549170   7.1932340   5.6597270  68.0855150   7.4210370   6.6404060
  62.4363660   6.2558760  12.9018150  62.1033040   6.8827680  13.5439220
  62.6130340   6.7820640  12.1219820  61.6482760   8.2239560  14.7167330
  62.2656760   8.8990640  14.4351780  60.7875880   8.6327540  14.6254830
  56.9415100   7.4139420   3.5974180  56.5643080   7.9026520   2.8659080
  57.1988170   8.0864700   4.2280710  72.5660350   9.6878970  12.6321970
  71.8823870  10.3578080  12.6238640  73.1054640   9.8859620  11.8666830
  70.1019090  11.5323100  11.3467150  70.1146250  11.1285390  10.4789410
  69.5494310  12.3070390  11.2428580  71.3964510   8.2539320   6.4357320
  71.2860840   7.3113650   6.5606740  71.3932760   8.6154960   7.3220080
  69.5004530   6.4352940  12.6749760  69.9173320   6.2213050  11.8403220
  70.2244350   6.6925730  13.2458380  66.9384790   3.8804640   5.7919810
  66.0114070   3.8142020   6.0208280  67.0909610   4.8184770   5.6775050
  73.4466630   4.8340160  12.7666000  72.6185260   4.9033250  12.2916130
  74.0417110   5.4194470  12.2981830  70.9682080   5.4424940   6.2955060
  70.3494500   5.1044490   5.6481360  70.9506530   4.7984700   7.0034250
  62.5441430   4.4069380   8.5739540  62.1398430   3.6946630   8.0785440
  62.6304550   4.0622620   9.4627580  63.0123130   8.0936940  10.7378750
  62.7151420   7.4882410  10.0586530  63.9622950   8.1314250  10.6268110
  71.1008740  11.6668810  14.4001850  70.6239300  12.4741000  14.2074460
  70.4170530  11.0147140  14.5528060  62.1041560   7.8318630  17.3886550
  61.2070090   8.0558600  17.6359950  62.1294430   7.9553570  16.4397950
  69.1446780   4.6811750   3.3027810  69.5840060   3.8434180   3.1565630
  69.8575200   5.3141150   3.3891950  60.9312780   4.7031950  15.9643920
  60.7920550   5.5754750  16.3331320  60.0494140   4.3604760  15.8191860
  67.2542160   9.6207820   7.2709050  67.6938070  10.3632150   6.8564440
  67.1929050   9.8634390   8.1948010  62.7293130  10.6453650  18.1729070
  62.7008560  11.0496600  17.3057500  62.5658100   9.7164010  18.0100670
  59.2446060   3.3014360   6.0746190  59.1243660   4.0276450   5.4627460
  58.9346950   2.5317270   5.5974100  74.6807950  11.4280750  19.4693240
  75.1567670  11.9063640  20.1482320  75.3015110  11.3598240  18.7438740
  56.8831430   6.4729500  11.8814830  56.9611850   6.6078270  10.9370550
  57.4973110   5.7645390  12.0742950  58.1279060   8.1729690   8.2921010
  57.7207140   8.3144280   7.4374610  59.0192070   7.8889850   8.0892220
  74.0841200   8.6193600  16.6293250  74.2104260   8.3805480  15.7110430
  74.1262580   7.7878140  17.1015330  67.9457940  12.3221600  15.1988060
  68.4602610  12.2329610  16.0010490  67.1027020  12.6681300  15.4915970
  69.9212340  12.6076940   4.6272060  69.7613480  12.3179880   5.5253890
  69.7559050  11.8317070   4.0917290  62.4000720  12.3875470   6.4043680
  62.2243200  11.4711010   6.1911480  61.5456460  12.7462760   6.6441480
  69.6238470  10.1164500   3.1870060  68.9303630  10.1141790   2.5272340
  70.3661330   9.6923820   2.7564230  69.1888400  11.7427210   7.2618550
  69.6445350  10.9616590   7.5757170  69.5280920  12.4534030   7.8059730
  56.9390950   7.5143670  14.4209290  57.1021990   7.0449030  13.6028660
  57.4043400   7.0067230  15.0858130  68.0933750   2.2328650  18.2900630
  68.4187160   1.3992400  17.9502860  68.8814080   2.7557170  18.4378960
  61.5023940   1.7683000   7.1851110  61.2764860   1.5520170   8.0897730
  60.7216470   2.2011460   6.8397080  68.7321700   1.7746370   5.7841760
  68.1330590   2.4982170   5.6005380  69.2801310   1.7123150   5.0018210
  63.9423150   2.6668580  17.8511380  63.8466750   1.7263310  17.7011780
  64.7855130   2.8883650  17.4559450  67.9241710   3.0015660  11.9095820
  67.1922830   3.5102470  12.2585920  67.5266050   2.1845640  11.6084600
  63.4360750   2.9883080   2.7038370  62.8677650   2.5401330   2.0774280
  64.1449750   3.3475860   2.1703520  58.5129930   6.8895100  16.5805100
  58.1284720   6.2488770  17.1788060  58.8242120   7.5931220  17.1499830
  64.6627070   3.7371640  12.0613720  65.0297200   3.2630210  12.8075060
  64.4732130   4.6113210  12.4022060  62.4526440   2.7780280  14.3797930
  62.1483510   3.6572260  14.6048290  63.4072900   2.8380070  14.4155370
  60.9808230   6.9841270   4.9764780  60.2070490   6.4438890   4.8163500
  61.7102860   6.4647880   4.6382540  71.7396210   5.9806630  10.7691170
  72.4595330   6.4761920  10.3787280  71.5378030   5.3024520  10.1245040
  67.1215010   6.0515690  16.6560170  67.0552320   5.1311360  16.4017760
  66.4920150   6.1491130  17.3704810  61.0245630   6.6521650   8.6143590
  61.5424300   5.8489910   8.5600480  60.5729650   6.5900790   9.4560420
  65.9115130   7.9187930   3.8870890  66.2530830   8.6630160   3.3914210
  65.0827840   8.2319050   4.2495720  58.5090170   3.6183020  15.5269290
  58.1505110   4.2836870  16.1142630  58.2144730   2.7866570  15.8981910
  61.7103290   4.0767260  18.4108840  61.4103430   4.2224440  17.5136660
  62.4814530   3.5172550  18.3182230  67.0531740   8.8736260  16.4063970
  67.0676280   7.9417220  16.1882880  66.3456840   8.9596020  17.0453740
  72.1868810   3.0576080   2.6762580  72.1032530   3.4890300   1.8259020
  72.9063000   3.5174430   3.1089400  73.2642950   5.5143600  15.7532550
  72.5391140   6.1072380  15.5561940  73.7918410   5.5067140  14.9545920
  73.2156060   9.9118340   5.4044710  72.5732220   9.2573960   5.6788430
  72.8286720  10.3173430   4.6285380  68.7942540   7.2403770   9.2516400
  69.1466360   6.6431900   8.5917770  67.9104870   6.9148000   9.4224650
  64.8805820   8.0001460   6.6586810  65.5676950   8.5470670   7.0394400
  64.0938240   8.5442190   6.6936420  57.0198220   3.6174280   2.1503890
  57.8893070   3.8999080   2.4339810  56.5288540   4.4310150   2.0352700
  64.1833030   5.0047490   6.2712170  64.6395810   5.8152740   6.4972360
  63.8321240   4.6870630   7.1030660  66.4865640  10.5153830  13.5004470
  67.1307860  10.7213210  14.1777890  66.8495080   9.7542230  13.0475320
  67.7597720   8.5186180  12.2181920  68.4019950   7.8179340  12.3314090
  68.2847070   9.2984620  12.0378810  69.5335340   9.3181080  15.4217980
  69.8691580   9.9047770  16.0995900  68.6135680   9.1873790  15.6515770
  57.3869470  12.8301660   2.7165520  57.7467110  13.4291000   2.0622790
  57.2461810  13.3761550   3.4900550  71.1869690   6.7206740   3.6035220
  70.8991390   7.1819430   4.3913100  71.9821860   6.2604510   3.8719440
  57.3711330  11.0956520  17.1907920  57.4802450  10.1551260  17.0503310
  56.7191890  11.3611270  16.5421650  65.3623920   9.3672410  18.5906040
  65.0420790   8.6481650  19.1351730  64.6882280  10.0427480  18.6642100
  63.4038090  10.2132860   3.5339190  63.3948190  10.9462550   2.9183700
  62.4836450   9.9664440   3.6266150  59.0044730   5.4347750   4.2785950
  58.3972680   6.1746650   4.2881250  59.4794080   5.5247110   3.4524150
  65.5379510   2.2538160  14.1780810  66.0364760   2.7283980  14.8432660
  65.6802460   1.3301680  14.3850840  65.0315800  12.7947420   6.8912050
  65.2857300  12.7568810   5.9691420  64.0828280  12.6680750   6.8840300
  71.0368380   3.7139300   8.4670560  70.0958520   3.7289530   8.6418250
  71.3512450   2.9275260   8.9130860  59.7096780   2.8283970   2.7107410
  59.7900370   1.8811480   2.8224810  60.6016530   3.1590850   2.8168070
  73.0393960  10.8848150  10.1424820  73.1641380  11.7079320  10.6148630
  73.9059520  10.6738880   9.7948970  60.5111490  12.9779360   9.8141950
  61.2473970  12.4294820  10.0850520  60.8952410  13.8435370   9.6747940
  57.3956970   9.0452930   5.6883460  56.4696750   9.2874070   5.6788870
  57.8613400   9.8727190   5.5668210  59.5169770  12.1625430  19.0027530
  60.3182500  12.4837480  19.4162930  59.0021590  11.8021010  19.7247440
  68.3534400   8.2705300  18.9502940  67.7472560   8.2936900  18.2098690
  68.0488510   7.5388340  19.4870190  69.7834770  11.9985590  17.5612350
  70.7356520  11.9143610  17.5112590  69.6362990  12.6627300  18.2346140
  72.6743970  11.3779800   3.0604260  72.3885480  10.9644940   2.2458440
  72.4763520  12.3067510   2.9404780  57.2367580   4.6498890  17.9463580
  57.7406600   4.0706170  18.5179810  56.4975000   4.9339120  18.4839950
  64.2905520   6.0569880  17.4799100  63.5251190   6.6254880  17.3953770
  64.4721480   5.7646090  16.5867330  67.3793930   6.4333110   2.1051860
  66.8304030   6.8802410   2.7494600  68.0013190   5.9282360   2.6289530
  71.4328870   7.7875210  18.0374120  72.1738340   8.1250970  17.5341580
  70.6701550   7.9567270  17.4843890  59.2690660   2.7928480  18.8413650
  59.3096000   2.4942350  19.7498880  60.1236160   3.1936090  18.6821170
  63.0469050   5.3924030   4.0017160  63.4685470   5.2263900   4.8448550
  63.1719890   4.5824260   3.5072300  70.1074530   5.8390040  16.5729330
  70.5215550   5.9935120  17.4219750  69.1725530   5.9645260  16.7355110
  70.5796700   3.1786200  18.5768480  71.1617470   2.4238520  18.4888960
  70.7558470   3.7093640  17.7999960  64.8689760   5.7910520  14.5425260
  65.2877870   6.6343250  14.3701500  63.9498390   5.9282560  14.3132040
  67.2053660   3.5226700  15.9263100  67.3249870   2.9267840  16.6657940
  68.0647660   3.5596390  15.5064400  69.5441560   4.0763890  14.5025610
  69.0176780   4.6006510  13.8990750  69.8872900   4.7091280  15.1335340
  62.7197180  12.0963530  15.6582990  62.1818270  12.8209590  15.3391690
  62.9731140  11.6193870  14.8680330  65.5759390  13.3314740  15.9169640
  65.5018090  14.2349880  16.2242010  64.6738230  13.0126640  15.8891710
  66.1244720  12.4973250   3.5396000  67.0195510  12.8358220   3.5614760
  66.1562350  11.7752660   2.9120280  59.7640880   7.8700300   1.7683000
  60.2015750   8.4129970   2.4240580  60.2488610   7.0447250   1.7779340
  56.9786680  10.6589330   9.2203260  57.3089690   9.7910390   8.9881900
  57.4077680  10.8647850  10.0508220  61.5748600   8.9898340   6.8805230
  61.2744140   8.8663310   7.7809140  61.4686090   8.1306930   6.4720960
  57.4676890  11.5259920  11.9584890  57.0307880  11.7060720  12.7909040
  58.0354570  12.2834540  11.8166610  73.1039070  11.0276920  16.2462200
  72.5041060  11.0869480  15.5026120  73.2332970  10.0881900  16.3759050
  73.7996980   5.5142220   4.0866110  74.5615890   6.0838870   4.1925800
  73.8151350   4.9469420   4.8574420  57.3001320   4.0380150   8.3173770
  56.6450160   3.7691790   7.6733470  58.1379270   3.9284630   7.8675750
  74.8056950   6.3692320   8.9308040  75.1765780   5.5859640   8.5244010
  75.4458880   7.0581420   8.7525340  71.7890710   7.7528900  14.3438360
  70.9750550   8.1826060  14.6064150  72.1964910   8.3647310  13.7307410
  73.7481490   3.7445580   6.2368060  73.3725090   2.9773510   5.8049350
  73.0184610   4.1268280   6.7242990  58.3377250   4.4232720  12.8577110
  58.7050290   4.3360120  13.7373130  57.7688070   3.6599270  12.7583970
  73.1381110   2.8917100  15.8707580  72.9067200   2.6629850  14.9705530
  73.3985660   3.8116650  15.8252470  73.0232450   1.9703070   9.5375300
  73.5469930   1.4765720   8.9065470  73.6091870   2.1053430  10.2822870
  73.2022170   2.0542940  13.0594850  72.2524880   2.0206480  13.1739840
  73.3835180   2.9643050  12.8244620  71.8466760  12.5047500   7.8706630
  72.4425830  12.1832070   7.1941050  72.1044910  12.0319320   8.6619900
  59.7529330   8.9365410  18.0197260  59.7098960   8.5658320  18.9011720
  59.8840340   9.8742980  18.1599080  63.4535360  10.4925000  13.6206980
  63.2126720  10.7599560  12.7337500  64.3938000  10.6630730  13.6757840
  74.7139520  12.5119380  14.4217620  74.2197800  12.9088250  13.7044750
  74.1052810  11.8868590  14.8154900  59.5917360  11.8827660  15.1395040
  58.9977680  11.7512360  15.8785080  59.5841200  11.0465800  14.6737140
  72.3978970  13.1542800  11.7004360  71.9381940  13.9058610  11.3262380
  71.7691430  12.4349270  11.6419160  59.2229590   9.2486040  14.0903080
  58.4963650   8.6291330  14.0229030  59.2838740   9.6426650  13.2201160
  62.8274690  11.4631040  10.8752490  63.3439710  10.8518400  10.3500750
  63.4772070  11.9659820  11.3663500  65.5670190  12.3539530  11.7021470
  65.8548000  12.0993830  10.8254480  66.0793410  11.8016890  12.2927040
  57.5059590  12.5660430   7.2999840  57.3381630  11.9331110   7.9981730
  56.6394100  12.7719830   6.9494030  59.1122290  11.2593660   4.7449980
  58.5869910  11.6401690   4.0411940  59.0366870  11.8844430   5.4659690
  65.6342550  13.2755630  19.0689670  66.5609860  13.0399900  19.1125630
  65.6192980  14.1027630  18.5875700  73.8687610  12.8181200   6.0663920
  74.0439800  12.1318940   5.4224840  73.1709180  13.3428250   5.6740590
  61.7115260  13.2076040   3.6199230  62.4434080  12.9235320   3.0723120
  61.9708930  12.9689320   4.5098610  60.8730050   9.3240770   3.6245560
  60.2438930   9.7925870   4.1731390  60.9877880   8.4789990   4.0591750
  72.2020110  12.5025490  18.8930710  72.9945430  12.0074720  18.6856670
  72.4953260  13.1815630  19.5006320  49.5536280  97.2463880  64.8720720
  49.4730330  96.3318490  64.6012430  49.1400700  97.7430950  64.1660430
  47.6854320  99.0242900  66.7529990  46.9096420  98.5443340  67.0428560
  48.3367250  98.3448550  66.5786150  41.7020150  99.3362710  67.6305750
  40.8705030  99.0811420  68.0302260  42.3101130  99.4073480  68.3663670
  40.1112100  94.2964600  61.4148140  39.2228800  94.6380570  61.3128020
  40.3953290  94.0964920  60.5228970  38.0745110  96.8970250  67.2987840
  38.6461220  96.1292450  67.2991480  38.0746650  97.1959010  66.3894450
  39.3169980  92.3054610  69.0856770  39.1372820  91.4080360  69.3659530
  38.9150060  92.8526480  69.7603720  48.1568480  94.5070470  66.9869080
  48.5333300  93.6342350  66.8742750  48.0587990  94.8429170  66.0959520
  42.2873490  92.8796100  62.4486520  42.3940240  93.7799830  62.7555280
  41.3765850  92.8314070  62.1581170  51.9392600  92.0020910  63.9197420
  52.7602220  91.5117480  63.9622900  51.9726680  92.5918570  64.6729260
  39.9356650  94.8015110  67.6939110  40.6166760  95.0653480  68.3126510
  39.6204700  93.9615980  68.0277120  44.1281220  95.8482470  66.7811700
  44.6359440  96.3463440  67.4216720  44.6594460  95.0717670  66.6051060
  56.2292150  94.0187660  70.4841050  55.5244320  94.4069370  69.9656160
  56.4950070  94.7137950  71.0861980  42.4117320  90.4881030  71.0475120
  42.4135760  91.0053420  70.2421020  41.5821630  90.0111210  71.0245050
  43.6620170 100.1276210  69.2248620  43.3289550 100.7545130  69.8669690
  43.8386850 100.6538090  68.4450290  52.1754080  93.9421290  66.6924960
  51.4709650  94.2306180  67.2728070  52.5366240  94.7521400  66.3324520
  42.0932650  92.1990990  69.0545570  42.4349460  93.0433040  68.7599440
  41.1548460  92.3474730  69.1710910  55.2441000  93.3876080  67.0834170
  54.2965910  93.4215060  67.2149600  55.5690990  94.2015030  67.4683530
  45.7760540  89.6873260  65.3790160  46.0835520  89.1320150  64.6625660
  44.8461240  89.8217720  65.1963150  50.7261040 100.3070390  68.9980230
  51.1429830 100.0930500  68.1633690  51.4500860 100.5643180  69.5688850
  48.1641300  97.7522090  62.1150280  47.2370580  97.6859470  62.3438750
  48.3166120  98.6902220  62.0005520  48.1510380  94.0239090  59.1117440
  47.2114050  94.1853050  59.1969900  48.4693640  94.7424770  58.5653430
  54.6723140  98.7057610  69.0896470  53.8441770  98.7750700  68.6146600
  55.2673620  99.2911920  68.6212300  52.1938590  99.3142390  62.6185530
  51.5751010  98.9761940  61.9711830  52.1763040  98.6702150  63.3264720
  51.6365150  95.4926930  70.0351340  51.2236330  96.3180640  70.2891330
  50.9041100  94.9071970  69.8427700  43.7697940  98.2786830  64.8970010
  43.3654940  97.5664080  64.4015910  43.8561060  97.9340070  65.7858050
  42.4826560  95.0530040  68.6769050  43.0341150  95.1625380  67.9022300
  42.9970070  95.4267640  69.3924280  50.3703290  98.5529200  59.6258280
  50.8096570  97.7151630  59.4796100  51.0831710  99.1858600  59.7122420
  42.1569290  98.5749400  72.2874390  42.0177060  99.4472200  72.6561790
  41.2750650  98.2322210  72.1422330  53.9520430  89.8072010  57.9399320
  53.6393090  89.8998840  58.8398390  54.7132900  90.3853040  57.8896750
  40.4702570  97.1731810  62.3976660  40.3500170  97.8993900  61.7857930
  40.1603460  96.4034720  61.9204570  38.1087940 100.3446950  68.2045300
  38.1868360 100.4795720  67.2601020  38.7229620  99.6362840  68.3973420
  55.1621720  94.5443510  73.9173460  54.5465990  95.0523180  73.3888920
  54.8418140  93.6441840  73.8599400  42.9366230  90.5166880  65.7800330
  42.4934380  91.2976420  65.4484850  43.4951220  90.8396770  66.4871270
  47.2236040  93.3835400  71.3835650  46.7615410  93.5918420  72.1955590
  46.8214150  92.5694750  71.0806320  52.2240550  94.6044350  72.5132310
  51.3734140  94.3050100  72.8341380  52.0642340  94.8486360  71.6016130
  49.3190260  96.1046100  74.6131100  49.6443670  95.2709850  74.2733330
  50.1070590  96.6274620  74.7609430  46.0525050  90.1377580  60.6606160
  45.4279230  90.1337450  61.3859470  45.9655170  89.2708540  60.2642130
  44.9742130  91.0614210  67.6389930  45.2714460  91.9677040  67.5581950
  45.5227690  90.5732990  67.0249500  42.7280450  95.6400450  63.5081580
  42.5021370  95.4237620  64.4128200  41.9472980  96.0728910  63.1627550
  49.9578210  95.6463820  62.1072230  49.3587100  96.3699620  61.9235850
  50.5057820  95.5840600  61.3248680  45.1679660  96.5386030  74.1741850
  45.0723260  95.5980760  74.0242250  46.0111640  96.7601100  73.7789920
  48.5643080  94.2827360  64.1375510  48.9572650  94.5999560  63.3244200
  48.9259930  93.4039240  64.2520030  40.2990200  92.9499700  72.3275630
  39.9053590  93.7974910  72.5348410  39.6108600  92.3126070  72.5184270
  37.6007250  90.8728160  66.3605710  37.3120300  91.4431020  67.0730690
  38.3453010  90.3932610  66.7236940  37.7877480  94.8148280  57.5708430
  37.7052150  95.7579040  57.7123420  37.4360540  94.6723190  56.6920780
  49.1498220  96.8733110  68.2326290  48.4179340  97.3819920  68.5816390
  48.7522560  96.0563090  67.9315070  45.5875610  93.5487310  66.6378780
  45.5911670  93.1077260  65.7883320  46.4826730  93.8704640  66.7450600
  41.4377990  93.4313800  65.5972990  41.0978040  93.9089030  66.3540040
  40.6755310  92.9778920  65.2374090  45.6495760  94.5499390  59.6285540
  45.7708580  94.5085870  60.5771360  45.2644270  95.4123540  59.4732270
  49.6124130  92.3266790  67.6449230  49.6296870  92.7775440  68.4891080
  49.3639710  91.4272430  67.8582670  44.6617260  96.8600530  59.0268840
  44.0934160  96.4118780  58.4004750  45.3706260  97.2193310  58.4933990
  53.0394880  89.7398970  73.4835610  53.3640650  89.0088630  74.0093590
  53.0751390  89.4212610  72.5816600  45.8883580  97.6089090  68.3844190
  46.2553710  97.1347660  69.1305530  45.6988640  98.4830660  68.7252530
  38.7524070  92.3532780  64.5137660  38.4670990  91.9888450  65.3516280
  38.6902930  91.6213240  63.9000800  43.6782950  96.6497730  70.7028400
  43.3740020  97.5289710  70.9278760  44.6329410  96.7097520  70.7385840
  42.2064740 100.8558720  61.2995250  41.4327000 100.3156340  61.1393970
  42.9359370 100.3365330  60.9613010  52.9652720  99.8524080  67.0921640
  53.6851840 100.3479370  66.7017750  52.7634540  99.1741970  66.4475510
  48.4262660  91.2462040  61.2351030  47.6127270  90.7475210  61.1596340
  48.2324610  92.0860290  60.8187380  48.3471520  99.9233140  72.9790640
  48.2808830  99.0028810  72.7248230  47.7176660 100.0208580  73.6935280
  51.1411050  95.6181690  59.5313190  52.0290670  95.9298920  59.3564530
  51.1116140  94.7453940  59.1393770  42.2502140 100.5239100  64.9374060
  42.7680810  99.7207360  64.8830950  41.7986160 100.4618240  65.7790890
  39.7346680  97.4900470  71.8499760  39.3761620  98.1554320  72.4373100
  39.4401240  96.6584020  72.2212380  42.9359800  97.9484710  74.7339310
  42.6359940  98.0941890  73.8367130  43.7071040  97.3890000  74.6412700
  53.4125320  96.9293530  58.9993050  53.3289040  97.3607750  58.1489490
  54.1319510  97.3891880  59.4319870  54.4899460  99.3861050  72.0763020
  53.7647650  99.9789830  71.8792410  55.0174920  99.3784590  71.2776390
  38.2454730  97.4891730  58.4734360  39.1149580  97.7716530  58.7570280
  37.7545050  98.3027600  58.3583170  45.4089540  98.8764940  62.5942640
  45.8652320  99.6870190  62.8202830  45.0577750  98.5588080  63.4261130
  41.3101320  89.2202590  63.0665160  41.1815950  89.2120490  64.0150080
  40.4863340  89.5585680  62.7156170  38.3095250  90.9793710  72.5271860
  37.5953770  91.1790630  73.1324470  38.7290290  90.2033280  72.8986660
  40.2301240  99.3065200  60.6016420  39.6229190 100.0464100  60.6111720
  40.7050590  99.3964560  59.7754620  49.8034030  93.4716020  70.2773310
  50.1714850  92.6511230  70.6052880  48.9432230  93.5317910  70.6928960
  53.1696060  92.4272960  61.0860870  52.5409220  92.5318630  60.3719100
  52.6747980  92.6469740  61.8754750  45.1380090  94.7058910  62.5018750
  44.4296240  95.1745250  62.9432360  45.4224570  94.0480920  63.1363940
  46.7636020  96.1255610  70.5011280  47.2621270  96.6001430  71.1663130
  46.9058970  95.2019130  70.7081310  49.1695520  91.4309570  63.9414540
  49.0463300  91.4495700  62.9924050  50.1180080  91.4788510  64.0612940
  43.3415110  93.0143990  59.8769460  44.1905640  93.4514140  59.8109650
  42.9746380  93.3264250  60.7041520  53.9702880  92.3423570  71.3439670
  53.4676480  93.0828970  71.6833480  54.7859540  92.7307570  71.0276460
  52.2624890  97.5856750  64.7901030  51.3215030  97.6006980  64.9648720
  52.5768960  96.7992710  65.2361330  42.2406530  99.2676350  58.3504990
  43.0069800  99.1557710  58.9130420  42.3181220  98.5714320  57.6981760
  40.9353290  96.7001420  59.0337880  41.0156880  95.7528930  59.1455280
  41.8273040  97.0308300  59.1398540  38.4624090  98.5216340  74.2694050
  38.9663110  97.9423620  74.8410280  37.7231510  98.8056570  74.8070420
  45.5162030  99.9287330  73.8029570  44.7507700 100.4972330  73.7184240
  45.6977990  99.6363540  72.9097800  48.6050440 100.3050560  58.4282330
  48.0560540 100.7519860  59.0725070  49.2269700  99.7999810  58.9520000
  44.2725560  99.2641480  60.3247630  44.6941980  99.0981350  61.1679020
  44.3976400  98.4541710  59.8302770  42.4352980  95.2438030  73.1318610
  41.9049440  94.7528980  72.5041950  43.1041050  95.6722230  72.5976540
  46.7853200  98.2879090  57.5724730  47.3058860  97.5728110  57.2065880
  47.4321600  98.9264960  57.8725240  51.3331040  99.7107490  72.8959800
  51.7472060  99.8652570  73.7450220  50.3982040  99.8362710  73.0585580
  51.8053210  97.0503650  74.8998950  52.3873980  96.2955970  74.8119430
  51.9814980  97.5811090  74.1230430  42.9225280  92.2100400  73.2115900
  42.8282150  91.5921150  72.4866770  42.3422670  92.9366690  72.9845810
  45.6886720  90.7673640  70.2443290  45.2404020  90.7897900  69.3988840
  45.0551920  90.3692660  70.8413590  46.0946270  99.6627970  70.8655730
  46.5134380 100.5060700  70.6931970  45.1754900  99.8000010  70.6362510
  48.4310170  97.3944150  72.2493570  48.5506380  96.7985290  72.9888410
  49.2904170  97.4313840  71.8294870  50.7698070  97.9481340  70.8256080
  50.2433290  98.4723960  70.2221220  51.1129410  98.5808730  71.4565810
  43.1684460  95.3374710  57.2705790  42.9673520  94.4742070  57.6319130
  42.9976510  95.2508070  56.3327390  45.1978940  93.9365500  73.5069390
  45.7878630  93.6281350  74.1947210  44.3799180  93.4645250  73.6629290
  50.0172370  93.5531310  73.7402410  49.3287890  92.8912850  73.6752400
  50.7378390  93.1069580  74.1850870  50.6472770  90.1482940  59.7992670
  50.9275060  89.3050840  60.1552090  49.8738500  90.3806050  60.3131420
  41.9667260  92.4375330  57.2583670  42.2693160  92.4442760  56.3502820
  42.7061850  92.0873190  57.7551330  45.1852190  91.3809950  58.2439870
  44.8374190  90.7033940  57.6642320  45.3864960  90.9199460  59.0583260
  55.0253490  99.3859670  60.4096580  55.7872400  99.9556320  60.5156270
  55.0407860  98.8186870  61.1804890  38.5257830  97.9097600  64.6404240
  37.8706670  97.6409240  63.9963940  39.3635780  97.8002080  64.1906220
  55.0772660  99.6794040  57.5669100  55.3521500 100.5872920  57.4388320
  54.8883400  99.6156570  58.5031090  51.4748270  92.7038890  58.8622730
  51.8933150  92.5169870  58.0219390  51.1684330  91.8517940  59.1725660
  54.9738000  97.6163030  62.5598530  54.5981600  96.8490960  62.1279820
  54.2441120  97.9985730  63.0473460  39.5633760  98.2950170  69.1807580
  39.9306800  98.2077570  70.0603600  38.9944580  97.5316720  69.0814440
  54.3637620  96.7634550  72.1938050  54.1323710  96.5347300  71.2936000
  54.6242170  97.6834100  72.1482940  39.1149760  95.2059260  73.0866000
  38.2205810  95.1726020  73.4259710  39.6547310  95.4046050  73.8517250
  37.7395910  95.1196530  60.5829570  36.8359990  95.3826730  60.4081230
  38.2236530  95.3907700  59.8029530  54.2488960  95.8420520  65.8605770
  54.7726440  95.3483170  65.2295940  54.8348380  95.9770880  66.6053340
  54.4278680  95.9260390  69.3825320  53.4781390  95.8923930  69.4970310
  54.6091690  96.8360500  69.1475090  40.2823120  94.1762070  58.4923950
  40.9914820  93.7545290  58.0071230  39.5663060  94.2437300  57.8607300
  39.9297280  90.2301400  57.5326600  40.6525410  90.7710340  57.8507820
  40.2021800  89.9564820  56.6568140  53.7388930  95.0993870  61.7998180
  54.2348050  94.8664740  62.5847060  53.5405000  94.2605710  61.3835820
  39.6189470  89.4807590  67.4349220  40.2665660  88.9304970  66.9944380
  40.0391310  89.7350740  68.2565030  55.1676090  93.7354820  64.3335860
  55.0575370  93.5810860  65.2718130  55.9283680  93.2075760  64.0911270
  53.5141810  89.6748950  70.7918860  54.1514030  90.2883090  71.1578050
  53.6616700  89.7109610  69.8468090  56.0566360  91.5662740  57.5742000
  56.9815670  91.4343920  57.3660290  56.0342150  91.6455560  58.5278450
  56.1304850  92.3373400  60.1998710  55.3356350  92.2718520  60.7291620
  56.3348130  93.2724040  60.1884060  39.3721470  89.6363260  70.1774540
  39.0236290  90.0927080  70.9432720  39.0409170  88.7420390  70.2596970
  46.8846290  90.8275140  73.6993960  46.8235180  91.4196970  74.4489370
  47.8246670  90.7201100  73.5544220  49.5220850  90.4845200  73.3386250
  50.1361260  90.8024490  72.6767330  50.0670410  89.9993790  73.9582110
  40.0442110  89.1639460  73.4525310  40.5925100  88.9827510  72.6891420
  40.1097420  88.3733570  73.9881620  50.2628890  89.0477340  69.6655540
  49.3888730  89.3812450  69.4628470  50.1539640  88.5750520  70.4907410
  51.1700870  91.2548210  71.0497260  50.8414230  90.4399970  70.6698990
  52.1183170  91.2118020  70.9262950  48.0103710  89.9647180  68.6048450
  47.2275500  90.4392680  68.8845210  47.7166640  89.0602010  68.4961630
  52.5624780  90.6670280  66.6497540  53.0032870  90.6115380  65.8019140
  52.2932370  91.5828290  66.7207720  54.4263350  90.2985520  64.6606360
  54.3651750  89.3546740  64.5137380  55.2055380  90.4065610  65.2059820
  39.3544120  90.2694660  61.1262170  40.1123480  90.3823540  60.5526200
  38.8921290  91.1063860  61.0805600  45.8957930  92.3833930  64.1164480
  45.0832440  92.0090820  63.7760360  46.3999570  91.6279010  64.4185670
  50.3982910  89.0476380  65.3547550  51.0012280  89.6196590  65.8296070
  49.6575900  89.6115820  65.1321450  53.5417510  89.4497940  60.6287830
  53.7368140  90.3481390  60.8955260  52.7547380  89.2185020  61.1220780
  41.7269270  90.7958710  59.6664140  42.2562030  90.0088510  59.5372090
  42.3597590  91.4749900  59.8999670  43.9207110  90.5333850  62.7209530
  43.2909850  89.8321160  62.8879660  43.3812250  91.2937980  62.5042690
  49.5536280  97.2463880  46.0977230  49.4730330  96.3318490  45.8268940
  49.1400700  97.7430950  45.3916940  47.6854320  99.0242900  47.9786500
  46.9096420  98.5443340  48.2685070  48.3367250  98.3448550  47.8042660
  41.7020150  99.3362710  48.8562260  40.8705030  99.0811420  49.2558770
  42.3101130  99.4073480  49.5920180  40.1112100  94.2964600  42.6404650
  39.2228800  94.6380570  42.5384530  40.3953290  94.0964920  41.7485480
  38.0745110  96.8970250  48.5244350  38.6461220  96.1292450  48.5247990
  38.0746650  97.1959010  47.6150960  39.3169980  92.3054610  50.3113280
  39.1372820  91.4080360  50.5916040  38.9150060  92.8526480  50.9860230
  48.1568480  94.5070470  48.2125590  48.5333300  93.6342350  48.0999260
  48.0587990  94.8429170  47.3216030  42.2873490  92.8796100  43.6743030
  42.3940240  93.7799830  43.9811790  41.3765850  92.8314070  43.3837680
  51.9392600  92.0020910  45.1453930  52.7602220  91.5117480  45.1879410
  51.9726680  92.5918570  45.8985770  39.9356650  94.8015110  48.9195620
  40.6166760  95.0653480  49.5383020  39.6204700  93.9615980  49.2533630
  44.1281220  95.8482470  48.0068210  44.6359440  96.3463440  48.6473230
  44.6594460  95.0717670  47.8307570  56.2292150  94.0187660  51.7097560
  55.5244320  94.4069370  51.1912670  56.4950070  94.7137950  52.3118490
  42.4117320  90.4881030  52.2731630  42.4135760  91.0053420  51.4677530
  41.5821630  90.0111210  52.2501560  43.6620170 100.1276210  50.4505130
  43.3289550 100.7545130  51.0926200  43.8386850 100.6538090  49.6706800
  52.1754080  93.9421290  47.9181470  51.4709650  94.2306180  48.4984580
  52.5366240  94.7521400  47.5581030  42.0932650  92.1990990  50.2802080
  42.4349460  93.0433040  49.9855950  41.1548460  92.3474730  50.3967420
  55.2441000  93.3876080  48.3090680  54.2965910  93.4215060  48.4406110
  55.5690990  94.2015030  48.6940040  45.7760540  89.6873260  46.6046670
  46.0835520  89.1320150  45.8882170  44.8461240  89.8217720  46.4219660
  50.7261040 100.3070390  50.2236740  51.1429830 100.0930500  49.3890200
  51.4500860 100.5643180  50.7945360  48.1641300  97.7522090  43.3406790
  47.2370580  97.6859470  43.5695260  48.3166120  98.6902220  43.2262030
  48.1510380  94.0239090  40.3373950  47.2114050  94.1853050  40.4226410
  48.4693640  94.7424770  39.7909940  54.6723140  98.7057610  50.3152980
  53.8441770  98.7750700  49.8403110  55.2673620  99.2911920  49.8468810
  52.1938590  99.3142390  43.8442040  51.5751010  98.9761940  43.1968340
  52.1763040  98.6702150  44.5521230  51.6365150  95.4926930  51.2607850
  51.2236330  96.3180640  51.5147840  50.9041100  94.9071970  51.0684210
  43.7697940  98.2786830  46.1226520  43.3654940  97.5664080  45.6272420
  43.8561060  97.9340070  47.0114560  42.4826560  95.0530040  49.9025560
  43.0341150  95.1625380  49.1278810  42.9970070  95.4267640  50.6180790
  50.3703290  98.5529200  40.8514790  50.8096570  97.7151630  40.7052610
  51.0831710  99.1858600  40.9378930  42.1569290  98.5749400  53.5130900
  42.0177060  99.4472200  53.8818300  41.2750650  98.2322210  53.3678840
  53.9520430  89.8072010  39.1655830  53.6393090  89.8998840  40.0654900
  54.7132900  90.3853040  39.1153260  40.4702570  97.1731810  43.6233170
  40.3500170  97.8993900  43.0114440  40.1603460  96.4034720  43.1461080
  38.1087940 100.3446950  49.4301810  38.1868360 100.4795720  48.4857530
  38.7229620  99.6362840  49.6229930  55.1621720  94.5443510  55.1429970
  54.5465990  95.0523180  54.6145430  54.8418140  93.6441840  55.0855910
  42.9366230  90.5166880  47.0056840  42.4934380  91.2976420  46.6741360
  43.4951220  90.8396770  47.7127780  47.2236040  93.3835400  52.6092160
  46.7615410  93.5918420  53.4212100  46.8214150  92.5694750  52.3062830
  52.2240550  94.6044350  53.7388820  51.3734140  94.3050100  54.0597890
  52.0642340  94.8486360  52.8272640  49.3190260  96.1046100  55.8387610
  49.6443670  95.2709850  55.4989840  50.1070590  96.6274620  55.9865940
  46.0525050  90.1377580  41.8862670  45.4279230  90.1337450  42.6115980
  45.9655170  89.2708540  41.4898640  44.9742130  91.0614210  48.8646440
  45.2714460  91.9677040  48.7838460  45.5227690  90.5732990  48.2506010
  42.7280450  95.6400450  44.7338090  42.5021370  95.4237620  45.6384710
  41.9472980  96.0728910  44.3884060  49.9578210  95.6463820  43.3328740
  49.3587100  96.3699620  43.1492360  50.5057820  95.5840600  42.5505190
  45.1679660  96.5386030  55.3998360  45.0723260  95.5980760  55.2498760
  46.0111640  96.7601100  55.0046430  48.5643080  94.2827360  45.3632020
  48.9572650  94.5999560  44.5500710  48.9259930  93.4039240  45.4776540
  40.2990200  92.9499700  53.5532140  39.9053590  93.7974910  53.7604920
  39.6108600  92.3126070  53.7440780  46.8735250  93.0334670  56.6228880
  46.1833570  92.8406870  57.2574970  47.6167550  93.3169310  57.1553180
  37.6007250  90.8728160  47.5862220  37.3120300  91.4431020  48.2987200
  38.3453010  90.3932610  47.9493450  37.7877480  94.8148280  38.7964940
  37.7052150  95.7579040  38.9379930  37.4360540  94.6723190  37.9177290
  49.1498220  96.8733110  49.4582800  48.4179340  97.3819920  49.8072900
  48.7522560  96.0563090  49.1571580  45.5875610  93.5487310  47.8635290
  45.5911670  93.1077260  47.0139830  46.4826730  93.8704640  47.9707110
  41.4377990  93.4313800  46.8229500  41.0978040  93.9089030  47.5796550
  40.6755310  92.9778920  46.4630600  45.6495760  94.5499390  40.8542050
  45.7708580  94.5085870  41.8027870  45.2644270  95.4123540  40.6988780
  49.6124130  92.3266790  48.8705740  49.6296870  92.7775440  49.7147590
  49.3639710  91.4272430  49.0839180  44.6617260  96.8600530  40.2525350
  44.0934160  96.4118780  39.6261260  45.3706260  97.2193310  39.7190500
  53.0394880  89.7398970  54.7092120  53.3640650  89.0088630  55.2350100
  53.0751390  89.4212610  53.8073110  45.8883580  97.6089090  49.6100700
  46.2553710  97.1347660  50.3562040  45.6988640  98.4830660  49.9509040
  38.7524070  92.3532780  45.7394170  38.4670990  91.9888450  46.5772790
  38.6902930  91.6213240  45.1257310  43.6782950  96.6497730  51.9284910
  43.3740020  97.5289710  52.1535270  44.6329410  96.7097520  51.9642350
  42.2064740 100.8558720  42.5251760  41.4327000 100.3156340  42.3650480
  42.9359370 100.3365330  42.1869520  52.9652720  99.8524080  48.3178150
  53.6851840 100.3479370  47.9274260  52.7634540  99.1741970  47.6732020
  48.4262660  91.2462040  42.4607540  47.6127270  90.7475210  42.3852850
  48.2324610  92.0860290  42.0443890  48.3471520  99.9233140  54.2047150
  48.2808830  99.0028810  53.9504740  47.7176660 100.0208580  54.9191790
  51.1411050  95.6181690  40.7569700  52.0290670  95.9298920  40.5821040
  51.1116140  94.7453940  40.3650280  42.2502140 100.5239100  46.1630570
  42.7680810  99.7207360  46.1087460  41.7986160 100.4618240  47.0047400
  39.7346680  97.4900470  53.0756270  39.3761620  98.1554320  53.6629610
  39.4401240  96.6584020  53.4468890  42.9359800  97.9484710  55.9595820
  42.6359940  98.0941890  55.0623640  43.7071040  97.3890000  55.8669210
  53.4125320  96.9293530  40.2249560  53.3289040  97.3607750  39.3746000
  54.1319510  97.3891880  40.6576380  54.4899460  99.3861050  53.3019530
  53.7647650  99.9789830  53.1048920  55.0174920  99.3784590  52.5032900
  38.2454730  97.4891730  39.6990870  39.1149580  97.7716530  39.9826790
  37.7545050  98.3027600  39.5839680  45.4089540  98.8764940  43.8199150
  45.8652320  99.6870190  44.0459340  45.0577750  98.5588080  44.6517640
  41.3101320  89.2202590  44.2921670  41.1815950  89.2120490  45.2406590
  40.4863340  89.5585680  43.9412680  38.3095250  90.9793710  53.7528370
  37.5953770  91.1790630  54.3580980  38.7290290  90.2033280  54.1243170
  40.2301240  99.3065200  41.8272930  39.6229190 100.0464100  41.8368230
  40.7050590  99.3964560  41.0011130  49.8034030  93.4716020  51.5029820
  50.1714850  92.6511230  51.8309390  48.9432230  93.5317910  51.9185470
  53.1696060  92.4272960  42.3117380  52.5409220  92.5318630  41.5975610
  52.6747980  92.6469740  43.1011260  45.1380090  94.7058910  43.7275260
  44.4296240  95.1745250  44.1688870  45.4224570  94.0480920  44.3620450
  46.7636020  96.1255610  51.7267790  47.2621270  96.6001430  52.3919640
  46.9058970  95.2019130  51.9337820  49.1695520  91.4309570  45.1671050
  49.0463300  91.4495700  44.2180560  50.1180080  91.4788510  45.2869450
  43.3415110  93.0143990  41.1025970  44.1905640  93.4514140  41.0366160
  42.9746380  93.3264250  41.9298030  53.9702880  92.3423570  52.5696180
  53.4676480  93.0828970  52.9089990  54.7859540  92.7307570  52.2532970
  52.2624890  97.5856750  46.0157540  51.3215030  97.6006980  46.1905230
  52.5768960  96.7992710  46.4617840  42.2406530  99.2676350  39.5761500
  43.0069800  99.1557710  40.1386930  42.3181220  98.5714320  38.9238270
  40.9353290  96.7001420  40.2594390  41.0156880  95.7528930  40.3711790
  41.8273040  97.0308300  40.3655050  38.4624090  98.5216340  55.4950560
  38.9663110  97.9423620  56.0666790  37.7231510  98.8056570  56.0326930
  45.5162030  99.9287330  55.0286080  44.7507700 100.4972330  54.9440750
  45.6977990  99.6363540  54.1354310  48.6050440 100.3050560  39.6538840
  48.0560540 100.7519860  40.2981580  49.2269700  99.7999810  40.1776510
  40.4947170  96.6645930  56.3900630  40.5352510  96.3659800  57.2985860
  41.3492670  97.0653540  56.2308150  44.2725560  99.2641480  41.5504140
  44.6941980  99.0981350  42.3935530  44.3976400  98.4541710  41.0559280
  42.4352980  95.2438030  54.3575120  41.9049440  94.7528980  53.7298460
  43.1041050  95.6722230  53.8233050  46.7853200  98.2879090  38.7981240
  47.3058860  97.5728110  38.4322390  47.4321600  98.9264960  39.0981750
  51.3331040  99.7107490  54.1216310  51.7472060  99.8652570  54.9706730
  50.3982040  99.8362710  54.2842090  51.8053210  97.0503650  56.1255460
  52.3873980  96.2955970  56.0375940  51.9814980  97.5811090  55.3486940
  42.9225280  92.2100400  54.4372410  42.8282150  91.5921150  53.7123280
  42.3422670  92.9366690  54.2102320  45.6886720  90.7673640  51.4699800
  45.2404020  90.7897900  50.6245350  45.0551920  90.3692660  52.0670100
  46.0946270  99.6627970  52.0912240  46.5134380 100.5060700  51.9188480
  45.1754900  99.8000010  51.8619020  48.4310170  97.3944150  53.4750080
  48.5506380  96.7985290  54.2144920  49.2904170  97.4313840  53.0551380
  50.7698070  97.9481340  52.0512590  50.2433290  98.4723960  51.4477730
  51.1129410  98.5808730  52.6822320  43.1684460  95.3374710  38.4962300
  42.9673520  94.4742070  38.8575640  42.9976510  95.2508070  37.5583900
  45.1978940  93.9365500  54.7325900  45.7878630  93.6281350  55.4203720
  44.3799180  93.4645250  54.8885800  50.0172370  93.5531310  54.9658920
  49.3287890  92.8912850  54.9008910  50.7378390  93.1069580  55.4107380
  50.6472770  90.1482940  41.0249180  50.9275060  89.3050840  41.3808600
  49.8738500  90.3806050  41.5387930  41.9667260  92.4375330  38.4840180
  42.2693160  92.4442760  37.5759330  42.7061850  92.0873190  38.9807840
  45.1852190  91.3809950  39.4696380  44.8374190  90.7033940  38.8898830
  45.3864960  90.9199460  40.2839770  55.0253490  99.3859670  41.6353090
  55.7872400  99.9556320  41.7412780  55.0407860  98.8186870  42.4061400
  38.5257830  97.9097600  45.8660750  37.8706670  97.6409240  45.2220450
  39.3635780  97.8002080  45.4162730  55.0772660  99.6794040  38.7925610
  55.3521500 100.5872920  38.6644830  54.8883400  99.6156570  39.7287600
  51.4748270  92.7038890  40.0879240  51.8933150  92.5169870  39.2475900
  51.1684330  91.8517940  40.3982170  54.9738000  97.6163030  43.7855040
  54.5981600  96.8490960  43.3536330  54.2441120  97.9985730  44.2729970
  39.5633760  98.2950170  50.4064090  39.9306800  98.2077570  51.2860110
  38.9944580  97.5316720  50.3070950  54.3637620  96.7634550  53.4194560
  54.1323710  96.5347300  52.5192510  54.6242170  97.6834100  53.3739450
  39.1149760  95.2059260  54.3122510  38.2205810  95.1726020  54.6516220
  39.6547310  95.4046050  55.0773760  52.8025690  91.9890980  56.1974260
  53.6795870  91.9974380  56.5808260  52.8146530  91.2521820  55.5866610
  37.7395910  95.1196530  41.8086080  36.8359990  95.3826730  41.6337740
  38.2236530  95.3907700  41.0286040  54.2488960  95.8420520  47.0862280
  54.7726440  95.3483170  46.4552450  54.8348380  95.9770880  47.8309850
  54.4278680  95.9260390  50.6081830  53.4781390  95.8923930  50.7226820
  54.6091690  96.8360500  50.3731600  40.2823120  94.1762070  39.7180460
  40.9914820  93.7545290  39.2327740  39.5663060  94.2437300  39.0863810
  39.9297280  90.2301400  38.7583110  40.6525410  90.7710340  39.0764330
  40.2021800  89.9564820  37.8824650  53.7388930  95.0993870  43.0254690
  54.2348050  94.8664740  43.8103570  53.5405000  94.2605710  42.6092330
  39.6189470  89.4807590  48.6605730  40.2665660  88.9304970  48.2200890
  40.0391310  89.7350740  49.4821540  55.1676090  93.7354820  45.5592370
  55.0575370  93.5810860  46.4974640  55.9283680  93.2075760  45.3167780
  53.5141810  89.6748950  52.0175370  54.1514030  90.2883090  52.3834560
  53.6616700  89.7109610  51.0724600  56.0566360  91.5662740  38.7998510
  56.9815670  91.4343920  38.5916800  56.0342150  91.6455560  39.7534960
  56.1304850  92.3373400  41.4255220  55.3356350  92.2718520  41.9548130
  56.3348130  93.2724040  41.4140570  39.3721470  89.6363260  51.4031050
  39.0236290  90.0927080  52.1689230  39.0409170  88.7420390  51.4853480
  46.8846290  90.8275140  54.9250470  46.8235180  91.4196970  55.6745880
  47.8246670  90.7201100  54.7800730  49.5220850  90.4845200  54.5642760
  50.1361260  90.8024490  53.9023840  50.0670410  89.9993790  55.1838620
  40.0442110  89.1639460  54.6781820  40.5925100  88.9827510  53.9147930
  40.1097420  88.3733570  55.2138130  50.2628890  89.0477340  50.8912050
  49.3888730  89.3812450  50.6884980  50.1539640  88.5750520  51.7163920
  51.1700870  91.2548210  52.2753770  50.8414230  90.4399970  51.8955500
  52.1183170  91.2118020  52.1519460  48.0103710  89.9647180  49.8304960
  47.2275500  90.4392680  50.1101720  47.7166640  89.0602010  49.7218140
  52.5624780  90.6670280  47.8754050  53.0032870  90.6115380  47.0275650
  52.2932370  91.5828290  47.9464230  54.4263350  90.2985520  45.8862870
  54.3651750  89.3546740  45.7393890  55.2055380  90.4065610  46.4316330
  39.3544120  90.2694660  42.3518680  40.1123480  90.3823540  41.7782710
  38.8921290  91.1063860  42.3062110  45.8957930  92.3833930  45.3420990
  45.0832440  92.0090820  45.0016870  46.3999570  91.6279010  45.6442180
  50.3982910  89.0476380  46.5804060  51.0012280  89.6196590  47.0552580
  49.6575900  89.6115820  46.3577960  53.5417510  89.4497940  41.8544340
  53.7368140  90.3481390  42.1211770  52.7547380  89.2185020  42.3477290
  41.7269270  90.7958710  40.8920650  42.2562030  90.0088510  40.7628600
  42.3597590  91.4749900  41.1256180  43.9207110  90.5333850  43.9466040
  43.2909850  89.8321160  44.1136170  43.3812250  91.2937980  43.7299200
  44.0462670  89.8117830  56.3818530  43.7646940  90.3151430  55.6179350
  44.4282370  89.0139580  56.0160660  50.6478130  89.2271410  56.9599000
  50.5343580  89.5466020  57.8550520  51.4647870  89.6283920  56.6636280
  49.5536280  97.2463880  27.3233740  49.4730330  96.3318490  27.0525450
  49.1400700  97.7430950  26.6173450  47.6854320  99.0242900  29.2043010
  46.9096420  98.5443340  29.4941580  48.3367250  98.3448550  29.0299170
  41.7020150  99.3362710  30.0818770  40.8705030  99.0811420  30.4815280
  42.3101130  99.4073480  30.8176690  40.1112100  94.2964600  23.8661160
  39.2228800  94.6380570  23.7641040  40.3953290  94.0964920  22.9741990
  38.0745110  96.8970250  29.7500860  38.6461220  96.1292450  29.7504500
  38.0746650  97.1959010  28.8407470  39.3169980  92.3054610  31.5369790
  39.1372820  91.4080360  31.8172550  38.9150060  92.8526480  32.2116740
  48.1568480  94.5070470  29.4382100  48.5333300  93.6342350  29.3255770
  48.0587990  94.8429170  28.5472540  42.2873490  92.8796100  24.8999540
  42.3940240  93.7799830  25.2068300  41.3765850  92.8314070  24.6094190
  51.9392600  92.0020910  26.3710440  52.7602220  91.5117480  26.4135920
  51.9726680  92.5918570  27.1242280  39.9356650  94.8015110  30.1452130
  40.6166760  95.0653480  30.7639530  39.6204700  93.9615980  30.4790140
  44.1281220  95.8482470  29.2324720  44.6359440  96.3463440  29.8729740
  44.6594460  95.0717670  29.0564080  56.2292150  94.0187660  32.9354070
  55.5244320  94.4069370  32.4169180  56.4950070  94.7137950  33.5375000
  42.4117320  90.4881030  33.4988140  42.4135760  91.0053420  32.6934040
  41.5821630  90.0111210  33.4758070  43.6620170 100.1276210  31.6761640
  43.3289550 100.7545130  32.3182710  43.8386850 100.6538090  30.8963310
  52.1754080  93.9421290  29.1437980  51.4709650  94.2306180  29.7241090
  52.5366240  94.7521400  28.7837540  42.0932650  92.1990990  31.5058590
  42.4349460  93.0433040  31.2112460  41.1548460  92.3474730  31.6223930
  55.2441000  93.3876080  29.5347190  54.2965910  93.4215060  29.6662620
  55.5690990  94.2015030  29.9196550  45.7760540  89.6873260  27.8303180
  46.0835520  89.1320150  27.1138680  44.8461240  89.8217720  27.6476170
  50.7261040 100.3070390  31.4493250  51.1429830 100.0930500  30.6146710
  51.4500860 100.5643180  32.0201870  48.1641300  97.7522090  24.5663300
  47.2370580  97.6859470  24.7951770  48.3166120  98.6902220  24.4518540
  48.1510380  94.0239090  21.5630460  47.2114050  94.1853050  21.6482920
  48.4693640  94.7424770  21.0166450  54.6723140  98.7057610  31.5409490
  53.8441770  98.7750700  31.0659620  55.2673620  99.2911920  31.0725320
  52.1938590  99.3142390  25.0698550  51.5751010  98.9761940  24.4224850
  52.1763040  98.6702150  25.7777740  51.6365150  95.4926930  32.4864360
  51.2236330  96.3180640  32.7404350  50.9041100  94.9071970  32.2940720
  43.7697940  98.2786830  27.3483030  43.3654940  97.5664080  26.8528930
  43.8561060  97.9340070  28.2371070  42.4826560  95.0530040  31.1282070
  43.0341150  95.1625380  30.3535320  42.9970070  95.4267640  31.8437300
  50.3703290  98.5529200  22.0771300  50.8096570  97.7151630  21.9309120
  51.0831710  99.1858600  22.1635440  42.1569290  98.5749400  34.7387410
  42.0177060  99.4472200  35.1074810  41.2750650  98.2322210  34.5935350
  53.9520430  89.8072010  20.3912340  53.6393090  89.8998840  21.2911410
  54.7132900  90.3853040  20.3409770  40.4702570  97.1731810  24.8489680
  40.3500170  97.8993900  24.2370950  40.1603460  96.4034720  24.3717590
  38.1087940 100.3446950  30.6558320  38.1868360 100.4795720  29.7114040
  38.7229620  99.6362840  30.8486440  55.1621720  94.5443510  36.3686480
  54.5465990  95.0523180  35.8401940  54.8418140  93.6441840  36.3112420
  42.9366230  90.5166880  28.2313350  42.4934380  91.2976420  27.8997870
  43.4951220  90.8396770  28.9384290  47.2236040  93.3835400  33.8348670
  46.7615410  93.5918420  34.6468610  46.8214150  92.5694750  33.5319340
  52.2240550  94.6044350  34.9645330  51.3734140  94.3050100  35.2854400
  52.0642340  94.8486360  34.0529150  49.3190260  96.1046100  37.0644120
  49.6443670  95.2709850  36.7246350  50.1070590  96.6274620  37.2122450
  46.0525050  90.1377580  23.1119180  45.4279230  90.1337450  23.8372490
  45.9655170  89.2708540  22.7155150  44.9742130  91.0614210  30.0902950
  45.2714460  91.9677040  30.0094970  45.5227690  90.5732990  29.4762520
  42.7280450  95.6400450  25.9594600  42.5021370  95.4237620  26.8641220
  41.9472980  96.0728910  25.6140570  49.9578210  95.6463820  24.5585250
  49.3587100  96.3699620  24.3748870  50.5057820  95.5840600  23.7761700
  45.1679660  96.5386030  36.6254870  45.0723260  95.5980760  36.4755270
  46.0111640  96.7601100  36.2302940  48.5643080  94.2827360  26.5888530
  48.9572650  94.5999560  25.7757220  48.9259930  93.4039240  26.7033050
  40.2990200  92.9499700  34.7788650  39.9053590  93.7974910  34.9861430
  39.6108600  92.3126070  34.9697290  46.8735250  93.0334670  37.8485390
  46.1833570  92.8406870  38.4831480  47.6167550  93.3169310  38.3809690
  37.6007250  90.8728160  28.8118730  37.3120300  91.4431020  29.5243710
  38.3453010  90.3932610  29.1749960  37.7877480  94.8148280  20.0221450
  37.7052150  95.7579040  20.1636440  37.4360540  94.6723190  19.1433800
  49.1498220  96.8733110  30.6839310  48.4179340  97.3819920  31.0329410
  48.7522560  96.0563090  30.3828090  45.5875610  93.5487310  29.0891800
  45.5911670  93.1077260  28.2396340  46.4826730  93.8704640  29.1963620
  41.4377990  93.4313800  28.0486010  41.0978040  93.9089030  28.8053060
  40.6755310  92.9778920  27.6887110  45.6495760  94.5499390  22.0798560
  45.7708580  94.5085870  23.0284380  45.2644270  95.4123540  21.9245290
  49.6124130  92.3266790  30.0962250  49.6296870  92.7775440  30.9404100
  49.3639710  91.4272430  30.3095690  44.6617260  96.8600530  21.4781860
  44.0934160  96.4118780  20.8517770  45.3706260  97.2193310  20.9447010
  53.0394880  89.7398970  35.9348630  53.3640650  89.0088630  36.4606610
  53.0751390  89.4212610  35.0329620  45.8883580  97.6089090  30.8357210
  46.2553710  97.1347660  31.5818550  45.6988640  98.4830660  31.1765550
  38.7524070  92.3532780  26.9650680  38.4670990  91.9888450  27.8029300
  38.6902930  91.6213240  26.3513820  43.6782950  96.6497730  33.1541420
  43.3740020  97.5289710  33.3791780  44.6329410  96.7097520  33.1898860
  42.2064740 100.8558720  23.7508270  41.4327000 100.3156340  23.5906990
  42.9359370 100.3365330  23.4126030  52.9652720  99.8524080  29.5434660
  53.6851840 100.3479370  29.1530770  52.7634540  99.1741970  28.8988530
  48.4262660  91.2462040  23.6864050  47.6127270  90.7475210  23.6109360
  48.2324610  92.0860290  23.2700400  48.3471520  99.9233140  35.4303660
  48.2808830  99.0028810  35.1761250  47.7176660 100.0208580  36.1448300
  51.1411050  95.6181690  21.9826210  52.0290670  95.9298920  21.8077550
  51.1116140  94.7453940  21.5906790  42.2502140 100.5239100  27.3887080
  42.7680810  99.7207360  27.3343970  41.7986160 100.4618240  28.2303910
  39.7346680  97.4900470  34.3012780  39.3761620  98.1554320  34.8886120
  39.4401240  96.6584020  34.6725400  42.9359800  97.9484710  37.1852330
  42.6359940  98.0941890  36.2880150  43.7071040  97.3890000  37.0925720
  53.4125320  96.9293530  21.4506070  53.3289040  97.3607750  20.6002510
  54.1319510  97.3891880  21.8832890  54.4899460  99.3861050  34.5276040
  53.7647650  99.9789830  34.3305430  55.0174920  99.3784590  33.7289410
  38.2454730  97.4891730  20.9247380  39.1149580  97.7716530  21.2083300
  37.7545050  98.3027600  20.8096190  45.4089540  98.8764940  25.0455660
  45.8652320  99.6870190  25.2715850  45.0577750  98.5588080  25.8774150
  41.3101320  89.2202590  25.5178180  41.1815950  89.2120490  26.4663100
  40.4863340  89.5585680  25.1669190  38.3095250  90.9793710  34.9784880
  37.5953770  91.1790630  35.5837490  38.7290290  90.2033280  35.3499680
  40.2301240  99.3065200  23.0529440  39.6229190 100.0464100  23.0624740
  40.7050590  99.3964560  22.2267640  49.8034030  93.4716020  32.7286330
  50.1714850  92.6511230  33.0565900  48.9432230  93.5317910  33.1441980
  53.1696060  92.4272960  23.5373890  52.5409220  92.5318630  22.8232120
  52.6747980  92.6469740  24.3267770  45.1380090  94.7058910  24.9531770
  44.4296240  95.1745250  25.3945380  45.4224570  94.0480920  25.5876960
  46.7636020  96.1255610  32.9524300  47.2621270  96.6001430  33.6176150
  46.9058970  95.2019130  33.1594330  49.1695520  91.4309570  26.3927560
  49.0463300  91.4495700  25.4437070  50.1180080  91.4788510  26.5125960
  43.3415110  93.0143990  22.3282480  44.1905640  93.4514140  22.2622670
  42.9746380  93.3264250  23.1554540  53.9702880  92.3423570  33.7952690
  53.4676480  93.0828970  34.1346500  54.7859540  92.7307570  33.4789480
  52.2624890  97.5856750  27.2414050  51.3215030  97.6006980  27.4161740
  52.5768960  96.7992710  27.6874350  42.2406530  99.2676350  20.8018010
  43.0069800  99.1557710  21.3643440  42.3181220  98.5714320  20.1494780
  40.9353290  96.7001420  21.4850900  41.0156880  95.7528930  21.5968300
  41.8273040  97.0308300  21.5911560  38.4624090  98.5216340  36.7207070
  38.9663110  97.9423620  37.2923300  37.7231510  98.8056570  37.2583440
  45.5162030  99.9287330  36.2542590  44.7507700 100.4972330  36.1697260
  45.6977990  99.6363540  35.3610820  48.6050440 100.3050560  20.8795350
  48.0560540 100.7519860  21.5238090  49.2269700  99.7999810  21.4033020
  40.4947170  96.6645930  37.6157140  40.5352510  96.3659800  38.5242370
  41.3492670  97.0653540  37.4564660  44.2725560  99.2641480  22.7760650
  44.6941980  99.0981350  23.6192040  44.3976400  98.4541710  22.2815790
  42.4352980  95.2438030  35.5831630  41.9049440  94.7528980  34.9554970
  43.1041050  95.6722230  35.0489560  46.7853200  98.2879090  20.0237750
  47.3058860  97.5728110  19.6578900  47.4321600  98.9264960  20.3238260
  51.3331040  99.7107490  35.3472820  51.7472060  99.8652570  36.1963240
  50.3982040  99.8362710  35.5098600  51.8053210  97.0503650  37.3511970
  52.3873980  96.2955970  37.2632450  51.9814980  97.5811090  36.5743450
  42.9225280  92.2100400  35.6628920  42.8282150  91.5921150  34.9379790
  42.3422670  92.9366690  35.4358830  45.6886720  90.7673640  32.6956310
  45.2404020  90.7897900  31.8501860  45.0551920  90.3692660  33.2926610
  46.0946270  99.6627970  33.3168750  46.5134380 100.5060700  33.1444990
  45.1754900  99.8000010  33.0875530  48.4310170  97.3944150  34.7006590
  48.5506380  96.7985290  35.4401430  49.2904170  97.4313840  34.2807890
  50.7698070  97.9481340  33.2769100  50.2433290  98.4723960  32.6734240
  51.1129410  98.5808730  33.9078830  43.1684460  95.3374710  19.7218810
  42.9673520  94.4742070  20.0832150  42.9976510  95.2508070  18.7840410
  45.1978940  93.9365500  35.9582410  45.7878630  93.6281350  36.6460230
  44.3799180  93.4645250  36.1142310  50.0172370  93.5531310  36.1915430
  49.3287890  92.8912850  36.1265420  50.7378390  93.1069580  36.6363890
  50.6472770  90.1482940  22.2505690  50.9275060  89.3050840  22.6065110
  49.8738500  90.3806050  22.7644440  41.9667260  92.4375330  19.7096690
  42.2693160  92.4442760  18.8015840  42.7061850  92.0873190  20.2064350
  45.1852190  91.3809950  20.6952890  44.8374190  90.7033940  20.1155340
  45.3864960  90.9199460  21.5096280  55.0253490  99.3859670  22.8609600
  55.7872400  99.9556320  22.9669290  55.0407860  98.8186870  23.6317910
  38.5257830  97.9097600  27.0917260  37.8706670  97.6409240  26.4476960
  39.3635780  97.8002080  26.6419240  55.0772660  99.6794040  20.0182120
  55.3521500 100.5872920  19.8901340  54.8883400  99.6156570  20.9544110
  51.4748270  92.7038890  21.3135750  51.8933150  92.5169870  20.4732410
  51.1684330  91.8517940  21.6238680  54.9738000  97.6163030  25.0111550
  54.5981600  96.8490960  24.5792840  54.2441120  97.9985730  25.4986480
  39.5633760  98.2950170  31.6320600  39.9306800  98.2077570  32.5116620
  38.9944580  97.5316720  31.5327460  54.3637620  96.7634550  34.6451070
  54.1323710  96.5347300  33.7449020  54.6242170  97.6834100  34.5995960
  39.1149760  95.2059260  35.5379020  38.2205810  95.1726020  35.8772730
  39.6547310  95.4046050  36.3030270  52.8025690  91.9890980  37.4230770
  53.6795870  91.9974380  37.8064770  52.8146530  91.2521820  36.8123120
  37.7395910  95.1196530  23.0342590  36.8359990  95.3826730  22.8594250
  38.2236530  95.3907700  22.2542550  54.2488960  95.8420520  28.3118790
  54.7726440  95.3483170  27.6808960  54.8348380  95.9770880  29.0566360
  54.4278680  95.9260390  31.8338340  53.4781390  95.8923930  31.9483330
  54.6091690  96.8360500  31.5988110  40.2823120  94.1762070  20.9436970
  40.9914820  93.7545290  20.4584250  39.5663060  94.2437300  20.3120320
  39.9297280  90.2301400  19.9839620  40.6525410  90.7710340  20.3020840
  40.2021800  89.9564820  19.1081160  53.7388930  95.0993870  24.2511200
  54.2348050  94.8664740  25.0360080  53.5405000  94.2605710  23.8348840
  39.6189470  89.4807590  29.8862240  40.2665660  88.9304970  29.4457400
  40.0391310  89.7350740  30.7078050  55.1676090  93.7354820  26.7848880
  55.0575370  93.5810860  27.7231150  55.9283680  93.2075760  26.5424290
  53.5141810  89.6748950  33.2431880  54.1514030  90.2883090  33.6091070
  53.6616700  89.7109610  32.2981110  56.0566360  91.5662740  20.0255020
  56.9815670  91.4343920  19.8173310  56.0342150  91.6455560  20.9791470
  56.1304850  92.3373400  22.6511730  55.3356350  92.2718520  23.1804640
  56.3348130  93.2724040  22.6397080  39.3721470  89.6363260  32.6287560
  39.0236290  90.0927080  33.3945740  39.0409170  88.7420390  32.7109990
  46.8846290  90.8275140  36.1506980  46.8235180  91.4196970  36.9002390
  47.8246670  90.7201100  36.0057240  49.5220850  90.4845200  35.7899270
  50.1361260  90.8024490  35.1280350  50.0670410  89.9993790  36.4095130
  40.0442110  89.1639460  35.9038330  40.5925100  88.9827510  35.1404440
  40.1097420  88.3733570  36.4394640  50.2628890  89.0477340  32.1168560
  49.3888730  89.3812450  31.9141490  50.1539640  88.5750520  32.9420430
  51.1700870  91.2548210  33.5010280  50.8414230  90.4399970  33.1212010
  52.1183170  91.2118020  33.3775970  48.0103710  89.9647180  31.0561470
  47.2275500  90.4392680  31.3358230  47.7166640  89.0602010  30.9474650
  52.5624780  90.6670280  29.1010560  53.0032870  90.6115380  28.2532160
  52.2932370  91.5828290  29.1720740  54.4263350  90.2985520  27.1119380
  54.3651750  89.3546740  26.9650400  55.2055380  90.4065610  27.6572840
  39.3544120  90.2694660  23.5775190  40.1123480  90.3823540  23.0039220
  38.8921290  91.1063860  23.5318620  45.8957930  92.3833930  26.5677500
  45.0832440  92.0090820  26.2273380  46.3999570  91.6279010  26.8698690
  50.3982910  89.0476380  27.8060570  51.0012280  89.6196590  28.2809090
  49.6575900  89.6115820  27.5834470  53.5417510  89.4497940  23.0800850
  53.7368140  90.3481390  23.3468280  52.7547380  89.2185020  23.5733800
  41.7269270  90.7958710  22.1177160  42.2562030  90.0088510  21.9885110
  42.3597590  91.4749900  22.3512690  43.9207110  90.5333850  25.1722550
  43.2909850  89.8321160  25.3392680  43.3812250  91.2937980  24.9555710
  44.0462670  89.8117830  37.6075040  43.7646940  90.3151430  36.8435860
  44.4282370  89.0139580  37.2417170  50.6478130  89.2271410  38.1855510
  50.5343580  89.5466020  39.0807030  51.4647870  89.6283920  37.8892790
  49.5536280  97.2463880   8.5490250  49.4730330  96.3318490   8.2781960
  49.1400700  97.7430950   7.8429960  47.6854320  99.0242900  10.4299520
  46.9096420  98.5443340  10.7198090  48.3367250  98.3448550  10.2555680
  41.7020150  99.3362710  11.3075280  40.8705030  99.0811420  11.7071790
  42.3101130  99.4073480  12.0433200  40.1112100  94.2964600   5.0917670
  39.2228800  94.6380570   4.9897550  40.3953290  94.0964920   4.1998500
  38.0745110  96.8970250  10.9757370  38.6461220  96.1292450  10.9761010
  38.0746650  97.1959010  10.0663980  39.3169980  92.3054610  12.7626300
  39.1372820  91.4080360  13.0429060  38.9150060  92.8526480  13.4373250
  48.1568480  94.5070470  10.6638610  48.5333300  93.6342350  10.5512280
  48.0587990  94.8429170   9.7729050  42.2873490  92.8796100   6.1256050
  42.3940240  93.7799830   6.4324810  41.3765850  92.8314070   5.8350700
  51.9392600  92.0020910   7.5966950  52.7602220  91.5117480   7.6392430
  51.9726680  92.5918570   8.3498790  39.9356650  94.8015110  11.3708640
  40.6166760  95.0653480  11.9896040  39.6204700  93.9615980  11.7046650
  44.1281220  95.8482470  10.4581230  44.6359440  96.3463440  11.0986250
  44.6594460  95.0717670  10.2820590  56.2292150  94.0187660  14.1610580
  55.5244320  94.4069370  13.6425690  56.4950070  94.7137950  14.7631510
  42.4117320  90.4881030  14.7244650  42.4135760  91.0053420  13.9190550
  41.5821630  90.0111210  14.7014580  43.6620170 100.1276210  12.9018150
  43.3289550 100.7545130  13.5439220  43.8386850 100.6538090  12.1219820
  52.1754080  93.9421290  10.3694490  51.4709650  94.2306180  10.9497600
  52.5366240  94.7521400  10.0094050  42.0932650  92.1990990  12.7315100
  42.4349460  93.0433040  12.4368970  41.1548460  92.3474730  12.8480440
  55.2441000  93.3876080  10.7603700  54.2965910  93.4215060  10.8919130
  55.5690990  94.2015030  11.1453060  45.7760540  89.6873260   9.0559690
  46.0835520  89.1320150   8.3395190  44.8461240  89.8217720   8.8732680
  50.7261040 100.3070390  12.6749760  51.1429830 100.0930500  11.8403220
  51.4500860 100.5643180  13.2458380  48.1641300  97.7522090   5.7919810
  47.2370580  97.6859470   6.0208280  48.3166120  98.6902220   5.6775050
  48.1510380  94.0239090   2.7886970  47.2114050  94.1853050   2.8739430
  48.4693640  94.7424770   2.2422960  54.6723140  98.7057610  12.7666000
  53.8441770  98.7750700  12.2916130  55.2673620  99.2911920  12.2981830
  52.1938590  99.3142390   6.2955060  51.5751010  98.9761940   5.6481360
  52.1763040  98.6702150   7.0034250  51.6365150  95.4926930  13.7120870
  51.2236330  96.3180640  13.9660860  50.9041100  94.9071970  13.5197230
  43.7697940  98.2786830   8.5739540  43.3654940  97.5664080   8.0785440
  43.8561060  97.9340070   9.4627580  42.4826560  95.0530040  12.3538580
  43.0341150  95.1625380  11.5791830  42.9970070  95.4267640  13.0693810
  50.3703290  98.5529200   3.3027810  50.8096570  97.7151630   3.1565630
  51.0831710  99.1858600   3.3891950  42.1569290  98.5749400  15.9643920
  42.0177060  99.4472200  16.3331320  41.2750650  98.2322210  15.8191860
  40.4702570  97.1731810   6.0746190  40.3500170  97.8993900   5.4627460
  40.1603460  96.4034720   5.5974100  38.1087940 100.3446950  11.8814830
  38.1868360 100.4795720  10.9370550  38.7229620  99.6362840  12.0742950
  55.1621720  94.5443510  17.5942990  54.5465990  95.0523180  17.0658450
  54.8418140  93.6441840  17.5368930  42.9366230  90.5166880   9.4569860
  42.4934380  91.2976420   9.1254380  43.4951220  90.8396770  10.1640800
  47.2236040  93.3835400  15.0605180  46.7615410  93.5918420  15.8725120
  46.8214150  92.5694750  14.7575850  52.2240550  94.6044350  16.1901840
  51.3734140  94.3050100  16.5110910  52.0642340  94.8486360  15.2785660
  49.3190260  96.1046100  18.2900630  49.6443670  95.2709850  17.9502860
  50.1070590  96.6274620  18.4378960  46.0525050  90.1377580   4.3375690
  45.4279230  90.1337450   5.0629000  45.9655170  89.2708540   3.9411660
  44.9742130  91.0614210  11.3159460  45.2714460  91.9677040  11.2351480
  45.5227690  90.5732990  10.7019030  42.7280450  95.6400450   7.1851110
  42.5021370  95.4237620   8.0897730  41.9472980  96.0728910   6.8397080
  49.9578210  95.6463820   5.7841760  49.3587100  96.3699620   5.6005380
  50.5057820  95.5840600   5.0018210  45.1679660  96.5386030  17.8511380
  45.0723260  95.5980760  17.7011780  46.0111640  96.7601100  17.4559450
  48.5643080  94.2827360   7.8145040  48.9572650  94.5999560   7.0013730
  48.9259930  93.4039240   7.9289560  40.2990200  92.9499700  16.0045160
  39.9053590  93.7974910  16.2117940  39.6108600  92.3126070  16.1953800
  46.8735250  93.0334670  19.0741900  46.1833570  92.8406870  19.7087990
  47.6167550  93.3169310  19.6066200  37.6007250  90.8728160  10.0375240
  37.3120300  91.4431020  10.7500220  38.3453010  90.3932610  10.4006470
  49.1498220  96.8733110  11.9095820  48.4179340  97.3819920  12.2585920
  48.7522560  96.0563090  11.6084600  45.5875610  93.5487310  10.3148310
  45.5911670  93.1077260   9.4652850  46.4826730  93.8704640  10.4220130
  41.4377990  93.4313800   9.2742520  41.0978040  93.9089030  10.0309570
  40.6755310  92.9778920   8.9143620  45.6495760  94.5499390   3.3055070
  45.7708580  94.5085870   4.2540890  45.2644270  95.4123540   3.1501800
  49.6124130  92.3266790  11.3218760  49.6296870  92.7775440  12.1660610
  49.3639710  91.4272430  11.5352200  44.6617260  96.8600530   2.7038370
  44.0934160  96.4118780   2.0774280  45.3706260  97.2193310   2.1703520
  53.0394880  89.7398970  17.1605140  53.3640650  89.0088630  17.6863120
  53.0751390  89.4212610  16.2586130  45.8883580  97.6089090  12.0613720
  46.2553710  97.1347660  12.8075060  45.6988640  98.4830660  12.4022060
  38.7524070  92.3532780   8.1907190  38.4670990  91.9888450   9.0285810
  38.6902930  91.6213240   7.5770330  43.6782950  96.6497730  14.3797930
  43.3740020  97.5289710  14.6048290  44.6329410  96.7097520  14.4155370
  42.2064740 100.8558720   4.9764780  41.4327000 100.3156340   4.8163500
  42.9359370 100.3365330   4.6382540  52.9652720  99.8524080  10.7691170
  53.6851840 100.3479370  10.3787280  52.7634540  99.1741970  10.1245040
  48.4262660  91.2462040   4.9120560  47.6127270  90.7475210   4.8365870
  48.2324610  92.0860290   4.4956910  48.3471520  99.9233140  16.6560170
  48.2808830  99.0028810  16.4017760  47.7176660 100.0208580  17.3704810
  51.1411050  95.6181690   3.2082720  52.0290670  95.9298920   3.0334060
  51.1116140  94.7453940   2.8163300  42.2502140 100.5239100   8.6143590
  42.7680810  99.7207360   8.5600480  41.7986160 100.4618240   9.4560420
  39.7346680  97.4900470  15.5269290  39.3761620  98.1554320  16.1142630
  39.4401240  96.6584020  15.8981910  42.9359800  97.9484710  18.4108840
  42.6359940  98.0941890  17.5136660  43.7071040  97.3890000  18.3182230
  53.4125320  96.9293530   2.6762580  53.3289040  97.3607750   1.8259020
  54.1319510  97.3891880   3.1089400  54.4899460  99.3861050  15.7532550
  53.7647650  99.9789830  15.5561940  55.0174920  99.3784590  14.9545920
  38.2454730  97.4891730   2.1503890  39.1149580  97.7716530   2.4339810
  37.7545050  98.3027600   2.0352700  45.4089540  98.8764940   6.2712170
  45.8652320  99.6870190   6.4972360  45.0577750  98.5588080   7.1030660
  41.3101320  89.2202590   6.7434690  41.1815950  89.2120490   7.6919610
  40.4863340  89.5585680   6.3925700  38.3095250  90.9793710  16.2041390
  37.5953770  91.1790630  16.8094000  38.7290290  90.2033280  16.5756190
  40.2301240  99.3065200   4.2785950  39.6229190 100.0464100   4.2881250
  40.7050590  99.3964560   3.4524150  49.8034030  93.4716020  13.9542840
  50.1714850  92.6511230  14.2822410  48.9432230  93.5317910  14.3698490
  53.1696060  92.4272960   4.7630400  52.5409220  92.5318630   4.0488630
  52.6747980  92.6469740   5.5524280  45.1380090  94.7058910   6.1788280
  44.4296240  95.1745250   6.6201890  45.4224570  94.0480920   6.8133470
  46.7636020  96.1255610  14.1780810  47.2621270  96.6001430  14.8432660
  46.9058970  95.2019130  14.3850840  49.1695520  91.4309570   7.6184070
  49.0463300  91.4495700   6.6693580  50.1180080  91.4788510   7.7382470
  43.3415110  93.0143990   3.5538990  44.1905640  93.4514140   3.4879180
  42.9746380  93.3264250   4.3811050  53.9702880  92.3423570  15.0209200
  53.4676480  93.0828970  15.3603010  54.7859540  92.7307570  14.7045990
  52.2624890  97.5856750   8.4670560  51.3215030  97.6006980   8.6418250
  52.5768960  96.7992710   8.9130860  40.9353290  96.7001420   2.7107410
  41.0156880  95.7528930   2.8224810  41.8273040  97.0308300   2.8168070
  38.4624090  98.5216340  17.9463580  38.9663110  97.9423620  18.5179810
  37.7231510  98.8056570  18.4839950  45.5162030  99.9287330  17.4799100
  44.7507700 100.4972330  17.3953770  45.6977990  99.6363540  16.5867330
  48.6050440 100.3050560   2.1051860  48.0560540 100.7519860   2.7494600
  49.2269700  99.7999810   2.6289530  40.4947170  96.6645930  18.8413650
  40.5352510  96.3659800  19.7498880  41.3492670  97.0653540  18.6821170
  44.2725560  99.2641480   4.0017160  44.6941980  99.0981350   4.8448550
  44.3976400  98.4541710   3.5072300  42.4352980  95.2438030  16.8088140
  41.9049440  94.7528980  16.1811480  43.1041050  95.6722230  16.2746070
  51.3331040  99.7107490  16.5729330  51.7472060  99.8652570  17.4219750
  50.3982040  99.8362710  16.7355110  51.8053210  97.0503650  18.5768480
  52.3873980  96.2955970  18.4888960  51.9814980  97.5811090  17.7999960
  42.9225280  92.2100400  16.8885430  42.8282150  91.5921150  16.1636300
  42.3422670  92.9366690  16.6615340  45.6886720  90.7673640  13.9212820
  45.2404020  90.7897900  13.0758370  45.0551920  90.3692660  14.5183120
  46.0946270  99.6627970  14.5425260  46.5134380 100.5060700  14.3701500
  45.1754900  99.8000010  14.3132040  48.4310170  97.3944150  15.9263100
  48.5506380  96.7985290  16.6657940  49.2904170  97.4313840  15.5064400
  50.7698070  97.9481340  14.5025610  50.2433290  98.4723960  13.8990750
  51.1129410  98.5808730  15.1335340  45.1978940  93.9365500  17.1838920
  45.7878630  93.6281350  17.8716740  44.3799180  93.4645250  17.3398820
  50.0172370  93.5531310  17.4171940  49.3287890  92.8912850  17.3521930
  50.7378390  93.1069580  17.8620400  50.6472770  90.1482940   3.4762200
  50.9275060  89.3050840   3.8321620  49.8738500  90.3806050   3.9900950
  55.0253490  99.3859670   4.0866110  55.7872400  99.9556320   4.1925800
  55.0407860  98.8186870   4.8574420  38.5257830  97.9097600   8.3173770
  37.8706670  97.6409240   7.6733470  39.3635780  97.8002080   7.8675750
  51.4748270  92.7038890   2.5392260  51.8933150  92.5169870   1.6988920
  51.1684330  91.8517940   2.8495190  54.9738000  97.6163030   6.2368060
  54.5981600  96.8490960   5.8049350  54.2441120  97.9985730   6.7242990
  39.5633760  98.2950170  12.8577110  39.9306800  98.2077570  13.7373130
  38.9944580  97.5316720  12.7583970  54.3637620  96.7634550  15.8707580
  54.1323710  96.5347300  14.9705530  54.6242170  97.6834100  15.8252470
  39.1149760  95.2059260  16.7635530  38.2205810  95.1726020  17.1029240
  39.6547310  95.4046050  17.5286780  52.8025690  91.9890980  18.6487280
  53.6795870  91.9974380  19.0321280  52.8146530  91.2521820  18.0379630
  37.7395910  95.1196530   4.2599100  36.8359990  95.3826730   4.0850760
  38.2236530  95.3907700   3.4799060  54.2488960  95.8420520   9.5375300
  54.7726440  95.3483170   8.9065470  54.8348380  95.9770880  10.2822870
  54.4278680  95.9260390  13.0594850  53.4781390  95.8923930  13.1739840
  54.6091690  96.8360500  12.8244620  53.7388930  95.0993870   5.4767710
  54.2348050  94.8664740   6.2616590  53.5405000  94.2605710   5.0605350
  39.6189470  89.4807590  11.1118750  40.2665660  88.9304970  10.6713910
  40.0391310  89.7350740  11.9334560  55.1676090  93.7354820   8.0105390
  55.0575370  93.5810860   8.9487660  55.9283680  93.2075760   7.7680800
  53.5141810  89.6748950  14.4688390  54.1514030  90.2883090  14.8347580
  53.6616700  89.7109610  13.5237620  56.1304850  92.3373400   3.8768240
  55.3356350  92.2718520   4.4061150  56.3348130  93.2724040   3.8653590
  39.3721470  89.6363260  13.8544070  39.0236290  90.0927080  14.6202250
  39.0409170  88.7420390  13.9366500  46.8846290  90.8275140  17.3763490
  46.8235180  91.4196970  18.1258900  47.8246670  90.7201100  17.2313750
  49.5220850  90.4845200  17.0155780  50.1361260  90.8024490  16.3536860
  50.0670410  89.9993790  17.6351640  40.0442110  89.1639460  17.1294840
  40.5925100  88.9827510  16.3660950  40.1097420  88.3733570  17.6651150
  50.2628890  89.0477340  13.3425070  49.3888730  89.3812450  13.1398000
  50.1539640  88.5750520  14.1676940  51.1700870  91.2548210  14.7266790
  50.8414230  90.4399970  14.3468520  52.1183170  91.2118020  14.6032480
  48.0103710  89.9647180  12.2817980  47.2275500  90.4392680  12.5614740
  47.7166640  89.0602010  12.1731160  52.5624780  90.6670280  10.3267070
  53.0032870  90.6115380   9.4788670  52.2932370  91.5828290  10.3977250
  54.4263350  90.2985520   8.3375890  54.3651750  89.3546740   8.1906910
  55.2055380  90.4065610   8.8829350  39.3544120  90.2694660   4.8031700
  40.1123480  90.3823540   4.2295730  38.8921290  91.1063860   4.7575130
  45.8957930  92.3833930   7.7934010  45.0832440  92.0090820   7.4529890
  46.3999570  91.6279010   8.0955200  50.3982910  89.0476380   9.0317080
  51.0012280  89.6196590   9.5065600  49.6575900  89.6115820   8.8090980
  53.5417510  89.4497940   4.3057360  53.7368140  90.3481390   4.5724790
  52.7547380  89.2185020   4.7990310  41.7269270  90.7958710   3.3433670
  42.2562030  90.0088510   3.2141620  42.3597590  91.4749900   3.5769200
  43.9207110  90.5333850   6.3979060  43.2909850  89.8321160   6.5649190
  43.3812250  91.2937980   6.1812220  44.0462670  89.8117830  18.8331550
  43.7646940  90.3151430  18.0692370  44.4282370  89.0139580  18.4673680
  50.6478130  89.2271410  19.4112020  50.5343580  89.5466020  20.3063540
  51.4647870  89.6283920  19.1149300  49.5536280  78.4720390  64.8720720
  49.4730330  77.5575000  64.6012430  49.1400700  78.9687460  64.1660430
  47.6854320  80.2499410  66.7529990  46.9096420  79.7699850  67.0428560
  48.3367250  79.5705060  66.5786150  41.7020150  80.5619220  67.6305750
  40.8705030  80.3067930  68.0302260  42.3101130  80.6329990  68.3663670
  51.7061750  84.6559600  65.5329120  51.2443280  83.8846840  65.8616290
  52.5187300  84.6825670  66.0381570  41.6821410  84.5959310  67.8263770
  41.9849450  83.7057050  67.6473990  42.4265000  85.1529530  67.5986020
  40.1112100  75.5221110  61.4148140  39.2228800  75.8637080  61.3128020
  40.3953290  75.3221430  60.5228970  38.0745110  78.1226760  67.2987840
  38.6461220  77.3548960  67.2991480  38.0746650  78.4215520  66.3894450
  47.9325060  86.9417610  65.1533110  47.3136500  87.3975110  64.5827550
  48.7876840  87.0969070  64.7522810  47.1263310  82.9256600  66.7600150
  47.0571590  81.9846540  66.5989280  47.8883170  83.0158010  67.3322720
  39.3169980  73.5311120  69.0856770  39.1372820  72.6336870  69.3659530
  38.9150060  74.0782990  69.7603720  48.1568480  75.7326980  66.9869080
  48.5333300  74.8598860  66.8742750  48.0587990  76.0685680  66.0959520
  42.2873490  74.1052610  62.4486520  42.3940240  75.0056340  62.7555280
  41.3765850  74.0570580  62.1581170  51.9392600  73.2277420  63.9197420
  52.7602220  72.7373990  63.9622900  51.9726680  73.8175080  64.6729260
  39.9356650  76.0271620  67.6939110  40.6166760  76.2909990  68.3126510
  39.6204700  75.1872490  68.0277120  44.1281220  77.0738980  66.7811700
  44.6359440  77.5719950  67.4216720  44.6594460  76.2974180  66.6051060
  56.2292150  75.2444170  70.4841050  55.5244320  75.6325880  69.9656160
  56.4950070  75.9394460  71.0861980  42.4117320  71.7137540  71.0475120
  42.4135760  72.2309930  70.2421020  41.5821630  71.2367720  71.0245050
  48.7988410  81.8256850  62.5465020  48.1805680  82.2906300  61.9827740
  49.3111660  82.5184330  62.9634530  43.6620170  81.3532720  69.2248620
  43.3289550  81.9801640  69.8669690  43.8386850  81.8794600  68.4450290
  52.1754080  75.1677800  66.6924960  51.4709650  75.4562690  67.2728070
  52.5366240  75.9777910  66.3324520  42.0932650  73.4247500  69.0545570
  42.4349460  74.2689550  68.7599440  41.1548460  73.5731240  69.1710910
  42.8739270  83.3213520  71.0397800  43.4913270  83.9964600  70.7582250
  42.0132390  83.7301500  70.9485300  38.1671610  82.5113380  59.9204650
  37.7899590  83.0000480  59.1889550  38.4244680  83.1838660  60.5511180
  53.7916860  84.7852930  68.9552440  53.1080380  85.4552040  68.9469110
  54.3311150  84.9833580  68.1897300  55.2441000  74.6132590  67.0834170
  54.2965910  74.6471570  67.2149600  55.5690990  75.4271540  67.4683530
  45.7760540  70.9129770  65.3790160  46.0835520  70.3576660  64.6625660
  44.8461240  71.0474230  65.1963150  51.3275600  86.6297060  67.6697620
  51.3402760  86.2259350  66.8019880  50.7750820  87.4044350  67.5659050
  52.6221020  83.3513280  62.7587790  52.5117350  82.4087610  62.8837210
  52.6189270  83.7128920  63.6450550  50.7261040  81.5326900  68.9980230
  51.1429830  81.3187010  68.1633690  51.4500860  81.7899690  69.5688850
  48.1641300  78.9778600  62.1150280  47.2370580  78.9115980  62.3438750
  48.3166120  79.9158730  62.0005520  48.1510380  75.2495600  59.1117440
  47.2114050  75.4109560  59.1969900  48.4693640  75.9681280  58.5653430
  54.6723140  79.9314120  69.0896470  53.8441770  80.0007210  68.6146600
  55.2673620  80.5168430  68.6212300  52.1938590  80.5398900  62.6185530
  51.5751010  80.2018450  61.9711830  52.1763040  79.8958660  63.3264720
  51.6365150  76.7183440  70.0351340  51.2236330  77.5437150  70.2891330
  50.9041100  76.1328480  69.8427700  43.7697940  79.5043340  64.8970010
  43.3654940  78.7920590  64.4015910  43.8561060  79.1596580  65.7858050
  44.2379640  83.1910900  67.0609220  43.9407930  82.5856370  66.3817000
  45.1879460  83.2288210  66.9498580  42.4826560  76.2786550  68.6769050
  43.0341150  76.3881890  67.9022300  42.9970070  76.6524150  69.3924280
  52.3265250  86.7642770  70.7232320  51.8495810  87.5714960  70.5304930
  51.6427040  86.1121100  70.8758530  43.3298070  82.9292590  73.7117020
  42.4326600  83.1532560  73.9590420  43.3550940  83.0527530  72.7628420
  50.3703290  79.7785710  59.6258280  50.8096570  78.9408140  59.4796100
  51.0831710  80.4115110  59.7122420  42.1569290  79.8005910  72.2874390
  42.0177060  80.6728710  72.6561790  41.2750650  79.4578720  72.1422330
  48.4798670  84.7181780  63.5939520  48.9194580  85.4606110  63.1794910
  48.4185560  84.9608350  64.5178480  43.9549640  85.7427610  74.4959540
  43.9265070  86.1470560  73.6287970  43.7914610  84.8137970  74.3331140
  53.9520430  71.0328520  57.9399320  53.6393090  71.1255350  58.8398390
  54.7132900  71.6109550  57.8896750  40.4702570  78.3988320  62.3976660
  40.3500170  79.1250410  61.7857930  40.1603460  77.6291230  61.9204570
  38.1087940  81.5703460  68.2045300  38.1868360  81.7052230  67.2601020
  38.7229620  80.8619350  68.3973420  39.3535570  83.2703650  64.6151480
  38.9463650  83.4118240  63.7605080  40.2448580  82.9863810  64.4122690
  55.3097710  83.7167560  72.9523720  55.4360770  83.4779440  72.0340900
  55.3519090  82.8852100  73.4245800  49.1714450  87.4195560  71.5218530
  49.6859120  87.3303570  72.3240960  48.3283530  87.7655260  71.8146440
  51.1468850  87.7050900  60.9502530  50.9869990  87.4153840  61.8484360
  50.9815560  86.9291030  60.4147760  43.6257230  87.4849430  62.7274150
  43.4499710  86.5684970  62.5141950  42.7712970  87.8436720  62.9671950
  50.8494980  85.2138460  59.5100530  50.1560140  85.2115750  58.8502810
  51.5917840  84.7897780  59.0794700  50.4144910  86.8401170  63.5849020
  50.8701860  86.0590550  63.8987640  50.7537430  87.5507990  64.1290200
  55.1621720  75.7700020  73.9173460  54.5465990  76.2779690  73.3888920
  54.8418140  74.8698350  73.8599400  38.1647460  82.6117630  70.7439760
  38.3278500  82.1422990  69.9259130  38.6299910  82.1041190  71.4088600
  42.9366230  71.7423390  65.7800330  42.4934380  72.5232930  65.4484850
  43.4951220  72.0653280  66.4871270  47.2236040  74.6091910  71.3835650
  46.7615410  74.8174930  72.1955590  46.8214150  73.7951260  71.0806320
  52.2240550  75.8300860  72.5132310  51.3734140  75.5306610  72.8341380
  52.0642340  76.0742870  71.6016130  49.3190260  77.3302610  74.6131100
  49.6443670  76.4966360  74.2733330  50.1070590  77.8531130  74.7609430
  46.0525050  71.3634090  60.6606160  45.4279230  71.3593960  61.3859470
  45.9655170  70.4965050  60.2642130  44.9742130  72.2870720  67.6389930
  45.2714460  73.1933550  67.5581950  45.5227690  71.7989500  67.0249500
  42.7280450  76.8656960  63.5081580  42.5021370  76.6494130  64.4128200
  41.9472980  77.2985420  63.1627550  49.9578210  76.8720330  62.1072230
  49.3587100  77.5956130  61.9235850  50.5057820  76.8097110  61.3248680
  45.1679660  77.7642540  74.1741850  45.0723260  76.8237270  74.0242250
  46.0111640  77.9857610  73.7789920  48.5643080  75.5083870  64.1375510
  48.9572650  75.8256070  63.3244200  48.9259930  74.6295750  64.2520030
  40.2990200  74.1756210  72.3275630  39.9053590  75.0231420  72.5348410
  39.6108600  73.5382580  72.5184270  37.6007250  72.0984670  66.3605710
  37.3120300  72.6687530  67.0730690  38.3453010  71.6189120  66.7236940
  37.7877480  76.0404790  57.5708430  37.7052150  76.9835550  57.7123420
  37.4360540  75.8979700  56.6920780  49.1498220  78.0989620  68.2326290
  48.4179340  78.6076430  68.5816390  48.7522560  77.2819600  67.9315070
  45.5875610  74.7743820  66.6378780  45.5911670  74.3333770  65.7883320
  46.4826730  75.0961150  66.7450600  41.4377990  74.6570310  65.5972990
  41.0978040  75.1345540  66.3540040  40.6755310  74.2035430  65.2374090
  45.6495760  75.7755900  59.6285540  45.7708580  75.7342380  60.5771360
  45.2644270  76.6380050  59.4732270  49.6124130  73.5523300  67.6449230
  49.6296870  74.0031950  68.4891080  49.3639710  72.6528940  67.8582670
  44.6617260  78.0857040  59.0268840  44.0934160  77.6375290  58.4004750
  45.3706260  78.4449820  58.4933990  53.0394880  70.9655480  73.4835610
  53.3640650  70.2345140  74.0093590  53.0751390  70.6469120  72.5816600
  39.7386440  81.9869060  72.9035570  39.3541230  81.3462730  73.5018530
  40.0498630  82.6905180  73.4730300  45.8883580  78.8345600  68.3844190
  46.2553710  78.3604170  69.1305530  45.6988640  79.7087170  68.7252530
  38.7524070  73.5789290  64.5137660  38.4670990  73.2144960  65.3516280
  38.6902930  72.8469750  63.9000800  43.6782950  77.8754240  70.7028400
  43.3740020  78.7546220  70.9278760  44.6329410  77.9354030  70.7385840
  42.2064740  82.0815230  61.2995250  41.4327000  81.5412850  61.1393970
  42.9359370  81.5621840  60.9613010  52.9652720  81.0780590  67.0921640
  53.6851840  81.5735880  66.7017750  52.7634540  80.3998480  66.4475510
  48.4262660  72.4718550  61.2351030  47.6127270  71.9731720  61.1596340
  48.2324610  73.3116800  60.8187380  48.3471520  81.1489650  72.9790640
  48.2808830  80.2285320  72.7248230  47.7176660  81.2465090  73.6935280
  51.1411050  76.8438200  59.5313190  52.0290670  77.1555430  59.3564530
  51.1116140  75.9710450  59.1393770  42.2502140  81.7495610  64.9374060
  42.7680810  80.9463870  64.8830950  41.7986160  81.6874750  65.7790890
  47.1371640  83.0161890  60.2101360  47.4787340  83.7604120  59.7144680
  46.3084350  83.3293010  60.5726190  39.7346680  78.7156980  71.8499760
  39.3761620  79.3810830  72.4373100  39.4401240  77.8840530  72.2212380
  42.9359800  79.1741220  74.7339310  42.6359940  79.3198400  73.8367130
  43.7071040  78.6146510  74.6412700  48.2788250  83.9710220  72.7294440
  48.2932790  83.0391180  72.5113350  47.5713350  84.0569980  73.3684210
  53.4125320  78.1550040  58.9993050  53.3289040  78.5864260  58.1489490
  54.1319510  78.6148390  59.4319870  54.4899460  80.6117560  72.0763020
  53.7647650  81.2046340  71.8792410  55.0174920  80.6041100  71.2776390
  54.4412570  85.0092300  61.7275180  53.7988730  84.3547920  62.0018900
  54.0543230  85.4147390  60.9515850  50.0199050  82.3377730  65.5746870
  50.3722870  81.7405860  64.9148240  49.1361380  82.0121960  65.7455120
  46.1062330  83.0975420  62.9817280  46.7933460  83.6444630  63.3624870
  45.3194750  83.6416150  63.0166890  38.2454730  78.7148240  58.4734360
  39.1149580  78.9973040  58.7570280  37.7545050  79.5284110  58.3583170
  45.4089540  80.1021450  62.5942640  45.8652320  80.9126700  62.8202830
  45.0577750  79.7844590  63.4261130  47.7122150  85.6127790  69.8234940
  48.3564370  85.8187170  70.5008360  48.0751590  84.8516190  69.3705790
  41.3101320  70.4459100  63.0665160  41.1815950  70.4377000  64.0150080
  40.4863340  70.7842190  62.7156170  48.9854230  83.6160140  68.5412390
  49.6276460  82.9153300  68.6544560  49.5103580  84.3958580  68.3609280
  52.8309950  83.9008760  58.2651530  52.6047530  83.1839200  58.8576170
  52.4406150  83.6521200  57.4273280  50.7591850  84.4155040  71.7448450
  51.0948090  85.0021730  72.4226370  49.8392190  84.2847750  71.9746240
  38.6125980  87.9275620  59.0395990  38.9723620  88.5264960  58.3853260
  38.4718320  88.4735510  59.8131020  38.3095250  72.2050220  72.5271860
  37.5953770  72.4047140  73.1324470  38.7290290  71.4289790  72.8986660
  52.4126200  81.8180700  59.9265690  52.1247900  82.2793390  60.7143570
  53.2078370  81.3578470  60.1949910  38.5967840  86.1930480  73.5138390
  38.7058960  85.2525220  73.3733780  37.9448400  86.4585230  72.8652120
  44.6294600  85.3106820  59.8569660  44.6204700  86.0436510  59.2414170
  43.7092960  85.0638400  59.9496620  40.2301240  80.5321710  60.6016420
  39.6229190  81.2720610  60.6111720  40.7050590  80.6221070  59.7754620
  49.8034030  74.6972530  70.2773310  50.1714850  73.8767740  70.6052880
  48.9432230  74.7574420  70.6928960  53.1696060  73.6529470  61.0860870
  52.5409220  73.7575140  60.3719100  52.6747980  73.8726250  61.8754750
  47.6154200  85.3735060  58.5194850  47.7166180  85.1699050  57.5896830
  46.7155940  85.1193340  58.7242630  45.1380090  75.9315420  62.5018750
  44.4296240  76.4001760  62.9432360  45.4224570  75.2737430  63.1363940
  46.7636020  77.3512120  70.5011280  47.2621270  77.8257940  71.1663130
  46.9058970  76.4275640  70.7081310  49.1695520  72.6566080  63.9414540
  49.0463300  72.6752210  62.9924050  50.1180080  72.7045020  64.0612940
  46.2572310  87.8921380  63.2142520  46.5113810  87.8542770  62.2921890
  45.3084790  87.7654710  63.2070770  43.3415110  74.2400500  59.8769460
  44.1905640  74.6770650  59.8109650  42.9746380  74.5520760  60.7041520
  53.9702880  73.5680080  71.3439670  53.4676480  74.3085480  71.6833480
  54.7859540  73.9564080  71.0276460  52.2624890  78.8113260  64.7901030
  51.3215030  78.8263490  64.9648720  52.5768960  78.0249220  65.2361330
  42.2406530  80.4932860  58.3504990  43.0069800  80.3814220  58.9130420
  42.3181220  79.7970830  57.6981760  40.9353290  77.9257930  59.0337880
  41.0156880  76.9785440  59.1455280  41.8273040  78.2564810  59.1398540
  54.2650470  85.9822110  66.4655290  54.3897890  86.8053280  66.9379100
  55.1316030  85.7712840  66.1179440  41.7368000  88.0753320  66.1372420
  42.4730480  87.5268780  66.4080990  42.1208920  88.9409330  65.9978410
  38.6213480  84.1426890  62.0113930  37.6953260  84.3848030  62.0019340
  39.0869910  84.9701150  61.8898680  44.8470310  87.2483630  57.9597990
  45.6398920  87.5372460  57.5079780  44.3274660  86.8175800  57.2810470
  51.0091280  87.0959550  73.8842820  51.9613030  87.0117570  73.8343060
  50.8619500  87.7601260  74.5576610  53.9000480  86.4753760  59.3834730
  53.6141990  86.0618900  58.5688910  53.7020030  87.4041470  59.2635250
  38.4624090  79.7472850  74.2694050  38.9663110  79.1680130  74.8410280
  37.7231510  80.0313080  74.8070420  45.3647710  82.4687040  57.8240340
  45.2598350  81.8539390  58.5501720  45.1971930  81.9452930  57.0403350
  45.5162030  81.1543840  73.8029570  44.7507700  81.7228840  73.7184240
  45.6977990  80.8620050  72.9097800  48.6050440  81.5307070  58.4282330
  48.0560540  81.9776370  59.0725070  49.2269700  81.0256320  58.9520000
  52.6585380  82.8849170  74.3604590  53.3994850  83.2224930  73.8572050
  51.8958060  83.0541230  73.8074360  44.2725560  80.4897990  60.3247630
  44.6941980  80.3237860  61.1679020  44.3976400  79.6798220  59.8302770
  42.4352980  76.4694540  73.1318610  41.9049440  75.9785490  72.5041950
  43.1041050  76.8978740  72.5976540  46.7853200  79.5135600  57.5724730
  47.3058860  78.7984620  57.2065880  47.4321600  80.1521470  57.8725240
  51.3331040  80.9364000  72.8959800  51.7472060  81.0909080  73.7450220
  50.3982040  81.0619220  73.0585580  51.8053210  78.2760160  74.8998950
  52.3873980  77.5212480  74.8119430  51.9814980  78.8067600  74.1230430
  42.9225280  73.4356910  73.2115900  42.8282150  72.8177660  72.4866770
  42.3422670  74.1623200  72.9845810  45.6886720  71.9930150  70.2443290
  45.2404020  72.0154410  69.3988840  45.0551920  71.5949170  70.8413590
  46.0946270  80.8884480  70.8655730  46.5134380  81.7317210  70.6931970
  45.1754900  81.0256520  70.6362510  48.4310170  78.6200660  72.2493570
  48.5506380  78.0241800  72.9888410  49.2904170  78.6570350  71.8294870
  50.7698070  79.1737850  70.8256080  50.2433290  79.6980470  70.2221220
  51.1129410  79.8065240  71.4565810  43.1684460  76.5631220  57.2705790
  42.9673520  75.6998580  57.6319130  42.9976510  76.4764580  56.3327390
  43.9453690  87.1937490  71.9813460  43.4074780  87.9183550  71.6622160
  44.1987650  86.7167830  71.1910800  45.1978940  75.1622010  73.5069390
  45.7878630  74.8537860  74.1947210  44.3799180  74.6901760  73.6629290
  50.0172370  74.7787820  73.7402410  49.3287890  74.1169360  73.6752400
  50.7378390  74.3326090  74.1850870  50.6472770  71.3739450  59.7992670
  50.9275060  70.5307350  60.1552090  49.8738500  71.6062560  60.3131420
  41.9667260  73.6631840  57.2583670  42.2693160  73.6699270  56.3502820
  42.7061850  73.3129700  57.7551330  46.8015900  88.4288700  72.2400110
  46.7274600  89.3323840  72.5472480  45.8994740  88.1100600  72.2122180
  45.1852190  72.6066460  58.2439870  44.8374190  71.9290450  57.6642320
  45.3864960  72.1455970  59.0583260  47.3501230  87.5947210  59.8626470
  48.2452020  87.9332180  59.8845230  47.3818860  86.8726620  59.2350750
  40.9897390  82.9674260  58.0913470  41.4272260  83.5103930  58.7471050
  41.4745120  82.1421210  58.1009810  38.2043190  85.7563290  65.5433730
  38.5346200  84.8884350  65.3112370  38.6334190  85.9621810  66.3738690
  42.8005110  84.0872300  63.2035700  42.5000650  83.9637270  64.1039610
  42.6942600  83.2280890  62.7951430  38.6933400  86.6233880  68.2815360
  38.2564390  86.8034680  69.1139510  39.2611080  87.3808500  68.1397080
  54.3295580  86.1250880  72.5692670  53.7297570  86.1843440  71.8256590
  54.4589480  85.1855860  72.6989520  55.5697030  83.8668700  57.9062380
  54.7389990  83.9345350  58.3769610  55.7468860  84.7572820  57.6029240
  55.0253490  80.6116180  60.4096580  55.7872400  81.1812830  60.5156270
  55.0407860  80.0443380  61.1804890  38.5257830  79.1354110  64.6404240
  37.8706670  78.8665750  63.9963940  39.3635780  79.0258590  64.1906220
  56.0313460  81.4666280  65.2538510  56.4022290  80.6833600  64.8474480
  56.6715390  82.1555380  65.0755810  53.0147220  82.8502860  70.6668830
  52.2007060  83.2800020  70.9294620  53.4221420  83.4621270  70.0537880
  55.0772660  80.9050550  57.5669100  55.3521500  81.8129430  57.4388320
  54.8883400  80.8413080  58.5031090  51.4748270  73.9295400  58.8622730
  51.8933150  73.7426380  58.0219390  51.1684330  73.0774450  59.1725660
  54.9738000  78.8419540  62.5598530  54.5981600  78.0747470  62.1279820
  54.2441120  79.2242240  63.0473460  39.5633760  79.5206680  69.1807580
  39.9306800  79.4334080  70.0603600  38.9944580  78.7573230  69.0814440
  54.3637620  77.9891060  72.1938050  54.1323710  77.7603810  71.2936000
  54.6242170  78.9090610  72.1482940  39.1149760  76.4315770  73.0866000
  38.2205810  76.3982530  73.4259710  39.6547310  76.6302560  73.8517250
  37.7395910  76.3453040  60.5829570  36.8359990  76.6083240  60.4081230
  38.2236530  76.6164210  59.8029530  54.2488960  77.0677030  65.8605770
  54.7726440  76.5739680  65.2295940  54.8348380  77.2027390  66.6053340
  54.4278680  77.1516900  69.3825320  53.4781390  77.1180440  69.4970310
  54.6091690  78.0617010  69.1475090  40.2823120  75.4018580  58.4923950
  40.9914820  74.9801800  58.0071230  39.5663060  75.4693810  57.8607300
  39.9297280  71.4557910  57.5326600  40.6525410  71.9966850  57.8507820
  40.2021800  71.1821330  56.6568140  53.7388930  76.3250380  61.7998180
  54.2348050  76.0921250  62.5847060  53.5405000  75.4862220  61.3835820
  39.6189470  70.7064100  67.4349220  40.2665660  70.1561480  66.9944380
  40.0391310  70.9607250  68.2565030  55.1676090  74.9611330  64.3335860
  55.0575370  74.8067370  65.2718130  55.9283680  74.4332270  64.0911270
  53.5141810  70.9005460  70.7918860  54.1514030  71.5139600  71.1578050
  53.6616700  70.9366120  69.8468090  56.0566360  72.7919250  57.5742000
  56.9815670  72.6600430  57.3660290  56.0342150  72.8712070  58.5278450
  56.1304850  73.5629910  60.1998710  55.3356350  73.4975030  60.7291620
  56.3348130  74.4980550  60.1884060  53.0723270  87.6021460  64.1937100
  53.6682340  87.2806030  63.5171520  53.3301420  87.1293280  64.9850370
  39.3721470  70.8619770  70.1774540  39.0236290  71.3183590  70.9432720
  39.0409170  69.9676900  70.2596970  44.6791870  85.5898960  69.9437450
  44.4383230  85.8573520  69.0567970  45.6194510  85.7604690  69.9988310
  46.8846290  72.0531650  73.6993960  46.8235180  72.6453480  74.4489370
  47.8246670  71.9457610  73.5544220  49.5220850  71.7101710  73.3386250
  50.1361260  72.0281000  72.6767330  50.0670410  71.2250300  73.9582110
  55.9396030  87.6093340  70.7448090  55.4454310  88.0062210  70.0275220
  55.3309320  86.9842550  71.1385370  40.0442110  70.3895970  73.4525310
  40.5925100  70.2084020  72.6891420  40.1097420  69.5990080  73.9881620
  40.8173870  86.9801620  71.4625510  40.2234190  86.8486320  72.2015550
  40.8097710  86.1439760  70.9967610  50.2628890  70.2733850  69.6655540
  49.3888730  70.6068960  69.4628470  50.1539640  69.8007030  70.4907410
  51.1700870  72.4804720  71.0497260  50.8414230  71.6656480  70.6698990
  52.1183170  72.4374530  70.9262950  53.6235480  88.2516760  68.0234830
  53.1638450  89.0032570  67.6492850  52.9947940  87.5323230  67.9649630
  40.4486100  84.3460000  70.4133550  39.7220160  83.7265290  70.3459500
  40.5095250  84.7400610  69.5431630  44.0531200  86.5605000  67.1982960
  44.5696220  85.9492360  66.6731220  44.7028580  87.0633780  67.6893970
  46.7926700  87.4513490  68.0251940  47.0804510  87.1967790  67.1484950
  47.3049920  86.8990850  68.6157510  48.0103710  71.1903690  68.6048450
  47.2275500  71.6649190  68.8845210  47.7166640  70.2858520  68.4961630
  52.5624780  71.8926790  66.6497540  53.0032870  71.8371890  65.8019140
  52.2932370  72.8084800  66.7207720  54.4263350  71.5242030  64.6606360
  54.3651750  70.5803250  64.5137380  55.2055380  71.6322120  65.2059820
  38.7316100  87.6634390  63.6230310  38.5638140  87.0305070  64.3212200
  37.8650610  87.8693790  63.2724500  39.3544120  71.4951170  61.1262170
  40.1123480  71.6080050  60.5526200  38.8921290  72.3320370  61.0805600
  45.8957930  73.6090440  64.1164480  45.0832440  73.2347330  63.7760360
  46.3999570  72.8535520  64.4185670  50.3982910  70.2732890  65.3547550
  51.0012280  70.8453100  65.8296070  49.6575900  70.8372330  65.1321450
  53.5417510  70.6754450  60.6287830  53.7368140  71.5737900  60.8955260
  52.7547380  70.4441530  61.1220780  40.3378800  86.3567620  61.0680450
  39.8126420  86.7375650  60.3642410  40.2623380  86.9818390  61.7890160
  41.7269270  72.0215220  59.6664140  42.2562030  71.2345020  59.5372090
  42.3597590  72.7006410  59.8999670  43.9207110  71.7590360  62.7209530
  43.2909850  71.0577670  62.8879660  43.3812250  72.5194490  62.5042690
  55.0944120  87.9155160  62.3894390  55.2696310  87.2292900  61.7455310
  54.3965690  88.4402210  61.9971060  42.9371770  88.3050000  59.9429700
  43.6690590  88.0209280  59.3953590  43.1965440  88.0663280  60.8329080
  42.0986560  84.4214730  59.9476030  41.4695440  84.8899830  60.4961860
  42.2134390  83.5763950  60.3822220  49.5536280  78.4720390  46.0977230
  49.4730330  77.5575000  45.8268940  49.1400700  78.9687460  45.3916940
  47.6854320  80.2499410  47.9786500  46.9096420  79.7699850  48.2685070
  48.3367250  79.5705060  47.8042660  41.7020150  80.5619220  48.8562260
  40.8705030  80.3067930  49.2558770  42.3101130  80.6329990  49.5920180
  51.7061750  84.6559600  46.7585630  51.2443280  83.8846840  47.0872800
  52.5187300  84.6825670  47.2638080  41.6821410  84.5959310  49.0520280
  41.9849450  83.7057050  48.8730500  42.4265000  85.1529530  48.8242530
  40.1112100  75.5221110  42.6404650  39.2228800  75.8637080  42.5384530
  40.3953290  75.3221430  41.7485480  38.0745110  78.1226760  48.5244350
  38.6461220  77.3548960  48.5247990  38.0746650  78.4215520  47.6150960
  47.9325060  86.9417610  46.3789620  47.3136500  87.3975110  45.8084060
  48.7876840  87.0969070  45.9779320  47.1263310  82.9256600  47.9856660
  47.0571590  81.9846540  47.8245790  47.8883170  83.0158010  48.5579230
  39.3169980  73.5311120  50.3113280  39.1372820  72.6336870  50.5916040
  38.9150060  74.0782990  50.9860230  48.1568480  75.7326980  48.2125590
  48.5333300  74.8598860  48.0999260  48.0587990  76.0685680  47.3216030
  42.2873490  74.1052610  43.6743030  42.3940240  75.0056340  43.9811790
  41.3765850  74.0570580  43.3837680  51.9392600  73.2277420  45.1453930
  52.7602220  72.7373990  45.1879410  51.9726680  73.8175080  45.8985770
  39.9356650  76.0271620  48.9195620  40.6166760  76.2909990  49.5383020
  39.6204700  75.1872490  49.2533630  44.1281220  77.0738980  48.0068210
  44.6359440  77.5719950  48.6473230  44.6594460  76.2974180  47.8307570
  56.2292150  75.2444170  51.7097560  55.5244320  75.6325880  51.1912670
  56.4950070  75.9394460  52.3118490  42.4117320  71.7137540  52.2731630
  42.4135760  72.2309930  51.4677530  41.5821630  71.2367720  52.2501560
  48.7988410  81.8256850  43.7721530  48.1805680  82.2906300  43.2084250
  49.3111660  82.5184330  44.1891040  43.6620170  81.3532720  50.4505130
  43.3289550  81.9801640  51.0926200  43.8386850  81.8794600  49.6706800
  52.1754080  75.1677800  47.9181470  51.4709650  75.4562690  48.4984580
  52.5366240  75.9777910  47.5581030  42.0932650  73.4247500  50.2802080
  42.4349460  74.2689550  49.9855950  41.1548460  73.5731240  50.3967420
  42.8739270  83.3213520  52.2654310  43.4913270  83.9964600  51.9838760
  42.0132390  83.7301500  52.1741810  38.1671610  82.5113380  41.1461160
  37.7899590  83.0000480  40.4146060  38.4244680  83.1838660  41.7767690
  53.7916860  84.7852930  50.1808950  53.1080380  85.4552040  50.1725620
  54.3311150  84.9833580  49.4153810  55.2441000  74.6132590  48.3090680
  54.2965910  74.6471570  48.4406110  55.5690990  75.4271540  48.6940040
  45.7760540  70.9129770  46.6046670  46.0835520  70.3576660  45.8882170
  44.8461240  71.0474230  46.4219660  51.3275600  86.6297060  48.8954130
  51.3402760  86.2259350  48.0276390  50.7750820  87.4044350  48.7915560
  52.6221020  83.3513280  43.9844300  52.5117350  82.4087610  44.1093720
  52.6189270  83.7128920  44.8707060  50.7261040  81.5326900  50.2236740
  51.1429830  81.3187010  49.3890200  51.4500860  81.7899690  50.7945360
  48.1641300  78.9778600  43.3406790  47.2370580  78.9115980  43.5695260
  48.3166120  79.9158730  43.2262030  48.1510380  75.2495600  40.3373950
  47.2114050  75.4109560  40.4226410  48.4693640  75.9681280  39.7909940
  54.6723140  79.9314120  50.3152980  53.8441770  80.0007210  49.8403110
  55.2673620  80.5168430  49.8468810  52.1938590  80.5398900  43.8442040
  51.5751010  80.2018450  43.1968340  52.1763040  79.8958660  44.5521230
  51.6365150  76.7183440  51.2607850  51.2236330  77.5437150  51.5147840
  50.9041100  76.1328480  51.0684210  43.7697940  79.5043340  46.1226520
  43.3654940  78.7920590  45.6272420  43.8561060  79.1596580  47.0114560
  44.2379640  83.1910900  48.2865730  43.9407930  82.5856370  47.6073510
  45.1879460  83.2288210  48.1755090  42.4826560  76.2786550  49.9025560
  43.0341150  76.3881890  49.1278810  42.9970070  76.6524150  50.6180790
  52.3265250  86.7642770  51.9488830  51.8495810  87.5714960  51.7561440
  51.6427040  86.1121100  52.1015040  43.3298070  82.9292590  54.9373530
  42.4326600  83.1532560  55.1846930  43.3550940  83.0527530  53.9884930
  50.3703290  79.7785710  40.8514790  50.8096570  78.9408140  40.7052610
  51.0831710  80.4115110  40.9378930  42.1569290  79.8005910  53.5130900
  42.0177060  80.6728710  53.8818300  41.2750650  79.4578720  53.3678840
  48.4798670  84.7181780  44.8196030  48.9194580  85.4606110  44.4051420
  48.4185560  84.9608350  45.7434990  43.9549640  85.7427610  55.7216050
  43.9265070  86.1470560  54.8544480  43.7914610  84.8137970  55.5587650
  53.9520430  71.0328520  39.1655830  53.6393090  71.1255350  40.0654900
  54.7132900  71.6109550  39.1153260  40.4702570  78.3988320  43.6233170
  40.3500170  79.1250410  43.0114440  40.1603460  77.6291230  43.1461080
  55.9064460  86.5254710  57.0180220  56.3824180  87.0037600  57.6969300
  56.5271620  86.4572200  56.2925720  38.1087940  81.5703460  49.4301810
  38.1868360  81.7052230  48.4857530  38.7229620  80.8619350  49.6229930
  39.3535570  83.2703650  45.8407990  38.9463650  83.4118240  44.9861590
  40.2448580  82.9863810  45.6379200  55.3097710  83.7167560  54.1780230
  55.4360770  83.4779440  53.2597410  55.3519090  82.8852100  54.6502310
  49.1714450  87.4195560  52.7475040  49.6859120  87.3303570  53.5497470
  48.3283530  87.7655260  53.0402950  51.1468850  87.7050900  42.1759040
  50.9869990  87.4153840  43.0740870  50.9815560  86.9291030  41.6404270
  43.6257230  87.4849430  43.9530660  43.4499710  86.5684970  43.7398460
  42.7712970  87.8436720  44.1928460  50.8494980  85.2138460  40.7357040
  50.1560140  85.2115750  40.0759320  51.5917840  84.7897780  40.3051210
  50.4144910  86.8401170  44.8105530  50.8701860  86.0590550  45.1244150
  50.7537430  87.5507990  45.3546710  55.1621720  75.7700020  55.1429970
  54.5465990  76.2779690  54.6145430  54.8418140  74.8698350  55.0855910
  38.1647460  82.6117630  51.9696270  38.3278500  82.1422990  51.1515640
  38.6299910  82.1041190  52.6345110  42.9366230  71.7423390  47.0056840
  42.4934380  72.5232930  46.6741360  43.4951220  72.0653280  47.7127780
  47.2236040  74.6091910  52.6092160  46.7615410  74.8174930  53.4212100
  46.8214150  73.7951260  52.3062830  52.2240550  75.8300860  53.7388820
  51.3734140  75.5306610  54.0597890  52.0642340  76.0742870  52.8272640
  49.3190260  77.3302610  55.8387610  49.6443670  76.4966360  55.4989840
  50.1070590  77.8531130  55.9865940  46.0525050  71.3634090  41.8862670
  45.4279230  71.3593960  42.6115980  45.9655170  70.4965050  41.4898640
  44.9742130  72.2870720  48.8646440  45.2714460  73.1933550  48.7838460
  45.5227690  71.7989500  48.2506010  42.7280450  76.8656960  44.7338090
  42.5021370  76.6494130  45.6384710  41.9472980  77.2985420  44.3884060
  49.9578210  76.8720330  43.3328740  49.3587100  77.5956130  43.1492360
  50.5057820  76.8097110  42.5505190  45.1679660  77.7642540  55.3998360
  45.0723260  76.8237270  55.2498760  46.0111640  77.9857610  55.0046430
  48.5643080  75.5083870  45.3632020  48.9572650  75.8256070  44.5500710
  48.9259930  74.6295750  45.4776540  40.2990200  74.1756210  53.5532140
  39.9053590  75.0231420  53.7604920  39.6108600  73.5382580  53.7440780
  46.8735250  74.2591180  56.6228880  46.1833570  74.0663380  57.2574970
  47.6167550  74.5425820  57.1553180  49.1498220  78.0989620  49.4582800
  48.4179340  78.6076430  49.8072900  48.7522560  77.2819600  49.1571580
  45.5875610  74.7743820  47.8635290  45.5911670  74.3333770  47.0139830
  46.4826730  75.0961150  47.9707110  41.4377990  74.6570310  46.8229500
  41.0978040  75.1345540  47.5796550  40.6755310  74.2035430  46.4630600
  45.6495760  75.7755900  40.8542050  45.7708580  75.7342380  41.8027870
  45.2644270  76.6380050  40.6988780  49.6124130  73.5523300  48.8705740
  49.6296870  74.0031950  49.7147590  49.3639710  72.6528940  49.0839180
  44.6617260  78.0857040  40.2525350  44.0934160  77.6375290  39.6261260
  45.3706260  78.4449820  39.7190500  53.0394880  70.9655480  54.7092120
  53.3640650  70.2345140  55.2350100  53.0751390  70.6469120  53.8073110
  39.7386440  81.9869060  54.1292080  39.3541230  81.3462730  54.7275040
  40.0498630  82.6905180  54.6986810  45.8883580  78.8345600  49.6100700
  46.2553710  78.3604170  50.3562040  45.6988640  79.7087170  49.9509040
  43.6782950  77.8754240  51.9284910  43.3740020  78.7546220  52.1535270
  44.6329410  77.9354030  51.9642350  42.2064740  82.0815230  42.5251760
  41.4327000  81.5412850  42.3650480  42.9359370  81.5621840  42.1869520
  52.9652720  81.0780590  48.3178150  53.6851840  81.5735880  47.9274260
  52.7634540  80.3998480  47.6732020  48.4262660  72.4718550  42.4607540
  47.6127270  71.9731720  42.3852850  48.2324610  73.3116800  42.0443890
  48.3471520  81.1489650  54.2047150  48.2808830  80.2285320  53.9504740
  47.7176660  81.2465090  54.9191790  51.1411050  76.8438200  40.7569700
  52.0290670  77.1555430  40.5821040  51.1116140  75.9710450  40.3650280
  42.2502140  81.7495610  46.1630570  42.7680810  80.9463870  46.1087460
  41.7986160  81.6874750  47.0047400  47.1371640  83.0161890  41.4357870
  47.4787340  83.7604120  40.9401190  46.3084350  83.3293010  41.7982700
  39.7346680  78.7156980  53.0756270  39.3761620  79.3810830  53.6629610
  39.4401240  77.8840530  53.4468890  42.9359800  79.1741220  55.9595820
  42.6359940  79.3198400  55.0623640  43.7071040  78.6146510  55.8669210
  48.2788250  83.9710220  53.9550950  48.2932790  83.0391180  53.7369860
  47.5713350  84.0569980  54.5940720  53.4125320  78.1550040  40.2249560
  53.3289040  78.5864260  39.3746000  54.1319510  78.6148390  40.6576380
  54.4899460  80.6117560  53.3019530  53.7647650  81.2046340  53.1048920
  55.0174920  80.6041100  52.5032900  54.4412570  85.0092300  42.9531690
  53.7988730  84.3547920  43.2275410  54.0543230  85.4147390  42.1772360
  50.0199050  82.3377730  46.8003380  50.3722870  81.7405860  46.1404750
  49.1361380  82.0121960  46.9711630  46.1062330  83.0975420  44.2073790
  46.7933460  83.6444630  44.5881380  45.3194750  83.6416150  44.2423400
  45.4089540  80.1021450  43.8199150  45.8652320  80.9126700  44.0459340
  45.0577750  79.7844590  44.6517640  47.7122150  85.6127790  51.0491450
  48.3564370  85.8187170  51.7264870  48.0751590  84.8516190  50.5962300
  48.9854230  83.6160140  49.7668900  49.6276460  82.9153300  49.8801070
  49.5103580  84.3958580  49.5865790  52.8309950  83.9008760  39.4908040
  52.6047530  83.1839200  40.0832680  52.4406150  83.6521200  38.6529790
  50.7591850  84.4155040  52.9704960  51.0948090  85.0021730  53.6482880
  49.8392190  84.2847750  53.2002750  38.6125980  87.9275620  40.2652500
  38.9723620  88.5264960  39.6109770  38.4718320  88.4735510  41.0387530
  38.3095250  72.2050220  53.7528370  37.5953770  72.4047140  54.3580980
  38.7290290  71.4289790  54.1243170  52.4126200  81.8180700  41.1522200
  52.1247900  82.2793390  41.9400080  53.2078370  81.3578470  41.4206420
  38.5967840  86.1930480  54.7394900  38.7058960  85.2525220  54.5990290
  37.9448400  86.4585230  54.0908630  46.5880430  84.4646370  56.1393020
  46.2677300  83.7455610  56.6838710  45.9138790  85.1401440  56.2129080
  44.6294600  85.3106820  41.0826170  44.6204700  86.0436510  40.4670680
  43.7092960  85.0638400  41.1753130  40.2301240  80.5321710  41.8272930
  39.6229190  81.2720610  41.8368230  40.7050590  80.6221070  41.0011130
  49.8034030  74.6972530  51.5029820  50.1714850  73.8767740  51.8309390
  48.9432230  74.7574420  51.9185470  53.1696060  73.6529470  42.3117380
  52.5409220  73.7575140  41.5975610  52.6747980  73.8726250  43.1011260
  47.6154200  85.3735060  39.7451360  47.7166180  85.1699050  38.8153340
  46.7155940  85.1193340  39.9499140  45.1380090  75.9315420  43.7275260
  44.4296240  76.4001760  44.1688870  45.4224570  75.2737430  44.3620450
  46.7636020  77.3512120  51.7267790  47.2621270  77.8257940  52.3919640
  46.9058970  76.4275640  51.9337820  49.1695520  72.6566080  45.1671050
  49.0463300  72.6752210  44.2180560  50.1180080  72.7045020  45.2869450
  46.2572310  87.8921380  44.4399030  46.5113810  87.8542770  43.5178400
  45.3084790  87.7654710  44.4327280  43.3415110  74.2400500  41.1025970
  44.1905640  74.6770650  41.0366160  42.9746380  74.5520760  41.9298030
  53.9702880  73.5680080  52.5696180  53.4676480  74.3085480  52.9089990
  54.7859540  73.9564080  52.2532970  52.2624890  78.8113260  46.0157540
  51.3215030  78.8263490  46.1905230  52.5768960  78.0249220  46.4617840
  42.2406530  80.4932860  39.5761500  43.0069800  80.3814220  40.1386930
  42.3181220  79.7970830  38.9238270  40.9353290  77.9257930  40.2594390
  41.0156880  76.9785440  40.3711790  41.8273040  78.2564810  40.3655050
  54.2650470  85.9822110  47.6911800  54.3897890  86.8053280  48.1635610
  55.1316030  85.7712840  47.3435950  41.7368000  88.0753320  47.3628930
  42.4730480  87.5268780  47.6337500  42.1208920  88.9409330  47.2234920
  38.6213480  84.1426890  43.2370440  37.6953260  84.3848030  43.2275850
  39.0869910  84.9701150  43.1155190  40.7426280  87.2599390  56.5514510
  41.5439010  87.5811440  56.9649910  40.2278100  86.8994970  57.2734420
  44.8470310  87.2483630  39.1854500  45.6398920  87.5372460  38.7336290
  44.3274660  86.8175800  38.5066980  49.5790910  83.3679260  56.4989920
  48.9729070  83.3910860  55.7585670  49.2745020  82.6362300  57.0357170
  51.0091280  87.0959550  55.1099330  51.9613030  87.0117570  55.0599570
  50.8619500  87.7601260  55.7833120  53.9000480  86.4753760  40.6091240
  53.6141990  86.0618900  39.7945420  53.7020030  87.4041470  40.4891760
  38.4624090  79.7472850  55.4950560  38.9663110  79.1680130  56.0666790
  37.7231510  80.0313080  56.0326930  45.3647710  82.4687040  39.0496850
  45.2598350  81.8539390  39.7758230  45.1971930  81.9452930  38.2659860
  45.5162030  81.1543840  55.0286080  44.7507700  81.7228840  54.9440750
  45.6977990  80.8620050  54.1354310  48.6050440  81.5307070  39.6538840
  48.0560540  81.9776370  40.2981580  49.2269700  81.0256320  40.1776510
  52.6585380  82.8849170  55.5861100  53.3994850  83.2224930  55.0828560
  51.8958060  83.0541230  55.0330870  40.4947170  77.8902440  56.3900630
  40.5352510  77.5916310  57.2985860  41.3492670  78.2910050  56.2308150
  44.2725560  80.4897990  41.5504140  44.6941980  80.3237860  42.3935530
  44.3976400  79.6798220  41.0559280  42.4352980  76.4694540  54.3575120
  41.9049440  75.9785490  53.7298460  43.1041050  76.8978740  53.8233050
  46.7853200  79.5135600  38.7981240  47.3058860  78.7984620  38.4322390
  47.4321600  80.1521470  39.0981750  51.3331040  80.9364000  54.1216310
  51.7472060  81.0909080  54.9706730  50.3982040  81.0619220  54.2842090
  51.8053210  78.2760160  56.1255460  52.3873980  77.5212480  56.0375940
  51.9814980  78.8067600  55.3486940  42.9225280  73.4356910  54.4372410
  42.8282150  72.8177660  53.7123280  42.3422670  74.1623200  54.2102320
  45.6886720  71.9930150  51.4699800  45.2404020  72.0154410  50.6245350
  45.0551920  71.5949170  52.0670100  46.0946270  80.8884480  52.0912240
  46.5134380  81.7317210  51.9188480  45.1754900  81.0256520  51.8619020
  48.4310170  78.6200660  53.4750080  48.5506380  78.0241800  54.2144920
  49.2904170  78.6570350  53.0551380  50.7698070  79.1737850  52.0512590
  50.2433290  79.6980470  51.4477730  51.1129410  79.8065240  52.6822320
  43.1684460  76.5631220  38.4962300  42.9673520  75.6998580  38.8575640
  42.9976510  76.4764580  37.5583900  43.9453690  87.1937490  53.2069970
  43.4074780  87.9183550  52.8878670  44.1987650  86.7167830  52.4167310
  45.1978940  75.1622010  54.7325900  45.7878630  74.8537860  55.4203720
  44.3799180  74.6901760  54.8885800  50.0172370  74.7787820  54.9658920
  49.3287890  74.1169360  54.9008910  50.7378390  74.3326090  55.4107380
  50.6472770  71.3739450  41.0249180  50.9275060  70.5307350  41.3808600
  49.8738500  71.6062560  41.5387930  41.9667260  73.6631840  38.4840180
  42.2693160  73.6699270  37.5759330  42.7061850  73.3129700  38.9807840
  46.8015900  88.4288700  53.4656620  46.7274600  89.3323840  53.7728990
  45.8994740  88.1100600  53.4378690  45.1852190  72.6066460  39.4696380
  44.8374190  71.9290450  38.8898830  45.3864960  72.1455970  40.2839770
  47.3501230  87.5947210  41.0882980  48.2452020  87.9332180  41.1101740
  47.3818860  86.8726620  40.4607260  40.9897390  82.9674260  39.3169980
  41.4272260  83.5103930  39.9727560  41.4745120  82.1421210  39.3266320
  38.2043190  85.7563290  46.7690240  38.5346200  84.8884350  46.5368880
  38.6334190  85.9621810  47.5995200  42.8005110  84.0872300  44.4292210
  42.5000650  83.9637270  45.3296120  42.6942600  83.2280890  44.0207940
  38.6933400  86.6233880  49.5071870  38.2564390  86.8034680  50.3396020
  39.2611080  87.3808500  49.3653590  54.3295580  86.1250880  53.7949180
  53.7297570  86.1843440  53.0513100  54.4589480  85.1855860  53.9246030
  55.5697030  83.8668700  39.1318890  54.7389990  83.9345350  39.6026120
  55.7468860  84.7572820  38.8285750  55.0253490  80.6116180  41.6353090
  55.7872400  81.1812830  41.7412780  55.0407860  80.0443380  42.4061400
  38.5257830  79.1354110  45.8660750  37.8706670  78.8665750  45.2220450
  39.3635780  79.0258590  45.4162730  56.0313460  81.4666280  46.4795020
  56.4022290  80.6833600  46.0730990  56.6715390  82.1555380  46.3012320
  53.0147220  82.8502860  51.8925340  52.2007060  83.2800020  52.1551130
  53.4221420  83.4621270  51.2794390  55.0772660  80.9050550  38.7925610
  55.3521500  81.8129430  38.6644830  54.8883400  80.8413080  39.7287600
  51.4748270  73.9295400  40.0879240  51.8933150  73.7426380  39.2475900
  51.1684330  73.0774450  40.3982170  54.9738000  78.8419540  43.7855040
  54.5981600  78.0747470  43.3536330  54.2441120  79.2242240  44.2729970
  39.5633760  79.5206680  50.4064090  39.9306800  79.4334080  51.2860110
  38.9944580  78.7573230  50.3070950  54.3637620  77.9891060  53.4194560
  54.1323710  77.7603810  52.5192510  54.6242170  78.9090610  53.3739450
  39.1149760  76.4315770  54.3122510  38.2205810  76.3982530  54.6516220
  39.6547310  76.6302560  55.0773760  52.8025690  73.2147490  56.1974260
  53.6795870  73.2230890  56.5808260  52.8146530  72.4778330  55.5866610
  54.2488960  77.0677030  47.0862280  54.7726440  76.5739680  46.4552450
  54.8348380  77.2027390  47.8309850  54.4278680  77.1516900  50.6081830
  53.4781390  77.1180440  50.7226820  54.6091690  78.0617010  50.3731600
  40.2823120  75.4018580  39.7180460  40.9914820  74.9801800  39.2327740
  39.5663060  75.4693810  39.0863810  53.7388930  76.3250380  43.0254690
  54.2348050  76.0921250  43.8103570  53.5405000  75.4862220  42.6092330
  39.6189470  70.7064100  48.6605730  40.2665660  70.1561480  48.2200890
  40.0391310  70.9607250  49.4821540  55.1676090  74.9611330  45.5592370
  55.0575370  74.8067370  46.4974640  55.9283680  74.4332270  45.3167780
  53.5141810  70.9005460  52.0175370  54.1514030  71.5139600  52.3834560
  53.6616700  70.9366120  51.0724600  56.0566360  72.7919250  38.7998510
  56.9815670  72.6600430  38.5916800  56.0342150  72.8712070  39.7534960
  56.1304850  73.5629910  41.4255220  55.3356350  73.4975030  41.9548130
  56.3348130  74.4980550  41.4140570  53.0723270  87.6021460  45.4193610
  53.6682340  87.2806030  44.7428030  53.3301420  87.1293280  46.2106880
  39.3721470  70.8619770  51.4031050  39.0236290  71.3183590  52.1689230
  39.0409170  69.9676900  51.4853480  40.9785840  84.0339370  55.5684240
  40.9355470  83.6632280  56.4498700  41.1096850  84.9716940  55.7086060
  44.6791870  85.5898960  51.1693960  44.4383230  85.8573520  50.2824480
  45.6194510  85.7604690  51.2244820  46.8846290  72.0531650  54.9250470
  46.8235180  72.6453480  55.6745880  47.8246670  71.9457610  54.7800730
  49.5220850  71.7101710  54.5642760  50.1361260  72.0281000  53.9023840
  50.0670410  71.2250300  55.1838620  55.9396030  87.6093340  51.9704600
  55.4454310  88.0062210  51.2531730  55.3309320  86.9842550  52.3641880
  40.0442110  70.3895970  54.6781820  40.5925100  70.2084020  53.9147930
  40.1097420  69.5990080  55.2138130  40.8173870  86.9801620  52.6882020
  40.2234190  86.8486320  53.4272060  40.8097710  86.1439760  52.2224120
  50.2628890  70.2733850  50.8912050  49.3888730  70.6068960  50.6884980
  50.1539640  69.8007030  51.7163920  51.1700870  72.4804720  52.2753770
  50.8414230  71.6656480  51.8955500  52.1183170  72.4374530  52.1519460
  53.6235480  88.2516760  49.2491340  53.1638450  89.0032570  48.8749360
  52.9947940  87.5323230  49.1906140  40.4486100  84.3460000  51.6390060
  39.7220160  83.7265290  51.5716010  40.5095250  84.7400610  50.7688140
  44.0531200  86.5605000  48.4239470  44.5696220  85.9492360  47.8987730
  44.7028580  87.0633780  48.9150480  46.7926700  87.4513490  49.2508450
  47.0804510  87.1967790  48.3741460  47.3049920  86.8990850  49.8414020
  48.0103710  71.1903690  49.8304960  47.2275500  71.6649190  50.1101720
  47.7166640  70.2858520  49.7218140  52.5624780  71.8926790  47.8754050
  53.0032870  71.8371890  47.0275650  52.2932370  72.8084800  47.9464230
  54.4263350  71.5242030  45.8862870  54.3651750  70.5803250  45.7393890
  55.2055380  71.6322120  46.4316330  38.7316100  87.6634390  44.8486820
  38.5638140  87.0305070  45.5468710  37.8650610  87.8693790  44.4981010
  45.8957930  73.6090440  45.3420990  45.0832440  73.2347330  45.0016870
  46.3999570  72.8535520  45.6442180  50.3982910  70.2732890  46.5804060
  51.0012280  70.8453100  47.0552580  49.6575900  70.8372330  46.3577960
  53.5417510  70.6754450  41.8544340  53.7368140  71.5737900  42.1211770
  52.7547380  70.4441530  42.3477290  40.3378800  86.3567620  42.2936960
  39.8126420  86.7375650  41.5898920  40.2623380  86.9818390  43.0146670
  41.7269270  72.0215220  40.8920650  42.2562030  71.2345020  40.7628600
  42.3597590  72.7006410  41.1256180  43.9207110  71.7590360  43.9466040
  43.2909850  71.0577670  44.1136170  43.3812250  72.5194490  43.7299200
  46.8599060  88.3729590  56.6176650  47.7866370  88.1373860  56.6612610
  46.8449490  89.2001590  56.1362680  55.0944120  87.9155160  43.6150900
  55.2696310  87.2292900  42.9711820  54.3965690  88.4402210  43.2227570
  44.0462670  71.0374340  56.3818530  43.7646940  71.5407940  55.6179350
  44.4282370  70.2396090  56.0160660  42.9371770  88.3050000  41.1686210
  43.6690590  88.0209280  40.6210100  43.1965440  88.0663280  42.0585590
  42.0986560  84.4214730  41.1732540  41.4695440  84.8899830  41.7218370
  42.2134390  83.5763950  41.6078730  50.6478130  70.4527920  56.9599000
  50.5343580  70.7722530  57.8550520  51.4647870  70.8540430  56.6636280
  53.4276620  87.5999450  56.4417690  54.2201940  87.1048680  56.2343650
  53.7209770  88.2789590  57.0493300  49.5536280  78.4720390  27.3233740
  49.4730330  77.5575000  27.0525450  49.1400700  78.9687460  26.6173450
  47.6854320  80.2499410  29.2043010  46.9096420  79.7699850  29.4941580
  48.3367250  79.5705060  29.0299170  51.7061750  84.6559600  27.9842140
  51.2443280  83.8846840  28.3129310  52.5187300  84.6825670  28.4894590
  41.6821410  84.5959310  30.2776790  41.9849450  83.7057050  30.0987010
  42.4265000  85.1529530  30.0499040  40.1112100  75.5221110  23.8661160
  39.2228800  75.8637080  23.7641040  40.3953290  75.3221430  22.9741990
  47.9325060  86.9417610  27.6046130  47.3136500  87.3975110  27.0340570
  48.7876840  87.0969070  27.2035830  47.1263310  82.9256600  29.2113170
  47.0571590  81.9846540  29.0502300  47.8883170  83.0158010  29.7835740
  48.1568480  75.7326980  29.4382100  48.5333300  74.8598860  29.3255770
  48.0587990  76.0685680  28.5472540  42.2873490  74.1052610  24.8999540
  42.3940240  75.0056340  25.2068300  41.3765850  74.0570580  24.6094190
  51.9392600  73.2277420  26.3710440  52.7602220  72.7373990  26.4135920
  51.9726680  73.8175080  27.1242280  44.1281220  77.0738980  29.2324720
  44.6359440  77.5719950  29.8729740  44.6594460  76.2974180  29.0564080
  56.2292150  75.2444170  32.9354070  55.5244320  75.6325880  32.4169180
  56.4950070  75.9394460  33.5375000  48.7988410  81.8256850  24.9978040
  48.1805680  82.2906300  24.4340760  49.3111660  82.5184330  25.4147550
  52.1754080  75.1677800  29.1437980  51.4709650  75.4562690  29.7241090
  52.5366240  75.9777910  28.7837540  38.1671610  82.5113380  22.3717670
  37.7899590  83.0000480  21.6402570  38.4244680  83.1838660  23.0024200
  53.7916860  84.7852930  31.4065460  53.1080380  85.4552040  31.3982130
  54.3311150  84.9833580  30.6410320  55.2441000  74.6132590  29.5347190
  54.2965910  74.6471570  29.6662620  55.5690990  75.4271540  29.9196550
  45.7760540  70.9129770  27.8303180  46.0835520  70.3576660  27.1138680
  44.8461240  71.0474230  27.6476170  51.3275600  86.6297060  30.1210640
  51.3402760  86.2259350  29.2532900  50.7750820  87.4044350  30.0172070
  52.6221020  83.3513280  25.2100810  52.5117350  82.4087610  25.3350230
  52.6189270  83.7128920  26.0963570  50.7261040  81.5326900  31.4493250
  51.1429830  81.3187010  30.6146710  51.4500860  81.7899690  32.0201870
  48.1641300  78.9778600  24.5663300  47.2370580  78.9115980  24.7951770
  48.3166120  79.9158730  24.4518540  48.1510380  75.2495600  21.5630460
  47.2114050  75.4109560  21.6482920  48.4693640  75.9681280  21.0166450
  54.6723140  79.9314120  31.5409490  53.8441770  80.0007210  31.0659620
  55.2673620  80.5168430  31.0725320  52.1938590  80.5398900  25.0698550
  51.5751010  80.2018450  24.4224850  52.1763040  79.8958660  25.7777740
  51.6365150  76.7183440  32.4864360  51.2236330  77.5437150  32.7404350
  50.9041100  76.1328480  32.2940720  43.7697940  79.5043340  27.3483030
  43.3654940  78.7920590  26.8528930  43.8561060  79.1596580  28.2371070
  44.2379640  83.1910900  29.5122240  43.9407930  82.5856370  28.8330020
  45.1879460  83.2288210  29.4011600  52.3265250  86.7642770  33.1745340
  51.8495810  87.5714960  32.9817950  51.6427040  86.1121100  33.3271550
  50.3703290  79.7785710  22.0771300  50.8096570  78.9408140  21.9309120
  51.0831710  80.4115110  22.1635440  48.4798670  84.7181780  26.0452540
  48.9194580  85.4606110  25.6307930  48.4185560  84.9608350  26.9691500
  43.9549640  85.7427610  36.9472560  43.9265070  86.1470560  36.0800990
  43.7914610  84.8137970  36.7844160  53.9520430  71.0328520  20.3912340
  53.6393090  71.1255350  21.2911410  54.7132900  71.6109550  20.3409770
  40.4702570  78.3988320  24.8489680  40.3500170  79.1250410  24.2370950
  40.1603460  77.6291230  24.3717590  55.9064460  86.5254710  38.2436730
  56.3824180  87.0037600  38.9225810  56.5271620  86.4572200  37.5182230
  39.3535570  83.2703650  27.0664500  38.9463650  83.4118240  26.2118100
  40.2448580  82.9863810  26.8635710  55.3097710  83.7167560  35.4036740
  55.4360770  83.4779440  34.4853920  55.3519090  82.8852100  35.8758820
  49.1714450  87.4195560  33.9731550  49.6859120  87.3303570  34.7753980
  48.3283530  87.7655260  34.2659460  51.1468850  87.7050900  23.4015550
  50.9869990  87.4153840  24.2997380  50.9815560  86.9291030  22.8660780
  43.6257230  87.4849430  25.1787170  43.4499710  86.5684970  24.9654970
  42.7712970  87.8436720  25.4184970  50.8494980  85.2138460  21.9613550
  50.1560140  85.2115750  21.3015830  51.5917840  84.7897780  21.5307720
  50.4144910  86.8401170  26.0362040  50.8701860  86.0590550  26.3500660
  50.7537430  87.5507990  26.5803220  55.1621720  75.7700020  36.3686480
  54.5465990  76.2779690  35.8401940  54.8418140  74.8698350  36.3112420
  42.9366230  71.7423390  28.2313350  42.4934380  72.5232930  27.8997870
  43.4951220  72.0653280  28.9384290  47.2236040  74.6091910  33.8348670
  46.7615410  74.8174930  34.6468610  46.8214150  73.7951260  33.5319340
  52.2240550  75.8300860  34.9645330  51.3734140  75.5306610  35.2854400
  52.0642340  76.0742870  34.0529150  49.3190260  77.3302610  37.0644120
  49.6443670  76.4966360  36.7246350  50.1070590  77.8531130  37.2122450
  46.0525050  71.3634090  23.1119180  45.4279230  71.3593960  23.8372490
  45.9655170  70.4965050  22.7155150  44.9742130  72.2870720  30.0902950
  45.2714460  73.1933550  30.0094970  45.5227690  71.7989500  29.4762520
  42.7280450  76.8656960  25.9594600  42.5021370  76.6494130  26.8641220
  41.9472980  77.2985420  25.6140570  49.9578210  76.8720330  24.5585250
  49.3587100  77.5956130  24.3748870  50.5057820  76.8097110  23.7761700
  45.1679660  77.7642540  36.6254870  45.0723260  76.8237270  36.4755270
  46.0111640  77.9857610  36.2302940  48.5643080  75.5083870  26.5888530
  48.9572650  75.8256070  25.7757220  48.9259930  74.6295750  26.7033050
  46.8735250  74.2591180  37.8485390  46.1833570  74.0663380  38.4831480
  47.6167550  74.5425820  38.3809690  37.7877480  76.0404790  20.0221450
  37.7052150  76.9835550  20.1636440  37.4360540  75.8979700  19.1433800
  49.1498220  78.0989620  30.6839310  48.4179340  78.6076430  31.0329410
  48.7522560  77.2819600  30.3828090  45.5875610  74.7743820  29.0891800
  45.5911670  74.3333770  28.2396340  46.4826730  75.0961150  29.1963620
  45.6495760  75.7755900  22.0798560  45.7708580  75.7342380  23.0284380
  45.2644270  76.6380050  21.9245290  49.6124130  73.5523300  30.0962250
  49.6296870  74.0031950  30.9404100  49.3639710  72.6528940  30.3095690
  44.6617260  78.0857040  21.4781860  44.0934160  77.6375290  20.8517770
  45.3706260  78.4449820  20.9447010  53.0394880  70.9655480  35.9348630
  53.3640650  70.2345140  36.4606610  53.0751390  70.6469120  35.0329620
  45.8883580  78.8345600  30.8357210  46.2553710  78.3604170  31.5818550
  45.6988640  79.7087170  31.1765550  42.2064740  82.0815230  23.7508270
  41.4327000  81.5412850  23.5906990  42.9359370  81.5621840  23.4126030
  52.9652720  81.0780590  29.5434660  53.6851840  81.5735880  29.1530770
  52.7634540  80.3998480  28.8988530  48.4262660  72.4718550  23.6864050
  47.6127270  71.9731720  23.6109360  48.2324610  73.3116800  23.2700400
  48.3471520  81.1489650  35.4303660  48.2808830  80.2285320  35.1761250
  47.7176660  81.2465090  36.1448300  51.1411050  76.8438200  21.9826210
  52.0290670  77.1555430  21.8077550  51.1116140  75.9710450  21.5906790
  42.2502140  81.7495610  27.3887080  42.7680810  80.9463870  27.3343970
  41.7986160  81.6874750  28.2303910  47.1371640  83.0161890  22.6614380
  47.4787340  83.7604120  22.1657700  46.3084350  83.3293010  23.0239210
  48.2788250  83.9710220  35.1807460  48.2932790  83.0391180  34.9626370
  47.5713350  84.0569980  35.8197230  53.4125320  78.1550040  21.4506070
  53.3289040  78.5864260  20.6002510  54.1319510  78.6148390  21.8832890
  54.4899460  80.6117560  34.5276040  53.7647650  81.2046340  34.3305430
  55.0174920  80.6041100  33.7289410  54.4412570  85.0092300  24.1788200
  53.7988730  84.3547920  24.4531920  54.0543230  85.4147390  23.4028870
  50.0199050  82.3377730  28.0259890  50.3722870  81.7405860  27.3661260
  49.1361380  82.0121960  28.1968140  46.1062330  83.0975420  25.4330300
  46.7933460  83.6444630  25.8137890  45.3194750  83.6416150  25.4679910
  38.2454730  78.7148240  20.9247380  39.1149580  78.9973040  21.2083300
  37.7545050  79.5284110  20.8096190  45.4089540  80.1021450  25.0455660
  45.8652320  80.9126700  25.2715850  45.0577750  79.7844590  25.8774150
  47.7122150  85.6127790  32.2747960  48.3564370  85.8187170  32.9521380
  48.0751590  84.8516190  31.8218810  41.3101320  70.4459100  25.5178180
  41.1815950  70.4377000  26.4663100  40.4863340  70.7842190  25.1669190
  48.9854230  83.6160140  30.9925410  49.6276460  82.9153300  31.1057580
  49.5103580  84.3958580  30.8122300  52.8309950  83.9008760  20.7164550
  52.6047530  83.1839200  21.3089190  52.4406150  83.6521200  19.8786300
  50.7591850  84.4155040  34.1961470  51.0948090  85.0021730  34.8739390
  49.8392190  84.2847750  34.4259260  38.6125980  87.9275620  21.4909010
  38.9723620  88.5264960  20.8366280  38.4718320  88.4735510  22.2644040
  52.4126200  81.8180700  22.3778710  52.1247900  82.2793390  23.1656590
  53.2078370  81.3578470  22.6462930  38.5967840  86.1930480  35.9651410
  38.7058960  85.2525220  35.8246800  37.9448400  86.4585230  35.3165140
  46.5880430  84.4646370  37.3649530  46.2677300  83.7455610  37.9095220
  45.9138790  85.1401440  37.4385590  44.6294600  85.3106820  22.3082680
  44.6204700  86.0436510  21.6927190  43.7092960  85.0638400  22.4009640
  40.2301240  80.5321710  23.0529440  39.6229190  81.2720610  23.0624740
  40.7050590  80.6221070  22.2267640  49.8034030  74.6972530  32.7286330
  50.1714850  73.8767740  33.0565900  48.9432230  74.7574420  33.1441980
  53.1696060  73.6529470  23.5373890  52.5409220  73.7575140  22.8232120
  52.6747980  73.8726250  24.3267770  47.6154200  85.3735060  20.9707870
  47.7166180  85.1699050  20.0409850  46.7155940  85.1193340  21.1755650
  45.1380090  75.9315420  24.9531770  44.4296240  76.4001760  25.3945380
  45.4224570  75.2737430  25.5876960  46.7636020  77.3512120  32.9524300
  47.2621270  77.8257940  33.6176150  46.9058970  76.4275640  33.1594330
  49.1695520  72.6566080  26.3927560  49.0463300  72.6752210  25.4437070
  50.1180080  72.7045020  26.5125960  46.2572310  87.8921380  25.6655540
  46.5113810  87.8542770  24.7434910  45.3084790  87.7654710  25.6583790
  43.3415110  74.2400500  22.3282480  44.1905640  74.6770650  22.2622670
  42.9746380  74.5520760  23.1554540  53.9702880  73.5680080  33.7952690
  53.4676480  74.3085480  34.1346500  54.7859540  73.9564080  33.4789480
  52.2624890  78.8113260  27.2414050  51.3215030  78.8263490  27.4161740
  52.5768960  78.0249220  27.6874350  42.2406530  80.4932860  20.8018010
  43.0069800  80.3814220  21.3643440  42.3181220  79.7970830  20.1494780
  40.9353290  77.9257930  21.4850900  41.0156880  76.9785440  21.5968300
  41.8273040  78.2564810  21.5911560  54.2650470  85.9822110  28.9168310
  54.3897890  86.8053280  29.3892120  55.1316030  85.7712840  28.5692460
  41.7368000  88.0753320  28.5885440  42.4730480  87.5268780  28.8594010
  42.1208920  88.9409330  28.4491430  38.6213480  84.1426890  24.4626950
  37.6953260  84.3848030  24.4532360  39.0869910  84.9701150  24.3411700
  40.7426280  87.2599390  37.7771020  41.5439010  87.5811440  38.1906420
  40.2278100  86.8994970  38.4990930  44.8470310  87.2483630  20.4111010
  45.6398920  87.5372460  19.9592800  44.3274660  86.8175800  19.7323490
  49.5790910  83.3679260  37.7246430  48.9729070  83.3910860  36.9842180
  49.2745020  82.6362300  38.2613680  51.0091280  87.0959550  36.3355840
  51.9613030  87.0117570  36.2856080  50.8619500  87.7601260  37.0089630
  53.9000480  86.4753760  21.8347750  53.6141990  86.0618900  21.0201930
  53.7020030  87.4041470  21.7148270  45.3647710  82.4687040  20.2753360
  45.2598350  81.8539390  21.0014740  45.1971930  81.9452930  19.4916370
  45.5162030  81.1543840  36.2542590  44.7507700  81.7228840  36.1697260
  45.6977990  80.8620050  35.3610820  48.6050440  81.5307070  20.8795350
  48.0560540  81.9776370  21.5238090  49.2269700  81.0256320  21.4033020
  52.6585380  82.8849170  36.8117610  53.3994850  83.2224930  36.3085070
  51.8958060  83.0541230  36.2587380  44.2725560  80.4897990  22.7760650
  44.6941980  80.3237860  23.6192040  44.3976400  79.6798220  22.2815790
  46.7853200  79.5135600  20.0237750  47.3058860  78.7984620  19.6578900
  47.4321600  80.1521470  20.3238260  51.3331040  80.9364000  35.3472820
  51.7472060  81.0909080  36.1963240  50.3982040  81.0619220  35.5098600
  51.8053210  78.2760160  37.3511970  52.3873980  77.5212480  37.2632450
  51.9814980  78.8067600  36.5743450  42.9225280  73.4356910  35.6628920
  42.8282150  72.8177660  34.9379790  42.3422670  74.1623200  35.4358830
  45.6886720  71.9930150  32.6956310  45.2404020  72.0154410  31.8501860
  45.0551920  71.5949170  33.2926610  46.0946270  80.8884480  33.3168750
  46.5134380  81.7317210  33.1444990  45.1754900  81.0256520  33.0875530
  48.4310170  78.6200660  34.7006590  48.5506380  78.0241800  35.4401430
  49.2904170  78.6570350  34.2807890  50.7698070  79.1737850  33.2769100
  50.2433290  79.6980470  32.6734240  51.1129410  79.8065240  33.9078830
  43.1684460  76.5631220  19.7218810  42.9673520  75.6998580  20.0832150
  42.9976510  76.4764580  18.7840410  43.9453690  87.1937490  34.4326480
  43.4074780  87.9183550  34.1135180  44.1987650  86.7167830  33.6423820
  45.1978940  75.1622010  35.9582410  45.7878630  74.8537860  36.6460230
  44.3799180  74.6901760  36.1142310  50.0172370  74.7787820  36.1915430
  49.3287890  74.1169360  36.1265420  50.7378390  74.3326090  36.6363890
  50.6472770  71.3739450  22.2505690  50.9275060  70.5307350  22.6065110
  49.8738500  71.6062560  22.7644440  46.8015900  88.4288700  34.6913130
  46.7274600  89.3323840  34.9985500  45.8994740  88.1100600  34.6635200
  45.1852190  72.6066460  20.6952890  44.8374190  71.9290450  20.1155340
  45.3864960  72.1455970  21.5096280  47.3501230  87.5947210  22.3139490
  48.2452020  87.9332180  22.3358250  47.3818860  86.8726620  21.6863770
  40.9897390  82.9674260  20.5426490  41.4272260  83.5103930  21.1984070
  41.4745120  82.1421210  20.5522830  38.2043190  85.7563290  27.9946750
  38.5346200  84.8884350  27.7625390  38.6334190  85.9621810  28.8251710
  42.8005110  84.0872300  25.6548720  42.5000650  83.9637270  26.5552630
  42.6942600  83.2280890  25.2464450  38.6933400  86.6233880  30.7328380
  38.2564390  86.8034680  31.5652530  39.2611080  87.3808500  30.5910100
  54.3295580  86.1250880  35.0205690  53.7297570  86.1843440  34.2769610
  54.4589480  85.1855860  35.1502540  55.5697030  83.8668700  20.3575400
  54.7389990  83.9345350  20.8282630  55.7468860  84.7572820  20.0542260
  55.0253490  80.6116180  22.8609600  55.7872400  81.1812830  22.9669290
  55.0407860  80.0443380  23.6317910  56.0313460  81.4666280  27.7051530
  56.4022290  80.6833600  27.2987500  56.6715390  82.1555380  27.5268830
  53.0147220  82.8502860  33.1181850  52.2007060  83.2800020  33.3807640
  53.4221420  83.4621270  32.5050900  55.0772660  80.9050550  20.0182120
  55.3521500  81.8129430  19.8901340  54.8883400  80.8413080  20.9544110
  51.4748270  73.9295400  21.3135750  51.8933150  73.7426380  20.4732410
  51.1684330  73.0774450  21.6238680  54.9738000  78.8419540  25.0111550
  54.5981600  78.0747470  24.5792840  54.2441120  79.2242240  25.4986480
  54.3637620  77.9891060  34.6451070  54.1323710  77.7603810  33.7449020
  54.6242170  78.9090610  34.5995960  52.8025690  73.2147490  37.4230770
  53.6795870  73.2230890  37.8064770  52.8146530  72.4778330  36.8123120
  37.7395910  76.3453040  23.0342590  36.8359990  76.6083240  22.8594250
  38.2236530  76.6164210  22.2542550  54.2488960  77.0677030  28.3118790
  54.7726440  76.5739680  27.6808960  54.8348380  77.2027390  29.0566360
  54.4278680  77.1516900  31.8338340  53.4781390  77.1180440  31.9483330
  54.6091690  78.0617010  31.5988110  53.7388930  76.3250380  24.2511200
  54.2348050  76.0921250  25.0360080  53.5405000  75.4862220  23.8348840
  55.1676090  74.9611330  26.7848880  55.0575370  74.8067370  27.7231150
  55.9283680  74.4332270  26.5424290  53.5141810  70.9005460  33.2431880
  54.1514030  71.5139600  33.6091070  53.6616700  70.9366120  32.2981110
  56.0566360  72.7919250  20.0255020  56.9815670  72.6600430  19.8173310
  56.0342150  72.8712070  20.9791470  56.1304850  73.5629910  22.6511730
  55.3356350  73.4975030  23.1804640  56.3348130  74.4980550  22.6397080
  53.0723270  87.6021460  26.6450120  53.6682340  87.2806030  25.9684540
  53.3301420  87.1293280  27.4363390  44.6791870  85.5898960  32.3950470
  44.4383230  85.8573520  31.5080990  45.6194510  85.7604690  32.4501330
  46.8846290  72.0531650  36.1506980  46.8235180  72.6453480  36.9002390
  47.8246670  71.9457610  36.0057240  49.5220850  71.7101710  35.7899270
  50.1361260  72.0281000  35.1280350  50.0670410  71.2250300  36.4095130
  55.9396030  87.6093340  33.1961110  55.4454310  88.0062210  32.4788240
  55.3309320  86.9842550  33.5898390  40.8173870  86.9801620  33.9138530
  40.2234190  86.8486320  34.6528570  40.8097710  86.1439760  33.4480630
  50.2628890  70.2733850  32.1168560  49.3888730  70.6068960  31.9141490
  50.1539640  69.8007030  32.9420430  51.1700870  72.4804720  33.5010280
  50.8414230  71.6656480  33.1212010  52.1183170  72.4374530  33.3775970
  53.6235480  88.2516760  30.4747850  53.1638450  89.0032570  30.1005870
  52.9947940  87.5323230  30.4162650  40.4486100  84.3460000  32.8646570
  39.7220160  83.7265290  32.7972520  40.5095250  84.7400610  31.9944650
  44.0531200  86.5605000  29.6495980  44.5696220  85.9492360  29.1244240
  44.7028580  87.0633780  30.1406990  46.7926700  87.4513490  30.4764960
  47.0804510  87.1967790  29.5997970  47.3049920  86.8990850  31.0670530
  48.0103710  71.1903690  31.0561470  47.2275500  71.6649190  31.3358230
  47.7166640  70.2858520  30.9474650  52.5624780  71.8926790  29.1010560
  53.0032870  71.8371890  28.2532160  52.2932370  72.8084800  29.1720740
  54.4263350  71.5242030  27.1119380  54.3651750  70.5803250  26.9650400
  55.2055380  71.6322120  27.6572840  38.7316100  87.6634390  26.0743330
  38.5638140  87.0305070  26.7725220  37.8650610  87.8693790  25.7237520
  45.8957930  73.6090440  26.5677500  45.0832440  73.2347330  26.2273380
  46.3999570  72.8535520  26.8698690  50.3982910  70.2732890  27.8060570
  51.0012280  70.8453100  28.2809090  49.6575900  70.8372330  27.5834470
  53.5417510  70.6754450  23.0800850  53.7368140  71.5737900  23.3468280
  52.7547380  70.4441530  23.5733800  40.3378800  86.3567620  23.5193470
  39.8126420  86.7375650  22.8155430  40.2623380  86.9818390  24.2403180
  43.9207110  71.7590360  25.1722550  43.2909850  71.0577670  25.3392680
  43.3812250  72.5194490  24.9555710  46.8599060  88.3729590  37.8433160
  47.7866370  88.1373860  37.8869120  46.8449490  89.2001590  37.3619190
  55.0944120  87.9155160  24.8407410  55.2696310  87.2292900  24.1968330
  54.3965690  88.4402210  24.4484080  44.0462670  71.0374340  37.6075040
  43.7646940  71.5407940  36.8435860  44.4282370  70.2396090  37.2417170
  42.9371770  88.3050000  22.3942720  43.6690590  88.0209280  21.8466610
  43.1965440  88.0663280  23.2842100  42.0986560  84.4214730  22.3989050
  41.4695440  84.8899830  22.9474880  42.2134390  83.5763950  22.8335240
  50.6478130  70.4527920  38.1855510  50.5343580  70.7722530  39.0807030
  51.4647870  70.8540430  37.8892790  53.4276620  87.5999450  37.6674200
  54.2201940  87.1048680  37.4600160  53.7209770  88.2789590  38.2749810
  49.5536280  78.4720390   8.5490250  49.4730330  77.5575000   8.2781960
  49.1400700  78.9687460   7.8429960  47.6854320  80.2499410  10.4299520
  46.9096420  79.7699850  10.7198090  48.3367250  79.5705060  10.2555680
  41.7020150  80.5619220  11.3075280  40.8705030  80.3067930  11.7071790
  42.3101130  80.6329990  12.0433200  51.7061750  84.6559600   9.2098650
  51.2443280  83.8846840   9.5385820  52.5187300  84.6825670   9.7151100
  41.6821410  84.5959310  11.5033300  41.9849450  83.7057050  11.3243520
  42.4265000  85.1529530  11.2755550  40.1112100  75.5221110   5.0917670
  39.2228800  75.8637080   4.9897550  40.3953290  75.3221430   4.1998500
  38.0745110  78.1226760  10.9757370  38.6461220  77.3548960  10.9761010
  38.0746650  78.4215520  10.0663980  47.9325060  86.9417610   8.8302640
  47.3136500  87.3975110   8.2597080  48.7876840  87.0969070   8.4292340
  47.1263310  82.9256600  10.4369680  47.0571590  81.9846540  10.2758810
  47.8883170  83.0158010  11.0092250  48.1568480  75.7326980  10.6638610
  48.5333300  74.8598860  10.5512280  48.0587990  76.0685680   9.7729050
  42.2873490  74.1052610   6.1256050  42.3940240  75.0056340   6.4324810
  41.3765850  74.0570580   5.8350700  51.9392600  73.2277420   7.5966950
  52.7602220  72.7373990   7.6392430  51.9726680  73.8175080   8.3498790
  39.9356650  76.0271620  11.3708640  40.6166760  76.2909990  11.9896040
  39.6204700  75.1872490  11.7046650  44.1281220  77.0738980  10.4581230
  44.6359440  77.5719950  11.0986250  44.6594460  76.2974180  10.2820590
  56.2292150  75.2444170  14.1610580  55.5244320  75.6325880  13.6425690
  56.4950070  75.9394460  14.7631510  48.7988410  81.8256850   6.2234550
  48.1805680  82.2906300   5.6597270  49.3111660  82.5184330   6.6404060
  43.6620170  81.3532720  12.9018150  43.3289550  81.9801640  13.5439220
  43.8386850  81.8794600  12.1219820  52.1754080  75.1677800  10.3694490
  51.4709650  75.4562690  10.9497600  52.5366240  75.9777910  10.0094050
  42.0932650  73.4247500  12.7315100  42.4349460  74.2689550  12.4368970
  41.1548460  73.5731240  12.8480440  42.8739270  83.3213520  14.7167330
  43.4913270  83.9964600  14.4351780  42.0132390  83.7301500  14.6254830
  38.1671610  82.5113380   3.5974180  37.7899590  83.0000480   2.8659080
  38.4244680  83.1838660   4.2280710  53.7916860  84.7852930  12.6321970
  53.1080380  85.4552040  12.6238640  54.3311150  84.9833580  11.8666830
  55.2441000  74.6132590  10.7603700  54.2965910  74.6471570  10.8919130
  55.5690990  75.4271540  11.1453060  45.7760540  70.9129770   9.0559690
  46.0835520  70.3576660   8.3395190  44.8461240  71.0474230   8.8732680
  51.3275600  86.6297060  11.3467150  51.3402760  86.2259350  10.4789410
  50.7750820  87.4044350  11.2428580  52.6221020  83.3513280   6.4357320
  52.5117350  82.4087610   6.5606740  52.6189270  83.7128920   7.3220080
  50.7261040  81.5326900  12.6749760  51.1429830  81.3187010  11.8403220
  51.4500860  81.7899690  13.2458380  48.1641300  78.9778600   5.7919810
  47.2370580  78.9115980   6.0208280  48.3166120  79.9158730   5.6775050
  48.1510380  75.2495600   2.7886970  47.2114050  75.4109560   2.8739430
  48.4693640  75.9681280   2.2422960  54.6723140  79.9314120  12.7666000
  53.8441770  80.0007210  12.2916130  55.2673620  80.5168430  12.2981830
  52.1938590  80.5398900   6.2955060  51.5751010  80.2018450   5.6481360
  52.1763040  79.8958660   7.0034250  51.6365150  76.7183440  13.7120870
  51.2236330  77.5437150  13.9660860  50.9041100  76.1328480  13.5197230
  43.7697940  79.5043340   8.5739540  43.3654940  78.7920590   8.0785440
  43.8561060  79.1596580   9.4627580  44.2379640  83.1910900  10.7378750
  43.9407930  82.5856370  10.0586530  45.1879460  83.2288210  10.6268110
  42.4826560  76.2786550  12.3538580  43.0341150  76.3881890  11.5791830
  42.9970070  76.6524150  13.0693810  52.3265250  86.7642770  14.4001850
  51.8495810  87.5714960  14.2074460  51.6427040  86.1121100  14.5528060
  43.3298070  82.9292590  17.3886550  42.4326600  83.1532560  17.6359950
  43.3550940  83.0527530  16.4397950  50.3703290  79.7785710   3.3027810
  50.8096570  78.9408140   3.1565630  51.0831710  80.4115110   3.3891950
  42.1569290  79.8005910  15.9643920  42.0177060  80.6728710  16.3331320
  41.2750650  79.4578720  15.8191860  48.4798670  84.7181780   7.2709050
  48.9194580  85.4606110   6.8564440  48.4185560  84.9608350   8.1948010
  43.9549640  85.7427610  18.1729070  43.9265070  86.1470560  17.3057500
  43.7914610  84.8137970  18.0100670  40.4702570  78.3988320   6.0746190
  40.3500170  79.1250410   5.4627460  40.1603460  77.6291230   5.5974100
  55.9064460  86.5254710  19.4693240  56.3824180  87.0037600  20.1482320
  56.5271620  86.4572200  18.7438740  38.1087940  81.5703460  11.8814830
  38.1868360  81.7052230  10.9370550  38.7229620  80.8619350  12.0742950
  39.3535570  83.2703650   8.2921010  38.9463650  83.4118240   7.4374610
  40.2448580  82.9863810   8.0892220  55.3097710  83.7167560  16.6293250
  55.4360770  83.4779440  15.7110430  55.3519090  82.8852100  17.1015330
  49.1714450  87.4195560  15.1988060  49.6859120  87.3303570  16.0010490
  48.3283530  87.7655260  15.4915970  51.1468850  87.7050900   4.6272060
  50.9869990  87.4153840   5.5253890  50.9815560  86.9291030   4.0917290
  43.6257230  87.4849430   6.4043680  43.4499710  86.5684970   6.1911480
  42.7712970  87.8436720   6.6441480  50.8494980  85.2138460   3.1870060
  50.1560140  85.2115750   2.5272340  51.5917840  84.7897780   2.7564230
  50.4144910  86.8401170   7.2618550  50.8701860  86.0590550   7.5757170
  50.7537430  87.5507990   7.8059730  55.1621720  75.7700020  17.5942990
  54.5465990  76.2779690  17.0658450  54.8418140  74.8698350  17.5368930
  38.1647460  82.6117630  14.4209290  38.3278500  82.1422990  13.6028660
  38.6299910  82.1041190  15.0858130  42.9366230  71.7423390   9.4569860
  42.4934380  72.5232930   9.1254380  43.4951220  72.0653280  10.1640800
  47.2236040  74.6091910  15.0605180  46.7615410  74.8174930  15.8725120
  46.8214150  73.7951260  14.7575850  52.2240550  75.8300860  16.1901840
  51.3734140  75.5306610  16.5110910  52.0642340  76.0742870  15.2785660
  49.3190260  77.3302610  18.2900630  49.6443670  76.4966360  17.9502860
  50.1070590  77.8531130  18.4378960  46.0525050  71.3634090   4.3375690
  45.4279230  71.3593960   5.0629000  45.9655170  70.4965050   3.9411660
  44.9742130  72.2870720  11.3159460  45.2714460  73.1933550  11.2351480
  45.5227690  71.7989500  10.7019030  42.7280450  76.8656960   7.1851110
  42.5021370  76.6494130   8.0897730  41.9472980  77.2985420   6.8397080
  49.9578210  76.8720330   5.7841760  49.3587100  77.5956130   5.6005380
  50.5057820  76.8097110   5.0018210  45.1679660  77.7642540  17.8511380
  45.0723260  76.8237270  17.7011780  46.0111640  77.9857610  17.4559450
  48.5643080  75.5083870   7.8145040  48.9572650  75.8256070   7.0013730
  48.9259930  74.6295750   7.9289560  46.8735250  74.2591180  19.0741900
  46.1833570  74.0663380  19.7087990  47.6167550  74.5425820  19.6066200
  37.6007250  72.0984670  10.0375240  37.3120300  72.6687530  10.7500220
  38.3453010  71.6189120  10.4006470  49.1498220  78.0989620  11.9095820
  48.4179340  78.6076430  12.2585920  48.7522560  77.2819600  11.6084600
  45.5875610  74.7743820  10.3148310  45.5911670  74.3333770   9.4652850
  46.4826730  75.0961150  10.4220130  41.4377990  74.6570310   9.2742520
  41.0978040  75.1345540  10.0309570  40.6755310  74.2035430   8.9143620
  45.6495760  75.7755900   3.3055070  45.7708580  75.7342380   4.2540890
  45.2644270  76.6380050   3.1501800  49.6124130  73.5523300  11.3218760
  49.6296870  74.0031950  12.1660610  49.3639710  72.6528940  11.5352200
  44.6617260  78.0857040   2.7038370  44.0934160  77.6375290   2.0774280
  45.3706260  78.4449820   2.1703520  53.0394880  70.9655480  17.1605140
  53.3640650  70.2345140  17.6863120  53.0751390  70.6469120  16.2586130
  39.7386440  81.9869060  16.5805100  39.3541230  81.3462730  17.1788060
  40.0498630  82.6905180  17.1499830  45.8883580  78.8345600  12.0613720
  46.2553710  78.3604170  12.8075060  45.6988640  79.7087170  12.4022060
  38.7524070  73.5789290   8.1907190  38.4670990  73.2144960   9.0285810
  38.6902930  72.8469750   7.5770330  43.6782950  77.8754240  14.3797930
  43.3740020  78.7546220  14.6048290  44.6329410  77.9354030  14.4155370
  42.2064740  82.0815230   4.9764780  41.4327000  81.5412850   4.8163500
  42.9359370  81.5621840   4.6382540  52.9652720  81.0780590  10.7691170
  53.6851840  81.5735880  10.3787280  52.7634540  80.3998480  10.1245040
  48.4262660  72.4718550   4.9120560  47.6127270  71.9731720   4.8365870
  48.2324610  73.3116800   4.4956910  48.3471520  81.1489650  16.6560170
  48.2808830  80.2285320  16.4017760  47.7176660  81.2465090  17.3704810
  51.1411050  76.8438200   3.2082720  52.0290670  77.1555430   3.0334060
  51.1116140  75.9710450   2.8163300  42.2502140  81.7495610   8.6143590
  42.7680810  80.9463870   8.5600480  41.7986160  81.6874750   9.4560420
  47.1371640  83.0161890   3.8870890  47.4787340  83.7604120   3.3914210
  46.3084350  83.3293010   4.2495720  39.7346680  78.7156980  15.5269290
  39.3761620  79.3810830  16.1142630  39.4401240  77.8840530  15.8981910
  42.9359800  79.1741220  18.4108840  42.6359940  79.3198400  17.5136660
  43.7071040  78.6146510  18.3182230  48.2788250  83.9710220  16.4063970
  48.2932790  83.0391180  16.1882880  47.5713350  84.0569980  17.0453740
  53.4125320  78.1550040   2.6762580  53.3289040  78.5864260   1.8259020
  54.1319510  78.6148390   3.1089400  54.4899460  80.6117560  15.7532550
  53.7647650  81.2046340  15.5561940  55.0174920  80.6041100  14.9545920
  54.4412570  85.0092300   5.4044710  53.7988730  84.3547920   5.6788430
  54.0543230  85.4147390   4.6285380  50.0199050  82.3377730   9.2516400
  50.3722870  81.7405860   8.5917770  49.1361380  82.0121960   9.4224650
  46.1062330  83.0975420   6.6586810  46.7933460  83.6444630   7.0394400
  45.3194750  83.6416150   6.6936420  38.2454730  78.7148240   2.1503890
  39.1149580  78.9973040   2.4339810  37.7545050  79.5284110   2.0352700
  45.4089540  80.1021450   6.2712170  45.8652320  80.9126700   6.4972360
  45.0577750  79.7844590   7.1030660  47.7122150  85.6127790  13.5004470
  48.3564370  85.8187170  14.1777890  48.0751590  84.8516190  13.0475320
  41.3101320  70.4459100   6.7434690  41.1815950  70.4377000   7.6919610
  40.4863340  70.7842190   6.3925700  48.9854230  83.6160140  12.2181920
  49.6276460  82.9153300  12.3314090  49.5103580  84.3958580  12.0378810
  50.7591850  84.4155040  15.4217980  51.0948090  85.0021730  16.0995900
  49.8392190  84.2847750  15.6515770  38.6125980  87.9275620   2.7165520
  38.9723620  88.5264960   2.0622790  38.4718320  88.4735510   3.4900550
  52.4126200  81.8180700   3.6035220  52.1247900  82.2793390   4.3913100
  53.2078370  81.3578470   3.8719440  38.5967840  86.1930480  17.1907920
  38.7058960  85.2525220  17.0503310  37.9448400  86.4585230  16.5421650
  46.5880430  84.4646370  18.5906040  46.2677300  83.7455610  19.1351730
  45.9138790  85.1401440  18.6642100  44.6294600  85.3106820   3.5339190
  44.6204700  86.0436510   2.9183700  43.7092960  85.0638400   3.6266150
  40.2301240  80.5321710   4.2785950  39.6229190  81.2720610   4.2881250
  40.7050590  80.6221070   3.4524150  49.8034030  74.6972530  13.9542840
  50.1714850  73.8767740  14.2822410  48.9432230  74.7574420  14.3698490
  53.1696060  73.6529470   4.7630400  52.5409220  73.7575140   4.0488630
  52.6747980  73.8726250   5.5524280  45.1380090  75.9315420   6.1788280
  44.4296240  76.4001760   6.6201890  45.4224570  75.2737430   6.8133470
  46.7636020  77.3512120  14.1780810  47.2621270  77.8257940  14.8432660
  46.9058970  76.4275640  14.3850840  49.1695520  72.6566080   7.6184070
  49.0463300  72.6752210   6.6693580  50.1180080  72.7045020   7.7382470
  46.2572310  87.8921380   6.8912050  46.5113810  87.8542770   5.9691420
  45.3084790  87.7654710   6.8840300  43.3415110  74.2400500   3.5538990
  44.1905640  74.6770650   3.4879180  42.9746380  74.5520760   4.3811050
  53.9702880  73.5680080  15.0209200  53.4676480  74.3085480  15.3603010
  54.7859540  73.9564080  14.7045990  52.2624890  78.8113260   8.4670560
  51.3215030  78.8263490   8.6418250  52.5768960  78.0249220   8.9130860
  40.9353290  77.9257930   2.7107410  41.0156880  76.9785440   2.8224810
  41.8273040  78.2564810   2.8168070  54.2650470  85.9822110  10.1424820
  54.3897890  86.8053280  10.6148630  55.1316030  85.7712840   9.7948970
  41.7368000  88.0753320   9.8141950  42.4730480  87.5268780  10.0850520
  42.1208920  88.9409330   9.6747940  38.6213480  84.1426890   5.6883460
  37.6953260  84.3848030   5.6788870  39.0869910  84.9701150   5.5668210
  40.7426280  87.2599390  19.0027530  41.5439010  87.5811440  19.4162930
  40.2278100  86.8994970  19.7247440  49.5790910  83.3679260  18.9502940
  48.9729070  83.3910860  18.2098690  49.2745020  82.6362300  19.4870190
  51.0091280  87.0959550  17.5612350  51.9613030  87.0117570  17.5112590
  50.8619500  87.7601260  18.2346140  53.9000480  86.4753760   3.0604260
  53.6141990  86.0618900   2.2458440  53.7020030  87.4041470   2.9404780
  38.4624090  79.7472850  17.9463580  38.9663110  79.1680130  18.5179810
  37.7231510  80.0313080  18.4839950  45.5162030  81.1543840  17.4799100
  44.7507700  81.7228840  17.3953770  45.6977990  80.8620050  16.5867330
  48.6050440  81.5307070   2.1051860  48.0560540  81.9776370   2.7494600
  49.2269700  81.0256320   2.6289530  52.6585380  82.8849170  18.0374120
  53.3994850  83.2224930  17.5341580  51.8958060  83.0541230  17.4843890
  40.4947170  77.8902440  18.8413650  40.5352510  77.5916310  19.7498880
  41.3492670  78.2910050  18.6821170  44.2725560  80.4897990   4.0017160
  44.6941980  80.3237860   4.8448550  44.3976400  79.6798220   3.5072300
  42.4352980  76.4694540  16.8088140  41.9049440  75.9785490  16.1811480
  43.1041050  76.8978740  16.2746070  51.3331040  80.9364000  16.5729330
  51.7472060  81.0909080  17.4219750  50.3982040  81.0619220  16.7355110
  51.8053210  78.2760160  18.5768480  52.3873980  77.5212480  18.4888960
  51.9814980  78.8067600  17.7999960  45.6886720  71.9930150  13.9212820
  45.2404020  72.0154410  13.0758370  45.0551920  71.5949170  14.5183120
  46.0946270  80.8884480  14.5425260  46.5134380  81.7317210  14.3701500
  45.1754900  81.0256520  14.3132040  48.4310170  78.6200660  15.9263100
  48.5506380  78.0241800  16.6657940  49.2904170  78.6570350  15.5064400
  50.7698070  79.1737850  14.5025610  50.2433290  79.6980470  13.8990750
  51.1129410  79.8065240  15.1335340  43.9453690  87.1937490  15.6582990
  43.4074780  87.9183550  15.3391690  44.1987650  86.7167830  14.8680330
  45.1978940  75.1622010  17.1838920  45.7878630  74.8537860  17.8716740
  44.3799180  74.6901760  17.3398820  50.0172370  74.7787820  17.4171940
  49.3287890  74.1169360  17.3521930  50.7378390  74.3326090  17.8620400
  50.6472770  71.3739450   3.4762200  50.9275060  70.5307350   3.8321620
  49.8738500  71.6062560   3.9900950  46.8015900  88.4288700  15.9169640
  46.7274600  89.3323840  16.2242010  45.8994740  88.1100600  15.8891710
  47.3501230  87.5947210   3.5396000  48.2452020  87.9332180   3.5614760
  47.3818860  86.8726620   2.9120280  40.9897390  82.9674260   1.7683000
  41.4272260  83.5103930   2.4240580  41.4745120  82.1421210   1.7779340
  38.2043190  85.7563290   9.2203260  38.5346200  84.8884350   8.9881900
  38.6334190  85.9621810  10.0508220  42.8005110  84.0872300   6.8805230
  42.5000650  83.9637270   7.7809140  42.6942600  83.2280890   6.4720960
  38.6933400  86.6233880  11.9584890  38.2564390  86.8034680  12.7909040
  39.2611080  87.3808500  11.8166610  54.3295580  86.1250880  16.2462200
  53.7297570  86.1843440  15.5026120  54.4589480  85.1855860  16.3759050
  55.0253490  80.6116180   4.0866110  55.7872400  81.1812830   4.1925800
  55.0407860  80.0443380   4.8574420  38.5257830  79.1354110   8.3173770
  37.8706670  78.8665750   7.6733470  39.3635780  79.0258590   7.8675750
  56.0313460  81.4666280   8.9308040  56.4022290  80.6833600   8.5244010
  56.6715390  82.1555380   8.7525340  53.0147220  82.8502860  14.3438360
  52.2007060  83.2800020  14.6064150  53.4221420  83.4621270  13.7307410
  51.4748270  73.9295400   2.5392260  51.8933150  73.7426380   1.6988920
  51.1684330  73.0774450   2.8495190  54.9738000  78.8419540   6.2368060
  54.5981600  78.0747470   5.8049350  54.2441120  79.2242240   6.7242990
  39.5633760  79.5206680  12.8577110  39.9306800  79.4334080  13.7373130
  38.9944580  78.7573230  12.7583970  54.3637620  77.9891060  15.8707580
  54.1323710  77.7603810  14.9705530  54.6242170  78.9090610  15.8252470
  52.8025690  73.2147490  18.6487280  53.6795870  73.2230890  19.0321280
  52.8146530  72.4778330  18.0379630  37.7395910  76.3453040   4.2599100
  36.8359990  76.6083240   4.0850760  38.2236530  76.6164210   3.4799060
  54.2488960  77.0677030   9.5375300  54.7726440  76.5739680   8.9065470
  54.8348380  77.2027390  10.2822870  54.4278680  77.1516900  13.0594850
  53.4781390  77.1180440  13.1739840  54.6091690  78.0617010  12.8244620
  53.7388930  76.3250380   5.4767710  54.2348050  76.0921250   6.2616590
  53.5405000  75.4862220   5.0605350  39.6189470  70.7064100  11.1118750
  40.2665660  70.1561480  10.6713910  40.0391310  70.9607250  11.9334560
  55.1676090  74.9611330   8.0105390  55.0575370  74.8067370   8.9487660
  55.9283680  74.4332270   7.7680800  53.5141810  70.9005460  14.4688390
  54.1514030  71.5139600  14.8347580  53.6616700  70.9366120  13.5237620
  56.1304850  73.5629910   3.8768240  55.3356350  73.4975030   4.4061150
  56.3348130  74.4980550   3.8653590  53.0723270  87.6021460   7.8706630
  53.6682340  87.2806030   7.1941050  53.3301420  87.1293280   8.6619900
  40.9785840  84.0339370  18.0197260  40.9355470  83.6632280  18.9011720
  41.1096850  84.9716940  18.1599080  44.6791870  85.5898960  13.6206980
  44.4383230  85.8573520  12.7337500  45.6194510  85.7604690  13.6757840
  46.8846290  72.0531650  17.3763490  46.8235180  72.6453480  18.1258900
  47.8246670  71.9457610  17.2313750  49.5220850  71.7101710  17.0155780
  50.1361260  72.0281000  16.3536860  50.0670410  71.2250300  17.6351640
  55.9396030  87.6093340  14.4217620  55.4454310  88.0062210  13.7044750
  55.3309320  86.9842550  14.8154900  40.8173870  86.9801620  15.1395040
  40.2234190  86.8486320  15.8785080  40.8097710  86.1439760  14.6737140
  50.2628890  70.2733850  13.3425070  49.3888730  70.6068960  13.1398000
  50.1539640  69.8007030  14.1676940  51.1700870  72.4804720  14.7266790
  50.8414230  71.6656480  14.3468520  52.1183170  72.4374530  14.6032480
  53.6235480  88.2516760  11.7004360  53.1638450  89.0032570  11.3262380
  52.9947940  87.5323230  11.6419160  40.4486100  84.3460000  14.0903080
  39.7220160  83.7265290  14.0229030  40.5095250  84.7400610  13.2201160
  44.0531200  86.5605000  10.8752490  44.5696220  85.9492360  10.3500750
  44.7028580  87.0633780  11.3663500  46.7926700  87.4513490  11.7021470
  47.0804510  87.1967790  10.8254480  47.3049920  86.8990850  12.2927040
  48.0103710  71.1903690  12.2817980  47.2275500  71.6649190  12.5614740
  47.7166640  70.2858520  12.1731160  52.5624780  71.8926790  10.3267070
  53.0032870  71.8371890   9.4788670  52.2932370  72.8084800  10.3977250
  54.4263350  71.5242030   8.3375890  54.3651750  70.5803250   8.1906910
  55.2055380  71.6322120   8.8829350  38.7316100  87.6634390   7.2999840
  38.5638140  87.0305070   7.9981730  37.8650610  87.8693790   6.9494030
  39.3544120  71.4951170   4.8031700  40.1123480  71.6080050   4.2295730
  38.8921290  72.3320370   4.7575130  45.8957930  73.6090440   7.7934010
  45.0832440  73.2347330   7.4529890  46.3999570  72.8535520   8.0955200
  50.3982910  70.2732890   9.0317080  51.0012280  70.8453100   9.5065600
  49.6575900  70.8372330   8.8090980  53.5417510  70.6754450   4.3057360
  53.7368140  71.5737900   4.5724790  52.7547380  70.4441530   4.7990310
  40.3378800  86.3567620   4.7449980  39.8126420  86.7375650   4.0411940
  40.2623380  86.9818390   5.4659690  41.7269270  72.0215220   3.3433670
  42.2562030  71.2345020   3.2141620  42.3597590  72.7006410   3.5769200
  43.9207110  71.7590360   6.3979060  43.2909850  71.0577670   6.5649190
  43.3812250  72.5194490   6.1812220  46.8599060  88.3729590  19.0689670
  47.7866370  88.1373860  19.1125630  46.8449490  89.2001590  18.5875700
  55.0944120  87.9155160   6.0663920  55.2696310  87.2292900   5.4224840
  54.3965690  88.4402210   5.6740590  42.9371770  88.3050000   3.6199230
  43.6690590  88.0209280   3.0723120  43.1965440  88.0663280   4.5098610
  42.0986560  84.4214730   3.6245560  41.4695440  84.8899830   4.1731390
  42.2134390  83.5763950   4.0591750  50.6478130  70.4527920  19.4112020
  50.5343580  70.7722530  20.3063540  51.4647870  70.8540430  19.1149300
  53.4276620  87.5999450  18.8930710  54.2201940  87.1048680  18.6856670
  53.7209770  88.2789590  19.5006320  49.5536280  59.6976900  64.8720720
  49.4730330  58.7831510  64.6012430  49.1400700  60.1943970  64.1660430
  47.6854320  61.4755920  66.7529990  46.9096420  60.9956360  67.0428560
  48.3367250  60.7961570  66.5786150  41.7020150  61.7875730  67.6305750
  40.8705030  61.5324440  68.0302260  42.3101130  61.8586500  68.3663670
  51.7061750  65.8816110  65.5329120  51.2443280  65.1103350  65.8616290
  52.5187300  65.9082180  66.0381570  41.6821410  65.8215820  67.8263770
  41.9849450  64.9313560  67.6473990  42.4265000  66.3786040  67.5986020
  40.1112100  56.7477620  61.4148140  39.2228800  57.0893590  61.3128020
  40.3953290  56.5477940  60.5228970  38.0745110  59.3483270  67.2987840
  38.6461220  58.5805470  67.2991480  38.0746650  59.6472030  66.3894450
  47.9325060  68.1674120  65.1533110  47.3136500  68.6231620  64.5827550
  48.7876840  68.3225580  64.7522810  47.1263310  64.1513110  66.7600150
  47.0571590  63.2103050  66.5989280  47.8883170  64.2414520  67.3322720
  39.3169980  54.7567630  69.0856770  39.1372820  53.8593380  69.3659530
  38.9150060  55.3039500  69.7603720  48.1568480  56.9583490  66.9869080
  48.5333300  56.0855370  66.8742750  48.0587990  57.2942190  66.0959520
  42.2873490  55.3309120  62.4486520  42.3940240  56.2312850  62.7555280
  41.3765850  55.2827090  62.1581170  51.9392600  54.4533930  63.9197420
  52.7602220  53.9630500  63.9622900  51.9726680  55.0431590  64.6729260
  39.9356650  57.2528130  67.6939110  40.6166760  57.5166500  68.3126510
  39.6204700  56.4129000  68.0277120  44.1281220  58.2995490  66.7811700
  44.6359440  58.7976460  67.4216720  44.6594460  57.5230690  66.6051060
  56.2292150  56.4700680  70.4841050  55.5244320  56.8582390  69.9656160
  56.4950070  57.1650970  71.0861980  42.4117320  52.9394050  71.0475120
  42.4135760  53.4566440  70.2421020  41.5821630  52.4624230  71.0245050
  48.7988410  63.0513360  62.5465020  48.1805680  63.5162810  61.9827740
  49.3111660  63.7440840  62.9634530  43.6620170  62.5789230  69.2248620
  43.3289550  63.2058150  69.8669690  43.8386850  63.1051110  68.4450290
  52.1754080  56.3934310  66.6924960  51.4709650  56.6819200  67.2728070
  52.5366240  57.2034420  66.3324520  42.0932650  54.6504010  69.0545570
  42.4349460  55.4946060  68.7599440  41.1548460  54.7987750  69.1710910
  42.8739270  64.5470030  71.0397800  43.4913270  65.2221110  70.7582250
  42.0132390  64.9558010  70.9485300  38.1671610  63.7369890  59.9204650
  37.7899590  64.2256990  59.1889550  38.4244680  64.4095170  60.5511180
  53.7916860  66.0109440  68.9552440  53.1080380  66.6808550  68.9469110
  54.3311150  66.2090090  68.1897300  55.2441000  55.8389100  67.0834170
  54.2965910  55.8728080  67.2149600  55.5690990  56.6528050  67.4683530
  45.7760540  52.1386280  65.3790160  46.0835520  51.5833170  64.6625660
  44.8461240  52.2730740  65.1963150  51.3275600  67.8553570  67.6697620
  51.3402760  67.4515860  66.8019880  50.7750820  68.6300860  67.5659050
  52.6221020  64.5769790  62.7587790  52.5117350  63.6344120  62.8837210
  52.6189270  64.9385430  63.6450550  50.7261040  62.7583410  68.9980230
  51.1429830  62.5443520  68.1633690  51.4500860  63.0156200  69.5688850
  48.1641300  60.2035110  62.1150280  47.2370580  60.1372490  62.3438750
  48.3166120  61.1415240  62.0005520  48.1510380  56.4752110  59.1117440
  47.2114050  56.6366070  59.1969900  48.4693640  57.1937790  58.5653430
  54.6723140  61.1570630  69.0896470  53.8441770  61.2263720  68.6146600
  55.2673620  61.7424940  68.6212300  52.1938590  61.7655410  62.6185530
  51.5751010  61.4274960  61.9711830  52.1763040  61.1215170  63.3264720
  51.6365150  57.9439950  70.0351340  51.2236330  58.7693660  70.2891330
  50.9041100  57.3584990  69.8427700  43.7697940  60.7299850  64.8970010
  43.3654940  60.0177100  64.4015910  43.8561060  60.3853090  65.7858050
  44.2379640  64.4167410  67.0609220  43.9407930  63.8112880  66.3817000
  45.1879460  64.4544720  66.9498580  42.4826560  57.5043060  68.6769050
  43.0341150  57.6138400  67.9022300  42.9970070  57.8780660  69.3924280
  52.3265250  67.9899280  70.7232320  51.8495810  68.7971470  70.5304930
  51.6427040  67.3377610  70.8758530  43.3298070  64.1549100  73.7117020
  42.4326600  64.3789070  73.9590420  43.3550940  64.2784040  72.7628420
  50.3703290  61.0042220  59.6258280  50.8096570  60.1664650  59.4796100
  51.0831710  61.6371620  59.7122420  42.1569290  61.0262420  72.2874390
  42.0177060  61.8985220  72.6561790  41.2750650  60.6835230  72.1422330
  48.4798670  65.9438290  63.5939520  48.9194580  66.6862620  63.1794910
  48.4185560  66.1864860  64.5178480  43.9549640  66.9684120  74.4959540
  43.9265070  67.3727070  73.6287970  43.7914610  66.0394480  74.3331140
  53.9520430  52.2585030  57.9399320  53.6393090  52.3511860  58.8398390
  54.7132900  52.8366060  57.8896750  40.4702570  59.6244830  62.3976660
  40.3500170  60.3506920  61.7857930  40.1603460  58.8547740  61.9204570
  38.1087940  62.7959970  68.2045300  38.1868360  62.9308740  67.2601020
  38.7229620  62.0875860  68.3973420  39.3535570  64.4960160  64.6151480
  38.9463650  64.6374750  63.7605080  40.2448580  64.2120320  64.4122690
  55.3097710  64.9424070  72.9523720  55.4360770  64.7035950  72.0340900
  55.3519090  64.1108610  73.4245800  49.1714450  68.6452070  71.5218530
  49.6859120  68.5560080  72.3240960  48.3283530  68.9911770  71.8146440
  51.1468850  68.9307410  60.9502530  50.9869990  68.6410350  61.8484360
  50.9815560  68.1547540  60.4147760  43.6257230  68.7105940  62.7274150
  43.4499710  67.7941480  62.5141950  42.7712970  69.0693230  62.9671950
  50.8494980  66.4394970  59.5100530  50.1560140  66.4372260  58.8502810
  51.5917840  66.0154290  59.0794700  50.4144910  68.0657680  63.5849020
  50.8701860  67.2847060  63.8987640  50.7537430  68.7764500  64.1290200
  55.1621720  56.9956530  73.9173460  54.5465990  57.5036200  73.3888920
  54.8418140  56.0954860  73.8599400  38.1647460  63.8374140  70.7439760
  38.3278500  63.3679500  69.9259130  38.6299910  63.3297700  71.4088600
  42.9366230  52.9679900  65.7800330  42.4934380  53.7489440  65.4484850
  43.4951220  53.2909790  66.4871270  47.2236040  55.8348420  71.3835650
  46.7615410  56.0431440  72.1955590  46.8214150  55.0207770  71.0806320
  52.2240550  57.0557370  72.5132310  51.3734140  56.7563120  72.8341380
  52.0642340  57.2999380  71.6016130  49.3190260  58.5559120  74.6131100
  49.6443670  57.7222870  74.2733330  50.1070590  59.0787640  74.7609430
  46.0525050  52.5890600  60.6606160  45.4279230  52.5850470  61.3859470
  45.9655170  51.7221560  60.2642130  44.9742130  53.5127230  67.6389930
  45.2714460  54.4190060  67.5581950  45.5227690  53.0246010  67.0249500
  42.7280450  58.0913470  63.5081580  42.5021370  57.8750640  64.4128200
  41.9472980  58.5241930  63.1627550  49.9578210  58.0976840  62.1072230
  49.3587100  58.8212640  61.9235850  50.5057820  58.0353620  61.3248680
  45.1679660  58.9899050  74.1741850  45.0723260  58.0493780  74.0242250
  46.0111640  59.2114120  73.7789920  48.5643080  56.7340380  64.1375510
  48.9572650  57.0512580  63.3244200  48.9259930  55.8552260  64.2520030
  40.2990200  55.4012720  72.3275630  39.9053590  56.2487930  72.5348410
  39.6108600  54.7639090  72.5184270  37.6007250  53.3241180  66.3605710
  37.3120300  53.8944040  67.0730690  38.3453010  52.8445630  66.7236940
  37.7877480  57.2661300  57.5708430  37.7052150  58.2092060  57.7123420
  37.4360540  57.1236210  56.6920780  49.1498220  59.3246130  68.2326290
  48.4179340  59.8332940  68.5816390  48.7522560  58.5076110  67.9315070
  45.5875610  56.0000330  66.6378780  45.5911670  55.5590280  65.7883320
  46.4826730  56.3217660  66.7450600  41.4377990  55.8826820  65.5972990
  41.0978040  56.3602050  66.3540040  40.6755310  55.4291940  65.2374090
  45.6495760  57.0012410  59.6285540  45.7708580  56.9598890  60.5771360
  45.2644270  57.8636560  59.4732270  49.6124130  54.7779810  67.6449230
  49.6296870  55.2288460  68.4891080  49.3639710  53.8785450  67.8582670
  44.6617260  59.3113550  59.0268840  44.0934160  58.8631800  58.4004750
  45.3706260  59.6706330  58.4933990  53.0394880  52.1911990  73.4835610
  53.3640650  51.4601650  74.0093590  53.0751390  51.8725630  72.5816600
  39.7386440  63.2125570  72.9035570  39.3541230  62.5719240  73.5018530
  40.0498630  63.9161690  73.4730300  45.8883580  60.0602110  68.3844190
  46.2553710  59.5860680  69.1305530  45.6988640  60.9343680  68.7252530
  38.7524070  54.8045800  64.5137660  38.4670990  54.4401470  65.3516280
  38.6902930  54.0726260  63.9000800  43.6782950  59.1010750  70.7028400
  43.3740020  59.9802730  70.9278760  44.6329410  59.1610540  70.7385840
  42.2064740  63.3071740  61.2995250  41.4327000  62.7669360  61.1393970
  42.9359370  62.7878350  60.9613010  52.9652720  62.3037100  67.0921640
  53.6851840  62.7992390  66.7017750  52.7634540  61.6254990  66.4475510
  48.4262660  53.6975060  61.2351030  47.6127270  53.1988230  61.1596340
  48.2324610  54.5373310  60.8187380  48.3471520  62.3746160  72.9790640
  48.2808830  61.4541830  72.7248230  47.7176660  62.4721600  73.6935280
  51.1411050  58.0694710  59.5313190  52.0290670  58.3811940  59.3564530
  51.1116140  57.1966960  59.1393770  42.2502140  62.9752120  64.9374060
  42.7680810  62.1720380  64.8830950  41.7986160  62.9131260  65.7790890
  47.1371640  64.2418400  60.2101360  47.4787340  64.9860630  59.7144680
  46.3084350  64.5549520  60.5726190  39.7346680  59.9413490  71.8499760
  39.3761620  60.6067340  72.4373100  39.4401240  59.1097040  72.2212380
  42.9359800  60.3997730  74.7339310  42.6359940  60.5454910  73.8367130
  43.7071040  59.8403020  74.6412700  48.2788250  65.1966730  72.7294440
  48.2932790  64.2647690  72.5113350  47.5713350  65.2826490  73.3684210
  53.4125320  59.3806550  58.9993050  53.3289040  59.8120770  58.1489490
  54.1319510  59.8404900  59.4319870  54.4899460  61.8374070  72.0763020
  53.7647650  62.4302850  71.8792410  55.0174920  61.8297610  71.2776390
  54.4412570  66.2348810  61.7275180  53.7988730  65.5804430  62.0018900
  54.0543230  66.6403900  60.9515850  50.0199050  63.5634240  65.5746870
  50.3722870  62.9662370  64.9148240  49.1361380  63.2378470  65.7455120
  46.1062330  64.3231930  62.9817280  46.7933460  64.8701140  63.3624870
  45.3194750  64.8672660  63.0166890  38.2454730  59.9404750  58.4734360
  39.1149580  60.2229550  58.7570280  37.7545050  60.7540620  58.3583170
  45.4089540  61.3277960  62.5942640  45.8652320  62.1383210  62.8202830
  45.0577750  61.0101100  63.4261130  47.7122150  66.8384300  69.8234940
  48.3564370  67.0443680  70.5008360  48.0751590  66.0772700  69.3705790
  41.3101320  51.6715610  63.0665160  41.1815950  51.6633510  64.0150080
  40.4863340  52.0098700  62.7156170  48.9854230  64.8416650  68.5412390
  49.6276460  64.1409810  68.6544560  49.5103580  65.6215090  68.3609280
  52.8309950  65.1265270  58.2651530  52.6047530  64.4095710  58.8576170
  52.4406150  64.8777710  57.4273280  50.7591850  65.6411550  71.7448450
  51.0948090  66.2278240  72.4226370  49.8392190  65.5104260  71.9746240
  38.6125980  69.1532130  59.0395990  38.9723620  69.7521470  58.3853260
  38.4718320  69.6992020  59.8131020  38.3095250  53.4306730  72.5271860
  37.5953770  53.6303650  73.1324470  38.7290290  52.6546300  72.8986660
  52.4126200  63.0437210  59.9265690  52.1247900  63.5049900  60.7143570
  53.2078370  62.5834980  60.1949910  38.5967840  67.4186990  73.5138390
  38.7058960  66.4781730  73.3733780  37.9448400  67.6841740  72.8652120
  44.6294600  66.5363330  59.8569660  44.6204700  67.2693020  59.2414170
  43.7092960  66.2894910  59.9496620  40.2301240  61.7578220  60.6016420
  39.6229190  62.4977120  60.6111720  40.7050590  61.8477580  59.7754620
  49.8034030  55.9229040  70.2773310  50.1714850  55.1024250  70.6052880
  48.9432230  55.9830930  70.6928960  53.1696060  54.8785980  61.0860870
  52.5409220  54.9831650  60.3719100  52.6747980  55.0982760  61.8754750
  47.6154200  66.5991570  58.5194850  47.7166180  66.3955560  57.5896830
  46.7155940  66.3449850  58.7242630  45.1380090  57.1571930  62.5018750
  44.4296240  57.6258270  62.9432360  45.4224570  56.4993940  63.1363940
  46.7636020  58.5768630  70.5011280  47.2621270  59.0514450  71.1663130
  46.9058970  57.6532150  70.7081310  49.1695520  53.8822590  63.9414540
  49.0463300  53.9008720  62.9924050  50.1180080  53.9301530  64.0612940
  46.2572310  69.1177890  63.2142520  46.5113810  69.0799280  62.2921890
  45.3084790  68.9911220  63.2070770  43.3415110  55.4657010  59.8769460
  44.1905640  55.9027160  59.8109650  42.9746380  55.7777270  60.7041520
  53.9702880  54.7936590  71.3439670  53.4676480  55.5341990  71.6833480
  54.7859540  55.1820590  71.0276460  52.2624890  60.0369770  64.7901030
  51.3215030  60.0520000  64.9648720  52.5768960  59.2505730  65.2361330
  42.2406530  61.7189370  58.3504990  43.0069800  61.6070730  58.9130420
  42.3181220  61.0227340  57.6981760  40.9353290  59.1514440  59.0337880
  41.0156880  58.2041950  59.1455280  41.8273040  59.4821320  59.1398540
  54.2650470  67.2078620  66.4655290  54.3897890  68.0309790  66.9379100
  55.1316030  66.9969350  66.1179440  41.7368000  69.3009830  66.1372420
  42.4730480  68.7525290  66.4080990  42.1208920  70.1665840  65.9978410
  38.6213480  65.3683400  62.0113930  37.6953260  65.6104540  62.0019340
  39.0869910  66.1957660  61.8898680  44.8470310  68.4740140  57.9597990
  45.6398920  68.7628970  57.5079780  44.3274660  68.0432310  57.2810470
  51.0091280  68.3216060  73.8842820  51.9613030  68.2374080  73.8343060
  50.8619500  68.9857770  74.5576610  53.9000480  67.7010270  59.3834730
  53.6141990  67.2875410  58.5688910  53.7020030  68.6297980  59.2635250
  38.4624090  60.9729360  74.2694050  38.9663110  60.3936640  74.8410280
  37.7231510  61.2569590  74.8070420  45.3647710  63.6943550  57.8240340
  45.2598350  63.0795900  58.5501720  45.1971930  63.1709440  57.0403350
  45.5162030  62.3800350  73.8029570  44.7507700  62.9485350  73.7184240
  45.6977990  62.0876560  72.9097800  48.6050440  62.7563580  58.4282330
  48.0560540  63.2032880  59.0725070  49.2269700  62.2512830  58.9520000
  52.6585380  64.1105680  74.3604590  53.3994850  64.4481440  73.8572050
  51.8958060  64.2797740  73.8074360  44.2725560  61.7154500  60.3247630
  44.6941980  61.5494370  61.1679020  44.3976400  60.9054730  59.8302770
  42.4352980  57.6951050  73.1318610  41.9049440  57.2042000  72.5041950
  43.1041050  58.1235250  72.5976540  46.7853200  60.7392110  57.5724730
  47.3058860  60.0241130  57.2065880  47.4321600  61.3777980  57.8725240
  51.3331040  62.1620510  72.8959800  51.7472060  62.3165590  73.7450220
  50.3982040  62.2875730  73.0585580  51.8053210  59.5016670  74.8998950
  52.3873980  58.7468990  74.8119430  51.9814980  60.0324110  74.1230430
  42.9225280  54.6613420  73.2115900  42.8282150  54.0434170  72.4866770
  42.3422670  55.3879710  72.9845810  45.6886720  53.2186660  70.2443290
  45.2404020  53.2410920  69.3988840  45.0551920  52.8205680  70.8413590
  46.0946270  62.1140990  70.8655730  46.5134380  62.9573720  70.6931970
  45.1754900  62.2513030  70.6362510  48.4310170  59.8457170  72.2493570
  48.5506380  59.2498310  72.9888410  49.2904170  59.8826860  71.8294870
  50.7698070  60.3994360  70.8256080  50.2433290  60.9236980  70.2221220
  51.1129410  61.0321750  71.4565810  43.1684460  57.7887730  57.2705790
  42.9673520  56.9255090  57.6319130  42.9976510  57.7021090  56.3327390
  43.9453690  68.4194000  71.9813460  43.4074780  69.1440060  71.6622160
  44.1987650  67.9424340  71.1910800  45.1978940  56.3878520  73.5069390
  45.7878630  56.0794370  74.1947210  44.3799180  55.9158270  73.6629290
  50.0172370  56.0044330  73.7402410  49.3287890  55.3425870  73.6752400
  50.7378390  55.5582600  74.1850870  50.6472770  52.5995960  59.7992670
  50.9275060  51.7563860  60.1552090  49.8738500  52.8319070  60.3131420
  41.9667260  54.8888350  57.2583670  42.2693160  54.8955780  56.3502820
  42.7061850  54.5386210  57.7551330  46.8015900  69.6545210  72.2400110
  46.7274600  70.5580350  72.5472480  45.8994740  69.3357110  72.2122180
  45.1852190  53.8322970  58.2439870  44.8374190  53.1546960  57.6642320
  45.3864960  53.3712480  59.0583260  47.3501230  68.8203720  59.8626470
  48.2452020  69.1588690  59.8845230  47.3818860  68.0983130  59.2350750
  40.9897390  64.1930770  58.0913470  41.4272260  64.7360440  58.7471050
  41.4745120  63.3677720  58.1009810  38.2043190  66.9819800  65.5433730
  38.5346200  66.1140860  65.3112370  38.6334190  67.1878320  66.3738690
  42.8005110  65.3128810  63.2035700  42.5000650  65.1893780  64.1039610
  42.6942600  64.4537400  62.7951430  38.6933400  67.8490390  68.2815360
  38.2564390  68.0291190  69.1139510  39.2611080  68.6065010  68.1397080
  54.3295580  67.3507390  72.5692670  53.7297570  67.4099950  71.8256590
  54.4589480  66.4112370  72.6989520  55.5697030  65.0925210  57.9062380
  54.7389990  65.1601860  58.3769610  55.7468860  65.9829330  57.6029240
  55.0253490  61.8372690  60.4096580  55.7872400  62.4069340  60.5156270
  55.0407860  61.2699890  61.1804890  38.5257830  60.3610620  64.6404240
  37.8706670  60.0922260  63.9963940  39.3635780  60.2515100  64.1906220
  56.0313460  62.6922790  65.2538510  56.4022290  61.9090110  64.8474480
  56.6715390  63.3811890  65.0755810  53.0147220  64.0759370  70.6668830
  52.2007060  64.5056530  70.9294620  53.4221420  64.6877780  70.0537880
  55.0772660  62.1307060  57.5669100  55.3521500  63.0385940  57.4388320
  54.8883400  62.0669590  58.5031090  51.4748270  55.1551910  58.8622730
  51.8933150  54.9682890  58.0219390  51.1684330  54.3030960  59.1725660
  54.9738000  60.0676050  62.5598530  54.5981600  59.3003980  62.1279820
  54.2441120  60.4498750  63.0473460  39.5633760  60.7463190  69.1807580
  39.9306800  60.6590590  70.0603600  38.9944580  59.9829740  69.0814440
  54.3637620  59.2147570  72.1938050  54.1323710  58.9860320  71.2936000
  54.6242170  60.1347120  72.1482940  39.1149760  57.6572280  73.0866000
  38.2205810  57.6239040  73.4259710  39.6547310  57.8559070  73.8517250
  37.7395910  57.5709550  60.5829570  36.8359990  57.8339750  60.4081230
  38.2236530  57.8420720  59.8029530  54.2488960  58.2933540  65.8605770
  54.7726440  57.7996190  65.2295940  54.8348380  58.4283900  66.6053340
  54.4278680  58.3773410  69.3825320  53.4781390  58.3436950  69.4970310
  54.6091690  59.2873520  69.1475090  40.2823120  56.6275090  58.4923950
  40.9914820  56.2058310  58.0071230  39.5663060  56.6950320  57.8607300
  39.9297280  52.6814420  57.5326600  40.6525410  53.2223360  57.8507820
  40.2021800  52.4077840  56.6568140  53.7388930  57.5506890  61.7998180
  54.2348050  57.3177760  62.5847060  53.5405000  56.7118730  61.3835820
  39.6189470  51.9320610  67.4349220  40.2665660  51.3817990  66.9944380
  40.0391310  52.1863760  68.2565030  55.1676090  56.1867840  64.3335860
  55.0575370  56.0323880  65.2718130  55.9283680  55.6588780  64.0911270
  53.5141810  52.1261970  70.7918860  54.1514030  52.7396110  71.1578050
  53.6616700  52.1622630  69.8468090  56.0566360  54.0175760  57.5742000
  56.9815670  53.8856940  57.3660290  56.0342150  54.0968580  58.5278450
  56.1304850  54.7886420  60.1998710  55.3356350  54.7231540  60.7291620
  56.3348130  55.7237060  60.1884060  53.0723270  68.8277970  64.1937100
  53.6682340  68.5062540  63.5171520  53.3301420  68.3549790  64.9850370
  39.3721470  52.0876280  70.1774540  39.0236290  52.5440100  70.9432720
  39.0409170  51.1933410  70.2596970  44.6791870  66.8155470  69.9437450
  44.4383230  67.0830030  69.0567970  45.6194510  66.9861200  69.9988310
  46.8846290  53.2788160  73.6993960  46.8235180  53.8709990  74.4489370
  47.8246670  53.1714120  73.5544220  49.5220850  52.9358220  73.3386250
  50.1361260  53.2537510  72.6767330  50.0670410  52.4506810  73.9582110
  55.9396030  68.8349850  70.7448090  55.4454310  69.2318720  70.0275220
  55.3309320  68.2099060  71.1385370  40.0442110  51.6152480  73.4525310
  40.5925100  51.4340530  72.6891420  40.1097420  50.8246590  73.9881620
  40.8173870  68.2058130  71.4625510  40.2234190  68.0742830  72.2015550
  40.8097710  67.3696270  70.9967610  50.2628890  51.4990360  69.6655540
  49.3888730  51.8325470  69.4628470  50.1539640  51.0263540  70.4907410
  51.1700870  53.7061230  71.0497260  50.8414230  52.8912990  70.6698990
  52.1183170  53.6631040  70.9262950  53.6235480  69.4773270  68.0234830
  53.1638450  70.2289080  67.6492850  52.9947940  68.7579740  67.9649630
  40.4486100  65.5716510  70.4133550  39.7220160  64.9521800  70.3459500
  40.5095250  65.9657120  69.5431630  44.0531200  67.7861510  67.1982960
  44.5696220  67.1748870  66.6731220  44.7028580  68.2890290  67.6893970
  46.7926700  68.6770000  68.0251940  47.0804510  68.4224300  67.1484950
  47.3049920  68.1247360  68.6157510  48.0103710  52.4160200  68.6048450
  47.2275500  52.8905700  68.8845210  47.7166640  51.5115030  68.4961630
  52.5624780  53.1183300  66.6497540  53.0032870  53.0628400  65.8019140
  52.2932370  54.0341310  66.7207720  54.4263350  52.7498540  64.6606360
  54.3651750  51.8059760  64.5137380  55.2055380  52.8578630  65.2059820
  38.7316100  68.8890900  63.6230310  38.5638140  68.2561580  64.3212200
  37.8650610  69.0950300  63.2724500  39.3544120  52.7207680  61.1262170
  40.1123480  52.8336560  60.5526200  38.8921290  53.5576880  61.0805600
  45.8957930  54.8346950  64.1164480  45.0832440  54.4603840  63.7760360
  46.3999570  54.0792030  64.4185670  50.3982910  51.4989400  65.3547550
  51.0012280  52.0709610  65.8296070  49.6575900  52.0628840  65.1321450
  53.5417510  51.9010960  60.6287830  53.7368140  52.7994410  60.8955260
  52.7547380  51.6698040  61.1220780  40.3378800  67.5824130  61.0680450
  39.8126420  67.9632160  60.3642410  40.2623380  68.2074900  61.7890160
  41.7269270  53.2471730  59.6664140  42.2562030  52.4601530  59.5372090
  42.3597590  53.9262920  59.8999670  43.9207110  52.9846870  62.7209530
  43.2909850  52.2834180  62.8879660  43.3812250  53.7451000  62.5042690
  55.0944120  69.1411670  62.3894390  55.2696310  68.4549410  61.7455310
  54.3965690  69.6658720  61.9971060  42.9371770  69.5306510  59.9429700
  43.6690590  69.2465790  59.3953590  43.1965440  69.2919790  60.8329080
  42.0986560  65.6471240  59.9476030  41.4695440  66.1156340  60.4961860
  42.2134390  64.8020460  60.3822220  41.7020150  61.7875730  48.8562260
  40.8705030  61.5324440  49.2558770  42.3101130  61.8586500  49.5920180
  41.6821410  65.8215820  49.0520280  41.9849450  64.9313560  48.8730500
  42.4265000  66.3786040  48.8242530  40.1112100  56.7477620  42.6404650
  39.2228800  57.0893590  42.5384530  40.3953290  56.5477940  41.7485480
  38.0745110  59.3483270  48.5244350  38.6461220  58.5805470  48.5247990
  38.0746650  59.6472030  47.6150960  47.9325060  68.1674120  46.3789620
  47.3136500  68.6231620  45.8084060  48.7876840  68.3225580  45.9779320
  39.3169980  54.7567630  50.3113280  39.1372820  53.8593380  50.5916040
  38.9150060  55.3039500  50.9860230  42.2873490  55.3309120  43.6743030
  42.3940240  56.2312850  43.9811790  41.3765850  55.2827090  43.3837680
  39.9356650  57.2528130  48.9195620  40.6166760  57.5166500  49.5383020
  39.6204700  56.4129000  49.2533630  44.1281220  58.2995490  48.0068210
  44.6359440  58.7976460  48.6473230  44.6594460  57.5230690  47.8307570
  56.2292150  56.4700680  51.7097560  55.5244320  56.8582390  51.1912670
  56.4950070  57.1650970  52.3118490  43.6620170  62.5789230  50.4505130
  43.3289550  63.2058150  51.0926200  43.8386850  63.1051110  49.6706800
  42.0932650  54.6504010  50.2802080  42.4349460  55.4946060  49.9855950
  41.1548460  54.7987750  50.3967420  42.8739270  64.5470030  52.2654310
  43.4913270  65.2221110  51.9838760  42.0132390  64.9558010  52.1741810
  53.7916860  66.0109440  50.1808950  53.1080380  66.6808550  50.1725620
  54.3311150  66.2090090  49.4153810  45.7760540  52.1386280  46.6046670
  46.0835520  51.5833170  45.8882170  44.8461240  52.2730740  46.4219660
  51.3275600  67.8553570  48.8954130  51.3402760  67.4515860  48.0276390
  50.7750820  68.6300860  48.7915560  50.7261040  62.7583410  50.2236740
  51.1429830  62.5443520  49.3890200  51.4500860  63.0156200  50.7945360
  54.6723140  61.1570630  50.3152980  53.8441770  61.2263720  49.8403110
  55.2673620  61.7424940  49.8468810  43.7697940  60.7299850  46.1226520
  43.3654940  60.0177100  45.6272420  43.8561060  60.3853090  47.0114560
  44.2379640  64.4167410  48.2865730  43.9407930  63.8112880  47.6073510
  45.1879460  64.4544720  48.1755090  42.4826560  57.5043060  49.9025560
  43.0341150  57.6138400  49.1278810  42.9970070  57.8780660  50.6180790
  52.3265250  67.9899280  51.9488830  51.8495810  68.7971470  51.7561440
  51.6427040  67.3377610  52.1015040  43.3298070  64.1549100  54.9373530
  42.4326600  64.3789070  55.1846930  43.3550940  64.2784040  53.9884930
  42.1569290  61.0262420  53.5130900  42.0177060  61.8985220  53.8818300
  41.2750650  60.6835230  53.3678840  43.9549640  66.9684120  55.7216050
  43.9265070  67.3727070  54.8544480  43.7914610  66.0394480  55.5587650
  40.4702570  59.6244830  43.6233170  40.3500170  60.3506920  43.0114440
  40.1603460  58.8547740  43.1461080  55.9064460  67.7511220  57.0180220
  56.3824180  68.2294110  57.6969300  56.5271620  67.6828710  56.2925720
  38.1087940  62.7959970  49.4301810  38.1868360  62.9308740  48.4857530
  38.7229620  62.0875860  49.6229930  55.3097710  64.9424070  54.1780230
  55.4360770  64.7035950  53.2597410  55.3519090  64.1108610  54.6502310
  49.1714450  68.6452070  52.7475040  49.6859120  68.5560080  53.5497470
  48.3283530  68.9911770  53.0402950  51.1468850  68.9307410  42.1759040
  50.9869990  68.6410350  43.0740870  50.9815560  68.1547540  41.6404270
  43.6257230  68.7105940  43.9530660  43.4499710  67.7941480  43.7398460
  42.7712970  69.0693230  44.1928460  50.8494980  66.4394970  40.7357040
  50.1560140  66.4372260  40.0759320  51.5917840  66.0154290  40.3051210
  50.4144910  68.0657680  44.8105530  50.8701860  67.2847060  45.1244150
  50.7537430  68.7764500  45.3546710  55.1621720  56.9956530  55.1429970
  54.5465990  57.5036200  54.6145430  54.8418140  56.0954860  55.0855910
  38.1647460  63.8374140  51.9696270  38.3278500  63.3679500  51.1515640
  38.6299910  63.3297700  52.6345110  42.9366230  52.9679900  47.0056840
  42.4934380  53.7489440  46.6741360  43.4951220  53.2909790  47.7127780
  47.2236040  55.8348420  52.6092160  46.7615410  56.0431440  53.4212100
  46.8214150  55.0207770  52.3062830  52.2240550  57.0557370  53.7388820
  51.3734140  56.7563120  54.0597890  52.0642340  57.2999380  52.8272640
  49.3190260  58.5559120  55.8387610  49.6443670  57.7222870  55.4989840
  50.1070590  59.0787640  55.9865940  46.0525050  52.5890600  41.8862670
  45.4279230  52.5850470  42.6115980  45.9655170  51.7221560  41.4898640
  44.9742130  53.5127230  48.8646440  45.2714460  54.4190060  48.7838460
  45.5227690  53.0246010  48.2506010  42.7280450  58.0913470  44.7338090
  42.5021370  57.8750640  45.6384710  41.9472980  58.5241930  44.3884060
  45.1679660  58.9899050  55.3998360  45.0723260  58.0493780  55.2498760
  46.0111640  59.2114120  55.0046430  40.2990200  55.4012720  53.5532140
  39.9053590  56.2487930  53.7604920  39.6108600  54.7639090  53.7440780
  46.8735250  55.4847690  56.6228880  46.1833570  55.2919890  57.2574970
  47.6167550  55.7682330  57.1553180  37.6007250  53.3241180  47.5862220
  37.3120300  53.8944040  48.2987200  38.3453010  52.8445630  47.9493450
  37.7877480  57.2661300  38.7964940  37.7052150  58.2092060  38.9379930
  37.4360540  57.1236210  37.9177290  41.4377990  55.8826820  46.8229500
  41.0978040  56.3602050  47.5796550  40.6755310  55.4291940  46.4630600
  53.0394880  52.1911990  54.7092120  53.3640650  51.4601650  55.2350100
  53.0751390  51.8725630  53.8073110  39.7386440  63.2125570  54.1292080
  39.3541230  62.5719240  54.7275040  40.0498630  63.9161690  54.6986810
  45.8883580  60.0602110  49.6100700  46.2553710  59.5860680  50.3562040
  45.6988640  60.9343680  49.9509040  38.7524070  54.8045800  45.7394170
  38.4670990  54.4401470  46.5772790  38.6902930  54.0726260  45.1257310
  43.6782950  59.1010750  51.9284910  43.3740020  59.9802730  52.1535270
  44.6329410  59.1610540  51.9642350  48.3471520  62.3746160  54.2047150
  48.2808830  61.4541830  53.9504740  47.7176660  62.4721600  54.9191790
  42.2502140  62.9752120  46.1630570  42.7680810  62.1720380  46.1087460
  41.7986160  62.9131260  47.0047400  39.7346680  59.9413490  53.0756270
  39.3761620  60.6067340  53.6629610  39.4401240  59.1097040  53.4468890
  42.9359800  60.3997730  55.9595820  42.6359940  60.5454910  55.0623640
  43.7071040  59.8403020  55.8669210  48.2788250  65.1966730  53.9550950
  48.2932790  64.2647690  53.7369860  47.5713350  65.2826490  54.5940720
  54.4899460  61.8374070  53.3019530  53.7647650  62.4302850  53.1048920
  55.0174920  61.8297610  52.5032900  54.4412570  66.2348810  42.9531690
  53.7988730  65.5804430  43.2275410  54.0543230  66.6403900  42.1772360
  38.2454730  59.9404750  39.6990870  39.1149580  60.2229550  39.9826790
  37.7545050  60.7540620  39.5839680  47.7122150  66.8384300  51.0491450
  48.3564370  67.0443680  51.7264870  48.0751590  66.0772700  50.5962300
  41.3101320  51.6715610  44.2921670  41.1815950  51.6633510  45.2406590
  40.4863340  52.0098700  43.9412680  48.9854230  64.8416650  49.7668900
  49.6276460  64.1409810  49.8801070  49.5103580  65.6215090  49.5865790
  52.8309950  65.1265270  39.4908040  52.6047530  64.4095710  40.0832680
  52.4406150  64.8777710  38.6529790  50.7591850  65.6411550  52.9704960
  51.0948090  66.2278240  53.6482880  49.8392190  65.5104260  53.2002750
  38.5967840  67.4186990  54.7394900  38.7058960  66.4781730  54.5990290
  37.9448400  67.6841740  54.0908630  46.5880430  65.6902880  56.1393020
  46.2677300  64.9712120  56.6838710  45.9138790  66.3657950  56.2129080
  45.1380090  57.1571930  43.7275260  44.4296240  57.6258270  44.1688870
  45.4224570  56.4993940  44.3620450  46.7636020  58.5768630  51.7267790
  47.2621270  59.0514450  52.3919640  46.9058970  57.6532150  51.9337820
  46.2572310  69.1177890  44.4399030  46.5113810  69.0799280  43.5178400
  45.3084790  68.9911220  44.4327280  43.3415110  55.4657010  41.1025970
  44.1905640  55.9027160  41.0366160  42.9746380  55.7777270  41.9298030
  53.9702880  54.7936590  52.5696180  53.4676480  55.5341990  52.9089990
  54.7859540  55.1820590  52.2532970  54.2650470  67.2078620  47.6911800
  54.3897890  68.0309790  48.1635610  55.1316030  66.9969350  47.3435950
  41.7368000  69.3009830  47.3628930  42.4730480  68.7525290  47.6337500
  42.1208920  70.1665840  47.2234920  40.7426280  68.4855900  56.5514510
  41.5439010  68.8067950  56.9649910  40.2278100  68.1251480  57.2734420
  49.5790910  64.5935770  56.4989920  48.9729070  64.6167370  55.7585670
  49.2745020  63.8618810  57.0357170  51.0091280  68.3216060  55.1099330
  51.9613030  68.2374080  55.0599570  50.8619500  68.9857770  55.7833120
  53.9000480  67.7010270  40.6091240  53.6141990  67.2875410  39.7945420
  53.7020030  68.6297980  40.4891760  38.4624090  60.9729360  55.4950560
  38.9663110  60.3936640  56.0666790  37.7231510  61.2569590  56.0326930
  45.5162030  62.3800350  55.0286080  44.7507700  62.9485350  54.9440750
  45.6977990  62.0876560  54.1354310  52.6585380  64.1105680  55.5861100
  53.3994850  64.4481440  55.0828560  51.8958060  64.2797740  55.0330870
  40.4947170  59.1158950  56.3900630  40.5352510  58.8172820  57.2985860
  41.3492670  59.5166560  56.2308150  42.4352980  57.6951050  54.3575120
  41.9049440  57.2042000  53.7298460  43.1041050  58.1235250  53.8233050
  51.3331040  62.1620510  54.1216310  51.7472060  62.3165590  54.9706730
  50.3982040  62.2875730  54.2842090  51.8053210  59.5016670  56.1255460
  52.3873980  58.7468990  56.0375940  51.9814980  60.0324110  55.3486940
  42.9225280  54.6613420  54.4372410  42.8282150  54.0434170  53.7123280
  42.3422670  55.3879710  54.2102320  45.6886720  53.2186660  51.4699800
  45.2404020  53.2410920  50.6245350  45.0551920  52.8205680  52.0670100
  46.0946270  62.1140990  52.0912240  46.5134380  62.9573720  51.9188480
  45.1754900  62.2513030  51.8619020  48.4310170  59.8457170  53.4750080
  48.5506380  59.2498310  54.2144920  49.2904170  59.8826860  53.0551380
  50.7698070  60.3994360  52.0512590  50.2433290  60.9236980  51.4477730
  51.1129410  61.0321750  52.6822320  43.9453690  68.4194000  53.2069970
  43.4074780  69.1440060  52.8878670  44.1987650  67.9424340  52.4167310
  45.1978940  56.3878520  54.7325900  45.7878630  56.0794370  55.4203720
  44.3799180  55.9158270  54.8885800  50.0172370  56.0044330  54.9658920
  49.3287890  55.3425870  54.9008910  50.7378390  55.5582600  55.4107380
  41.9667260  54.8888350  38.4840180  42.2693160  54.8955780  37.5759330
  42.7061850  54.5386210  38.9807840  46.8015900  69.6545210  53.4656620
  46.7274600  70.5580350  53.7728990  45.8994740  69.3357110  53.4378690
  45.1852190  53.8322970  39.4696380  44.8374190  53.1546960  38.8898830
  45.3864960  53.3712480  40.2839770  47.3501230  68.8203720  41.0882980
  48.2452020  69.1588690  41.1101740  47.3818860  68.0983130  40.4607260
  54.3295580  67.3507390  53.7949180  53.7297570  67.4099950  53.0513100
  54.4589480  66.4112370  53.9246030  55.5697030  65.0925210  39.1318890
  54.7389990  65.1601860  39.6026120  55.7468860  65.9829330  38.8285750
  38.5257830  60.3610620  45.8660750  37.8706670  60.0922260  45.2220450
  39.3635780  60.2515100  45.4162730  56.0313460  62.6922790  46.4795020
  56.4022290  61.9090110  46.0730990  56.6715390  63.3811890  46.3012320
  53.0147220  64.0759370  51.8925340  52.2007060  64.5056530  52.1551130
  53.4221420  64.6877780  51.2794390  39.5633760  60.7463190  50.4064090
  39.9306800  60.6590590  51.2860110  38.9944580  59.9829740  50.3070950
  54.3637620  59.2147570  53.4194560  54.1323710  58.9860320  52.5192510
  54.6242170  60.1347120  53.3739450  39.1149760  57.6572280  54.3122510
  38.2205810  57.6239040  54.6516220  39.6547310  57.8559070  55.0773760
  52.8025690  54.4404000  56.1974260  53.6795870  54.4487400  56.5808260
  52.8146530  53.7034840  55.5866610  37.7395910  57.5709550  41.8086080
  36.8359990  57.8339750  41.6337740  38.2236530  57.8420720  41.0286040
  54.4278680  58.3773410  50.6081830  53.4781390  58.3436950  50.7226820
  54.6091690  59.2873520  50.3731600  40.2823120  56.6275090  39.7180460
  40.9914820  56.2058310  39.2327740  39.5663060  56.6950320  39.0863810
  39.9297280  52.6814420  38.7583110  40.6525410  53.2223360  39.0764330
  40.2021800  52.4077840  37.8824650  39.6189470  51.9320610  48.6605730
  40.2665660  51.3817990  48.2200890  40.0391310  52.1863760  49.4821540
  53.5141810  52.1261970  52.0175370  54.1514030  52.7396110  52.3834560
  53.6616700  52.1622630  51.0724600  53.0723270  68.8277970  45.4193610
  53.6682340  68.5062540  44.7428030  53.3301420  68.3549790  46.2106880
  40.9785840  65.2595880  55.5684240  40.9355470  64.8888790  56.4498700
  41.1096850  66.1973450  55.7086060  44.6791870  66.8155470  51.1693960
  44.4383230  67.0830030  50.2824480  45.6194510  66.9861200  51.2244820
  46.8846290  53.2788160  54.9250470  46.8235180  53.8709990  55.6745880
  47.8246670  53.1714120  54.7800730  49.5220850  52.9358220  54.5642760
  50.1361260  53.2537510  53.9023840  50.0670410  52.4506810  55.1838620
  55.9396030  68.8349850  51.9704600  55.4454310  69.2318720  51.2531730
  55.3309320  68.2099060  52.3641880  40.8173870  68.2058130  52.6882020
  40.2234190  68.0742830  53.4272060  40.8097710  67.3696270  52.2224120
  50.2628890  51.4990360  50.8912050  49.3888730  51.8325470  50.6884980
  50.1539640  51.0263540  51.7163920  51.1700870  53.7061230  52.2753770
  50.8414230  52.8912990  51.8955500  52.1183170  53.6631040  52.1519460
  53.6235480  69.4773270  49.2491340  53.1638450  70.2289080  48.8749360
  52.9947940  68.7579740  49.1906140  40.4486100  65.5716510  51.6390060
  39.7220160  64.9521800  51.5716010  40.5095250  65.9657120  50.7688140
  44.0531200  67.7861510  48.4239470  44.5696220  67.1748870  47.8987730
  44.7028580  68.2890290  48.9150480  46.7926700  68.6770000  49.2508450
  47.0804510  68.4224300  48.3741460  47.3049920  68.1247360  49.8414020
  48.0103710  52.4160200  49.8304960  47.2275500  52.8905700  50.1101720
  47.7166640  51.5115030  49.7218140  39.3544120  52.7207680  42.3518680
  40.1123480  52.8336560  41.7782710  38.8921290  53.5576880  42.3062110
  45.8957930  54.8346950  45.3420990  45.0832440  54.4603840  45.0016870
  46.3999570  54.0792030  45.6442180  41.7269270  53.2471730  40.8920650
  42.2562030  52.4601530  40.7628600  42.3597590  53.9262920  41.1256180
  43.9207110  52.9846870  43.9466040  43.2909850  52.2834180  44.1136170
  43.3812250  53.7451000  43.7299200  46.8599060  69.5986100  56.6176650
  47.7866370  69.3630370  56.6612610  46.8449490  70.4258100  56.1362680
  55.0944120  69.1411670  43.6150900  55.2696310  68.4549410  42.9711820
  54.3965690  69.6658720  43.2227570  44.0462670  52.2630850  56.3818530
  43.7646940  52.7664450  55.6179350  44.4282370  51.4652600  56.0160660
  50.6478130  51.6784430  56.9599000  50.5343580  51.9979040  57.8550520
  51.4647870  52.0796940  56.6636280  53.4276620  68.8255960  56.4417690
  54.2201940  68.3305190  56.2343650  53.7209770  69.5046100  57.0493300
  49.5536280  59.6976900  27.3233740  49.4730330  58.7831510  27.0525450
  49.1400700  60.1943970  26.6173450  47.6854320  61.4755920  29.2043010
  46.9096420  60.9956360  29.4941580  48.3367250  60.7961570  29.0299170
  41.7020150  61.7875730  30.0818770  40.8705030  61.5324440  30.4815280
  42.3101130  61.8586500  30.8176690  51.7061750  65.8816110  27.9842140
  51.2443280  65.1103350  28.3129310  52.5187300  65.9082180  28.4894590
  40.1112100  56.7477620  23.8661160  39.2228800  57.0893590  23.7641040
  40.3953290  56.5477940  22.9741990  38.0745110  59.3483270  29.7500860
  38.6461220  58.5805470  29.7504500  38.0746650  59.6472030  28.8407470
  47.9325060  68.1674120  27.6046130  47.3136500  68.6231620  27.0340570
  48.7876840  68.3225580  27.2035830  47.1263310  64.1513110  29.2113170
  47.0571590  63.2103050  29.0502300  47.8883170  64.2414520  29.7835740
  39.3169980  54.7567630  31.5369790  39.1372820  53.8593380  31.8172550
  38.9150060  55.3039500  32.2116740  48.1568480  56.9583490  29.4382100
  48.5333300  56.0855370  29.3255770  48.0587990  57.2942190  28.5472540
  42.2873490  55.3309120  24.8999540  42.3940240  56.2312850  25.2068300
  41.3765850  55.2827090  24.6094190  39.9356650  57.2528130  30.1452130
  40.6166760  57.5166500  30.7639530  39.6204700  56.4129000  30.4790140
  44.1281220  58.2995490  29.2324720  44.6359440  58.7976460  29.8729740
  44.6594460  57.5230690  29.0564080  56.2292150  56.4700680  32.9354070
  55.5244320  56.8582390  32.4169180  56.4950070  57.1650970  33.5375000
  42.4117320  52.9394050  33.4988140  42.4135760  53.4566440  32.6934040
  41.5821630  52.4624230  33.4758070  48.7988410  63.0513360  24.9978040
  48.1805680  63.5162810  24.4340760  49.3111660  63.7440840  25.4147550
  43.6620170  62.5789230  31.6761640  43.3289550  63.2058150  32.3182710
  43.8386850  63.1051110  30.8963310  52.1754080  56.3934310  29.1437980
  51.4709650  56.6819200  29.7241090  52.5366240  57.2034420  28.7837540
  42.0932650  54.6504010  31.5058590  42.4349460  55.4946060  31.2112460
  41.1548460  54.7987750  31.6223930  53.7916860  66.0109440  31.4065460
  53.1080380  66.6808550  31.3982130  54.3311150  66.2090090  30.6410320
  55.2441000  55.8389100  29.5347190  54.2965910  55.8728080  29.6662620
  55.5690990  56.6528050  29.9196550  45.7760540  52.1386280  27.8303180
  46.0835520  51.5833170  27.1138680  44.8461240  52.2730740  27.6476170
  51.3275600  67.8553570  30.1210640  51.3402760  67.4515860  29.2532900
  50.7750820  68.6300860  30.0172070  52.6221020  64.5769790  25.2100810
  52.5117350  63.6344120  25.3350230  52.6189270  64.9385430  26.0963570
  50.7261040  62.7583410  31.4493250  51.1429830  62.5443520  30.6146710
  51.4500860  63.0156200  32.0201870  48.1641300  60.2035110  24.5663300
  47.2370580  60.1372490  24.7951770  48.3166120  61.1415240  24.4518540
  48.1510380  56.4752110  21.5630460  47.2114050  56.6366070  21.6482920
  48.4693640  57.1937790  21.0166450  54.6723140  61.1570630  31.5409490
  53.8441770  61.2263720  31.0659620  55.2673620  61.7424940  31.0725320
  52.1938590  61.7655410  25.0698550  51.5751010  61.4274960  24.4224850
  52.1763040  61.1215170  25.7777740  51.6365150  57.9439950  32.4864360
  51.2236330  58.7693660  32.7404350  50.9041100  57.3584990  32.2940720
  43.7697940  60.7299850  27.3483030  43.3654940  60.0177100  26.8528930
  43.8561060  60.3853090  28.2371070  44.2379640  64.4167410  29.5122240
  43.9407930  63.8112880  28.8330020  45.1879460  64.4544720  29.4011600
  42.4826560  57.5043060  31.1282070  43.0341150  57.6138400  30.3535320
  42.9970070  57.8780660  31.8437300  52.3265250  67.9899280  33.1745340
  51.8495810  68.7971470  32.9817950  51.6427040  67.3377610  33.3271550
  50.3703290  61.0042220  22.0771300  50.8096570  60.1664650  21.9309120
  51.0831710  61.6371620  22.1635440  48.4798670  65.9438290  26.0452540
  48.9194580  66.6862620  25.6307930  48.4185560  66.1864860  26.9691500
  53.9520430  52.2585030  20.3912340  53.6393090  52.3511860  21.2911410
  54.7132900  52.8366060  20.3409770  40.4702570  59.6244830  24.8489680
  40.3500170  60.3506920  24.2370950  40.1603460  58.8547740  24.3717590
  55.9064460  67.7511220  38.2436730  56.3824180  68.2294110  38.9225810
  56.5271620  67.6828710  37.5182230  55.3097710  64.9424070  35.4036740
  55.4360770  64.7035950  34.4853920  55.3519090  64.1108610  35.8758820
  49.1714450  68.6452070  33.9731550  49.6859120  68.5560080  34.7753980
  48.3283530  68.9911770  34.2659460  51.1468850  68.9307410  23.4015550
  50.9869990  68.6410350  24.2997380  50.9815560  68.1547540  22.8660780
  43.6257230  68.7105940  25.1787170  43.4499710  67.7941480  24.9654970
  42.7712970  69.0693230  25.4184970  50.8494980  66.4394970  21.9613550
  50.1560140  66.4372260  21.3015830  51.5917840  66.0154290  21.5307720
  50.4144910  68.0657680  26.0362040  50.8701860  67.2847060  26.3500660
  50.7537430  68.7764500  26.5803220  55.1621720  56.9956530  36.3686480
  54.5465990  57.5036200  35.8401940  54.8418140  56.0954860  36.3112420
  42.9366230  52.9679900  28.2313350  42.4934380  53.7489440  27.8997870
  43.4951220  53.2909790  28.9384290  47.2236040  55.8348420  33.8348670
  46.7615410  56.0431440  34.6468610  46.8214150  55.0207770  33.5319340
  52.2240550  57.0557370  34.9645330  51.3734140  56.7563120  35.2854400
  52.0642340  57.2999380  34.0529150  46.0525050  52.5890600  23.1119180
  45.4279230  52.5850470  23.8372490  45.9655170  51.7221560  22.7155150
  44.9742130  53.5127230  30.0902950  45.2714460  54.4190060  30.0094970
  45.5227690  53.0246010  29.4762520  42.7280450  58.0913470  25.9594600
  42.5021370  57.8750640  26.8641220  41.9472980  58.5241930  25.6140570
  40.2990200  55.4012720  34.7788650  39.9053590  56.2487930  34.9861430
  39.6108600  54.7639090  34.9697290  37.6007250  53.3241180  28.8118730
  37.3120300  53.8944040  29.5243710  38.3453010  52.8445630  29.1749960
  37.7877480  57.2661300  20.0221450  37.7052150  58.2092060  20.1636440
  37.4360540  57.1236210  19.1433800  49.1498220  59.3246130  30.6839310
  48.4179340  59.8332940  31.0329410  48.7522560  58.5076110  30.3828090
  45.5875610  56.0000330  29.0891800  45.5911670  55.5590280  28.2396340
  46.4826730  56.3217660  29.1963620  41.4377990  55.8826820  28.0486010
  41.0978040  56.3602050  28.8053060  40.6755310  55.4291940  27.6887110
  45.6495760  57.0012410  22.0798560  45.7708580  56.9598890  23.0284380
  45.2644270  57.8636560  21.9245290  49.6124130  54.7779810  30.0962250
  49.6296870  55.2288460  30.9404100  49.3639710  53.8785450  30.3095690
  44.6617260  59.3113550  21.4781860  44.0934160  58.8631800  20.8517770
  45.3706260  59.6706330  20.9447010  45.8883580  60.0602110  30.8357210
  46.2553710  59.5860680  31.5818550  45.6988640  60.9343680  31.1765550
  38.7524070  54.8045800  26.9650680  38.4670990  54.4401470  27.8029300
  38.6902930  54.0726260  26.3513820  43.6782950  59.1010750  33.1541420
  43.3740020  59.9802730  33.3791780  44.6329410  59.1610540  33.1898860
  52.9652720  62.3037100  29.5434660  53.6851840  62.7992390  29.1530770
  52.7634540  61.6254990  28.8988530  42.2502140  62.9752120  27.3887080
  42.7680810  62.1720380  27.3343970  41.7986160  62.9131260  28.2303910
  47.1371640  64.2418400  22.6614380  47.4787340  64.9860630  22.1657700
  46.3084350  64.5549520  23.0239210  53.4125320  59.3806550  21.4506070
  53.3289040  59.8120770  20.6002510  54.1319510  59.8404900  21.8832890
  54.4899460  61.8374070  34.5276040  53.7647650  62.4302850  34.3305430
  55.0174920  61.8297610  33.7289410  54.4412570  66.2348810  24.1788200
  53.7988730  65.5804430  24.4531920  54.0543230  66.6403900  23.4028870
  50.0199050  63.5634240  28.0259890  50.3722870  62.9662370  27.3661260
  49.1361380  63.2378470  28.1968140  46.1062330  64.3231930  25.4330300
  46.7933460  64.8701140  25.8137890  45.3194750  64.8672660  25.4679910
  38.2454730  59.9404750  20.9247380  39.1149580  60.2229550  21.2083300
  37.7545050  60.7540620  20.8096190  45.4089540  61.3277960  25.0455660
  45.8652320  62.1383210  25.2715850  45.0577750  61.0101100  25.8774150
  47.7122150  66.8384300  32.2747960  48.3564370  67.0443680  32.9521380
  48.0751590  66.0772700  31.8218810  41.3101320  51.6715610  25.5178180
  41.1815950  51.6633510  26.4663100  40.4863340  52.0098700  25.1669190
  48.9854230  64.8416650  30.9925410  49.6276460  64.1409810  31.1057580
  49.5103580  65.6215090  30.8122300  52.8309950  65.1265270  20.7164550
  52.6047530  64.4095710  21.3089190  52.4406150  64.8777710  19.8786300
  50.7591850  65.6411550  34.1961470  51.0948090  66.2278240  34.8739390
  49.8392190  65.5104260  34.4259260  38.3095250  53.4306730  34.9784880
  37.5953770  53.6303650  35.5837490  38.7290290  52.6546300  35.3499680
  52.4126200  63.0437210  22.3778710  52.1247900  63.5049900  23.1656590
  53.2078370  62.5834980  22.6462930  49.8034030  55.9229040  32.7286330
  50.1714850  55.1024250  33.0565900  48.9432230  55.9830930  33.1441980
  47.6154200  66.5991570  20.9707870  47.7166180  66.3955560  20.0409850
  46.7155940  66.3449850  21.1755650  45.1380090  57.1571930  24.9531770
  44.4296240  57.6258270  25.3945380  45.4224570  56.4993940  25.5876960
  46.2572310  69.1177890  25.6655540  46.5113810  69.0799280  24.7434910
  45.3084790  68.9911220  25.6583790  43.3415110  55.4657010  22.3282480
  44.1905640  55.9027160  22.2622670  42.9746380  55.7777270  23.1554540
  53.9702880  54.7936590  33.7952690  53.4676480  55.5341990  34.1346500
  54.7859540  55.1820590  33.4789480  42.2406530  61.7189370  20.8018010
  43.0069800  61.6070730  21.3643440  42.3181220  61.0227340  20.1494780
  40.9353290  59.1514440  21.4850900  41.0156880  58.2041950  21.5968300
  41.8273040  59.4821320  21.5911560  54.2650470  67.2078620  28.9168310
  54.3897890  68.0309790  29.3892120  55.1316030  66.9969350  28.5692460
  41.7368000  69.3009830  28.5885440  42.4730480  68.7525290  28.8594010
  42.1208920  70.1665840  28.4491430  51.0091280  68.3216060  36.3355840
  51.9613030  68.2374080  36.2856080  50.8619500  68.9857770  37.0089630
  53.9000480  67.7010270  21.8347750  53.6141990  67.2875410  21.0201930
  53.7020030  68.6297980  21.7148270  45.3647710  63.6943550  20.2753360
  45.2598350  63.0795900  21.0014740  45.1971930  63.1709440  19.4916370
  48.6050440  62.7563580  20.8795350  48.0560540  63.2032880  21.5238090
  49.2269700  62.2512830  21.4033020  52.6585380  64.1105680  36.8117610
  53.3994850  64.4481440  36.3085070  51.8958060  64.2797740  36.2587380
  44.2725560  61.7154500  22.7760650  44.6941980  61.5494370  23.6192040
  44.3976400  60.9054730  22.2815790  46.7853200  60.7392110  20.0237750
  47.3058860  60.0241130  19.6578900  47.4321600  61.3777980  20.3238260
  42.9225280  54.6613420  35.6628920  42.8282150  54.0434170  34.9379790
  42.3422670  55.3879710  35.4358830  45.6886720  53.2186660  32.6956310
  45.2404020  53.2410920  31.8501860  45.0551920  52.8205680  33.2926610
  43.1684460  57.7887730  19.7218810  42.9673520  56.9255090  20.0832150
  42.9976510  57.7021090  18.7840410  41.9667260  54.8888350  19.7096690
  42.2693160  54.8955780  18.8015840  42.7061850  54.5386210  20.2064350
  46.8015900  69.6545210  34.6913130  46.7274600  70.5580350  34.9985500
  45.8994740  69.3357110  34.6635200  45.1852190  53.8322970  20.6952890
  44.8374190  53.1546960  20.1155340  45.3864960  53.3712480  21.5096280
  47.3501230  68.8203720  22.3139490  48.2452020  69.1588690  22.3358250
  47.3818860  68.0983130  21.6863770  54.3295580  67.3507390  35.0205690
  53.7297570  67.4099950  34.2769610  54.4589480  66.4112370  35.1502540
  55.5697030  65.0925210  20.3575400  54.7389990  65.1601860  20.8282630
  55.7468860  65.9829330  20.0542260  55.0253490  61.8372690  22.8609600
  55.7872400  62.4069340  22.9669290  55.0407860  61.2699890  23.6317910
  38.5257830  60.3610620  27.0917260  37.8706670  60.0922260  26.4476960
  39.3635780  60.2515100  26.6419240  56.0313460  62.6922790  27.7051530
  56.4022290  61.9090110  27.2987500  56.6715390  63.3811890  27.5268830
  53.0147220  64.0759370  33.1181850  52.2007060  64.5056530  33.3807640
  53.4221420  64.6877780  32.5050900  55.0772660  62.1307060  20.0182120
  55.3521500  63.0385940  19.8901340  54.8883400  62.0669590  20.9544110
  51.4748270  55.1551910  21.3135750  51.8933150  54.9682890  20.4732410
  51.1684330  54.3030960  21.6238680  39.5633760  60.7463190  31.6320600
  39.9306800  60.6590590  32.5116620  38.9944580  59.9829740  31.5327460
  54.3637620  59.2147570  34.6451070  54.1323710  58.9860320  33.7449020
  54.6242170  60.1347120  34.5995960  39.1149760  57.6572280  35.5379020
  38.2205810  57.6239040  35.8772730  39.6547310  57.8559070  36.3030270
  37.7395910  57.5709550  23.0342590  36.8359990  57.8339750  22.8594250
  38.2236530  57.8420720  22.2542550  54.4278680  58.3773410  31.8338340
  53.4781390  58.3436950  31.9483330  54.6091690  59.2873520  31.5988110
  40.2823120  56.6275090  20.9436970  40.9914820  56.2058310  20.4584250
  39.5663060  56.6950320  20.3120320  39.9297280  52.6814420  19.9839620
  40.6525410  53.2223360  20.3020840  40.2021800  52.4077840  19.1081160
  39.6189470  51.9320610  29.8862240  40.2665660  51.3817990  29.4457400
  40.0391310  52.1863760  30.7078050  53.5141810  52.1261970  33.2431880
  54.1514030  52.7396110  33.6091070  53.6616700  52.1622630  32.2981110
  56.0566360  54.0175760  20.0255020  56.9815670  53.8856940  19.8173310
  56.0342150  54.0968580  20.9791470  53.0723270  68.8277970  26.6450120
  53.6682340  68.5062540  25.9684540  53.3301420  68.3549790  27.4363390
  39.3721470  52.0876280  32.6287560  39.0236290  52.5440100  33.3945740
  39.0409170  51.1933410  32.7109990  46.8846290  53.2788160  36.1506980
  46.8235180  53.8709990  36.9002390  47.8246670  53.1714120  36.0057240
  49.5220850  52.9358220  35.7899270  50.1361260  53.2537510  35.1280350
  50.0670410  52.4506810  36.4095130  55.9396030  68.8349850  33.1961110
  55.4454310  69.2318720  32.4788240  55.3309320  68.2099060  33.5898390
  40.0442110  51.6152480  35.9038330  40.5925100  51.4340530  35.1404440
  40.1097420  50.8246590  36.4394640  50.2628890  51.4990360  32.1168560
  49.3888730  51.8325470  31.9141490  50.1539640  51.0263540  32.9420430
  51.1700870  53.7061230  33.5010280  50.8414230  52.8912990  33.1212010
  52.1183170  53.6631040  33.3775970  53.6235480  69.4773270  30.4747850
  53.1638450  70.2289080  30.1005870  52.9947940  68.7579740  30.4162650
  44.0531200  67.7861510  29.6495980  44.5696220  67.1748870  29.1244240
  44.7028580  68.2890290  30.1406990  46.7926700  68.6770000  30.4764960
  47.0804510  68.4224300  29.5997970  47.3049920  68.1247360  31.0670530
  48.0103710  52.4160200  31.0561470  47.2275500  52.8905700  31.3358230
  47.7166640  51.5115030  30.9474650  52.5624780  53.1183300  29.1010560
  53.0032870  53.0628400  28.2532160  52.2932370  54.0341310  29.1720740
  39.3544120  52.7207680  23.5775190  40.1123480  52.8336560  23.0039220
  38.8921290  53.5576880  23.5318620  50.3982910  51.4989400  27.8060570
  51.0012280  52.0709610  28.2809090  49.6575900  52.0628840  27.5834470
  41.7269270  53.2471730  22.1177160  42.2562030  52.4601530  21.9885110
  42.3597590  53.9262920  22.3512690  43.9207110  52.9846870  25.1722550
  43.2909850  52.2834180  25.3392680  43.3812250  53.7451000  24.9555710
  46.8599060  69.5986100  37.8433160  47.7866370  69.3630370  37.8869120
  46.8449490  70.4258100  37.3619190  55.0944120  69.1411670  24.8407410
  55.2696310  68.4549410  24.1968330  54.3965690  69.6658720  24.4484080
  44.0462670  52.2630850  37.6075040  43.7646940  52.7664450  36.8435860
  44.4282370  51.4652600  37.2417170  50.6478130  51.6784430  38.1855510
  50.5343580  51.9979040  39.0807030  51.4647870  52.0796940  37.8892790
  53.4276620  68.8255960  37.6674200  54.2201940  68.3305190  37.4600160
  53.7209770  69.5046100  38.2749810  49.5536280  59.6976900   8.5490250
  49.4730330  58.7831510   8.2781960  49.1400700  60.1943970   7.8429960
  47.6854320  61.4755920  10.4299520  46.9096420  60.9956360  10.7198090
  48.3367250  60.7961570  10.2555680  41.7020150  61.7875730  11.3075280
  40.8705030  61.5324440  11.7071790  42.3101130  61.8586500  12.0433200
  51.7061750  65.8816110   9.2098650  51.2443280  65.1103350   9.5385820
  52.5187300  65.9082180   9.7151100  41.6821410  65.8215820  11.5033300
  41.9849450  64.9313560  11.3243520  42.4265000  66.3786040  11.2755550
  40.1112100  56.7477620   5.0917670  39.2228800  57.0893590   4.9897550
  40.3953290  56.5477940   4.1998500  38.0745110  59.3483270  10.9757370
  38.6461220  58.5805470  10.9761010  38.0746650  59.6472030  10.0663980
  47.9325060  68.1674120   8.8302640  47.3136500  68.6231620   8.2597080
  48.7876840  68.3225580   8.4292340  47.1263310  64.1513110  10.4369680
  47.0571590  63.2103050  10.2758810  47.8883170  64.2414520  11.0092250
  39.3169980  54.7567630  12.7626300  39.1372820  53.8593380  13.0429060
  38.9150060  55.3039500  13.4373250  48.1568480  56.9583490  10.6638610
  48.5333300  56.0855370  10.5512280  48.0587990  57.2942190   9.7729050
  42.2873490  55.3309120   6.1256050  42.3940240  56.2312850   6.4324810
  41.3765850  55.2827090   5.8350700  51.9392600  54.4533930   7.5966950
  52.7602220  53.9630500   7.6392430  51.9726680  55.0431590   8.3498790
  39.9356650  57.2528130  11.3708640  40.6166760  57.5166500  11.9896040
  39.6204700  56.4129000  11.7046650  44.1281220  58.2995490  10.4581230
  44.6359440  58.7976460  11.0986250  44.6594460  57.5230690  10.2820590
  56.2292150  56.4700680  14.1610580  55.5244320  56.8582390  13.6425690
  56.4950070  57.1650970  14.7631510  42.4117320  52.9394050  14.7244650
  42.4135760  53.4566440  13.9190550  41.5821630  52.4624230  14.7014580
  48.7988410  63.0513360   6.2234550  48.1805680  63.5162810   5.6597270
  49.3111660  63.7440840   6.6404060  43.6620170  62.5789230  12.9018150
  43.3289550  63.2058150  13.5439220  43.8386850  63.1051110  12.1219820
  52.1754080  56.3934310  10.3694490  51.4709650  56.6819200  10.9497600
  52.5366240  57.2034420  10.0094050  42.0932650  54.6504010  12.7315100
  42.4349460  55.4946060  12.4368970  41.1548460  54.7987750  12.8480440
  42.8739270  64.5470030  14.7167330  43.4913270  65.2221110  14.4351780
  42.0132390  64.9558010  14.6254830  38.1671610  63.7369890   3.5974180
  37.7899590  64.2256990   2.8659080  38.4244680  64.4095170   4.2280710
  53.7916860  66.0109440  12.6321970  53.1080380  66.6808550  12.6238640
  54.3311150  66.2090090  11.8666830  55.2441000  55.8389100  10.7603700
  54.2965910  55.8728080  10.8919130  55.5690990  56.6528050  11.1453060
  45.7760540  52.1386280   9.0559690  46.0835520  51.5833170   8.3395190
  44.8461240  52.2730740   8.8732680  51.3275600  67.8553570  11.3467150
  51.3402760  67.4515860  10.4789410  50.7750820  68.6300860  11.2428580
  52.6221020  64.5769790   6.4357320  52.5117350  63.6344120   6.5606740
  52.6189270  64.9385430   7.3220080  50.7261040  62.7583410  12.6749760
  51.1429830  62.5443520  11.8403220  51.4500860  63.0156200  13.2458380
  48.1641300  60.2035110   5.7919810  47.2370580  60.1372490   6.0208280
  48.3166120  61.1415240   5.6775050  48.1510380  56.4752110   2.7886970
  47.2114050  56.6366070   2.8739430  48.4693640  57.1937790   2.2422960
  54.6723140  61.1570630  12.7666000  53.8441770  61.2263720  12.2916130
  55.2673620  61.7424940  12.2981830  52.1938590  61.7655410   6.2955060
  51.5751010  61.4274960   5.6481360  52.1763040  61.1215170   7.0034250
  51.6365150  57.9439950  13.7120870  51.2236330  58.7693660  13.9660860
  50.9041100  57.3584990  13.5197230  43.7697940  60.7299850   8.5739540
  43.3654940  60.0177100   8.0785440  43.8561060  60.3853090   9.4627580
  44.2379640  64.4167410  10.7378750  43.9407930  63.8112880  10.0586530
  45.1879460  64.4544720  10.6268110  42.4826560  57.5043060  12.3538580
  43.0341150  57.6138400  11.5791830  42.9970070  57.8780660  13.0693810
  52.3265250  67.9899280  14.4001850  51.8495810  68.7971470  14.2074460
  51.6427040  67.3377610  14.5528060  43.3298070  64.1549100  17.3886550
  42.4326600  64.3789070  17.6359950  43.3550940  64.2784040  16.4397950
  50.3703290  61.0042220   3.3027810  50.8096570  60.1664650   3.1565630
  51.0831710  61.6371620   3.3891950  42.1569290  61.0262420  15.9643920
  42.0177060  61.8985220  16.3331320  41.2750650  60.6835230  15.8191860
  48.4798670  65.9438290   7.2709050  48.9194580  66.6862620   6.8564440
  48.4185560  66.1864860   8.1948010  40.4702570  59.6244830   6.0746190
  40.3500170  60.3506920   5.4627460  40.1603460  58.8547740   5.5974100
  55.9064460  67.7511220  19.4693240  56.3824180  68.2294110  20.1482320
  56.5271620  67.6828710  18.7438740  38.1087940  62.7959970  11.8814830
  38.1868360  62.9308740  10.9370550  38.7229620  62.0875860  12.0742950
  39.3535570  64.4960160   8.2921010  38.9463650  64.6374750   7.4374610
  40.2448580  64.2120320   8.0892220  55.3097710  64.9424070  16.6293250
  55.4360770  64.7035950  15.7110430  55.3519090  64.1108610  17.1015330
  49.1714450  68.6452070  15.1988060  49.6859120  68.5560080  16.0010490
  48.3283530  68.9911770  15.4915970  51.1468850  68.9307410   4.6272060
  50.9869990  68.6410350   5.5253890  50.9815560  68.1547540   4.0917290
  43.6257230  68.7105940   6.4043680  43.4499710  67.7941480   6.1911480
  42.7712970  69.0693230   6.6441480  50.8494980  66.4394970   3.1870060
  50.1560140  66.4372260   2.5272340  51.5917840  66.0154290   2.7564230
  50.4144910  68.0657680   7.2618550  50.8701860  67.2847060   7.5757170
  50.7537430  68.7764500   7.8059730  55.1621720  56.9956530  17.5942990
  54.5465990  57.5036200  17.0658450  54.8418140  56.0954860  17.5368930
  38.1647460  63.8374140  14.4209290  38.3278500  63.3679500  13.6028660
  38.6299910  63.3297700  15.0858130  42.9366230  52.9679900   9.4569860
  42.4934380  53.7489440   9.1254380  43.4951220  53.2909790  10.1640800
  47.2236040  55.8348420  15.0605180  46.7615410  56.0431440  15.8725120
  46.8214150  55.0207770  14.7575850  52.2240550  57.0557370  16.1901840
  51.3734140  56.7563120  16.5110910  52.0642340  57.2999380  15.2785660
  49.3190260  58.5559120  18.2900630  49.6443670  57.7222870  17.9502860
  50.1070590  59.0787640  18.4378960  46.0525050  52.5890600   4.3375690
  45.4279230  52.5850470   5.0629000  45.9655170  51.7221560   3.9411660
  44.9742130  53.5127230  11.3159460  45.2714460  54.4190060  11.2351480
  45.5227690  53.0246010  10.7019030  42.7280450  58.0913470   7.1851110
  42.5021370  57.8750640   8.0897730  41.9472980  58.5241930   6.8397080
  49.9578210  58.0976840   5.7841760  49.3587100  58.8212640   5.6005380
  50.5057820  58.0353620   5.0018210  45.1679660  58.9899050  17.8511380
  45.0723260  58.0493780  17.7011780  46.0111640  59.2114120  17.4559450
  48.5643080  56.7340380   7.8145040  48.9572650  57.0512580   7.0013730
  48.9259930  55.8552260   7.9289560  40.2990200  55.4012720  16.0045160
  39.9053590  56.2487930  16.2117940  39.6108600  54.7639090  16.1953800
  46.8735250  55.4847690  19.0741900  46.1833570  55.2919890  19.7087990
  47.6167550  55.7682330  19.6066200  37.6007250  53.3241180  10.0375240
  37.3120300  53.8944040  10.7500220  38.3453010  52.8445630  10.4006470
  49.1498220  59.3246130  11.9095820  48.4179340  59.8332940  12.2585920
  48.7522560  58.5076110  11.6084600  45.5875610  56.0000330  10.3148310
  45.5911670  55.5590280   9.4652850  46.4826730  56.3217660  10.4220130
  41.4377990  55.8826820   9.2742520  41.0978040  56.3602050  10.0309570
  40.6755310  55.4291940   8.9143620  45.6495760  57.0012410   3.3055070
  45.7708580  56.9598890   4.2540890  45.2644270  57.8636560   3.1501800
  49.6124130  54.7779810  11.3218760  49.6296870  55.2288460  12.1660610
  49.3639710  53.8785450  11.5352200  44.6617260  59.3113550   2.7038370
  44.0934160  58.8631800   2.0774280  45.3706260  59.6706330   2.1703520
  53.0394880  52.1911990  17.1605140  53.3640650  51.4601650  17.6863120
  53.0751390  51.8725630  16.2586130  39.7386440  63.2125570  16.5805100
  39.3541230  62.5719240  17.1788060  40.0498630  63.9161690  17.1499830
  45.8883580  60.0602110  12.0613720  46.2553710  59.5860680  12.8075060
  45.6988640  60.9343680  12.4022060  38.7524070  54.8045800   8.1907190
  38.4670990  54.4401470   9.0285810  38.6902930  54.0726260   7.5770330
  43.6782950  59.1010750  14.3797930  43.3740020  59.9802730  14.6048290
  44.6329410  59.1610540  14.4155370  42.2064740  63.3071740   4.9764780
  41.4327000  62.7669360   4.8163500  42.9359370  62.7878350   4.6382540
  52.9652720  62.3037100  10.7691170  53.6851840  62.7992390  10.3787280
  52.7634540  61.6254990  10.1245040  48.4262660  53.6975060   4.9120560
  47.6127270  53.1988230   4.8365870  48.2324610  54.5373310   4.4956910
  48.3471520  62.3746160  16.6560170  48.2808830  61.4541830  16.4017760
  47.7176660  62.4721600  17.3704810  51.1411050  58.0694710   3.2082720
  52.0290670  58.3811940   3.0334060  51.1116140  57.1966960   2.8163300
  42.2502140  62.9752120   8.6143590  42.7680810  62.1720380   8.5600480
  41.7986160  62.9131260   9.4560420  47.1371640  64.2418400   3.8870890
  47.4787340  64.9860630   3.3914210  46.3084350  64.5549520   4.2495720
  39.7346680  59.9413490  15.5269290  39.3761620  60.6067340  16.1142630
  39.4401240  59.1097040  15.8981910  42.9359800  60.3997730  18.4108840
  42.6359940  60.5454910  17.5136660  43.7071040  59.8403020  18.3182230
  48.2788250  65.1966730  16.4063970  48.2932790  64.2647690  16.1882880
  47.5713350  65.2826490  17.0453740  53.4125320  59.3806550   2.6762580
  53.3289040  59.8120770   1.8259020  54.1319510  59.8404900   3.1089400
  54.4899460  61.8374070  15.7532550  53.7647650  62.4302850  15.5561940
  55.0174920  61.8297610  14.9545920  54.4412570  66.2348810   5.4044710
  53.7988730  65.5804430   5.6788430  54.0543230  66.6403900   4.6285380
  50.0199050  63.5634240   9.2516400  50.3722870  62.9662370   8.5917770
  49.1361380  63.2378470   9.4224650  46.1062330  64.3231930   6.6586810
  46.7933460  64.8701140   7.0394400  45.3194750  64.8672660   6.6936420
  38.2454730  59.9404750   2.1503890  39.1149580  60.2229550   2.4339810
  37.7545050  60.7540620   2.0352700  45.4089540  61.3277960   6.2712170
  45.8652320  62.1383210   6.4972360  45.0577750  61.0101100   7.1030660
  47.7122150  66.8384300  13.5004470  48.3564370  67.0443680  14.1777890
  48.0751590  66.0772700  13.0475320  41.3101320  51.6715610   6.7434690
  41.1815950  51.6633510   7.6919610  40.4863340  52.0098700   6.3925700
  48.9854230  64.8416650  12.2181920  49.6276460  64.1409810  12.3314090
  49.5103580  65.6215090  12.0378810  50.7591850  65.6411550  15.4217980
  51.0948090  66.2278240  16.0995900  49.8392190  65.5104260  15.6515770
  38.6125980  69.1532130   2.7165520  38.9723620  69.7521470   2.0622790
  38.4718320  69.6992020   3.4900550  38.3095250  53.4306730  16.2041390
  37.5953770  53.6303650  16.8094000  38.7290290  52.6546300  16.5756190
  52.4126200  63.0437210   3.6035220  52.1247900  63.5049900   4.3913100
  53.2078370  62.5834980   3.8719440  46.5880430  65.6902880  18.5906040
  46.2677300  64.9712120  19.1351730  45.9138790  66.3657950  18.6642100
  44.6294600  66.5363330   3.5339190  44.6204700  67.2693020   2.9183700
  43.7092960  66.2894910   3.6266150  40.2301240  61.7578220   4.2785950
  39.6229190  62.4977120   4.2881250  40.7050590  61.8477580   3.4524150
  49.8034030  55.9229040  13.9542840  50.1714850  55.1024250  14.2822410
  48.9432230  55.9830930  14.3698490  53.1696060  54.8785980   4.7630400
  52.5409220  54.9831650   4.0488630  52.6747980  55.0982760   5.5524280
  45.1380090  57.1571930   6.1788280  44.4296240  57.6258270   6.6201890
  45.4224570  56.4993940   6.8133470  46.7636020  58.5768630  14.1780810
  47.2621270  59.0514450  14.8432660  46.9058970  57.6532150  14.3850840
  49.1695520  53.8822590   7.6184070  49.0463300  53.9008720   6.6693580
  50.1180080  53.9301530   7.7382470  46.2572310  69.1177890   6.8912050
  46.5113810  69.0799280   5.9691420  45.3084790  68.9911220   6.8840300
  43.3415110  55.4657010   3.5538990  44.1905640  55.9027160   3.4879180
  42.9746380  55.7777270   4.3811050  53.9702880  54.7936590  15.0209200
  53.4676480  55.5341990  15.3603010  54.7859540  55.1820590  14.7045990
  52.2624890  60.0369770   8.4670560  51.3215030  60.0520000   8.6418250
  52.5768960  59.2505730   8.9130860  40.9353290  59.1514440   2.7107410
  41.0156880  58.2041950   2.8224810  41.8273040  59.4821320   2.8168070
  54.2650470  67.2078620  10.1424820  54.3897890  68.0309790  10.6148630
  55.1316030  66.9969350   9.7948970  41.7368000  69.3009830   9.8141950
  42.4730480  68.7525290  10.0850520  42.1208920  70.1665840   9.6747940
  38.6213480  65.3683400   5.6883460  37.6953260  65.6104540   5.6788870
  39.0869910  66.1957660   5.5668210  49.5790910  64.5935770  18.9502940
  48.9729070  64.6167370  18.2098690  49.2745020  63.8618810  19.4870190
  51.0091280  68.3216060  17.5612350  51.9613030  68.2374080  17.5112590
  50.8619500  68.9857770  18.2346140  53.9000480  67.7010270   3.0604260
  53.6141990  67.2875410   2.2458440  53.7020030  68.6297980   2.9404780
  38.4624090  60.9729360  17.9463580  38.9663110  60.3936640  18.5179810
  37.7231510  61.2569590  18.4839950  45.5162030  62.3800350  17.4799100
  44.7507700  62.9485350  17.3953770  45.6977990  62.0876560  16.5867330
  48.6050440  62.7563580   2.1051860  48.0560540  63.2032880   2.7494600
  49.2269700  62.2512830   2.6289530  52.6585380  64.1105680  18.0374120
  53.3994850  64.4481440  17.5341580  51.8958060  64.2797740  17.4843890
  40.4947170  59.1158950  18.8413650  40.5352510  58.8172820  19.7498880
  41.3492670  59.5166560  18.6821170  44.2725560  61.7154500   4.0017160
  44.6941980  61.5494370   4.8448550  44.3976400  60.9054730   3.5072300
  42.4352980  57.6951050  16.8088140  41.9049440  57.2042000  16.1811480
  43.1041050  58.1235250  16.2746070  51.3331040  62.1620510  16.5729330
  51.7472060  62.3165590  17.4219750  50.3982040  62.2875730  16.7355110
  51.8053210  59.5016670  18.5768480  52.3873980  58.7468990  18.4888960
  51.9814980  60.0324110  17.7999960  42.9225280  54.6613420  16.8885430
  42.8282150  54.0434170  16.1636300  42.3422670  55.3879710  16.6615340
  45.6886720  53.2186660  13.9212820  45.2404020  53.2410920  13.0758370
  45.0551920  52.8205680  14.5183120  46.0946270  62.1140990  14.5425260
  46.5134380  62.9573720  14.3701500  45.1754900  62.2513030  14.3132040
  48.4310170  59.8457170  15.9263100  48.5506380  59.2498310  16.6657940
  49.2904170  59.8826860  15.5064400  50.7698070  60.3994360  14.5025610
  50.2433290  60.9236980  13.8990750  51.1129410  61.0321750  15.1335340
  43.9453690  68.4194000  15.6582990  43.4074780  69.1440060  15.3391690
  44.1987650  67.9424340  14.8680330  45.1978940  56.3878520  17.1838920
  45.7878630  56.0794370  17.8716740  44.3799180  55.9158270  17.3398820
  50.0172370  56.0044330  17.4171940  49.3287890  55.3425870  17.3521930
  50.7378390  55.5582600  17.8620400  50.6472770  52.5995960   3.4762200
  50.9275060  51.7563860   3.8321620  49.8738500  52.8319070   3.9900950
  46.8015900  69.6545210  15.9169640  46.7274600  70.5580350  16.2242010
  45.8994740  69.3357110  15.8891710  47.3501230  68.8203720   3.5396000
  48.2452020  69.1588690   3.5614760  47.3818860  68.0983130   2.9120280
  40.9897390  64.1930770   1.7683000  41.4272260  64.7360440   2.4240580
  41.4745120  63.3677720   1.7779340  38.2043190  66.9819800   9.2203260
  38.5346200  66.1140860   8.9881900  38.6334190  67.1878320  10.0508220
  42.8005110  65.3128810   6.8805230  42.5000650  65.1893780   7.7809140
  42.6942600  64.4537400   6.4720960  38.6933400  67.8490390  11.9584890
  38.2564390  68.0291190  12.7909040  39.2611080  68.6065010  11.8166610
  54.3295580  67.3507390  16.2462200  53.7297570  67.4099950  15.5026120
  54.4589480  66.4112370  16.3759050  55.0253490  61.8372690   4.0866110
  55.7872400  62.4069340   4.1925800  55.0407860  61.2699890   4.8574420
  38.5257830  60.3610620   8.3173770  37.8706670  60.0922260   7.6733470
  39.3635780  60.2515100   7.8675750  56.0313460  62.6922790   8.9308040
  56.4022290  61.9090110   8.5244010  56.6715390  63.3811890   8.7525340
  53.0147220  64.0759370  14.3438360  52.2007060  64.5056530  14.6064150
  53.4221420  64.6877780  13.7307410  51.4748270  55.1551910   2.5392260
  51.8933150  54.9682890   1.6988920  51.1684330  54.3030960   2.8495190
  54.9738000  60.0676050   6.2368060  54.5981600  59.3003980   5.8049350
  54.2441120  60.4498750   6.7242990  39.5633760  60.7463190  12.8577110
  39.9306800  60.6590590  13.7373130  38.9944580  59.9829740  12.7583970
  54.3637620  59.2147570  15.8707580  54.1323710  58.9860320  14.9705530
  54.6242170  60.1347120  15.8252470  39.1149760  57.6572280  16.7635530
  38.2205810  57.6239040  17.1029240  39.6547310  57.8559070  17.5286780
  52.8025690  54.4404000  18.6487280  53.6795870  54.4487400  19.0321280
  52.8146530  53.7034840  18.0379630  37.7395910  57.5709550   4.2599100
  36.8359990  57.8339750   4.0850760  38.2236530  57.8420720   3.4799060
  54.2488960  58.2933540   9.5375300  54.7726440  57.7996190   8.9065470
  54.8348380  58.4283900  10.2822870  54.4278680  58.3773410  13.0594850
  53.4781390  58.3436950  13.1739840  54.6091690  59.2873520  12.8244620
  53.7388930  57.5506890   5.4767710  54.2348050  57.3177760   6.2616590
  53.5405000  56.7118730   5.0605350  39.6189470  51.9320610  11.1118750
  40.2665660  51.3817990  10.6713910  40.0391310  52.1863760  11.9334560
  55.1676090  56.1867840   8.0105390  55.0575370  56.0323880   8.9487660
  55.9283680  55.6588780   7.7680800  53.5141810  52.1261970  14.4688390
  54.1514030  52.7396110  14.8347580  53.6616700  52.1622630  13.5237620
  56.1304850  54.7886420   3.8768240  55.3356350  54.7231540   4.4061150
  56.3348130  55.7237060   3.8653590  53.0723270  68.8277970   7.8706630
  53.6682340  68.5062540   7.1941050  53.3301420  68.3549790   8.6619900
  39.3721470  52.0876280  13.8544070  39.0236290  52.5440100  14.6202250
  39.0409170  51.1933410  13.9366500  44.6791870  66.8155470  13.6206980
  44.4383230  67.0830030  12.7337500  45.6194510  66.9861200  13.6757840
  46.8846290  53.2788160  17.3763490  46.8235180  53.8709990  18.1258900
  47.8246670  53.1714120  17.2313750  49.5220850  52.9358220  17.0155780
  50.1361260  53.2537510  16.3536860  50.0670410  52.4506810  17.6351640
  55.9396030  68.8349850  14.4217620  55.4454310  69.2318720  13.7044750
  55.3309320  68.2099060  14.8154900  40.0442110  51.6152480  17.1294840
  40.5925100  51.4340530  16.3660950  40.1097420  50.8246590  17.6651150
  40.8173870  68.2058130  15.1395040  40.2234190  68.0742830  15.8785080
  40.8097710  67.3696270  14.6737140  50.2628890  51.4990360  13.3425070
  49.3888730  51.8325470  13.1398000  50.1539640  51.0263540  14.1676940
  51.1700870  53.7061230  14.7266790  50.8414230  52.8912990  14.3468520
  52.1183170  53.6631040  14.6032480  53.6235480  69.4773270  11.7004360
  53.1638450  70.2289080  11.3262380  52.9947940  68.7579740  11.6419160
  40.4486100  65.5716510  14.0903080  39.7220160  64.9521800  14.0229030
  40.5095250  65.9657120  13.2201160  44.0531200  67.7861510  10.8752490
  44.5696220  67.1748870  10.3500750  44.7028580  68.2890290  11.3663500
  46.7926700  68.6770000  11.7021470  47.0804510  68.4224300  10.8254480
  47.3049920  68.1247360  12.2927040  48.0103710  52.4160200  12.2817980
  47.2275500  52.8905700  12.5614740  47.7166640  51.5115030  12.1731160
  52.5624780  53.1183300  10.3267070  53.0032870  53.0628400   9.4788670
  52.2932370  54.0341310  10.3977250  54.4263350  52.7498540   8.3375890
  54.3651750  51.8059760   8.1906910  55.2055380  52.8578630   8.8829350
  38.7316100  68.8890900   7.2999840  38.5638140  68.2561580   7.9981730
  37.8650610  69.0950300   6.9494030  39.3544120  52.7207680   4.8031700
  40.1123480  52.8336560   4.2295730  38.8921290  53.5576880   4.7575130
  45.8957930  54.8346950   7.7934010  45.0832440  54.4603840   7.4529890
  46.3999570  54.0792030   8.0955200  50.3982910  51.4989400   9.0317080
  51.0012280  52.0709610   9.5065600  49.6575900  52.0628840   8.8090980
  53.5417510  51.9010960   4.3057360  53.7368140  52.7994410   4.5724790
  52.7547380  51.6698040   4.7990310  40.3378800  67.5824130   4.7449980
  39.8126420  67.9632160   4.0411940  40.2623380  68.2074900   5.4659690
  41.7269270  53.2471730   3.3433670  42.2562030  52.4601530   3.2141620
  42.3597590  53.9262920   3.5769200  43.9207110  52.9846870   6.3979060
  43.2909850  52.2834180   6.5649190  43.3812250  53.7451000   6.1812220
  46.8599060  69.5986100  19.0689670  47.7866370  69.3630370  19.1125630
  46.8449490  70.4258100  18.5875700  55.0944120  69.1411670   6.0663920
  55.2696310  68.4549410   5.4224840  54.3965690  69.6658720   5.6740590
  44.0462670  52.2630850  18.8331550  43.7646940  52.7664450  18.0692370
  44.4282370  51.4652600  18.4673680  42.9371770  69.5306510   3.6199230
  43.6690590  69.2465790   3.0723120  43.1965440  69.2919790   4.5098610
  42.0986560  65.6471240   3.6245560  41.4695440  66.1156340   4.1731390
  42.2134390  64.8020460   4.0591750  50.6478130  51.6784430  19.4112020
  50.5343580  51.9979040  20.3063540  51.4647870  52.0796940  19.1149300
  53.4276620  68.8255960  18.8930710  54.2201940  68.3305190  18.6856670
  53.7209770  69.5046100  19.5006320  49.5536280  40.9233410  64.8720720
  49.4730330  40.0088020  64.6012430  49.1400700  41.4200480  64.1660430
  47.6854320  42.7012430  66.7529990  46.9096420  42.2212870  67.0428560
  48.3367250  42.0218080  66.5786150  41.7020150  43.0132240  67.6305750
  40.8705030  42.7580950  68.0302260  42.3101130  43.0843010  68.3663670
  51.7061750  47.1072620  65.5329120  51.2443280  46.3359860  65.8616290
  52.5187300  47.1338690  66.0381570  41.6821410  47.0472330  67.8263770
  41.9849450  46.1570070  67.6473990  42.4265000  47.6042550  67.5986020
  40.1112100  37.9734130  61.4148140  39.2228800  38.3150100  61.3128020
  40.3953290  37.7734450  60.5228970  38.0745110  40.5739780  67.2987840
  38.6461220  39.8061980  67.2991480  38.0746650  40.8728540  66.3894450
  47.9325060  49.3930630  65.1533110  47.3136500  49.8488130  64.5827550
  48.7876840  49.5482090  64.7522810  47.1263310  45.3769620  66.7600150
  47.0571590  44.4359560  66.5989280  47.8883170  45.4671030  67.3322720
  39.3169980  35.9824140  69.0856770  39.1372820  35.0849890  69.3659530
  38.9150060  36.5296010  69.7603720  48.1568480  38.1840000  66.9869080
  48.5333300  37.3111880  66.8742750  48.0587990  38.5198700  66.0959520
  42.2873490  36.5565630  62.4486520  42.3940240  37.4569360  62.7555280
  41.3765850  36.5083600  62.1581170  51.9392600  35.6790440  63.9197420
  52.7602220  35.1887010  63.9622900  51.9726680  36.2688100  64.6729260
  39.9356650  38.4784640  67.6939110  40.6166760  38.7423010  68.3126510
  39.6204700  37.6385510  68.0277120  44.1281220  39.5252000  66.7811700
  44.6359440  40.0232970  67.4216720  44.6594460  38.7487200  66.6051060
  56.2292150  37.6957190  70.4841050  55.5244320  38.0838900  69.9656160
  56.4950070  38.3907480  71.0861980  42.4117320  34.1650560  71.0475120
  42.4135760  34.6822950  70.2421020  41.5821630  33.6880740  71.0245050
  48.7988410  44.2769870  62.5465020  48.1805680  44.7419320  61.9827740
  49.3111660  44.9697350  62.9634530  43.6620170  43.8045740  69.2248620
  43.3289550  44.4314660  69.8669690  43.8386850  44.3307620  68.4450290
  52.1754080  37.6190820  66.6924960  51.4709650  37.9075710  67.2728070
  52.5366240  38.4290930  66.3324520  42.0932650  35.8760520  69.0545570
  42.4349460  36.7202570  68.7599440  41.1548460  36.0244260  69.1710910
  42.8739270  45.7726540  71.0397800  43.4913270  46.4477620  70.7582250
  42.0132390  46.1814520  70.9485300  38.1671610  44.9626400  59.9204650
  37.7899590  45.4513500  59.1889550  38.4244680  45.6351680  60.5511180
  53.7916860  47.2365950  68.9552440  53.1080380  47.9065060  68.9469110
  54.3311150  47.4346600  68.1897300  55.2441000  37.0645610  67.0834170
  54.2965910  37.0984590  67.2149600  55.5690990  37.8784560  67.4683530
  45.7760540  33.3642790  65.3790160  46.0835520  32.8089680  64.6625660
  44.8461240  33.4987250  65.1963150  51.3275600  49.0810080  67.6697620
  51.3402760  48.6772370  66.8019880  50.7750820  49.8557370  67.5659050
  52.6221020  45.8026300  62.7587790  52.5117350  44.8600630  62.8837210
  52.6189270  46.1641940  63.6450550  50.7261040  43.9839920  68.9980230
  51.1429830  43.7700030  68.1633690  51.4500860  44.2412710  69.5688850
  48.1641300  41.4291620  62.1150280  47.2370580  41.3629000  62.3438750
  48.3166120  42.3671750  62.0005520  48.1510380  37.7008620  59.1117440
  47.2114050  37.8622580  59.1969900  48.4693640  38.4194300  58.5653430
  54.6723140  42.3827140  69.0896470  53.8441770  42.4520230  68.6146600
  55.2673620  42.9681450  68.6212300  52.1938590  42.9911920  62.6185530
  51.5751010  42.6531470  61.9711830  52.1763040  42.3471680  63.3264720
  51.6365150  39.1696460  70.0351340  51.2236330  39.9950170  70.2891330
  50.9041100  38.5841500  69.8427700  43.7697940  41.9556360  64.8970010
  43.3654940  41.2433610  64.4015910  43.8561060  41.6109600  65.7858050
  44.2379640  45.6423920  67.0609220  43.9407930  45.0369390  66.3817000
  45.1879460  45.6801230  66.9498580  42.4826560  38.7299570  68.6769050
  43.0341150  38.8394910  67.9022300  42.9970070  39.1037170  69.3924280
  52.3265250  49.2155790  70.7232320  51.8495810  50.0227980  70.5304930
  51.6427040  48.5634120  70.8758530  43.3298070  45.3805610  73.7117020
  42.4326600  45.6045580  73.9590420  43.3550940  45.5040550  72.7628420
  50.3703290  42.2298730  59.6258280  50.8096570  41.3921160  59.4796100
  51.0831710  42.8628130  59.7122420  42.1569290  42.2518930  72.2874390
  42.0177060  43.1241730  72.6561790  41.2750650  41.9091740  72.1422330
  48.4798670  47.1694800  63.5939520  48.9194580  47.9119130  63.1794910
  48.4185560  47.4121370  64.5178480  43.9549640  48.1940630  74.4959540
  43.9265070  48.5983580  73.6287970  43.7914610  47.2650990  74.3331140
  53.9520430  33.4841540  57.9399320  53.6393090  33.5768370  58.8398390
  54.7132900  34.0622570  57.8896750  40.4702570  40.8501340  62.3976660
  40.3500170  41.5763430  61.7857930  40.1603460  40.0804250  61.9204570
  38.1087940  44.0216480  68.2045300  38.1868360  44.1565250  67.2601020
  38.7229620  43.3132370  68.3973420  39.3535570  45.7216670  64.6151480
  38.9463650  45.8631260  63.7605080  40.2448580  45.4376830  64.4122690
  55.3097710  46.1680580  72.9523720  55.4360770  45.9292460  72.0340900
  55.3519090  45.3365120  73.4245800  49.1714450  49.8708580  71.5218530
  49.6859120  49.7816590  72.3240960  48.3283530  50.2168280  71.8146440
  51.1468850  50.1563920  60.9502530  50.9869990  49.8666860  61.8484360
  50.9815560  49.3804050  60.4147760  43.6257230  49.9362450  62.7274150
  43.4499710  49.0197990  62.5141950  42.7712970  50.2949740  62.9671950
  50.8494980  47.6651480  59.5100530  50.1560140  47.6628770  58.8502810
  51.5917840  47.2410800  59.0794700  50.4144910  49.2914190  63.5849020
  50.8701860  48.5103570  63.8987640  50.7537430  50.0021010  64.1290200
  55.1621720  38.2213040  73.9173460  54.5465990  38.7292710  73.3888920
  54.8418140  37.3211370  73.8599400  38.1647460  45.0630650  70.7439760
  38.3278500  44.5936010  69.9259130  38.6299910  44.5554210  71.4088600
  42.9366230  34.1936410  65.7800330  42.4934380  34.9745950  65.4484850
  43.4951220  34.5166300  66.4871270  47.2236040  37.0604930  71.3835650
  46.7615410  37.2687950  72.1955590  46.8214150  36.2464280  71.0806320
  52.2240550  38.2813880  72.5132310  51.3734140  37.9819630  72.8341380
  52.0642340  38.5255890  71.6016130  49.3190260  39.7815630  74.6131100
  49.6443670  38.9479380  74.2733330  50.1070590  40.3044150  74.7609430
  46.0525050  33.8147110  60.6606160  45.4279230  33.8106980  61.3859470
  45.9655170  32.9478070  60.2642130  44.9742130  34.7383740  67.6389930
  45.2714460  35.6446570  67.5581950  45.5227690  34.2502520  67.0249500
  42.7280450  39.3169980  63.5081580  42.5021370  39.1007150  64.4128200
  41.9472980  39.7498440  63.1627550  49.9578210  39.3233350  62.1072230
  49.3587100  40.0469150  61.9235850  50.5057820  39.2610130  61.3248680
  45.1679660  40.2155560  74.1741850  45.0723260  39.2750290  74.0242250
  46.0111640  40.4370630  73.7789920  48.5643080  37.9596890  64.1375510
  48.9572650  38.2769090  63.3244200  48.9259930  37.0808770  64.2520030
  40.2990200  36.6269230  72.3275630  39.9053590  37.4744440  72.5348410
  39.6108600  35.9895600  72.5184270  37.6007250  34.5497690  66.3605710
  37.3120300  35.1200550  67.0730690  38.3453010  34.0702140  66.7236940
  37.7877480  38.4917810  57.5708430  37.7052150  39.4348570  57.7123420
  37.4360540  38.3492720  56.6920780  49.1498220  40.5502640  68.2326290
  48.4179340  41.0589450  68.5816390  48.7522560  39.7332620  67.9315070
  45.5875610  37.2256840  66.6378780  45.5911670  36.7846790  65.7883320
  46.4826730  37.5474170  66.7450600  41.4377990  37.1083330  65.5972990
  41.0978040  37.5858560  66.3540040  40.6755310  36.6548450  65.2374090
  45.6495760  38.2268920  59.6285540  45.7708580  38.1855400  60.5771360
  45.2644270  39.0893070  59.4732270  49.6124130  36.0036320  67.6449230
  49.6296870  36.4544970  68.4891080  49.3639710  35.1041960  67.8582670
  44.6617260  40.5370060  59.0268840  44.0934160  40.0888310  58.4004750
  45.3706260  40.8962840  58.4933990  53.0394880  33.4168500  73.4835610
  53.3640650  32.6858160  74.0093590  53.0751390  33.0982140  72.5816600
  39.7386440  44.4382080  72.9035570  39.3541230  43.7975750  73.5018530
  40.0498630  45.1418200  73.4730300  45.8883580  41.2858620  68.3844190
  46.2553710  40.8117190  69.1305530  45.6988640  42.1600190  68.7252530
  38.7524070  36.0302310  64.5137660  38.4670990  35.6657980  65.3516280
  38.6902930  35.2982770  63.9000800  43.6782950  40.3267260  70.7028400
  43.3740020  41.2059240  70.9278760  44.6329410  40.3867050  70.7385840
  42.2064740  44.5328250  61.2995250  41.4327000  43.9925870  61.1393970
  42.9359370  44.0134860  60.9613010  52.9652720  43.5293610  67.0921640
  53.6851840  44.0248900  66.7017750  52.7634540  42.8511500  66.4475510
  48.4262660  34.9231570  61.2351030  47.6127270  34.4244740  61.1596340
  48.2324610  35.7629820  60.8187380  48.3471520  43.6002670  72.9790640
  48.2808830  42.6798340  72.7248230  47.7176660  43.6978110  73.6935280
  51.1411050  39.2951220  59.5313190  52.0290670  39.6068450  59.3564530
  51.1116140  38.4223470  59.1393770  42.2502140  44.2008630  64.9374060
  42.7680810  43.3976890  64.8830950  41.7986160  44.1387770  65.7790890
  47.1371640  45.4674910  60.2101360  47.4787340  46.2117140  59.7144680
  46.3084350  45.7806030  60.5726190  39.7346680  41.1670000  71.8499760
  39.3761620  41.8323850  72.4373100  39.4401240  40.3353550  72.2212380
  42.9359800  41.6254240  74.7339310  42.6359940  41.7711420  73.8367130
  43.7071040  41.0659530  74.6412700  48.2788250  46.4223240  72.7294440
  48.2932790  45.4904200  72.5113350  47.5713350  46.5083000  73.3684210
  53.4125320  40.6063060  58.9993050  53.3289040  41.0377280  58.1489490
  54.1319510  41.0661410  59.4319870  54.4899460  43.0630580  72.0763020
  53.7647650  43.6559360  71.8792410  55.0174920  43.0554120  71.2776390
  54.4412570  47.4605320  61.7275180  53.7988730  46.8060940  62.0018900
  54.0543230  47.8660410  60.9515850  50.0199050  44.7890750  65.5746870
  50.3722870  44.1918880  64.9148240  49.1361380  44.4634980  65.7455120
  46.1062330  45.5488440  62.9817280  46.7933460  46.0957650  63.3624870
  45.3194750  46.0929170  63.0166890  38.2454730  41.1661260  58.4734360
  39.1149580  41.4486060  58.7570280  37.7545050  41.9797130  58.3583170
  45.4089540  42.5534470  62.5942640  45.8652320  43.3639720  62.8202830
  45.0577750  42.2357610  63.4261130  47.7122150  48.0640810  69.8234940
  48.3564370  48.2700190  70.5008360  48.0751590  47.3029210  69.3705790
  41.3101320  32.8972120  63.0665160  41.1815950  32.8890020  64.0150080
  40.4863340  33.2355210  62.7156170  48.9854230  46.0673160  68.5412390
  49.6276460  45.3666320  68.6544560  49.5103580  46.8471600  68.3609280
  52.8309950  46.3521780  58.2651530  52.6047530  45.6352220  58.8576170
  52.4406150  46.1034220  57.4273280  50.7591850  46.8668060  71.7448450
  51.0948090  47.4534750  72.4226370  49.8392190  46.7360770  71.9746240
  38.6125980  50.3788640  59.0395990  38.9723620  50.9777980  58.3853260
  38.4718320  50.9248530  59.8131020  38.3095250  34.6563240  72.5271860
  37.5953770  34.8560160  73.1324470  38.7290290  33.8802810  72.8986660
  52.4126200  44.2693720  59.9265690  52.1247900  44.7306410  60.7143570
  53.2078370  43.8091490  60.1949910  38.5967840  48.6443500  73.5138390
  38.7058960  47.7038240  73.3733780  37.9448400  48.9098250  72.8652120
  44.6294600  47.7619840  59.8569660  44.6204700  48.4949530  59.2414170
  43.7092960  47.5151420  59.9496620  40.2301240  42.9834730  60.6016420
  39.6229190  43.7233630  60.6111720  40.7050590  43.0734090  59.7754620
  49.8034030  37.1485550  70.2773310  50.1714850  36.3280760  70.6052880
  48.9432230  37.2087440  70.6928960  53.1696060  36.1042490  61.0860870
  52.5409220  36.2088160  60.3719100  52.6747980  36.3239270  61.8754750
  47.6154200  47.8248080  58.5194850  47.7166180  47.6212070  57.5896830
  46.7155940  47.5706360  58.7242630  45.1380090  38.3828440  62.5018750
  44.4296240  38.8514780  62.9432360  45.4224570  37.7250450  63.1363940
  46.7636020  39.8025140  70.5011280  47.2621270  40.2770960  71.1663130
  46.9058970  38.8788660  70.7081310  49.1695520  35.1079100  63.9414540
  49.0463300  35.1265230  62.9924050  50.1180080  35.1558040  64.0612940
  46.2572310  50.3434400  63.2142520  46.5113810  50.3055790  62.2921890
  45.3084790  50.2167730  63.2070770  43.3415110  36.6913520  59.8769460
  44.1905640  37.1283670  59.8109650  42.9746380  37.0033780  60.7041520
  53.9702880  36.0193100  71.3439670  53.4676480  36.7598500  71.6833480
  54.7859540  36.4077100  71.0276460  52.2624890  41.2626280  64.7901030
  51.3215030  41.2776510  64.9648720  52.5768960  40.4762240  65.2361330
  42.2406530  42.9445880  58.3504990  43.0069800  42.8327240  58.9130420
  42.3181220  42.2483850  57.6981760  40.9353290  40.3770950  59.0337880
  41.0156880  39.4298460  59.1455280  41.8273040  40.7077830  59.1398540
  54.2650470  48.4335130  66.4655290  54.3897890  49.2566300  66.9379100
  55.1316030  48.2225860  66.1179440  41.7368000  50.5266340  66.1372420
  42.4730480  49.9781800  66.4080990  42.1208920  51.3922350  65.9978410
  38.6213480  46.5939910  62.0113930  37.6953260  46.8361050  62.0019340
  39.0869910  47.4214170  61.8898680  44.8470310  49.6996650  57.9597990
  45.6398920  49.9885480  57.5079780  44.3274660  49.2688820  57.2810470
  51.0091280  49.5472570  73.8842820  51.9613030  49.4630590  73.8343060
  50.8619500  50.2114280  74.5576610  53.9000480  48.9266780  59.3834730
  53.6141990  48.5131920  58.5688910  53.7020030  49.8554490  59.2635250
  38.4624090  42.1985870  74.2694050  38.9663110  41.6193150  74.8410280
  37.7231510  42.4826100  74.8070420  45.3647710  44.9200060  57.8240340
  45.2598350  44.3052410  58.5501720  45.1971930  44.3965950  57.0403350
  45.5162030  43.6056860  73.8029570  44.7507700  44.1741860  73.7184240
  45.6977990  43.3133070  72.9097800  48.6050440  43.9820090  58.4282330
  48.0560540  44.4289390  59.0725070  49.2269700  43.4769340  58.9520000
  52.6585380  45.3362190  74.3604590  53.3994850  45.6737950  73.8572050
  51.8958060  45.5054250  73.8074360  44.2725560  42.9411010  60.3247630
  44.6941980  42.7750880  61.1679020  44.3976400  42.1311240  59.8302770
  42.4352980  38.9207560  73.1318610  41.9049440  38.4298510  72.5041950
  43.1041050  39.3491760  72.5976540  46.7853200  41.9648620  57.5724730
  47.3058860  41.2497640  57.2065880  47.4321600  42.6034490  57.8725240
  51.3331040  43.3877020  72.8959800  51.7472060  43.5422100  73.7450220
  50.3982040  43.5132240  73.0585580  51.8053210  40.7273180  74.8998950
  52.3873980  39.9725500  74.8119430  51.9814980  41.2580620  74.1230430
  42.9225280  35.8869930  73.2115900  42.8282150  35.2690680  72.4866770
  42.3422670  36.6136220  72.9845810  45.6886720  34.4443170  70.2443290
  45.2404020  34.4667430  69.3988840  45.0551920  34.0462190  70.8413590
  46.0946270  43.3397500  70.8655730  46.5134380  44.1830230  70.6931970
  45.1754900  43.4769540  70.6362510  48.4310170  41.0713680  72.2493570
  48.5506380  40.4754820  72.9888410  49.2904170  41.1083370  71.8294870
  50.7698070  41.6250870  70.8256080  50.2433290  42.1493490  70.2221220
  51.1129410  42.2578260  71.4565810  43.1684460  39.0144240  57.2705790
  42.9673520  38.1511600  57.6319130  42.9976510  38.9277600  56.3327390
  43.9453690  49.6450510  71.9813460  43.4074780  50.3696570  71.6622160
  44.1987650  49.1680850  71.1910800  45.1978940  37.6135030  73.5069390
  45.7878630  37.3050880  74.1947210  44.3799180  37.1414780  73.6629290
  50.0172370  37.2300840  73.7402410  49.3287890  36.5682380  73.6752400
  50.7378390  36.7839110  74.1850870  50.6472770  33.8252470  59.7992670
  50.9275060  32.9820370  60.1552090  49.8738500  34.0575580  60.3131420
  41.9667260  36.1144860  57.2583670  42.2693160  36.1212290  56.3502820
  42.7061850  35.7642720  57.7551330  46.8015900  50.8801720  72.2400110
  46.7274600  51.7836860  72.5472480  45.8994740  50.5613620  72.2122180
  45.1852190  35.0579480  58.2439870  44.8374190  34.3803470  57.6642320
  45.3864960  34.5968990  59.0583260  47.3501230  50.0460230  59.8626470
  48.2452020  50.3845200  59.8845230  47.3818860  49.3239640  59.2350750
  40.9897390  45.4187280  58.0913470  41.4272260  45.9616950  58.7471050
  41.4745120  44.5934230  58.1009810  38.2043190  48.2076310  65.5433730
  38.5346200  47.3397370  65.3112370  38.6334190  48.4134830  66.3738690
  42.8005110  46.5385320  63.2035700  42.5000650  46.4150290  64.1039610
  42.6942600  45.6793910  62.7951430  38.6933400  49.0746900  68.2815360
  38.2564390  49.2547700  69.1139510  39.2611080  49.8321520  68.1397080
  54.3295580  48.5763900  72.5692670  53.7297570  48.6356460  71.8256590
  54.4589480  47.6368880  72.6989520  55.5697030  46.3181720  57.9062380
  54.7389990  46.3858370  58.3769610  55.7468860  47.2085840  57.6029240
  55.0253490  43.0629200  60.4096580  55.7872400  43.6325850  60.5156270
  55.0407860  42.4956400  61.1804890  38.5257830  41.5867130  64.6404240
  37.8706670  41.3178770  63.9963940  39.3635780  41.4771610  64.1906220
  56.0313460  43.9179300  65.2538510  56.4022290  43.1346620  64.8474480
  56.6715390  44.6068400  65.0755810  53.0147220  45.3015880  70.6668830
  52.2007060  45.7313040  70.9294620  53.4221420  45.9134290  70.0537880
  55.0772660  43.3563570  57.5669100  55.3521500  44.2642450  57.4388320
  54.8883400  43.2926100  58.5031090  51.4748270  36.3808420  58.8622730
  51.8933150  36.1939400  58.0219390  51.1684330  35.5287470  59.1725660
  54.9738000  41.2932560  62.5598530  54.5981600  40.5260490  62.1279820
  54.2441120  41.6755260  63.0473460  39.5633760  41.9719700  69.1807580
  39.9306800  41.8847100  70.0603600  38.9944580  41.2086250  69.0814440
  54.3637620  40.4404080  72.1938050  54.1323710  40.2116830  71.2936000
  54.6242170  41.3603630  72.1482940  39.1149760  38.8828790  73.0866000
  38.2205810  38.8495550  73.4259710  39.6547310  39.0815580  73.8517250
  37.7395910  38.7966060  60.5829570  36.8359990  39.0596260  60.4081230
  38.2236530  39.0677230  59.8029530  54.2488960  39.5190050  65.8605770
  54.7726440  39.0252700  65.2295940  54.8348380  39.6540410  66.6053340
  54.4278680  39.6029920  69.3825320  53.4781390  39.5693460  69.4970310
  54.6091690  40.5130030  69.1475090  40.2823120  37.8531600  58.4923950
  40.9914820  37.4314820  58.0071230  39.5663060  37.9206830  57.8607300
  39.9297280  33.9070930  57.5326600  40.6525410  34.4479870  57.8507820
  40.2021800  33.6334350  56.6568140  53.7388930  38.7763400  61.7998180
  54.2348050  38.5434270  62.5847060  53.5405000  37.9375240  61.3835820
  39.6189470  33.1577120  67.4349220  40.2665660  32.6074500  66.9944380
  40.0391310  33.4120270  68.2565030  55.1676090  37.4124350  64.3335860
  55.0575370  37.2580390  65.2718130  55.9283680  36.8845290  64.0911270
  53.5141810  33.3518480  70.7918860  54.1514030  33.9652620  71.1578050
  53.6616700  33.3879140  69.8468090  56.0566360  35.2432270  57.5742000
  56.9815670  35.1113450  57.3660290  56.0342150  35.3225090  58.5278450
  56.1304850  36.0142930  60.1998710  55.3356350  35.9488050  60.7291620
  56.3348130  36.9493570  60.1884060  53.0723270  50.0534480  64.1937100
  53.6682340  49.7319050  63.5171520  53.3301420  49.5806300  64.9850370
  39.3721470  33.3132790  70.1774540  39.0236290  33.7696610  70.9432720
  39.0409170  32.4189920  70.2596970  44.6791870  48.0411980  69.9437450
  44.4383230  48.3086540  69.0567970  45.6194510  48.2117710  69.9988310
  46.8846290  34.5044670  73.6993960  46.8235180  35.0966500  74.4489370
  47.8246670  34.3970630  73.5544220  49.5220850  34.1614730  73.3386250
  50.1361260  34.4794020  72.6767330  50.0670410  33.6763320  73.9582110
  55.9396030  50.0606360  70.7448090  55.4454310  50.4575230  70.0275220
  55.3309320  49.4355570  71.1385370  40.0442110  32.8408990  73.4525310
  40.5925100  32.6597040  72.6891420  40.1097420  32.0503100  73.9881620
  40.8173870  49.4314640  71.4625510  40.2234190  49.2999340  72.2015550
  40.8097710  48.5952780  70.9967610  50.2628890  32.7246870  69.6655540
  49.3888730  33.0581980  69.4628470  50.1539640  32.2520050  70.4907410
  51.1700870  34.9317740  71.0497260  50.8414230  34.1169500  70.6698990
  52.1183170  34.8887550  70.9262950  53.6235480  50.7029780  68.0234830
  53.1638450  51.4545590  67.6492850  52.9947940  49.9836250  67.9649630
  40.4486100  46.7973020  70.4133550  39.7220160  46.1778310  70.3459500
  40.5095250  47.1913630  69.5431630  44.0531200  49.0118020  67.1982960
  44.5696220  48.4005380  66.6731220  44.7028580  49.5146800  67.6893970
  46.7926700  49.9026510  68.0251940  47.0804510  49.6480810  67.1484950
  47.3049920  49.3503870  68.6157510  48.0103710  33.6416710  68.6048450
  47.2275500  34.1162210  68.8845210  47.7166640  32.7371540  68.4961630
  52.5624780  34.3439810  66.6497540  53.0032870  34.2884910  65.8019140
  52.2932370  35.2597820  66.7207720  54.4263350  33.9755050  64.6606360
  54.3651750  33.0316270  64.5137380  55.2055380  34.0835140  65.2059820
  38.7316100  50.1147410  63.6230310  38.5638140  49.4818090  64.3212200
  37.8650610  50.3206810  63.2724500  39.3544120  33.9464190  61.1262170
  40.1123480  34.0593070  60.5526200  38.8921290  34.7833390  61.0805600
  45.8957930  36.0603460  64.1164480  45.0832440  35.6860350  63.7760360
  46.3999570  35.3048540  64.4185670  50.3982910  32.7245910  65.3547550
  51.0012280  33.2966120  65.8296070  49.6575900  33.2885350  65.1321450
  53.5417510  33.1267470  60.6287830  53.7368140  34.0250920  60.8955260
  52.7547380  32.8954550  61.1220780  40.3378800  48.8080640  61.0680450
  39.8126420  49.1888670  60.3642410  40.2623380  49.4331410  61.7890160
  41.7269270  34.4728240  59.6664140  42.2562030  33.6858040  59.5372090
  42.3597590  35.1519430  59.8999670  43.9207110  34.2103380  62.7209530
  43.2909850  33.5090690  62.8879660  43.3812250  34.9707510  62.5042690
  55.0944120  50.3668180  62.3894390  55.2696310  49.6805920  61.7455310
  54.3965690  50.8915230  61.9971060  42.9371770  50.7563020  59.9429700
  43.6690590  50.4722300  59.3953590  43.1965440  50.5176300  60.8329080
  42.0986560  46.8727750  59.9476030  41.4695440  47.3412850  60.4961860
  42.2134390  46.0276970  60.3822220  39.3169980  35.9824140  50.3113280
  39.1372820  35.0849890  50.5916040  38.9150060  36.5296010  50.9860230
  48.1568480  38.1840000  48.2125590  48.5333300  37.3111880  48.0999260
  48.0587990  38.5198700  47.3216030  42.2873490  36.5565630  43.6743030
  42.3940240  37.4569360  43.9811790  41.3765850  36.5083600  43.3837680
  51.9392600  35.6790440  45.1453930  52.7602220  35.1887010  45.1879410
  51.9726680  36.2688100  45.8985770  39.9356650  38.4784640  48.9195620
  40.6166760  38.7423010  49.5383020  39.6204700  37.6385510  49.2533630
  44.1281220  39.5252000  48.0068210  44.6359440  40.0232970  48.6473230
  44.6594460  38.7487200  47.8307570  56.2292150  37.6957190  51.7097560
  55.5244320  38.0838900  51.1912670  56.4950070  38.3907480  52.3118490
  42.4117320  34.1650560  52.2731630  42.4135760  34.6822950  51.4677530
  41.5821630  33.6880740  52.2501560  43.6620170  43.8045740  50.4505130
  43.3289550  44.4314660  51.0926200  43.8386850  44.3307620  49.6706800
  52.1754080  37.6190820  47.9181470  51.4709650  37.9075710  48.4984580
  52.5366240  38.4290930  47.5581030  42.0932650  35.8760520  50.2802080
  42.4349460  36.7202570  49.9855950  41.1548460  36.0244260  50.3967420
  42.8739270  45.7726540  52.2654310  43.4913270  46.4477620  51.9838760
  42.0132390  46.1814520  52.1741810  55.2441000  37.0645610  48.3090680
  54.2965910  37.0984590  48.4406110  55.5690990  37.8784560  48.6940040
  45.7760540  33.3642790  46.6046670  46.0835520  32.8089680  45.8882170
  44.8461240  33.4987250  46.4219660  54.6723140  42.3827140  50.3152980
  53.8441770  42.4520230  49.8403110  55.2673620  42.9681450  49.8468810
  51.6365150  39.1696460  51.2607850  51.2236330  39.9950170  51.5147840
  50.9041100  38.5841500  51.0684210  42.4826560  38.7299570  49.9025560
  43.0341150  38.8394910  49.1278810  42.9970070  39.1037170  50.6180790
  52.3265250  49.2155790  51.9488830  51.8495810  50.0227980  51.7561440
  51.6427040  48.5634120  52.1015040  43.3298070  45.3805610  54.9373530
  42.4326600  45.6045580  55.1846930  43.3550940  45.5040550  53.9884930
  42.1569290  42.2518930  53.5130900  42.0177060  43.1241730  53.8818300
  41.2750650  41.9091740  53.3678840  43.9549640  48.1940630  55.7216050
  43.9265070  48.5983580  54.8544480  43.7914610  47.2650990  55.5587650
  53.9520430  33.4841540  39.1655830  53.6393090  33.5768370  40.0654900
  54.7132900  34.0622570  39.1153260  55.9064460  48.9767730  57.0180220
  56.3824180  49.4550620  57.6969300  56.5271620  48.9085220  56.2925720
  55.3097710  46.1680580  54.1780230  55.4360770  45.9292460  53.2597410
  55.3519090  45.3365120  54.6502310  49.1714450  49.8708580  52.7475040
  49.6859120  49.7816590  53.5497470  48.3283530  50.2168280  53.0402950
  55.1621720  38.2213040  55.1429970  54.5465990  38.7292710  54.6145430
  54.8418140  37.3211370  55.0855910  42.9366230  34.1936410  47.0056840
  42.4934380  34.9745950  46.6741360  43.4951220  34.5166300  47.7127780
  47.2236040  37.0604930  52.6092160  46.7615410  37.2687950  53.4212100
  46.8214150  36.2464280  52.3062830  52.2240550  38.2813880  53.7388820
  51.3734140  37.9819630  54.0597890  52.0642340  38.5255890  52.8272640
  49.3190260  39.7815630  55.8387610  49.6443670  38.9479380  55.4989840
  50.1070590  40.3044150  55.9865940  44.9742130  34.7383740  48.8646440
  45.2714460  35.6446570  48.7838460  45.5227690  34.2502520  48.2506010
  45.1679660  40.2155560  55.3998360  45.0723260  39.2750290  55.2498760
  46.0111640  40.4370630  55.0046430  40.2990200  36.6269230  53.5532140
  39.9053590  37.4744440  53.7604920  39.6108600  35.9895600  53.7440780
  46.8735250  36.7104200  56.6228880  46.1833570  36.5176400  57.2574970
  47.6167550  36.9938840  57.1553180  37.6007250  34.5497690  47.5862220
  37.3120300  35.1200550  48.2987200  38.3453010  34.0702140  47.9493450
  49.1498220  40.5502640  49.4582800  48.4179340  41.0589450  49.8072900
  48.7522560  39.7332620  49.1571580  45.5875610  37.2256840  47.8635290
  45.5911670  36.7846790  47.0139830  46.4826730  37.5474170  47.9707110
  41.4377990  37.1083330  46.8229500  41.0978040  37.5858560  47.5796550
  40.6755310  36.6548450  46.4630600  49.6124130  36.0036320  48.8705740
  49.6296870  36.4544970  49.7147590  49.3639710  35.1041960  49.0839180
  53.0394880  33.4168500  54.7092120  53.3640650  32.6858160  55.2350100
  53.0751390  33.0982140  53.8073110  45.8883580  41.2858620  49.6100700
  46.2553710  40.8117190  50.3562040  45.6988640  42.1600190  49.9509040
  38.7524070  36.0302310  45.7394170  38.4670990  35.6657980  46.5772790
  38.6902930  35.2982770  45.1257310  43.6782950  40.3267260  51.9284910
  43.3740020  41.2059240  52.1535270  44.6329410  40.3867050  51.9642350
  48.3471520  43.6002670  54.2047150  48.2808830  42.6798340  53.9504740
  47.7176660  43.6978110  54.9191790  39.7346680  41.1670000  53.0756270
  39.3761620  41.8323850  53.6629610  39.4401240  40.3353550  53.4468890
  42.9359800  41.6254240  55.9595820  42.6359940  41.7711420  55.0623640
  43.7071040  41.0659530  55.8669210  48.2788250  46.4223240  53.9550950
  48.2932790  45.4904200  53.7369860  47.5713350  46.5083000  54.5940720
  54.4899460  43.0630580  53.3019530  53.7647650  43.6559360  53.1048920
  55.0174920  43.0554120  52.5032900  41.3101320  32.8972120  44.2921670
  41.1815950  32.8890020  45.2406590  40.4863340  33.2355210  43.9412680
  50.7591850  46.8668060  52.9704960  51.0948090  47.4534750  53.6482880
  49.8392190  46.7360770  53.2002750  38.6125980  50.3788640  40.2652500
  38.9723620  50.9777980  39.6109770  38.4718320  50.9248530  41.0387530
  38.3095250  34.6563240  53.7528370  37.5953770  34.8560160  54.3580980
  38.7290290  33.8802810  54.1243170  46.5880430  46.9159390  56.1393020
  46.2677300  46.1968630  56.6838710  45.9138790  47.5914460  56.2129080
  49.8034030  37.1485550  51.5029820  50.1714850  36.3280760  51.8309390
  48.9432230  37.2087440  51.9185470  46.7636020  39.8025140  51.7267790
  47.2621270  40.2770960  52.3919640  46.9058970  38.8788660  51.9337820
  49.1695520  35.1079100  45.1671050  49.0463300  35.1265230  44.2180560
  50.1180080  35.1558040  45.2869450  53.9702880  36.0193100  52.5696180
  53.4676480  36.7598500  52.9089990  54.7859540  36.4077100  52.2532970
  41.7368000  50.5266340  47.3628930  42.4730480  49.9781800  47.6337500
  42.1208920  51.3922350  47.2234920  49.5790910  45.8192280  56.4989920
  48.9729070  45.8423880  55.7585670  49.2745020  45.0875320  57.0357170
  51.0091280  49.5472570  55.1099330  51.9613030  49.4630590  55.0599570
  50.8619500  50.2114280  55.7833120  38.4624090  42.1985870  55.4950560
  38.9663110  41.6193150  56.0666790  37.7231510  42.4826100  56.0326930
  45.5162030  43.6056860  55.0286080  44.7507700  44.1741860  54.9440750
  45.6977990  43.3133070  54.1354310  52.6585380  45.3362190  55.5861100
  53.3994850  45.6737950  55.0828560  51.8958060  45.5054250  55.0330870
  40.4947170  40.3415460  56.3900630  40.5352510  40.0429330  57.2985860
  41.3492670  40.7423070  56.2308150  42.4352980  38.9207560  54.3575120
  41.9049440  38.4298510  53.7298460  43.1041050  39.3491760  53.8233050
  51.3331040  43.3877020  54.1216310  51.7472060  43.5422100  54.9706730
  50.3982040  43.5132240  54.2842090  51.8053210  40.7273180  56.1255460
  52.3873980  39.9725500  56.0375940  51.9814980  41.2580620  55.3486940
  42.9225280  35.8869930  54.4372410  42.8282150  35.2690680  53.7123280
  42.3422670  36.6136220  54.2102320  45.6886720  34.4443170  51.4699800
  45.2404020  34.4667430  50.6245350  45.0551920  34.0462190  52.0670100
  46.0946270  43.3397500  52.0912240  46.5134380  44.1830230  51.9188480
  45.1754900  43.4769540  51.8619020  48.4310170  41.0713680  53.4750080
  48.5506380  40.4754820  54.2144920  49.2904170  41.1083370  53.0551380
  50.7698070  41.6250870  52.0512590  50.2433290  42.1493490  51.4477730
  51.1129410  42.2578260  52.6822320  45.1978940  37.6135030  54.7325900
  45.7878630  37.3050880  55.4203720  44.3799180  37.1414780  54.8885800
  50.0172370  37.2300840  54.9658920  49.3287890  36.5682380  54.9008910
  50.7378390  36.7839110  55.4107380  46.8015900  50.8801720  53.4656620
  46.7274600  51.7836860  53.7728990  45.8994740  50.5613620  53.4378690
  40.9897390  45.4187280  39.3169980  41.4272260  45.9616950  39.9727560
  41.4745120  44.5934230  39.3266320  54.3295580  48.5763900  53.7949180
  53.7297570  48.6356460  53.0513100  54.4589480  47.6368880  53.9246030
  53.0147220  45.3015880  51.8925340  52.2007060  45.7313040  52.1551130
  53.4221420  45.9134290  51.2794390  54.3637620  40.4404080  53.4194560
  54.1323710  40.2116830  52.5192510  54.6242170  41.3603630  53.3739450
  39.1149760  38.8828790  54.3122510  38.2205810  38.8495550  54.6516220
  39.6547310  39.0815580  55.0773760  52.8025690  35.6660510  56.1974260
  53.6795870  35.6743910  56.5808260  52.8146530  34.9291350  55.5866610
  54.4278680  39.6029920  50.6081830  53.4781390  39.5693460  50.7226820
  54.6091690  40.5130030  50.3731600  39.9297280  33.9070930  38.7583110
  40.6525410  34.4479870  39.0764330  40.2021800  33.6334350  37.8824650
  39.6189470  33.1577120  48.6605730  40.2665660  32.6074500  48.2200890
  40.0391310  33.4120270  49.4821540  55.1676090  37.4124350  45.5592370
  55.0575370  37.2580390  46.4974640  55.9283680  36.8845290  45.3167780
  53.5141810  33.3518480  52.0175370  54.1514030  33.9652620  52.3834560
  53.6616700  33.3879140  51.0724600  56.0566360  35.2432270  38.7998510
  56.9815670  35.1113450  38.5916800  56.0342150  35.3225090  39.7534960
  56.1304850  36.0142930  41.4255220  55.3356350  35.9488050  41.9548130
  56.3348130  36.9493570  41.4140570  39.3721470  33.3132790  51.4031050
  39.0236290  33.7696610  52.1689230  39.0409170  32.4189920  51.4853480
  40.9785840  46.4852390  55.5684240  40.9355470  46.1145300  56.4498700
  41.1096850  47.4229960  55.7086060  44.6791870  48.0411980  51.1693960
  44.4383230  48.3086540  50.2824480  45.6194510  48.2117710  51.2244820
  46.8846290  34.5044670  54.9250470  46.8235180  35.0966500  55.6745880
  47.8246670  34.3970630  54.7800730  49.5220850  34.1614730  54.5642760
  50.1361260  34.4794020  53.9023840  50.0670410  33.6763320  55.1838620
  55.9396030  50.0606360  51.9704600  55.4454310  50.4575230  51.2531730
  55.3309320  49.4355570  52.3641880  40.0442110  32.8408990  54.6781820
  40.5925100  32.6597040  53.9147930  40.1097420  32.0503100  55.2138130
  50.2628890  32.7246870  50.8912050  49.3888730  33.0581980  50.6884980
  50.1539640  32.2520050  51.7163920  51.1700870  34.9317740  52.2753770
  50.8414230  34.1169500  51.8955500  52.1183170  34.8887550  52.1519460
  44.0531200  49.0118020  48.4239470  44.5696220  48.4005380  47.8987730
  44.7028580  49.5146800  48.9150480  48.0103710  33.6416710  49.8304960
  47.2275500  34.1162210  50.1101720  47.7166640  32.7371540  49.7218140
  52.5624780  34.3439810  47.8754050  53.0032870  34.2884910  47.0275650
  52.2932370  35.2597820  47.9464230  54.4263350  33.9755050  45.8862870
  54.3651750  33.0316270  45.7393890  55.2055380  34.0835140  46.4316330
  39.3544120  33.9464190  42.3518680  40.1123480  34.0593070  41.7782710
  38.8921290  34.7833390  42.3062110  45.8957930  36.0603460  45.3420990
  45.0832440  35.6860350  45.0016870  46.3999570  35.3048540  45.6442180
  50.3982910  32.7245910  46.5804060  51.0012280  33.2966120  47.0552580
  49.6575900  33.2885350  46.3577960  53.5417510  33.1267470  41.8544340
  53.7368140  34.0250920  42.1211770  52.7547380  32.8954550  42.3477290
  40.3378800  48.8080640  42.2936960  39.8126420  49.1888670  41.5898920
  40.2623380  49.4331410  43.0146670  43.9207110  34.2103380  43.9466040
  43.2909850  33.5090690  44.1136170  43.3812250  34.9707510  43.7299200
  46.8599060  50.8242610  56.6176650  47.7866370  50.5886880  56.6612610
  46.8449490  51.6514610  56.1362680  44.0462670  33.4887360  56.3818530
  43.7646940  33.9920960  55.6179350  44.4282370  32.6909110  56.0160660
  42.9371770  50.7563020  41.1686210  43.6690590  50.4722300  40.6210100
  43.1965440  50.5176300  42.0585590  50.6478130  32.9040940  56.9599000
  50.5343580  33.2235550  57.8550520  51.4647870  33.3053450  56.6636280
  53.4276620  50.0512470  56.4417690  54.2201940  49.5561700  56.2343650
  53.7209770  50.7302610  57.0493300  49.5536280  40.9233410  27.3233740
  49.4730330  40.0088020  27.0525450  49.1400700  41.4200480  26.6173450
  47.6854320  42.7012430  29.2043010  46.9096420  42.2212870  29.4941580
  48.3367250  42.0218080  29.0299170  41.7020150  43.0132240  30.0818770
  40.8705030  42.7580950  30.4815280  42.3101130  43.0843010  30.8176690
  51.7061750  47.1072620  27.9842140  51.2443280  46.3359860  28.3129310
  52.5187300  47.1338690  28.4894590  41.6821410  47.0472330  30.2776790
  41.9849450  46.1570070  30.0987010  42.4265000  47.6042550  30.0499040
  40.1112100  37.9734130  23.8661160  39.2228800  38.3150100  23.7641040
  40.3953290  37.7734450  22.9741990  38.0745110  40.5739780  29.7500860
  38.6461220  39.8061980  29.7504500  38.0746650  40.8728540  28.8407470
  47.9325060  49.3930630  27.6046130  47.3136500  49.8488130  27.0340570
  48.7876840  49.5482090  27.2035830  47.1263310  45.3769620  29.2113170
  47.0571590  44.4359560  29.0502300  47.8883170  45.4671030  29.7835740
  39.3169980  35.9824140  31.5369790  39.1372820  35.0849890  31.8172550
  38.9150060  36.5296010  32.2116740  48.1568480  38.1840000  29.4382100
  48.5333300  37.3111880  29.3255770  48.0587990  38.5198700  28.5472540
  42.2873490  36.5565630  24.8999540  42.3940240  37.4569360  25.2068300
  41.3765850  36.5083600  24.6094190  51.9392600  35.6790440  26.3710440
  52.7602220  35.1887010  26.4135920  51.9726680  36.2688100  27.1242280
  39.9356650  38.4784640  30.1452130  40.6166760  38.7423010  30.7639530
  39.6204700  37.6385510  30.4790140  44.1281220  39.5252000  29.2324720
  44.6359440  40.0232970  29.8729740  44.6594460  38.7487200  29.0564080
  56.2292150  37.6957190  32.9354070  55.5244320  38.0838900  32.4169180
  56.4950070  38.3907480  33.5375000  48.7988410  44.2769870  24.9978040
  48.1805680  44.7419320  24.4340760  49.3111660  44.9697350  25.4147550
  43.6620170  43.8045740  31.6761640  43.3289550  44.4314660  32.3182710
  43.8386850  44.3307620  30.8963310  52.1754080  37.6190820  29.1437980
  51.4709650  37.9075710  29.7241090  52.5366240  38.4290930  28.7837540
  42.0932650  35.8760520  31.5058590  42.4349460  36.7202570  31.2112460
  41.1548460  36.0244260  31.6223930  42.8739270  45.7726540  33.4910820
  43.4913270  46.4477620  33.2095270  42.0132390  46.1814520  33.3998320
  38.1671610  44.9626400  22.3717670  37.7899590  45.4513500  21.6402570
  38.4244680  45.6351680  23.0024200  55.2441000  37.0645610  29.5347190
  54.2965910  37.0984590  29.6662620  55.5690990  37.8784560  29.9196550
  45.7760540  33.3642790  27.8303180  46.0835520  32.8089680  27.1138680
  44.8461240  33.4987250  27.6476170  51.3275600  49.0810080  30.1210640
  51.3402760  48.6772370  29.2532900  50.7750820  49.8557370  30.0172070
  52.6221020  45.8026300  25.2100810  52.5117350  44.8600630  25.3350230
  52.6189270  46.1641940  26.0963570  48.1641300  41.4291620  24.5663300
  47.2370580  41.3629000  24.7951770  48.3166120  42.3671750  24.4518540
  48.1510380  37.7008620  21.5630460  47.2114050  37.8622580  21.6482920
  48.4693640  38.4194300  21.0166450  52.1938590  42.9911920  25.0698550
  51.5751010  42.6531470  24.4224850  52.1763040  42.3471680  25.7777740
  43.7697940  41.9556360  27.3483030  43.3654940  41.2433610  26.8528930
  43.8561060  41.6109600  28.2371070  44.2379640  45.6423920  29.5122240
  43.9407930  45.0369390  28.8330020  45.1879460  45.6801230  29.4011600
  42.4826560  38.7299570  31.1282070  43.0341150  38.8394910  30.3535320
  42.9970070  39.1037170  31.8437300  52.3265250  49.2155790  33.1745340
  51.8495810  50.0227980  32.9817950  51.6427040  48.5634120  33.3271550
  43.3298070  45.3805610  36.1630040  42.4326600  45.6045580  36.4103440
  43.3550940  45.5040550  35.2141440  50.3703290  42.2298730  22.0771300
  50.8096570  41.3921160  21.9309120  51.0831710  42.8628130  22.1635440
  42.1569290  42.2518930  34.7387410  42.0177060  43.1241730  35.1074810
  41.2750650  41.9091740  34.5935350  48.4798670  47.1694800  26.0452540
  48.9194580  47.9119130  25.6307930  48.4185560  47.4121370  26.9691500
  43.9549640  48.1940630  36.9472560  43.9265070  48.5983580  36.0800990
  43.7914610  47.2650990  36.7844160  53.9520430  33.4841540  20.3912340
  53.6393090  33.5768370  21.2911410  54.7132900  34.0622570  20.3409770
  40.4702570  40.8501340  24.8489680  40.3500170  41.5763430  24.2370950
  40.1603460  40.0804250  24.3717590  38.1087940  44.0216480  30.6558320
  38.1868360  44.1565250  29.7114040  38.7229620  43.3132370  30.8486440
  39.3535570  45.7216670  27.0664500  38.9463650  45.8631260  26.2118100
  40.2448580  45.4376830  26.8635710  49.1714450  49.8708580  33.9731550
  49.6859120  49.7816590  34.7753980  48.3283530  50.2168280  34.2659460
  43.6257230  49.9362450  25.1787170  43.4499710  49.0197990  24.9654970
  42.7712970  50.2949740  25.4184970  50.8494980  47.6651480  21.9613550
  50.1560140  47.6628770  21.3015830  51.5917840  47.2410800  21.5307720
  55.1621720  38.2213040  36.3686480  54.5465990  38.7292710  35.8401940
  54.8418140  37.3211370  36.3112420  38.1647460  45.0630650  33.1952780
  38.3278500  44.5936010  32.3772150  38.6299910  44.5554210  33.8601620
  42.9366230  34.1936410  28.2313350  42.4934380  34.9745950  27.8997870
  43.4951220  34.5166300  28.9384290  46.0525050  33.8147110  23.1119180
  45.4279230  33.8106980  23.8372490  45.9655170  32.9478070  22.7155150
  44.9742130  34.7383740  30.0902950  45.2714460  35.6446570  30.0094970
  45.5227690  34.2502520  29.4762520  42.7280450  39.3169980  25.9594600
  42.5021370  39.1007150  26.8641220  41.9472980  39.7498440  25.6140570
  49.9578210  39.3233350  24.5585250  49.3587100  40.0469150  24.3748870
  50.5057820  39.2610130  23.7761700  48.5643080  37.9596890  26.5888530
  48.9572650  38.2769090  25.7757220  48.9259930  37.0808770  26.7033050
  40.2990200  36.6269230  34.7788650  39.9053590  37.4744440  34.9861430
  39.6108600  35.9895600  34.9697290  37.6007250  34.5497690  28.8118730
  37.3120300  35.1200550  29.5243710  38.3453010  34.0702140  29.1749960
  37.7877480  38.4917810  20.0221450  37.7052150  39.4348570  20.1636440
  37.4360540  38.3492720  19.1433800  49.1498220  40.5502640  30.6839310
  48.4179340  41.0589450  31.0329410  48.7522560  39.7332620  30.3828090
  45.5875610  37.2256840  29.0891800  45.5911670  36.7846790  28.2396340
  46.4826730  37.5474170  29.1963620  41.4377990  37.1083330  28.0486010
  41.0978040  37.5858560  28.8053060  40.6755310  36.6548450  27.6887110
  45.6495760  38.2268920  22.0798560  45.7708580  38.1855400  23.0284380
  45.2644270  39.0893070  21.9245290  49.6124130  36.0036320  30.0962250
  49.6296870  36.4544970  30.9404100  49.3639710  35.1041960  30.3095690
  44.6617260  40.5370060  21.4781860  44.0934160  40.0888310  20.8517770
  45.3706260  40.8962840  20.9447010  53.0394880  33.4168500  35.9348630
  53.3640650  32.6858160  36.4606610  53.0751390  33.0982140  35.0329620
  39.7386440  44.4382080  35.3548590  39.3541230  43.7975750  35.9531550
  40.0498630  45.1418200  35.9243320  45.8883580  41.2858620  30.8357210
  46.2553710  40.8117190  31.5818550  45.6988640  42.1600190  31.1765550
  38.7524070  36.0302310  26.9650680  38.4670990  35.6657980  27.8029300
  38.6902930  35.2982770  26.3513820  43.6782950  40.3267260  33.1541420
  43.3740020  41.2059240  33.3791780  44.6329410  40.3867050  33.1898860
  42.2064740  44.5328250  23.7508270  41.4327000  43.9925870  23.5906990
  42.9359370  44.0134860  23.4126030  48.4262660  34.9231570  23.6864050
  47.6127270  34.4244740  23.6109360  48.2324610  35.7629820  23.2700400
  51.1411050  39.2951220  21.9826210  52.0290670  39.6068450  21.8077550
  51.1116140  38.4223470  21.5906790  42.2502140  44.2008630  27.3887080
  42.7680810  43.3976890  27.3343970  41.7986160  44.1387770  28.2303910
  47.1371640  45.4674910  22.6614380  47.4787340  46.2117140  22.1657700
  46.3084350  45.7806030  23.0239210  39.7346680  41.1670000  34.3012780
  39.3761620  41.8323850  34.8886120  39.4401240  40.3353550  34.6725400
  48.2788250  46.4223240  35.1807460  48.2932790  45.4904200  34.9626370
  47.5713350  46.5083000  35.8197230  53.4125320  40.6063060  21.4506070
  53.3289040  41.0377280  20.6002510  54.1319510  41.0661410  21.8832890
  54.4412570  47.4605320  24.1788200  53.7988730  46.8060940  24.4531920
  54.0543230  47.8660410  23.4028870  50.0199050  44.7890750  28.0259890
  50.3722870  44.1918880  27.3661260  49.1361380  44.4634980  28.1968140
  46.1062330  45.5488440  25.4330300  46.7933460  46.0957650  25.8137890
  45.3194750  46.0929170  25.4679910  38.2454730  41.1661260  20.9247380
  39.1149580  41.4486060  21.2083300  37.7545050  41.9797130  20.8096190
  45.4089540  42.5534470  25.0455660  45.8652320  43.3639720  25.2715850
  45.0577750  42.2357610  25.8774150  47.7122150  48.0640810  32.2747960
  48.3564370  48.2700190  32.9521380  48.0751590  47.3029210  31.8218810
  41.3101320  32.8972120  25.5178180  41.1815950  32.8890020  26.4663100
  40.4863340  33.2355210  25.1669190  48.9854230  46.0673160  30.9925410
  49.6276460  45.3666320  31.1057580  49.5103580  46.8471600  30.8122300
  52.8309950  46.3521780  20.7164550  52.6047530  45.6352220  21.3089190
  52.4406150  46.1034220  19.8786300  50.7591850  46.8668060  34.1961470
  51.0948090  47.4534750  34.8739390  49.8392190  46.7360770  34.4259260
  38.6125980  50.3788640  21.4909010  38.9723620  50.9777980  20.8366280
  38.4718320  50.9248530  22.2644040  38.3095250  34.6563240  34.9784880
  37.5953770  34.8560160  35.5837490  38.7290290  33.8802810  35.3499680
  52.4126200  44.2693720  22.3778710  52.1247900  44.7306410  23.1656590
  53.2078370  43.8091490  22.6462930  38.5967840  48.6443500  35.9651410
  38.7058960  47.7038240  35.8246800  37.9448400  48.9098250  35.3165140
  46.5880430  46.9159390  37.3649530  46.2677300  46.1968630  37.9095220
  45.9138790  47.5914460  37.4385590  44.6294600  47.7619840  22.3082680
  44.6204700  48.4949530  21.6927190  43.7092960  47.5151420  22.4009640
  40.2301240  42.9834730  23.0529440  39.6229190  43.7233630  23.0624740
  40.7050590  43.0734090  22.2267640  53.1696060  36.1042490  23.5373890
  52.5409220  36.2088160  22.8232120  52.6747980  36.3239270  24.3267770
  47.6154200  47.8248080  20.9707870  47.7166180  47.6212070  20.0409850
  46.7155940  47.5706360  21.1755650  45.1380090  38.3828440  24.9531770
  44.4296240  38.8514780  25.3945380  45.4224570  37.7250450  25.5876960
  46.7636020  39.8025140  32.9524300  47.2621270  40.2770960  33.6176150
  46.9058970  38.8788660  33.1594330  49.1695520  35.1079100  26.3927560
  49.0463300  35.1265230  25.4437070  50.1180080  35.1558040  26.5125960
  46.2572310  50.3434400  25.6655540  46.5113810  50.3055790  24.7434910
  45.3084790  50.2167730  25.6583790  43.3415110  36.6913520  22.3282480
  44.1905640  37.1283670  22.2622670  42.9746380  37.0033780  23.1554540
  53.9702880  36.0193100  33.7952690  53.4676480  36.7598500  34.1346500
  54.7859540  36.4077100  33.4789480  52.2624890  41.2626280  27.2414050
  51.3215030  41.2776510  27.4161740  52.5768960  40.4762240  27.6874350
  42.2406530  42.9445880  20.8018010  43.0069800  42.8327240  21.3643440
  42.3181220  42.2483850  20.1494780  40.9353290  40.3770950  21.4850900
  41.0156880  39.4298460  21.5968300  41.8273040  40.7077830  21.5911560
  54.2650470  48.4335130  28.9168310  54.3897890  49.2566300  29.3892120
  55.1316030  48.2225860  28.5692460  41.7368000  50.5266340  28.5885440
  42.4730480  49.9781800  28.8594010  42.1208920  51.3922350  28.4491430
  38.6213480  46.5939910  24.4626950  37.6953260  46.8361050  24.4532360
  39.0869910  47.4214170  24.3411700  40.7426280  49.7112410  37.7771020
  41.5439010  50.0324460  38.1906420  40.2278100  49.3507990  38.4990930
  44.8470310  49.6996650  20.4111010  45.6398920  49.9885480  19.9592800
  44.3274660  49.2688820  19.7323490  51.0091280  49.5472570  36.3355840
  51.9613030  49.4630590  36.2856080  50.8619500  50.2114280  37.0089630
  53.9000480  48.9266780  21.8347750  53.6141990  48.5131920  21.0201930
  53.7020030  49.8554490  21.7148270  38.4624090  42.1985870  36.7207070
  38.9663110  41.6193150  37.2923300  37.7231510  42.4826100  37.2583440
  45.3647710  44.9200060  20.2753360  45.2598350  44.3052410  21.0014740
  45.1971930  44.3965950  19.4916370  48.6050440  43.9820090  20.8795350
  48.0560540  44.4289390  21.5238090  49.2269700  43.4769340  21.4033020
  44.2725560  42.9411010  22.7760650  44.6941980  42.7750880  23.6192040
  44.3976400  42.1311240  22.2815790  42.4352980  38.9207560  35.5831630
  41.9049440  38.4298510  34.9554970  43.1041050  39.3491760  35.0489560
  46.7853200  41.9648620  20.0237750  47.3058860  41.2497640  19.6578900
  47.4321600  42.6034490  20.3238260  46.0946270  43.3397500  33.3168750
  46.5134380  44.1830230  33.1444990  45.1754900  43.4769540  33.0875530
  43.1684460  39.0144240  19.7218810  42.9673520  38.1511600  20.0832150
  42.9976510  38.9277600  18.7840410  43.9453690  49.6450510  34.4326480
  43.4074780  50.3696570  34.1135180  44.1987650  49.1680850  33.6423820
  50.6472770  33.8252470  22.2505690  50.9275060  32.9820370  22.6065110
  49.8738500  34.0575580  22.7644440  41.9667260  36.1144860  19.7096690
  42.2693160  36.1212290  18.8015840  42.7061850  35.7642720  20.2064350
  46.8015900  50.8801720  34.6913130  46.7274600  51.7836860  34.9985500
  45.8994740  50.5613620  34.6635200  45.1852190  35.0579480  20.6952890
  44.8374190  34.3803470  20.1155340  45.3864960  34.5968990  21.5096280
  47.3501230  50.0460230  22.3139490  48.2452020  50.3845200  22.3358250
  47.3818860  49.3239640  21.6863770  40.9897390  45.4187280  20.5426490
  41.4272260  45.9616950  21.1984070  41.4745120  44.5934230  20.5522830
  38.2043190  48.2076310  27.9946750  38.5346200  47.3397370  27.7625390
  38.6334190  48.4134830  28.8251710  42.8005110  46.5385320  25.6548720
  42.5000650  46.4150290  26.5552630  42.6942600  45.6793910  25.2464450
  38.6933400  49.0746900  30.7328380  38.2564390  49.2547700  31.5652530
  39.2611080  49.8321520  30.5910100  55.5697030  46.3181720  20.3575400
  54.7389990  46.3858370  20.8282630  55.7468860  47.2085840  20.0542260
  55.0253490  43.0629200  22.8609600  55.7872400  43.6325850  22.9669290
  55.0407860  42.4956400  23.6317910  38.5257830  41.5867130  27.0917260
  37.8706670  41.3178770  26.4476960  39.3635780  41.4771610  26.6419240
  56.0313460  43.9179300  27.7051530  56.4022290  43.1346620  27.2987500
  56.6715390  44.6068400  27.5268830  55.0772660  43.3563570  20.0182120
  55.3521500  44.2642450  19.8901340  54.8883400  43.2926100  20.9544110
  51.4748270  36.3808420  21.3135750  51.8933150  36.1939400  20.4732410
  51.1684330  35.5287470  21.6238680  54.9738000  41.2932560  25.0111550
  54.5981600  40.5260490  24.5792840  54.2441120  41.6755260  25.4986480
  39.5633760  41.9719700  31.6320600  39.9306800  41.8847100  32.5116620
  38.9944580  41.2086250  31.5327460  39.1149760  38.8828790  35.5379020
  38.2205810  38.8495550  35.8772730  39.6547310  39.0815580  36.3030270
  37.7395910  38.7966060  23.0342590  36.8359990  39.0596260  22.8594250
  38.2236530  39.0677230  22.2542550  54.2488960  39.5190050  28.3118790
  54.7726440  39.0252700  27.6808960  54.8348380  39.6540410  29.0566360
  40.2823120  37.8531600  20.9436970  40.9914820  37.4314820  20.4584250
  39.5663060  37.9206830  20.3120320  39.9297280  33.9070930  19.9839620
  40.6525410  34.4479870  20.3020840  40.2021800  33.6334350  19.1081160
  53.7388930  38.7763400  24.2511200  54.2348050  38.5434270  25.0360080
  53.5405000  37.9375240  23.8348840  39.6189470  33.1577120  29.8862240
  40.2665660  32.6074500  29.4457400  40.0391310  33.4120270  30.7078050
  55.1676090  37.4124350  26.7848880  55.0575370  37.2580390  27.7231150
  55.9283680  36.8845290  26.5424290  53.5141810  33.3518480  33.2431880
  54.1514030  33.9652620  33.6091070  53.6616700  33.3879140  32.2981110
  56.0566360  35.2432270  20.0255020  56.9815670  35.1113450  19.8173310
  56.0342150  35.3225090  20.9791470  56.1304850  36.0142930  22.6511730
  55.3356350  35.9488050  23.1804640  56.3348130  36.9493570  22.6397080
  39.3721470  33.3132790  32.6287560  39.0236290  33.7696610  33.3945740
  39.0409170  32.4189920  32.7109990  40.9785840  46.4852390  36.7940750
  40.9355470  46.1145300  37.6755210  41.1096850  47.4229960  36.9342570
  44.6791870  48.0411980  32.3950470  44.4383230  48.3086540  31.5080990
  45.6194510  48.2117710  32.4501330  40.0442110  32.8408990  35.9038330
  40.5925100  32.6597040  35.1404440  40.1097420  32.0503100  36.4394640
  40.8173870  49.4314640  33.9138530  40.2234190  49.2999340  34.6528570
  40.8097710  48.5952780  33.4480630  50.2628890  32.7246870  32.1168560
  49.3888730  33.0581980  31.9141490  50.1539640  32.2520050  32.9420430
  53.6235480  50.7029780  30.4747850  53.1638450  51.4545590  30.1005870
  52.9947940  49.9836250  30.4162650  40.4486100  46.7973020  32.8646570
  39.7220160  46.1778310  32.7972520  40.5095250  47.1913630  31.9944650
  44.0531200  49.0118020  29.6495980  44.5696220  48.4005380  29.1244240
  44.7028580  49.5146800  30.1406990  46.7926700  49.9026510  30.4764960
  47.0804510  49.6480810  29.5997970  47.3049920  49.3503870  31.0670530
  48.0103710  33.6416710  31.0561470  47.2275500  34.1162210  31.3358230
  47.7166640  32.7371540  30.9474650  52.5624780  34.3439810  29.1010560
  53.0032870  34.2884910  28.2532160  52.2932370  35.2597820  29.1720740
  54.4263350  33.9755050  27.1119380  54.3651750  33.0316270  26.9650400
  55.2055380  34.0835140  27.6572840  38.7316100  50.1147410  26.0743330
  38.5638140  49.4818090  26.7725220  37.8650610  50.3206810  25.7237520
  39.3544120  33.9464190  23.5775190  40.1123480  34.0593070  23.0039220
  38.8921290  34.7833390  23.5318620  45.8957930  36.0603460  26.5677500
  45.0832440  35.6860350  26.2273380  46.3999570  35.3048540  26.8698690
  50.3982910  32.7245910  27.8060570  51.0012280  33.2966120  28.2809090
  49.6575900  33.2885350  27.5834470  53.5417510  33.1267470  23.0800850
  53.7368140  34.0250920  23.3468280  52.7547380  32.8954550  23.5733800
  40.3378800  48.8080640  23.5193470  39.8126420  49.1888670  22.8155430
  40.2623380  49.4331410  24.2403180  41.7269270  34.4728240  22.1177160
  42.2562030  33.6858040  21.9885110  42.3597590  35.1519430  22.3512690
  43.9207110  34.2103380  25.1722550  43.2909850  33.5090690  25.3392680
  43.3812250  34.9707510  24.9555710  46.8599060  50.8242610  37.8433160
  47.7866370  50.5886880  37.8869120  46.8449490  51.6514610  37.3619190
  42.9371770  50.7563020  22.3942720  43.6690590  50.4722300  21.8466610
  43.1965440  50.5176300  23.2842100  42.0986560  46.8727750  22.3989050
  41.4695440  47.3412850  22.9474880  42.2134390  46.0276970  22.8335240
  49.5536280  40.9233410   8.5490250  49.4730330  40.0088020   8.2781960
  49.1400700  41.4200480   7.8429960  47.6854320  42.7012430  10.4299520
  46.9096420  42.2212870  10.7198090  48.3367250  42.0218080  10.2555680
  41.7020150  43.0132240  11.3075280  40.8705030  42.7580950  11.7071790
  42.3101130  43.0843010  12.0433200  51.7061750  47.1072620   9.2098650
  51.2443280  46.3359860   9.5385820  52.5187300  47.1338690   9.7151100
  41.6821410  47.0472330  11.5033300  41.9849450  46.1570070  11.3243520
  42.4265000  47.6042550  11.2755550  40.1112100  37.9734130   5.0917670
  39.2228800  38.3150100   4.9897550  40.3953290  37.7734450   4.1998500
  38.0745110  40.5739780  10.9757370  38.6461220  39.8061980  10.9761010
  38.0746650  40.8728540  10.0663980  47.9325060  49.3930630   8.8302640
  47.3136500  49.8488130   8.2597080  48.7876840  49.5482090   8.4292340
  47.1263310  45.3769620  10.4369680  47.0571590  44.4359560  10.2758810
  47.8883170  45.4671030  11.0092250  39.3169980  35.9824140  12.7626300
  39.1372820  35.0849890  13.0429060  38.9150060  36.5296010  13.4373250
  48.1568480  38.1840000  10.6638610  48.5333300  37.3111880  10.5512280
  48.0587990  38.5198700   9.7729050  42.2873490  36.5565630   6.1256050
  42.3940240  37.4569360   6.4324810  41.3765850  36.5083600   5.8350700
  51.9392600  35.6790440   7.5966950  52.7602220  35.1887010   7.6392430
  51.9726680  36.2688100   8.3498790  39.9356650  38.4784640  11.3708640
  40.6166760  38.7423010  11.9896040  39.6204700  37.6385510  11.7046650
  44.1281220  39.5252000  10.4581230  44.6359440  40.0232970  11.0986250
  44.6594460  38.7487200  10.2820590  56.2292150  37.6957190  14.1610580
  55.5244320  38.0838900  13.6425690  56.4950070  38.3907480  14.7631510
  42.4117320  34.1650560  14.7244650  42.4135760  34.6822950  13.9190550
  41.5821630  33.6880740  14.7014580  48.7988410  44.2769870   6.2234550
  48.1805680  44.7419320   5.6597270  49.3111660  44.9697350   6.6404060
  43.6620170  43.8045740  12.9018150  43.3289550  44.4314660  13.5439220
  43.8386850  44.3307620  12.1219820  52.1754080  37.6190820  10.3694490
  51.4709650  37.9075710  10.9497600  52.5366240  38.4290930  10.0094050
  42.0932650  35.8760520  12.7315100  42.4349460  36.7202570  12.4368970
  41.1548460  36.0244260  12.8480440  42.8739270  45.7726540  14.7167330
  43.4913270  46.4477620  14.4351780  42.0132390  46.1814520  14.6254830
  38.1671610  44.9626400   3.5974180  37.7899590  45.4513500   2.8659080
  38.4244680  45.6351680   4.2280710  53.7916860  47.2365950  12.6321970
  53.1080380  47.9065060  12.6238640  54.3311150  47.4346600  11.8666830
  55.2441000  37.0645610  10.7603700  54.2965910  37.0984590  10.8919130
  55.5690990  37.8784560  11.1453060  45.7760540  33.3642790   9.0559690
  46.0835520  32.8089680   8.3395190  44.8461240  33.4987250   8.8732680
  51.3275600  49.0810080  11.3467150  51.3402760  48.6772370  10.4789410
  50.7750820  49.8557370  11.2428580  52.6221020  45.8026300   6.4357320
  52.5117350  44.8600630   6.5606740  52.6189270  46.1641940   7.3220080
  50.7261040  43.9839920  12.6749760  51.1429830  43.7700030  11.8403220
  51.4500860  44.2412710  13.2458380  48.1641300  41.4291620   5.7919810
  47.2370580  41.3629000   6.0208280  48.3166120  42.3671750   5.6775050
  48.1510380  37.7008620   2.7886970  47.2114050  37.8622580   2.8739430
  48.4693640  38.4194300   2.2422960  54.6723140  42.3827140  12.7666000
  53.8441770  42.4520230  12.2916130  55.2673620  42.9681450  12.2981830
  52.1938590  42.9911920   6.2955060  51.5751010  42.6531470   5.6481360
  52.1763040  42.3471680   7.0034250  51.6365150  39.1696460  13.7120870
  51.2236330  39.9950170  13.9660860  50.9041100  38.5841500  13.5197230
  43.7697940  41.9556360   8.5739540  43.3654940  41.2433610   8.0785440
  43.8561060  41.6109600   9.4627580  44.2379640  45.6423920  10.7378750
  43.9407930  45.0369390  10.0586530  45.1879460  45.6801230  10.6268110
  42.4826560  38.7299570  12.3538580  43.0341150  38.8394910  11.5791830
  42.9970070  39.1037170  13.0693810  52.3265250  49.2155790  14.4001850
  51.8495810  50.0227980  14.2074460  51.6427040  48.5634120  14.5528060
  43.3298070  45.3805610  17.3886550  42.4326600  45.6045580  17.6359950
  43.3550940  45.5040550  16.4397950  50.3703290  42.2298730   3.3027810
  50.8096570  41.3921160   3.1565630  51.0831710  42.8628130   3.3891950
  42.1569290  42.2518930  15.9643920  42.0177060  43.1241730  16.3331320
  41.2750650  41.9091740  15.8191860  48.4798670  47.1694800   7.2709050
  48.9194580  47.9119130   6.8564440  48.4185560  47.4121370   8.1948010
  43.9549640  48.1940630  18.1729070  43.9265070  48.5983580  17.3057500
  43.7914610  47.2650990  18.0100670  40.4702570  40.8501340   6.0746190
  40.3500170  41.5763430   5.4627460  40.1603460  40.0804250   5.5974100
  55.9064460  48.9767730  19.4693240  56.3824180  49.4550620  20.1482320
  56.5271620  48.9085220  18.7438740  38.1087940  44.0216480  11.8814830
  38.1868360  44.1565250  10.9370550  38.7229620  43.3132370  12.0742950
  39.3535570  45.7216670   8.2921010  38.9463650  45.8631260   7.4374610
  40.2448580  45.4376830   8.0892220  55.3097710  46.1680580  16.6293250
  55.4360770  45.9292460  15.7110430  55.3519090  45.3365120  17.1015330
  49.1714450  49.8708580  15.1988060  49.6859120  49.7816590  16.0010490
  48.3283530  50.2168280  15.4915970  51.1468850  50.1563920   4.6272060
  50.9869990  49.8666860   5.5253890  50.9815560  49.3804050   4.0917290
  43.6257230  49.9362450   6.4043680  43.4499710  49.0197990   6.1911480
  42.7712970  50.2949740   6.6441480  50.8494980  47.6651480   3.1870060
  50.1560140  47.6628770   2.5272340  51.5917840  47.2410800   2.7564230
  50.4144910  49.2914190   7.2618550  50.8701860  48.5103570   7.5757170
  50.7537430  50.0021010   7.8059730  55.1621720  38.2213040  17.5942990
  54.5465990  38.7292710  17.0658450  54.8418140  37.3211370  17.5368930
  38.1647460  45.0630650  14.4209290  38.3278500  44.5936010  13.6028660
  38.6299910  44.5554210  15.0858130  42.9366230  34.1936410   9.4569860
  42.4934380  34.9745950   9.1254380  43.4951220  34.5166300  10.1640800
  47.2236040  37.0604930  15.0605180  46.7615410  37.2687950  15.8725120
  46.8214150  36.2464280  14.7575850  52.2240550  38.2813880  16.1901840
  51.3734140  37.9819630  16.5110910  52.0642340  38.5255890  15.2785660
  49.3190260  39.7815630  18.2900630  49.6443670  38.9479380  17.9502860
  50.1070590  40.3044150  18.4378960  46.0525050  33.8147110   4.3375690
  45.4279230  33.8106980   5.0629000  45.9655170  32.9478070   3.9411660
  44.9742130  34.7383740  11.3159460  45.2714460  35.6446570  11.2351480
  45.5227690  34.2502520  10.7019030  42.7280450  39.3169980   7.1851110
  42.5021370  39.1007150   8.0897730  41.9472980  39.7498440   6.8397080
  49.9578210  39.3233350   5.7841760  49.3587100  40.0469150   5.6005380
  50.5057820  39.2610130   5.0018210  45.1679660  40.2155560  17.8511380
  45.0723260  39.2750290  17.7011780  46.0111640  40.4370630  17.4559450
  48.5643080  37.9596890   7.8145040  48.9572650  38.2769090   7.0013730
  48.9259930  37.0808770   7.9289560  40.2990200  36.6269230  16.0045160
  39.9053590  37.4744440  16.2117940  39.6108600  35.9895600  16.1953800
  46.8735250  36.7104200  19.0741900  46.1833570  36.5176400  19.7087990
  47.6167550  36.9938840  19.6066200  37.6007250  34.5497690  10.0375240
  37.3120300  35.1200550  10.7500220  38.3453010  34.0702140  10.4006470
  49.1498220  40.5502640  11.9095820  48.4179340  41.0589450  12.2585920
  48.7522560  39.7332620  11.6084600  45.5875610  37.2256840  10.3148310
  45.5911670  36.7846790   9.4652850  46.4826730  37.5474170  10.4220130
  41.4377990  37.1083330   9.2742520  41.0978040  37.5858560  10.0309570
  40.6755310  36.6548450   8.9143620  45.6495760  38.2268920   3.3055070
  45.7708580  38.1855400   4.2540890  45.2644270  39.0893070   3.1501800
  49.6124130  36.0036320  11.3218760  49.6296870  36.4544970  12.1660610
  49.3639710  35.1041960  11.5352200  44.6617260  40.5370060   2.7038370
  44.0934160  40.0888310   2.0774280  45.3706260  40.8962840   2.1703520
  53.0394880  33.4168500  17.1605140  53.3640650  32.6858160  17.6863120
  53.0751390  33.0982140  16.2586130  39.7386440  44.4382080  16.5805100
  39.3541230  43.7975750  17.1788060  40.0498630  45.1418200  17.1499830
  45.8883580  41.2858620  12.0613720  46.2553710  40.8117190  12.8075060
  45.6988640  42.1600190  12.4022060  38.7524070  36.0302310   8.1907190
  38.4670990  35.6657980   9.0285810  38.6902930  35.2982770   7.5770330
  43.6782950  40.3267260  14.3797930  43.3740020  41.2059240  14.6048290
  44.6329410  40.3867050  14.4155370  42.2064740  44.5328250   4.9764780
  41.4327000  43.9925870   4.8163500  42.9359370  44.0134860   4.6382540
  52.9652720  43.5293610  10.7691170  53.6851840  44.0248900  10.3787280
  52.7634540  42.8511500  10.1245040  48.4262660  34.9231570   4.9120560
  47.6127270  34.4244740   4.8365870  48.2324610  35.7629820   4.4956910
  48.3471520  43.6002670  16.6560170  48.2808830  42.6798340  16.4017760
  47.7176660  43.6978110  17.3704810  51.1411050  39.2951220   3.2082720
  52.0290670  39.6068450   3.0334060  51.1116140  38.4223470   2.8163300
  42.2502140  44.2008630   8.6143590  42.7680810  43.3976890   8.5600480
  41.7986160  44.1387770   9.4560420  47.1371640  45.4674910   3.8870890
  47.4787340  46.2117140   3.3914210  46.3084350  45.7806030   4.2495720
  39.7346680  41.1670000  15.5269290  39.3761620  41.8323850  16.1142630
  39.4401240  40.3353550  15.8981910  42.9359800  41.6254240  18.4108840
  42.6359940  41.7711420  17.5136660  43.7071040  41.0659530  18.3182230
  48.2788250  46.4223240  16.4063970  48.2932790  45.4904200  16.1882880
  47.5713350  46.5083000  17.0453740  53.4125320  40.6063060   2.6762580
  53.3289040  41.0377280   1.8259020  54.1319510  41.0661410   3.1089400
  54.4899460  43.0630580  15.7532550  53.7647650  43.6559360  15.5561940
  55.0174920  43.0554120  14.9545920  54.4412570  47.4605320   5.4044710
  53.7988730  46.8060940   5.6788430  54.0543230  47.8660410   4.6285380
  50.0199050  44.7890750   9.2516400  50.3722870  44.1918880   8.5917770
  49.1361380  44.4634980   9.4224650  46.1062330  45.5488440   6.6586810
  46.7933460  46.0957650   7.0394400  45.3194750  46.0929170   6.6936420
  38.2454730  41.1661260   2.1503890  39.1149580  41.4486060   2.4339810
  37.7545050  41.9797130   2.0352700  45.4089540  42.5534470   6.2712170
  45.8652320  43.3639720   6.4972360  45.0577750  42.2357610   7.1030660
  47.7122150  48.0640810  13.5004470  48.3564370  48.2700190  14.1777890
  48.0751590  47.3029210  13.0475320  41.3101320  32.8972120   6.7434690
  41.1815950  32.8890020   7.6919610  40.4863340  33.2355210   6.3925700
  48.9854230  46.0673160  12.2181920  49.6276460  45.3666320  12.3314090
  49.5103580  46.8471600  12.0378810  50.7591850  46.8668060  15.4217980
  51.0948090  47.4534750  16.0995900  49.8392190  46.7360770  15.6515770
  38.6125980  50.3788640   2.7165520  38.9723620  50.9777980   2.0622790
  38.4718320  50.9248530   3.4900550  38.3095250  34.6563240  16.2041390
  37.5953770  34.8560160  16.8094000  38.7290290  33.8802810  16.5756190
  52.4126200  44.2693720   3.6035220  52.1247900  44.7306410   4.3913100
  53.2078370  43.8091490   3.8719440  38.5967840  48.6443500  17.1907920
  38.7058960  47.7038240  17.0503310  37.9448400  48.9098250  16.5421650
  46.5880430  46.9159390  18.5906040  46.2677300  46.1968630  19.1351730
  45.9138790  47.5914460  18.6642100  44.6294600  47.7619840   3.5339190
  44.6204700  48.4949530   2.9183700  43.7092960  47.5151420   3.6266150
  40.2301240  42.9834730   4.2785950  39.6229190  43.7233630   4.2881250
  40.7050590  43.0734090   3.4524150  49.8034030  37.1485550  13.9542840
  50.1714850  36.3280760  14.2822410  48.9432230  37.2087440  14.3698490
  53.1696060  36.1042490   4.7630400  52.5409220  36.2088160   4.0488630
  52.6747980  36.3239270   5.5524280  45.1380090  38.3828440   6.1788280
  44.4296240  38.8514780   6.6201890  45.4224570  37.7250450   6.8133470
  46.7636020  39.8025140  14.1780810  47.2621270  40.2770960  14.8432660
  46.9058970  38.8788660  14.3850840  49.1695520  35.1079100   7.6184070
  49.0463300  35.1265230   6.6693580  50.1180080  35.1558040   7.7382470
  46.2572310  50.3434400   6.8912050  46.5113810  50.3055790   5.9691420
  45.3084790  50.2167730   6.8840300  43.3415110  36.6913520   3.5538990
  44.1905640  37.1283670   3.4879180  42.9746380  37.0033780   4.3811050
  53.9702880  36.0193100  15.0209200  53.4676480  36.7598500  15.3603010
  54.7859540  36.4077100  14.7045990  52.2624890  41.2626280   8.4670560
  51.3215030  41.2776510   8.6418250  52.5768960  40.4762240   8.9130860
  40.9353290  40.3770950   2.7107410  41.0156880  39.4298460   2.8224810
  41.8273040  40.7077830   2.8168070  54.2650470  48.4335130  10.1424820
  54.3897890  49.2566300  10.6148630  55.1316030  48.2225860   9.7948970
  41.7368000  50.5266340   9.8141950  42.4730480  49.9781800  10.0850520
  42.1208920  51.3922350   9.6747940  38.6213480  46.5939910   5.6883460
  37.6953260  46.8361050   5.6788870  39.0869910  47.4214170   5.5668210
  40.7426280  49.7112410  19.0027530  41.5439010  50.0324460  19.4162930
  40.2278100  49.3507990  19.7247440  49.5790910  45.8192280  18.9502940
  48.9729070  45.8423880  18.2098690  49.2745020  45.0875320  19.4870190
  51.0091280  49.5472570  17.5612350  51.9613030  49.4630590  17.5112590
  50.8619500  50.2114280  18.2346140  53.9000480  48.9266780   3.0604260
  53.6141990  48.5131920   2.2458440  53.7020030  49.8554490   2.9404780
  38.4624090  42.1985870  17.9463580  38.9663110  41.6193150  18.5179810
  37.7231510  42.4826100  18.4839950  45.5162030  43.6056860  17.4799100
  44.7507700  44.1741860  17.3953770  45.6977990  43.3133070  16.5867330
  48.6050440  43.9820090   2.1051860  48.0560540  44.4289390   2.7494600
  49.2269700  43.4769340   2.6289530  52.6585380  45.3362190  18.0374120
  53.3994850  45.6737950  17.5341580  51.8958060  45.5054250  17.4843890
  40.4947170  40.3415460  18.8413650  40.5352510  40.0429330  19.7498880
  41.3492670  40.7423070  18.6821170  44.2725560  42.9411010   4.0017160
  44.6941980  42.7750880   4.8448550  44.3976400  42.1311240   3.5072300
  42.4352980  38.9207560  16.8088140  41.9049440  38.4298510  16.1811480
  43.1041050  39.3491760  16.2746070  51.3331040  43.3877020  16.5729330
  51.7472060  43.5422100  17.4219750  50.3982040  43.5132240  16.7355110
  51.8053210  40.7273180  18.5768480  52.3873980  39.9725500  18.4888960
  51.9814980  41.2580620  17.7999960  42.9225280  35.8869930  16.8885430
  42.8282150  35.2690680  16.1636300  42.3422670  36.6136220  16.6615340
  45.6886720  34.4443170  13.9212820  45.2404020  34.4667430  13.0758370
  45.0551920  34.0462190  14.5183120  46.0946270  43.3397500  14.5425260
  46.5134380  44.1830230  14.3701500  45.1754900  43.4769540  14.3132040
  48.4310170  41.0713680  15.9263100  48.5506380  40.4754820  16.6657940
  49.2904170  41.1083370  15.5064400  50.7698070  41.6250870  14.5025610
  50.2433290  42.1493490  13.8990750  51.1129410  42.2578260  15.1335340
  43.9453690  49.6450510  15.6582990  43.4074780  50.3696570  15.3391690
  44.1987650  49.1680850  14.8680330  45.1978940  37.6135030  17.1838920
  45.7878630  37.3050880  17.8716740  44.3799180  37.1414780  17.3398820
  50.0172370  37.2300840  17.4171940  49.3287890  36.5682380  17.3521930
  50.7378390  36.7839110  17.8620400  50.6472770  33.8252470   3.4762200
  50.9275060  32.9820370   3.8321620  49.8738500  34.0575580   3.9900950
  46.8015900  50.8801720  15.9169640  46.7274600  51.7836860  16.2242010
  45.8994740  50.5613620  15.8891710  47.3501230  50.0460230   3.5396000
  48.2452020  50.3845200   3.5614760  47.3818860  49.3239640   2.9120280
  40.9897390  45.4187280   1.7683000  41.4272260  45.9616950   2.4240580
  41.4745120  44.5934230   1.7779340  38.2043190  48.2076310   9.2203260
  38.5346200  47.3397370   8.9881900  38.6334190  48.4134830  10.0508220
  42.8005110  46.5385320   6.8805230  42.5000650  46.4150290   7.7809140
  42.6942600  45.6793910   6.4720960  38.6933400  49.0746900  11.9584890
  38.2564390  49.2547700  12.7909040  39.2611080  49.8321520  11.8166610
  54.3295580  48.5763900  16.2462200  53.7297570  48.6356460  15.5026120
  54.4589480  47.6368880  16.3759050  55.0253490  43.0629200   4.0866110
  55.7872400  43.6325850   4.1925800  55.0407860  42.4956400   4.8574420
  38.5257830  41.5867130   8.3173770  37.8706670  41.3178770   7.6733470
  39.3635780  41.4771610   7.8675750  56.0313460  43.9179300   8.9308040
  56.4022290  43.1346620   8.5244010  56.6715390  44.6068400   8.7525340
  53.0147220  45.3015880  14.3438360  52.2007060  45.7313040  14.6064150
  53.4221420  45.9134290  13.7307410  51.4748270  36.3808420   2.5392260
  51.8933150  36.1939400   1.6988920  51.1684330  35.5287470   2.8495190
  54.9738000  41.2932560   6.2368060  54.5981600  40.5260490   5.8049350
  54.2441120  41.6755260   6.7242990  39.5633760  41.9719700  12.8577110
  39.9306800  41.8847100  13.7373130  38.9944580  41.2086250  12.7583970
  54.3637620  40.4404080  15.8707580  54.1323710  40.2116830  14.9705530
  54.6242170  41.3603630  15.8252470  39.1149760  38.8828790  16.7635530
  38.2205810  38.8495550  17.1029240  39.6547310  39.0815580  17.5286780
  52.8025690  35.6660510  18.6487280  53.6795870  35.6743910  19.0321280
  52.8146530  34.9291350  18.0379630  37.7395910  38.7966060   4.2599100
  36.8359990  39.0596260   4.0850760  38.2236530  39.0677230   3.4799060
  54.2488960  39.5190050   9.5375300  54.7726440  39.0252700   8.9065470
  54.8348380  39.6540410  10.2822870  54.4278680  39.6029920  13.0594850
  53.4781390  39.5693460  13.1739840  54.6091690  40.5130030  12.8244620
  53.7388930  38.7763400   5.4767710  54.2348050  38.5434270   6.2616590
  53.5405000  37.9375240   5.0605350  39.6189470  33.1577120  11.1118750
  40.2665660  32.6074500  10.6713910  40.0391310  33.4120270  11.9334560
  55.1676090  37.4124350   8.0105390  55.0575370  37.2580390   8.9487660
  55.9283680  36.8845290   7.7680800  53.5141810  33.3518480  14.4688390
  54.1514030  33.9652620  14.8347580  53.6616700  33.3879140  13.5237620
  56.1304850  36.0142930   3.8768240  55.3356350  35.9488050   4.4061150
  56.3348130  36.9493570   3.8653590  53.0723270  50.0534480   7.8706630
  53.6682340  49.7319050   7.1941050  53.3301420  49.5806300   8.6619900
  39.3721470  33.3132790  13.8544070  39.0236290  33.7696610  14.6202250
  39.0409170  32.4189920  13.9366500  40.9785840  46.4852390  18.0197260
  40.9355470  46.1145300  18.9011720  41.1096850  47.4229960  18.1599080
  44.6791870  48.0411980  13.6206980  44.4383230  48.3086540  12.7337500
  45.6194510  48.2117710  13.6757840  46.8846290  34.5044670  17.3763490
  46.8235180  35.0966500  18.1258900  47.8246670  34.3970630  17.2313750
  49.5220850  34.1614730  17.0155780  50.1361260  34.4794020  16.3536860
  50.0670410  33.6763320  17.6351640  55.9396030  50.0606360  14.4217620
  55.4454310  50.4575230  13.7044750  55.3309320  49.4355570  14.8154900
  40.0442110  32.8408990  17.1294840  40.5925100  32.6597040  16.3660950
  40.1097420  32.0503100  17.6651150  40.8173870  49.4314640  15.1395040
  40.2234190  49.2999340  15.8785080  40.8097710  48.5952780  14.6737140
  50.2628890  32.7246870  13.3425070  49.3888730  33.0581980  13.1398000
  50.1539640  32.2520050  14.1676940  51.1700870  34.9317740  14.7266790
  50.8414230  34.1169500  14.3468520  52.1183170  34.8887550  14.6032480
  53.6235480  50.7029780  11.7004360  53.1638450  51.4545590  11.3262380
  52.9947940  49.9836250  11.6419160  40.4486100  46.7973020  14.0903080
  39.7220160  46.1778310  14.0229030  40.5095250  47.1913630  13.2201160
  44.0531200  49.0118020  10.8752490  44.5696220  48.4005380  10.3500750
  44.7028580  49.5146800  11.3663500  46.7926700  49.9026510  11.7021470
  47.0804510  49.6480810  10.8254480  47.3049920  49.3503870  12.2927040
  48.0103710  33.6416710  12.2817980  47.2275500  34.1162210  12.5614740
  47.7166640  32.7371540  12.1731160  52.5624780  34.3439810  10.3267070
  53.0032870  34.2884910   9.4788670  52.2932370  35.2597820  10.3977250
  54.4263350  33.9755050   8.3375890  54.3651750  33.0316270   8.1906910
  55.2055380  34.0835140   8.8829350  38.7316100  50.1147410   7.2999840
  38.5638140  49.4818090   7.9981730  37.8650610  50.3206810   6.9494030
  39.3544120  33.9464190   4.8031700  40.1123480  34.0593070   4.2295730
  38.8921290  34.7833390   4.7575130  45.8957930  36.0603460   7.7934010
  45.0832440  35.6860350   7.4529890  46.3999570  35.3048540   8.0955200
  50.3982910  32.7245910   9.0317080  51.0012280  33.2966120   9.5065600
  49.6575900  33.2885350   8.8090980  53.5417510  33.1267470   4.3057360
  53.7368140  34.0250920   4.5724790  52.7547380  32.8954550   4.7990310
  40.3378800  48.8080640   4.7449980  39.8126420  49.1888670   4.0411940
  40.2623380  49.4331410   5.4659690  41.7269270  34.4728240   3.3433670
  42.2562030  33.6858040   3.2141620  42.3597590  35.1519430   3.5769200
  43.9207110  34.2103380   6.3979060  43.2909850  33.5090690   6.5649190
  43.3812250  34.9707510   6.1812220  46.8599060  50.8242610  19.0689670
  47.7866370  50.5886880  19.1125630  46.8449490  51.6514610  18.5875700
  55.0944120  50.3668180   6.0663920  55.2696310  49.6805920   5.4224840
  54.3965690  50.8915230   5.6740590  44.0462670  33.4887360  18.8331550
  43.7646940  33.9920960  18.0692370  44.4282370  32.6909110  18.4673680
  42.9371770  50.7563020   3.6199230  43.6690590  50.4722300   3.0723120
  43.1965440  50.5176300   4.5098610  42.0986560  46.8727750   3.6245560
  41.4695440  47.3412850   4.1731390  42.2134390  46.0276970   4.0591750
  50.6478130  32.9040940  19.4112020  50.5343580  33.2235550  20.3063540
  51.4647870  33.3053450  19.1149300  53.4276620  50.0512470  18.8930710
  54.2201940  49.5561700  18.6856670  53.7209770  50.7302610  19.5006320
  49.5536280  22.1489920  64.8720720  49.4730330  21.2344530  64.6012430
  49.1400700  22.6456990  64.1660430  47.6854320  23.9268940  66.7529990
  46.9096420  23.4469380  67.0428560  48.3367250  23.2474590  66.5786150
  41.7020150  24.2388750  67.6305750  40.8705030  23.9837460  68.0302260
  42.3101130  24.3099520  68.3663670  51.7061750  28.3329130  65.5329120
  51.2443280  27.5616370  65.8616290  52.5187300  28.3595200  66.0381570
  41.6821410  28.2728840  67.8263770  41.9849450  27.3826580  67.6473990
  42.4265000  28.8299060  67.5986020  40.1112100  19.1990640  61.4148140
  39.2228800  19.5406610  61.3128020  40.3953290  18.9990960  60.5228970
  38.0745110  21.7996290  67.2987840  38.6461220  21.0318490  67.2991480
  38.0746650  22.0985050  66.3894450  47.9325060  30.6187140  65.1533110
  47.3136500  31.0744640  64.5827550  48.7876840  30.7738600  64.7522810
  47.1263310  26.6026130  66.7600150  47.0571590  25.6616070  66.5989280
  47.8883170  26.6927540  67.3322720  39.3169980  17.2080650  69.0856770
  39.1372820  16.3106400  69.3659530  38.9150060  17.7552520  69.7603720
  48.1568480  19.4096510  66.9869080  48.5333300  18.5368390  66.8742750
  48.0587990  19.7455210  66.0959520  42.2873490  17.7822140  62.4486520
  42.3940240  18.6825870  62.7555280  41.3765850  17.7340110  62.1581170
  51.9392600  16.9046950  63.9197420  52.7602220  16.4143520  63.9622900
  51.9726680  17.4944610  64.6729260  39.9356650  19.7041150  67.6939110
  40.6166760  19.9679520  68.3126510  39.6204700  18.8642020  68.0277120
  44.1281220  20.7508510  66.7811700  44.6359440  21.2489480  67.4216720
  44.6594460  19.9743710  66.6051060  56.2292150  18.9213700  70.4841050
  55.5244320  19.3095410  69.9656160  56.4950070  19.6163990  71.0861980
  42.4117320  15.3907070  71.0475120  42.4135760  15.9079460  70.2421020
  41.5821630  14.9137250  71.0245050  48.7988410  25.5026380  62.5465020
  48.1805680  25.9675830  61.9827740  49.3111660  26.1953860  62.9634530
  43.6620170  25.0302250  69.2248620  43.3289550  25.6571170  69.8669690
  43.8386850  25.5564130  68.4450290  52.1754080  18.8447330  66.6924960
  51.4709650  19.1332220  67.2728070  52.5366240  19.6547440  66.3324520
  42.0932650  17.1017030  69.0545570  42.4349460  17.9459080  68.7599440
  41.1548460  17.2500770  69.1710910  42.8739270  26.9983050  71.0397800
  43.4913270  27.6734130  70.7582250  42.0132390  27.4071030  70.9485300
  38.1671610  26.1882910  59.9204650  37.7899590  26.6770010  59.1889550
  38.4244680  26.8608190  60.5511180  53.7916860  28.4622460  68.9552440
  53.1080380  29.1321570  68.9469110  54.3311150  28.6603110  68.1897300
  55.2441000  18.2902120  67.0834170  54.2965910  18.3241100  67.2149600
  55.5690990  19.1041070  67.4683530  45.7760540  14.5899300  65.3790160
  46.0835520  14.0346190  64.6625660  44.8461240  14.7243760  65.1963150
  51.3275600  30.3066590  67.6697620  51.3402760  29.9028880  66.8019880
  50.7750820  31.0813880  67.5659050  52.6221020  27.0282810  62.7587790
  52.5117350  26.0857140  62.8837210  52.6189270  27.3898450  63.6450550
  50.7261040  25.2096430  68.9980230  51.1429830  24.9956540  68.1633690
  51.4500860  25.4669220  69.5688850  48.1641300  22.6548130  62.1150280
  47.2370580  22.5885510  62.3438750  48.3166120  23.5928260  62.0005520
  48.1510380  18.9265130  59.1117440  47.2114050  19.0879090  59.1969900
  48.4693640  19.6450810  58.5653430  54.6723140  23.6083650  69.0896470
  53.8441770  23.6776740  68.6146600  55.2673620  24.1937960  68.6212300
  52.1938590  24.2168430  62.6185530  51.5751010  23.8787980  61.9711830
  52.1763040  23.5728190  63.3264720  51.6365150  20.3952970  70.0351340
  51.2236330  21.2206680  70.2891330  50.9041100  19.8098010  69.8427700
  43.7697940  23.1812870  64.8970010  43.3654940  22.4690120  64.4015910
  43.8561060  22.8366110  65.7858050  44.2379640  26.8680430  67.0609220
  43.9407930  26.2625900  66.3817000  45.1879460  26.9057740  66.9498580
  42.4826560  19.9556080  68.6769050  43.0341150  20.0651420  67.9022300
  42.9970070  20.3293680  69.3924280  52.3265250  30.4412300  70.7232320
  51.8495810  31.2484490  70.5304930  51.6427040  29.7890630  70.8758530
  43.3298070  26.6062120  73.7117020  42.4326600  26.8302090  73.9590420
  43.3550940  26.7297060  72.7628420  50.3703290  23.4555240  59.6258280
  50.8096570  22.6177670  59.4796100  51.0831710  24.0884640  59.7122420
  42.1569290  23.4775440  72.2874390  42.0177060  24.3498240  72.6561790
  41.2750650  23.1348250  72.1422330  48.4798670  28.3951310  63.5939520
  48.9194580  29.1375640  63.1794910  48.4185560  28.6377880  64.5178480
  43.9549640  29.4197140  74.4959540  43.9265070  29.8240090  73.6287970
  43.7914610  28.4907500  74.3331140  53.9520430  14.7098050  57.9399320
  53.6393090  14.8024880  58.8398390  54.7132900  15.2879080  57.8896750
  40.4702570  22.0757850  62.3976660  40.3500170  22.8019940  61.7857930
  40.1603460  21.3060760  61.9204570  38.1087940  25.2472990  68.2045300
  38.1868360  25.3821760  67.2601020  38.7229620  24.5388880  68.3973420
  39.3535570  26.9473180  64.6151480  38.9463650  27.0887770  63.7605080
  40.2448580  26.6633340  64.4122690  55.3097710  27.3937090  72.9523720
  55.4360770  27.1548970  72.0340900  55.3519090  26.5621630  73.4245800
  49.1714450  31.0965090  71.5218530  49.6859120  31.0073100  72.3240960
  48.3283530  31.4424790  71.8146440  51.1468850  31.3820430  60.9502530
  50.9869990  31.0923370  61.8484360  50.9815560  30.6060560  60.4147760
  43.6257230  31.1618960  62.7274150  43.4499710  30.2454500  62.5141950
  42.7712970  31.5206250  62.9671950  50.8494980  28.8907990  59.5100530
  50.1560140  28.8885280  58.8502810  51.5917840  28.4667310  59.0794700
  50.4144910  30.5170700  63.5849020  50.8701860  29.7360080  63.8987640
  50.7537430  31.2277520  64.1290200  55.1621720  19.4469550  73.9173460
  54.5465990  19.9549220  73.3888920  54.8418140  18.5467880  73.8599400
  38.1647460  26.2887160  70.7439760  38.3278500  25.8192520  69.9259130
  38.6299910  25.7810720  71.4088600  42.9366230  15.4192920  65.7800330
  42.4934380  16.2002460  65.4484850  43.4951220  15.7422810  66.4871270
  47.2236040  18.2861440  71.3835650  46.7615410  18.4944460  72.1955590
  46.8214150  17.4720790  71.0806320  52.2240550  19.5070390  72.5132310
  51.3734140  19.2076140  72.8341380  52.0642340  19.7512400  71.6016130
  49.3190260  21.0072140  74.6131100  49.6443670  20.1735890  74.2733330
  50.1070590  21.5300660  74.7609430  46.0525050  15.0403620  60.6606160
  45.4279230  15.0363490  61.3859470  45.9655170  14.1734580  60.2642130
  44.9742130  15.9640250  67.6389930  45.2714460  16.8703080  67.5581950
  45.5227690  15.4759030  67.0249500  42.7280450  20.5426490  63.5081580
  42.5021370  20.3263660  64.4128200  41.9472980  20.9754950  63.1627550
  49.9578210  20.5489860  62.1072230  49.3587100  21.2725660  61.9235850
  50.5057820  20.4866640  61.3248680  45.1679660  21.4412070  74.1741850
  45.0723260  20.5006800  74.0242250  46.0111640  21.6627140  73.7789920
  48.5643080  19.1853400  64.1375510  48.9572650  19.5025600  63.3244200
  48.9259930  18.3065280  64.2520030  40.2990200  17.8525740  72.3275630
  39.9053590  18.7000950  72.5348410  39.6108600  17.2152110  72.5184270
  37.6007250  15.7754200  66.3605710  37.3120300  16.3457060  67.0730690
  38.3453010  15.2958650  66.7236940  37.7877480  19.7174320  57.5708430
  37.7052150  20.6605080  57.7123420  37.4360540  19.5749230  56.6920780
  49.1498220  21.7759150  68.2326290  48.4179340  22.2845960  68.5816390
  48.7522560  20.9589130  67.9315070  45.5875610  18.4513350  66.6378780
  45.5911670  18.0103300  65.7883320  46.4826730  18.7730680  66.7450600
  41.4377990  18.3339840  65.5972990  41.0978040  18.8115070  66.3540040
  40.6755310  17.8804960  65.2374090  45.6495760  19.4525430  59.6285540
  45.7708580  19.4111910  60.5771360  45.2644270  20.3149580  59.4732270
  49.6124130  17.2292830  67.6449230  49.6296870  17.6801480  68.4891080
  49.3639710  16.3298470  67.8582670  44.6617260  21.7626570  59.0268840
  44.0934160  21.3144820  58.4004750  45.3706260  22.1219350  58.4933990
  53.0394880  14.6425010  73.4835610  53.3640650  13.9114670  74.0093590
  53.0751390  14.3238650  72.5816600  39.7386440  25.6638590  72.9035570
  39.3541230  25.0232260  73.5018530  40.0498630  26.3674710  73.4730300
  45.8883580  22.5115130  68.3844190  46.2553710  22.0373700  69.1305530
  45.6988640  23.3856700  68.7252530  38.7524070  17.2558820  64.5137660
  38.4670990  16.8914490  65.3516280  38.6902930  16.5239280  63.9000800
  43.6782950  21.5523770  70.7028400  43.3740020  22.4315750  70.9278760
  44.6329410  21.6123560  70.7385840  42.2064740  25.7584760  61.2995250
  41.4327000  25.2182380  61.1393970  42.9359370  25.2391370  60.9613010
  52.9652720  24.7550120  67.0921640  53.6851840  25.2505410  66.7017750
  52.7634540  24.0768010  66.4475510  48.4262660  16.1488080  61.2351030
  47.6127270  15.6501250  61.1596340  48.2324610  16.9886330  60.8187380
  48.3471520  24.8259180  72.9790640  48.2808830  23.9054850  72.7248230
  47.7176660  24.9234620  73.6935280  51.1411050  20.5207730  59.5313190
  52.0290670  20.8324960  59.3564530  51.1116140  19.6479980  59.1393770
  42.2502140  25.4265140  64.9374060  42.7680810  24.6233400  64.8830950
  41.7986160  25.3644280  65.7790890  47.1371640  26.6931420  60.2101360
  47.4787340  27.4373650  59.7144680  46.3084350  27.0062540  60.5726190
  39.7346680  22.3926510  71.8499760  39.3761620  23.0580360  72.4373100
  39.4401240  21.5610060  72.2212380  42.9359800  22.8510750  74.7339310
  42.6359940  22.9967930  73.8367130  43.7071040  22.2916040  74.6412700
  48.2788250  27.6479750  72.7294440  48.2932790  26.7160710  72.5113350
  47.5713350  27.7339510  73.3684210  53.4125320  21.8319570  58.9993050
  53.3289040  22.2633790  58.1489490  54.1319510  22.2917920  59.4319870
  54.4899460  24.2887090  72.0763020  53.7647650  24.8815870  71.8792410
  55.0174920  24.2810630  71.2776390  54.4412570  28.6861830  61.7275180
  53.7988730  28.0317450  62.0018900  54.0543230  29.0916920  60.9515850
  50.0199050  26.0147260  65.5746870  50.3722870  25.4175390  64.9148240
  49.1361380  25.6891490  65.7455120  46.1062330  26.7744950  62.9817280
  46.7933460  27.3214160  63.3624870  45.3194750  27.3185680  63.0166890
  38.2454730  22.3917770  58.4734360  39.1149580  22.6742570  58.7570280
  37.7545050  23.2053640  58.3583170  45.4089540  23.7790980  62.5942640
  45.8652320  24.5896230  62.8202830  45.0577750  23.4614120  63.4261130
  47.7122150  29.2897320  69.8234940  48.3564370  29.4956700  70.5008360
  48.0751590  28.5285720  69.3705790  41.3101320  14.1228630  63.0665160
  41.1815950  14.1146530  64.0150080  40.4863340  14.4611720  62.7156170
  48.9854230  27.2929670  68.5412390  49.6276460  26.5922830  68.6544560
  49.5103580  28.0728110  68.3609280  52.8309950  27.5778290  58.2651530
  52.6047530  26.8608730  58.8576170  52.4406150  27.3290730  57.4273280
  50.7591850  28.0924570  71.7448450  51.0948090  28.6791260  72.4226370
  49.8392190  27.9617280  71.9746240  38.6125980  31.6045150  59.0395990
  38.9723620  32.2034490  58.3853260  38.4718320  32.1505040  59.8131020
  38.3095250  15.8819750  72.5271860  37.5953770  16.0816670  73.1324470
  38.7290290  15.1059320  72.8986660  52.4126200  25.4950230  59.9265690
  52.1247900  25.9562920  60.7143570  53.2078370  25.0348000  60.1949910
  38.5967840  29.8700010  73.5138390  38.7058960  28.9294750  73.3733780
  37.9448400  30.1354760  72.8652120  44.6294600  28.9876350  59.8569660
  44.6204700  29.7206040  59.2414170  43.7092960  28.7407930  59.9496620
  40.2301240  24.2091240  60.6016420  39.6229190  24.9490140  60.6111720
  40.7050590  24.2990600  59.7754620  49.8034030  18.3742060  70.2773310
  50.1714850  17.5537270  70.6052880  48.9432230  18.4343950  70.6928960
  53.1696060  17.3299000  61.0860870  52.5409220  17.4344670  60.3719100
  52.6747980  17.5495780  61.8754750  47.6154200  29.0504590  58.5194850
  47.7166180  28.8468580  57.5896830  46.7155940  28.7962870  58.7242630
  45.1380090  19.6084950  62.5018750  44.4296240  20.0771290  62.9432360
  45.4224570  18.9506960  63.1363940  46.7636020  21.0281650  70.5011280
  47.2621270  21.5027470  71.1663130  46.9058970  20.1045170  70.7081310
  49.1695520  16.3335610  63.9414540  49.0463300  16.3521740  62.9924050
  50.1180080  16.3814550  64.0612940  46.2572310  31.5690910  63.2142520
  46.5113810  31.5312300  62.2921890  45.3084790  31.4424240  63.2070770
  43.3415110  17.9170030  59.8769460  44.1905640  18.3540180  59.8109650
  42.9746380  18.2290290  60.7041520  53.9702880  17.2449610  71.3439670
  53.4676480  17.9855010  71.6833480  54.7859540  17.6333610  71.0276460
  52.2624890  22.4882790  64.7901030  51.3215030  22.5033020  64.9648720
  52.5768960  21.7018750  65.2361330  42.2406530  24.1702390  58.3504990
  43.0069800  24.0583750  58.9130420  42.3181220  23.4740360  57.6981760
  40.9353290  21.6027460  59.0337880  41.0156880  20.6554970  59.1455280
  41.8273040  21.9334340  59.1398540  54.2650470  29.6591640  66.4655290
  54.3897890  30.4822810  66.9379100  55.1316030  29.4482370  66.1179440
  41.7368000  31.7522850  66.1372420  42.4730480  31.2038310  66.4080990
  42.1208920  32.6178860  65.9978410  38.6213480  27.8196420  62.0113930
  37.6953260  28.0617560  62.0019340  39.0869910  28.6470680  61.8898680
  44.8470310  30.9253160  57.9597990  45.6398920  31.2141990  57.5079780
  44.3274660  30.4945330  57.2810470  51.0091280  30.7729080  73.8842820
  51.9613030  30.6887100  73.8343060  50.8619500  31.4370790  74.5576610
  53.9000480  30.1523290  59.3834730  53.6141990  29.7388430  58.5688910
  53.7020030  31.0811000  59.2635250  38.4624090  23.4242380  74.2694050
  38.9663110  22.8449660  74.8410280  37.7231510  23.7082610  74.8070420
  45.3647710  26.1456570  57.8240340  45.2598350  25.5308920  58.5501720
  45.1971930  25.6222460  57.0403350  45.5162030  24.8313370  73.8029570
  44.7507700  25.3998370  73.7184240  45.6977990  24.5389580  72.9097800
  48.6050440  25.2076600  58.4282330  48.0560540  25.6545900  59.0725070
  49.2269700  24.7025850  58.9520000  52.6585380  26.5618700  74.3604590
  53.3994850  26.8994460  73.8572050  51.8958060  26.7310760  73.8074360
  44.2725560  24.1667520  60.3247630  44.6941980  24.0007390  61.1679020
  44.3976400  23.3567750  59.8302770  42.4352980  20.1464070  73.1318610
  41.9049440  19.6555020  72.5041950  43.1041050  20.5748270  72.5976540
  46.7853200  23.1905130  57.5724730  47.3058860  22.4754150  57.2065880
  47.4321600  23.8291000  57.8725240  51.3331040  24.6133530  72.8959800
  51.7472060  24.7678610  73.7450220  50.3982040  24.7388750  73.0585580
  51.8053210  21.9529690  74.8998950  52.3873980  21.1982010  74.8119430
  51.9814980  22.4837130  74.1230430  42.9225280  17.1126440  73.2115900
  42.8282150  16.4947190  72.4866770  42.3422670  17.8392730  72.9845810
  45.6886720  15.6699680  70.2443290  45.2404020  15.6923940  69.3988840
  45.0551920  15.2718700  70.8413590  46.0946270  24.5654010  70.8655730
  46.5134380  25.4086740  70.6931970  45.1754900  24.7026050  70.6362510
  48.4310170  22.2970190  72.2493570  48.5506380  21.7011330  72.9888410
  49.2904170  22.3339880  71.8294870  50.7698070  22.8507380  70.8256080
  50.2433290  23.3750000  70.2221220  51.1129410  23.4834770  71.4565810
  43.1684460  20.2400750  57.2705790  42.9673520  19.3768110  57.6319130
  42.9976510  20.1534110  56.3327390  43.9453690  30.8707020  71.9813460
  43.4074780  31.5953080  71.6622160  44.1987650  30.3937360  71.1910800
  45.1978940  18.8391540  73.5069390  45.7878630  18.5307390  74.1947210
  44.3799180  18.3671290  73.6629290  50.0172370  18.4557350  73.7402410
  49.3287890  17.7938890  73.6752400  50.7378390  18.0095620  74.1850870
  50.6472770  15.0508980  59.7992670  50.9275060  14.2076880  60.1552090
  49.8738500  15.2832090  60.3131420  41.9667260  17.3401370  57.2583670
  42.2693160  17.3468800  56.3502820  42.7061850  16.9899230  57.7551330
  46.8015900  32.1058230  72.2400110  46.7274600  33.0093370  72.5472480
  45.8994740  31.7870130  72.2122180  45.1852190  16.2835990  58.2439870
  44.8374190  15.6059980  57.6642320  45.3864960  15.8225500  59.0583260
  47.3501230  31.2716740  59.8626470  48.2452020  31.6101710  59.8845230
  47.3818860  30.5496150  59.2350750  40.9897390  26.6443790  58.0913470
  41.4272260  27.1873460  58.7471050  41.4745120  25.8190740  58.1009810
  38.2043190  29.4332820  65.5433730  38.5346200  28.5653880  65.3112370
  38.6334190  29.6391340  66.3738690  42.8005110  27.7641830  63.2035700
  42.5000650  27.6406800  64.1039610  42.6942600  26.9050420  62.7951430
  38.6933400  30.3003410  68.2815360  38.2564390  30.4804210  69.1139510
  39.2611080  31.0578030  68.1397080  54.3295580  29.8020410  72.5692670
  53.7297570  29.8612970  71.8256590  54.4589480  28.8625390  72.6989520
  55.5697030  27.5438230  57.9062380  54.7389990  27.6114880  58.3769610
  55.7468860  28.4342350  57.6029240  55.0253490  24.2885710  60.4096580
  55.7872400  24.8582360  60.5156270  55.0407860  23.7212910  61.1804890
  38.5257830  22.8123640  64.6404240  37.8706670  22.5435280  63.9963940
  39.3635780  22.7028120  64.1906220  56.0313460  25.1435810  65.2538510
  56.4022290  24.3603130  64.8474480  56.6715390  25.8324910  65.0755810
  53.0147220  26.5272390  70.6668830  52.2007060  26.9569550  70.9294620
  53.4221420  27.1390800  70.0537880  55.0772660  24.5820080  57.5669100
  55.3521500  25.4898960  57.4388320  54.8883400  24.5182610  58.5031090
  51.4748270  17.6064930  58.8622730  51.8933150  17.4195910  58.0219390
  51.1684330  16.7543980  59.1725660  54.9738000  22.5189070  62.5598530
  54.5981600  21.7517000  62.1279820  54.2441120  22.9011770  63.0473460
  39.5633760  23.1976210  69.1807580  39.9306800  23.1103610  70.0603600
  38.9944580  22.4342760  69.0814440  54.3637620  21.6660590  72.1938050
  54.1323710  21.4373340  71.2936000  54.6242170  22.5860140  72.1482940
  39.1149760  20.1085300  73.0866000  38.2205810  20.0752060  73.4259710
  39.6547310  20.3072090  73.8517250  37.7395910  20.0222570  60.5829570
  36.8359990  20.2852770  60.4081230  38.2236530  20.2933740  59.8029530
  54.2488960  20.7446560  65.8605770  54.7726440  20.2509210  65.2295940
  54.8348380  20.8796920  66.6053340  54.4278680  20.8286430  69.3825320
  53.4781390  20.7949970  69.4970310  54.6091690  21.7386540  69.1475090
  40.2823120  19.0788110  58.4923950  40.9914820  18.6571330  58.0071230
  39.5663060  19.1463340  57.8607300  39.9297280  15.1327440  57.5326600
  40.6525410  15.6736380  57.8507820  40.2021800  14.8590860  56.6568140
  53.7388930  20.0019910  61.7998180  54.2348050  19.7690780  62.5847060
  53.5405000  19.1631750  61.3835820  39.6189470  14.3833630  67.4349220
  40.2665660  13.8331010  66.9944380  40.0391310  14.6376780  68.2565030
  55.1676090  18.6380860  64.3335860  55.0575370  18.4836900  65.2718130
  55.9283680  18.1101800  64.0911270  53.5141810  14.5774990  70.7918860
  54.1514030  15.1909130  71.1578050  53.6616700  14.6135650  69.8468090
  56.0566360  16.4688780  57.5742000  56.9815670  16.3369960  57.3660290
  56.0342150  16.5481600  58.5278450  56.1304850  17.2399440  60.1998710
  55.3356350  17.1744560  60.7291620  56.3348130  18.1750080  60.1884060
  53.0723270  31.2790990  64.1937100  53.6682340  30.9575560  63.5171520
  53.3301420  30.8062810  64.9850370  39.3721470  14.5389300  70.1774540
  39.0236290  14.9953120  70.9432720  39.0409170  13.6446430  70.2596970
  44.6791870  29.2668490  69.9437450  44.4383230  29.5343050  69.0567970
  45.6194510  29.4374220  69.9988310  46.8846290  15.7301180  73.6993960
  46.8235180  16.3223010  74.4489370  47.8246670  15.6227140  73.5544220
  49.5220850  15.3871240  73.3386250  50.1361260  15.7050530  72.6767330
  50.0670410  14.9019830  73.9582110  55.9396030  31.2862870  70.7448090
  55.4454310  31.6831740  70.0275220  55.3309320  30.6612080  71.1385370
  40.0442110  14.0665500  73.4525310  40.5925100  13.8853550  72.6891420
  40.1097420  13.2759610  73.9881620  40.8173870  30.6571150  71.4625510
  40.2234190  30.5255850  72.2015550  40.8097710  29.8209290  70.9967610
  50.2628890  13.9503380  69.6655540  49.3888730  14.2838490  69.4628470
  50.1539640  13.4776560  70.4907410  51.1700870  16.1574250  71.0497260
  50.8414230  15.3426010  70.6698990  52.1183170  16.1144060  70.9262950
  53.6235480  31.9286290  68.0234830  53.1638450  32.6802100  67.6492850
  52.9947940  31.2092760  67.9649630  40.4486100  28.0229530  70.4133550
  39.7220160  27.4034820  70.3459500  40.5095250  28.4170140  69.5431630
  44.0531200  30.2374530  67.1982960  44.5696220  29.6261890  66.6731220
  44.7028580  30.7403310  67.6893970  46.7926700  31.1283020  68.0251940
  47.0804510  30.8737320  67.1484950  47.3049920  30.5760380  68.6157510
  48.0103710  14.8673220  68.6048450  47.2275500  15.3418720  68.8845210
  47.7166640  13.9628050  68.4961630  52.5624780  15.5696320  66.6497540
  53.0032870  15.5141420  65.8019140  52.2932370  16.4854330  66.7207720
  54.4263350  15.2011560  64.6606360  54.3651750  14.2572780  64.5137380
  55.2055380  15.3091650  65.2059820  38.7316100  31.3403920  63.6230310
  38.5638140  30.7074600  64.3212200  37.8650610  31.5463320  63.2724500
  39.3544120  15.1720700  61.1262170  40.1123480  15.2849580  60.5526200
  38.8921290  16.0089900  61.0805600  45.8957930  17.2859970  64.1164480
  45.0832440  16.9116860  63.7760360  46.3999570  16.5305050  64.4185670
  50.3982910  13.9502420  65.3547550  51.0012280  14.5222630  65.8296070
  49.6575900  14.5141860  65.1321450  53.5417510  14.3523980  60.6287830
  53.7368140  15.2507430  60.8955260  52.7547380  14.1211060  61.1220780
  40.3378800  30.0337150  61.0680450  39.8126420  30.4145180  60.3642410
  40.2623380  30.6587920  61.7890160  41.7269270  15.6984750  59.6664140
  42.2562030  14.9114550  59.5372090  42.3597590  16.3775940  59.8999670
  43.9207110  15.4359890  62.7209530  43.2909850  14.7347200  62.8879660
  43.3812250  16.1964020  62.5042690  55.0944120  31.5924690  62.3894390
  55.2696310  30.9062430  61.7455310  54.3965690  32.1171740  61.9971060
  42.9371770  31.9819530  59.9429700  43.6690590  31.6978810  59.3953590
  43.1965440  31.7432810  60.8329080  42.0986560  28.0984260  59.9476030
  41.4695440  28.5669360  60.4961860  42.2134390  27.2533480  60.3822220
  49.5536280  22.1489920  46.0977230  49.4730330  21.2344530  45.8268940
  49.1400700  22.6456990  45.3916940  47.6854320  23.9268940  47.9786500
  46.9096420  23.4469380  48.2685070  48.3367250  23.2474590  47.8042660
  41.7020150  24.2388750  48.8562260  40.8705030  23.9837460  49.2558770
  42.3101130  24.3099520  49.5920180  51.7061750  28.3329130  46.7585630
  51.2443280  27.5616370  47.0872800  52.5187300  28.3595200  47.2638080
  41.6821410  28.2728840  49.0520280  41.9849450  27.3826580  48.8730500
  42.4265000  28.8299060  48.8242530  40.1112100  19.1990640  42.6404650
  39.2228800  19.5406610  42.5384530  40.3953290  18.9990960  41.7485480
  38.0745110  21.7996290  48.5244350  38.6461220  21.0318490  48.5247990
  38.0746650  22.0985050  47.6150960  47.9325060  30.6187140  46.3789620
  47.3136500  31.0744640  45.8084060  48.7876840  30.7738600  45.9779320
  47.1263310  26.6026130  47.9856660  47.0571590  25.6616070  47.8245790
  47.8883170  26.6927540  48.5579230  39.3169980  17.2080650  50.3113280
  39.1372820  16.3106400  50.5916040  38.9150060  17.7552520  50.9860230
  48.1568480  19.4096510  48.2125590  48.5333300  18.5368390  48.0999260
  48.0587990  19.7455210  47.3216030  42.2873490  17.7822140  43.6743030
  42.3940240  18.6825870  43.9811790  41.3765850  17.7340110  43.3837680
  51.9392600  16.9046950  45.1453930  52.7602220  16.4143520  45.1879410
  51.9726680  17.4944610  45.8985770  39.9356650  19.7041150  48.9195620
  40.6166760  19.9679520  49.5383020  39.6204700  18.8642020  49.2533630
  44.1281220  20.7508510  48.0068210  44.6359440  21.2489480  48.6473230
  44.6594460  19.9743710  47.8307570  56.2292150  18.9213700  51.7097560
  55.5244320  19.3095410  51.1912670  56.4950070  19.6163990  52.3118490
  42.4117320  15.3907070  52.2731630  42.4135760  15.9079460  51.4677530
  41.5821630  14.9137250  52.2501560  48.7988410  25.5026380  43.7721530
  48.1805680  25.9675830  43.2084250  49.3111660  26.1953860  44.1891040
  43.6620170  25.0302250  50.4505130  43.3289550  25.6571170  51.0926200
  43.8386850  25.5564130  49.6706800  52.1754080  18.8447330  47.9181470
  51.4709650  19.1332220  48.4984580  52.5366240  19.6547440  47.5581030
  42.0932650  17.1017030  50.2802080  42.4349460  17.9459080  49.9855950
  41.1548460  17.2500770  50.3967420  42.8739270  26.9983050  52.2654310
  43.4913270  27.6734130  51.9838760  42.0132390  27.4071030  52.1741810
  38.1671610  26.1882910  41.1461160  37.7899590  26.6770010  40.4146060
  38.4244680  26.8608190  41.7767690  53.7916860  28.4622460  50.1808950
  53.1080380  29.1321570  50.1725620  54.3311150  28.6603110  49.4153810
  55.2441000  18.2902120  48.3090680  54.2965910  18.3241100  48.4406110
  55.5690990  19.1041070  48.6940040  45.7760540  14.5899300  46.6046670
  46.0835520  14.0346190  45.8882170  44.8461240  14.7243760  46.4219660
  51.3275600  30.3066590  48.8954130  51.3402760  29.9028880  48.0276390
  50.7750820  31.0813880  48.7915560  52.6221020  27.0282810  43.9844300
  52.5117350  26.0857140  44.1093720  52.6189270  27.3898450  44.8707060
  50.7261040  25.2096430  50.2236740  51.1429830  24.9956540  49.3890200
  51.4500860  25.4669220  50.7945360  48.1641300  22.6548130  43.3406790
  47.2370580  22.5885510  43.5695260  48.3166120  23.5928260  43.2262030
  48.1510380  18.9265130  40.3373950  47.2114050  19.0879090  40.4226410
  48.4693640  19.6450810  39.7909940  54.6723140  23.6083650  50.3152980
  53.8441770  23.6776740  49.8403110  55.2673620  24.1937960  49.8468810
  52.1938590  24.2168430  43.8442040  51.5751010  23.8787980  43.1968340
  52.1763040  23.5728190  44.5521230  51.6365150  20.3952970  51.2607850
  51.2236330  21.2206680  51.5147840  50.9041100  19.8098010  51.0684210
  43.7697940  23.1812870  46.1226520  43.3654940  22.4690120  45.6272420
  43.8561060  22.8366110  47.0114560  44.2379640  26.8680430  48.2865730
  43.9407930  26.2625900  47.6073510  45.1879460  26.9057740  48.1755090
  42.4826560  19.9556080  49.9025560  43.0341150  20.0651420  49.1278810
  42.9970070  20.3293680  50.6180790  52.3265250  30.4412300  51.9488830
  51.8495810  31.2484490  51.7561440  51.6427040  29.7890630  52.1015040
  43.3298070  26.6062120  54.9373530  42.4326600  26.8302090  55.1846930
  43.3550940  26.7297060  53.9884930  50.3703290  23.4555240  40.8514790
  50.8096570  22.6177670  40.7052610  51.0831710  24.0884640  40.9378930
  42.1569290  23.4775440  53.5130900  42.0177060  24.3498240  53.8818300
  41.2750650  23.1348250  53.3678840  48.4798670  28.3951310  44.8196030
  48.9194580  29.1375640  44.4051420  48.4185560  28.6377880  45.7434990
  43.9549640  29.4197140  55.7216050  43.9265070  29.8240090  54.8544480
  43.7914610  28.4907500  55.5587650  53.9520430  14.7098050  39.1655830
  53.6393090  14.8024880  40.0654900  54.7132900  15.2879080  39.1153260
  40.4702570  22.0757850  43.6233170  40.3500170  22.8019940  43.0114440
  40.1603460  21.3060760  43.1461080  55.9064460  30.2024240  57.0180220
  56.3824180  30.6807130  57.6969300  56.5271620  30.1341730  56.2925720
  38.1087940  25.2472990  49.4301810  38.1868360  25.3821760  48.4857530
  38.7229620  24.5388880  49.6229930  39.3535570  26.9473180  45.8407990
  38.9463650  27.0887770  44.9861590  40.2448580  26.6633340  45.6379200
  55.3097710  27.3937090  54.1780230  55.4360770  27.1548970  53.2597410
  55.3519090  26.5621630  54.6502310  49.1714450  31.0965090  52.7475040
  49.6859120  31.0073100  53.5497470  48.3283530  31.4424790  53.0402950
  51.1468850  31.3820430  42.1759040  50.9869990  31.0923370  43.0740870
  50.9815560  30.6060560  41.6404270  43.6257230  31.1618960  43.9530660
  43.4499710  30.2454500  43.7398460  42.7712970  31.5206250  44.1928460
  50.8494980  28.8907990  40.7357040  50.1560140  28.8885280  40.0759320
  51.5917840  28.4667310  40.3051210  50.4144910  30.5170700  44.8105530
  50.8701860  29.7360080  45.1244150  50.7537430  31.2277520  45.3546710
  55.1621720  19.4469550  55.1429970  54.5465990  19.9549220  54.6145430
  54.8418140  18.5467880  55.0855910  38.1647460  26.2887160  51.9696270
  38.3278500  25.8192520  51.1515640  38.6299910  25.7810720  52.6345110
  42.9366230  15.4192920  47.0056840  42.4934380  16.2002460  46.6741360
  43.4951220  15.7422810  47.7127780  47.2236040  18.2861440  52.6092160
  46.7615410  18.4944460  53.4212100  46.8214150  17.4720790  52.3062830
  52.2240550  19.5070390  53.7388820  51.3734140  19.2076140  54.0597890
  52.0642340  19.7512400  52.8272640  49.3190260  21.0072140  55.8387610
  49.6443670  20.1735890  55.4989840  50.1070590  21.5300660  55.9865940
  46.0525050  15.0403620  41.8862670  45.4279230  15.0363490  42.6115980
  45.9655170  14.1734580  41.4898640  44.9742130  15.9640250  48.8646440
  45.2714460  16.8703080  48.7838460  45.5227690  15.4759030  48.2506010
  42.7280450  20.5426490  44.7338090  42.5021370  20.3263660  45.6384710
  41.9472980  20.9754950  44.3884060  49.9578210  20.5489860  43.3328740
  49.3587100  21.2725660  43.1492360  50.5057820  20.4866640  42.5505190
  45.1679660  21.4412070  55.3998360  45.0723260  20.5006800  55.2498760
  46.0111640  21.6627140  55.0046430  48.5643080  19.1853400  45.3632020
  48.9572650  19.5025600  44.5500710  48.9259930  18.3065280  45.4776540
  40.2990200  17.8525740  53.5532140  39.9053590  18.7000950  53.7604920
  39.6108600  17.2152110  53.7440780  46.8735250  17.9360710  56.6228880
  46.1833570  17.7432910  57.2574970  47.6167550  18.2195350  57.1553180
  37.6007250  15.7754200  47.5862220  37.3120300  16.3457060  48.2987200
  38.3453010  15.2958650  47.9493450  37.7877480  19.7174320  38.7964940
  37.7052150  20.6605080  38.9379930  37.4360540  19.5749230  37.9177290
  49.1498220  21.7759150  49.4582800  48.4179340  22.2845960  49.8072900
  48.7522560  20.9589130  49.1571580  45.5875610  18.4513350  47.8635290
  45.5911670  18.0103300  47.0139830  46.4826730  18.7730680  47.9707110
  41.4377990  18.3339840  46.8229500  41.0978040  18.8115070  47.5796550
  40.6755310  17.8804960  46.4630600  45.6495760  19.4525430  40.8542050
  45.7708580  19.4111910  41.8027870  45.2644270  20.3149580  40.6988780
  49.6124130  17.2292830  48.8705740  49.6296870  17.6801480  49.7147590
  49.3639710  16.3298470  49.0839180  44.6617260  21.7626570  40.2525350
  44.0934160  21.3144820  39.6261260  45.3706260  22.1219350  39.7190500
  53.0394880  14.6425010  54.7092120  53.3640650  13.9114670  55.2350100
  53.0751390  14.3238650  53.8073110  39.7386440  25.6638590  54.1292080
  39.3541230  25.0232260  54.7275040  40.0498630  26.3674710  54.6986810
  45.8883580  22.5115130  49.6100700  46.2553710  22.0373700  50.3562040
  45.6988640  23.3856700  49.9509040  38.7524070  17.2558820  45.7394170
  38.4670990  16.8914490  46.5772790  38.6902930  16.5239280  45.1257310
  43.6782950  21.5523770  51.9284910  43.3740020  22.4315750  52.1535270
  44.6329410  21.6123560  51.9642350  42.2064740  25.7584760  42.5251760
  41.4327000  25.2182380  42.3650480  42.9359370  25.2391370  42.1869520
  52.9652720  24.7550120  48.3178150  53.6851840  25.2505410  47.9274260
  52.7634540  24.0768010  47.6732020  48.4262660  16.1488080  42.4607540
  47.6127270  15.6501250  42.3852850  48.2324610  16.9886330  42.0443890
  48.3471520  24.8259180  54.2047150  48.2808830  23.9054850  53.9504740
  47.7176660  24.9234620  54.9191790  51.1411050  20.5207730  40.7569700
  52.0290670  20.8324960  40.5821040  51.1116140  19.6479980  40.3650280
  42.2502140  25.4265140  46.1630570  42.7680810  24.6233400  46.1087460
  41.7986160  25.3644280  47.0047400  47.1371640  26.6931420  41.4357870
  47.4787340  27.4373650  40.9401190  46.3084350  27.0062540  41.7982700
  39.7346680  22.3926510  53.0756270  39.3761620  23.0580360  53.6629610
  39.4401240  21.5610060  53.4468890  42.9359800  22.8510750  55.9595820
  42.6359940  22.9967930  55.0623640  43.7071040  22.2916040  55.8669210
  48.2788250  27.6479750  53.9550950  48.2932790  26.7160710  53.7369860
  47.5713350  27.7339510  54.5940720  53.4125320  21.8319570  40.2249560
  53.3289040  22.2633790  39.3746000  54.1319510  22.2917920  40.6576380
  54.4899460  24.2887090  53.3019530  53.7647650  24.8815870  53.1048920
  55.0174920  24.2810630  52.5032900  54.4412570  28.6861830  42.9531690
  53.7988730  28.0317450  43.2275410  54.0543230  29.0916920  42.1772360
  50.0199050  26.0147260  46.8003380  50.3722870  25.4175390  46.1404750
  49.1361380  25.6891490  46.9711630  46.1062330  26.7744950  44.2073790
  46.7933460  27.3214160  44.5881380  45.3194750  27.3185680  44.2423400
  38.2454730  22.3917770  39.6990870  39.1149580  22.6742570  39.9826790
  37.7545050  23.2053640  39.5839680  45.4089540  23.7790980  43.8199150
  45.8652320  24.5896230  44.0459340  45.0577750  23.4614120  44.6517640
  47.7122150  29.2897320  51.0491450  48.3564370  29.4956700  51.7264870
  48.0751590  28.5285720  50.5962300  41.3101320  14.1228630  44.2921670
  41.1815950  14.1146530  45.2406590  40.4863340  14.4611720  43.9412680
  48.9854230  27.2929670  49.7668900  49.6276460  26.5922830  49.8801070
  49.5103580  28.0728110  49.5865790  52.8309950  27.5778290  39.4908040
  52.6047530  26.8608730  40.0832680  52.4406150  27.3290730  38.6529790
  50.7591850  28.0924570  52.9704960  51.0948090  28.6791260  53.6482880
  49.8392190  27.9617280  53.2002750  38.6125980  31.6045150  40.2652500
  38.9723620  32.2034490  39.6109770  38.4718320  32.1505040  41.0387530
  38.3095250  15.8819750  53.7528370  37.5953770  16.0816670  54.3580980
  38.7290290  15.1059320  54.1243170  52.4126200  25.4950230  41.1522200
  52.1247900  25.9562920  41.9400080  53.2078370  25.0348000  41.4206420
  38.5967840  29.8700010  54.7394900  38.7058960  28.9294750  54.5990290
  37.9448400  30.1354760  54.0908630  46.5880430  28.1415900  56.1393020
  46.2677300  27.4225140  56.6838710  45.9138790  28.8170970  56.2129080
  44.6294600  28.9876350  41.0826170  44.6204700  29.7206040  40.4670680
  43.7092960  28.7407930  41.1753130  40.2301240  24.2091240  41.8272930
  39.6229190  24.9490140  41.8368230  40.7050590  24.2990600  41.0011130
  49.8034030  18.3742060  51.5029820  50.1714850  17.5537270  51.8309390
  48.9432230  18.4343950  51.9185470  53.1696060  17.3299000  42.3117380
  52.5409220  17.4344670  41.5975610  52.6747980  17.5495780  43.1011260
  47.6154200  29.0504590  39.7451360  47.7166180  28.8468580  38.8153340
  46.7155940  28.7962870  39.9499140  45.1380090  19.6084950  43.7275260
  44.4296240  20.0771290  44.1688870  45.4224570  18.9506960  44.3620450
  46.7636020  21.0281650  51.7267790  47.2621270  21.5027470  52.3919640
  46.9058970  20.1045170  51.9337820  49.1695520  16.3335610  45.1671050
  49.0463300  16.3521740  44.2180560  50.1180080  16.3814550  45.2869450
  46.2572310  31.5690910  44.4399030  46.5113810  31.5312300  43.5178400
  45.3084790  31.4424240  44.4327280  43.3415110  17.9170030  41.1025970
  44.1905640  18.3540180  41.0366160  42.9746380  18.2290290  41.9298030
  53.9702880  17.2449610  52.5696180  53.4676480  17.9855010  52.9089990
  54.7859540  17.6333610  52.2532970  52.2624890  22.4882790  46.0157540
  51.3215030  22.5033020  46.1905230  52.5768960  21.7018750  46.4617840
  42.2406530  24.1702390  39.5761500  43.0069800  24.0583750  40.1386930
  42.3181220  23.4740360  38.9238270  40.9353290  21.6027460  40.2594390
  41.0156880  20.6554970  40.3711790  41.8273040  21.9334340  40.3655050
  54.2650470  29.6591640  47.6911800  54.3897890  30.4822810  48.1635610
  55.1316030  29.4482370  47.3435950  41.7368000  31.7522850  47.3628930
  42.4730480  31.2038310  47.6337500  42.1208920  32.6178860  47.2234920
  38.6213480  27.8196420  43.2370440  37.6953260  28.0617560  43.2275850
  39.0869910  28.6470680  43.1155190  40.7426280  30.9368920  56.5514510
  41.5439010  31.2580970  56.9649910  40.2278100  30.5764500  57.2734420
  49.5790910  27.0448790  56.4989920  48.9729070  27.0680390  55.7585670
  49.2745020  26.3131830  57.0357170  51.0091280  30.7729080  55.1099330
  51.9613030  30.6887100  55.0599570  50.8619500  31.4370790  55.7833120
  53.9000480  30.1523290  40.6091240  53.6141990  29.7388430  39.7945420
  53.7020030  31.0811000  40.4891760  38.4624090  23.4242380  55.4950560
  38.9663110  22.8449660  56.0666790  37.7231510  23.7082610  56.0326930
  45.3647710  26.1456570  39.0496850  45.2598350  25.5308920  39.7758230
  45.1971930  25.6222460  38.2659860  45.5162030  24.8313370  55.0286080
  44.7507700  25.3998370  54.9440750  45.6977990  24.5389580  54.1354310
  48.6050440  25.2076600  39.6538840  48.0560540  25.6545900  40.2981580
  49.2269700  24.7025850  40.1776510  52.6585380  26.5618700  55.5861100
  53.3994850  26.8994460  55.0828560  51.8958060  26.7310760  55.0330870
  40.4947170  21.5671970  56.3900630  40.5352510  21.2685840  57.2985860
  41.3492670  21.9679580  56.2308150  44.2725560  24.1667520  41.5504140
  44.6941980  24.0007390  42.3935530  44.3976400  23.3567750  41.0559280
  42.4352980  20.1464070  54.3575120  41.9049440  19.6555020  53.7298460
  43.1041050  20.5748270  53.8233050  46.7853200  23.1905130  38.7981240
  47.3058860  22.4754150  38.4322390  47.4321600  23.8291000  39.0981750
  51.3331040  24.6133530  54.1216310  51.7472060  24.7678610  54.9706730
  50.3982040  24.7388750  54.2842090  51.8053210  21.9529690  56.1255460
  52.3873980  21.1982010  56.0375940  51.9814980  22.4837130  55.3486940
  42.9225280  17.1126440  54.4372410  42.8282150  16.4947190  53.7123280
  42.3422670  17.8392730  54.2102320  45.6886720  15.6699680  51.4699800
  45.2404020  15.6923940  50.6245350  45.0551920  15.2718700  52.0670100
  46.0946270  24.5654010  52.0912240  46.5134380  25.4086740  51.9188480
  45.1754900  24.7026050  51.8619020  48.4310170  22.2970190  53.4750080
  48.5506380  21.7011330  54.2144920  49.2904170  22.3339880  53.0551380
  50.7698070  22.8507380  52.0512590  50.2433290  23.3750000  51.4477730
  51.1129410  23.4834770  52.6822320  43.1684460  20.2400750  38.4962300
  42.9673520  19.3768110  38.8575640  42.9976510  20.1534110  37.5583900
  43.9453690  30.8707020  53.2069970  43.4074780  31.5953080  52.8878670
  44.1987650  30.3937360  52.4167310  45.1978940  18.8391540  54.7325900
  45.7878630  18.5307390  55.4203720  44.3799180  18.3671290  54.8885800
  50.0172370  18.4557350  54.9658920  49.3287890  17.7938890  54.9008910
  50.7378390  18.0095620  55.4107380  50.6472770  15.0508980  41.0249180
  50.9275060  14.2076880  41.3808600  49.8738500  15.2832090  41.5387930
  41.9667260  17.3401370  38.4840180  42.2693160  17.3468800  37.5759330
  42.7061850  16.9899230  38.9807840  46.8015900  32.1058230  53.4656620
  46.7274600  33.0093370  53.7728990  45.8994740  31.7870130  53.4378690
  45.1852190  16.2835990  39.4696380  44.8374190  15.6059980  38.8898830
  45.3864960  15.8225500  40.2839770  47.3501230  31.2716740  41.0882980
  48.2452020  31.6101710  41.1101740  47.3818860  30.5496150  40.4607260
  40.9897390  26.6443790  39.3169980  41.4272260  27.1873460  39.9727560
  41.4745120  25.8190740  39.3266320  38.2043190  29.4332820  46.7690240
  38.5346200  28.5653880  46.5368880  38.6334190  29.6391340  47.5995200
  42.8005110  27.7641830  44.4292210  42.5000650  27.6406800  45.3296120
  42.6942600  26.9050420  44.0207940  38.6933400  30.3003410  49.5071870
  38.2564390  30.4804210  50.3396020  39.2611080  31.0578030  49.3653590
  54.3295580  29.8020410  53.7949180  53.7297570  29.8612970  53.0513100
  54.4589480  28.8625390  53.9246030  55.5697030  27.5438230  39.1318890
  54.7389990  27.6114880  39.6026120  55.7468860  28.4342350  38.8285750
  55.0253490  24.2885710  41.6353090  55.7872400  24.8582360  41.7412780
  55.0407860  23.7212910  42.4061400  38.5257830  22.8123640  45.8660750
  37.8706670  22.5435280  45.2220450  39.3635780  22.7028120  45.4162730
  56.0313460  25.1435810  46.4795020  56.4022290  24.3603130  46.0730990
  56.6715390  25.8324910  46.3012320  53.0147220  26.5272390  51.8925340
  52.2007060  26.9569550  52.1551130  53.4221420  27.1390800  51.2794390
  55.0772660  24.5820080  38.7925610  55.3521500  25.4898960  38.6644830
  54.8883400  24.5182610  39.7287600  51.4748270  17.6064930  40.0879240
  51.8933150  17.4195910  39.2475900  51.1684330  16.7543980  40.3982170
  54.9738000  22.5189070  43.7855040  54.5981600  21.7517000  43.3536330
  54.2441120  22.9011770  44.2729970  39.5633760  23.1976210  50.4064090
  39.9306800  23.1103610  51.2860110  38.9944580  22.4342760  50.3070950
  54.3637620  21.6660590  53.4194560  54.1323710  21.4373340  52.5192510
  54.6242170  22.5860140  53.3739450  39.1149760  20.1085300  54.3122510
  38.2205810  20.0752060  54.6516220  39.6547310  20.3072090  55.0773760
  52.8025690  16.8917020  56.1974260  53.6795870  16.9000420  56.5808260
  52.8146530  16.1547860  55.5866610  37.7395910  20.0222570  41.8086080
  36.8359990  20.2852770  41.6337740  38.2236530  20.2933740  41.0286040
  54.2488960  20.7446560  47.0862280  54.7726440  20.2509210  46.4552450
  54.8348380  20.8796920  47.8309850  54.4278680  20.8286430  50.6081830
  53.4781390  20.7949970  50.7226820  54.6091690  21.7386540  50.3731600
  40.2823120  19.0788110  39.7180460  40.9914820  18.6571330  39.2327740
  39.5663060  19.1463340  39.0863810  39.9297280  15.1327440  38.7583110
  40.6525410  15.6736380  39.0764330  40.2021800  14.8590860  37.8824650
  53.7388930  20.0019910  43.0254690  54.2348050  19.7690780  43.8103570
  53.5405000  19.1631750  42.6092330  39.6189470  14.3833630  48.6605730
  40.2665660  13.8331010  48.2200890  40.0391310  14.6376780  49.4821540
  55.1676090  18.6380860  45.5592370  55.0575370  18.4836900  46.4974640
  55.9283680  18.1101800  45.3167780  53.5141810  14.5774990  52.0175370
  54.1514030  15.1909130  52.3834560  53.6616700  14.6135650  51.0724600
  56.0566360  16.4688780  38.7998510  56.9815670  16.3369960  38.5916800
  56.0342150  16.5481600  39.7534960  56.1304850  17.2399440  41.4255220
  55.3356350  17.1744560  41.9548130  56.3348130  18.1750080  41.4140570
  53.0723270  31.2790990  45.4193610  53.6682340  30.9575560  44.7428030
  53.3301420  30.8062810  46.2106880  39.3721470  14.5389300  51.4031050
  39.0236290  14.9953120  52.1689230  39.0409170  13.6446430  51.4853480
  40.9785840  27.7108900  55.5684240  40.9355470  27.3401810  56.4498700
  41.1096850  28.6486470  55.7086060  44.6791870  29.2668490  51.1693960
  44.4383230  29.5343050  50.2824480  45.6194510  29.4374220  51.2244820
  46.8846290  15.7301180  54.9250470  46.8235180  16.3223010  55.6745880
  47.8246670  15.6227140  54.7800730  49.5220850  15.3871240  54.5642760
  50.1361260  15.7050530  53.9023840  50.0670410  14.9019830  55.1838620
  55.9396030  31.2862870  51.9704600  55.4454310  31.6831740  51.2531730
  55.3309320  30.6612080  52.3641880  40.0442110  14.0665500  54.6781820
  40.5925100  13.8853550  53.9147930  40.1097420  13.2759610  55.2138130
  40.8173870  30.6571150  52.6882020  40.2234190  30.5255850  53.4272060
  40.8097710  29.8209290  52.2224120  50.2628890  13.9503380  50.8912050
  49.3888730  14.2838490  50.6884980  50.1539640  13.4776560  51.7163920
  51.1700870  16.1574250  52.2753770  50.8414230  15.3426010  51.8955500
  52.1183170  16.1144060  52.1519460  53.6235480  31.9286290  49.2491340
  53.1638450  32.6802100  48.8749360  52.9947940  31.2092760  49.1906140
  40.4486100  28.0229530  51.6390060  39.7220160  27.4034820  51.5716010
  40.5095250  28.4170140  50.7688140  44.0531200  30.2374530  48.4239470
  44.5696220  29.6261890  47.8987730  44.7028580  30.7403310  48.9150480
  46.7926700  31.1283020  49.2508450  47.0804510  30.8737320  48.3741460
  47.3049920  30.5760380  49.8414020  48.0103710  14.8673220  49.8304960
  47.2275500  15.3418720  50.1101720  47.7166640  13.9628050  49.7218140
  52.5624780  15.5696320  47.8754050  53.0032870  15.5141420  47.0275650
  52.2932370  16.4854330  47.9464230  54.4263350  15.2011560  45.8862870
  54.3651750  14.2572780  45.7393890  55.2055380  15.3091650  46.4316330
  38.7316100  31.3403920  44.8486820  38.5638140  30.7074600  45.5468710
  37.8650610  31.5463320  44.4981010  39.3544120  15.1720700  42.3518680
  40.1123480  15.2849580  41.7782710  38.8921290  16.0089900  42.3062110
  45.8957930  17.2859970  45.3420990  45.0832440  16.9116860  45.0016870
  46.3999570  16.5305050  45.6442180  50.3982910  13.9502420  46.5804060
  51.0012280  14.5222630  47.0552580  49.6575900  14.5141860  46.3577960
  53.5417510  14.3523980  41.8544340  53.7368140  15.2507430  42.1211770
  52.7547380  14.1211060  42.3477290  40.3378800  30.0337150  42.2936960
  39.8126420  30.4145180  41.5898920  40.2623380  30.6587920  43.0146670
  41.7269270  15.6984750  40.8920650  42.2562030  14.9114550  40.7628600
  42.3597590  16.3775940  41.1256180  43.9207110  15.4359890  43.9466040
  43.2909850  14.7347200  44.1136170  43.3812250  16.1964020  43.7299200
  46.8599060  32.0499120  56.6176650  47.7866370  31.8143390  56.6612610
  46.8449490  32.8771120  56.1362680  55.0944120  31.5924690  43.6150900
  55.2696310  30.9062430  42.9711820  54.3965690  32.1171740  43.2227570
  44.0462670  14.7143870  56.3818530  43.7646940  15.2177470  55.6179350
  44.4282370  13.9165620  56.0160660  42.0986560  28.0984260  41.1732540
  41.4695440  28.5669360  41.7218370  42.2134390  27.2533480  41.6078730
  50.6478130  14.1297450  56.9599000  50.5343580  14.4492060  57.8550520
  51.4647870  14.5309960  56.6636280  53.4276620  31.2768980  56.4417690
  54.2201940  30.7818210  56.2343650  53.7209770  31.9559120  57.0493300
  49.5536280  22.1489920  27.3233740  49.4730330  21.2344530  27.0525450
  49.1400700  22.6456990  26.6173450  47.6854320  23.9268940  29.2043010
  46.9096420  23.4469380  29.4941580  48.3367250  23.2474590  29.0299170
  41.7020150  24.2388750  30.0818770  40.8705030  23.9837460  30.4815280
  42.3101130  24.3099520  30.8176690  51.7061750  28.3329130  27.9842140
  51.2443280  27.5616370  28.3129310  52.5187300  28.3595200  28.4894590
  41.6821410  28.2728840  30.2776790  41.9849450  27.3826580  30.0987010
  42.4265000  28.8299060  30.0499040  40.1112100  19.1990640  23.8661160
  39.2228800  19.5406610  23.7641040  40.3953290  18.9990960  22.9741990
  38.0745110  21.7996290  29.7500860  38.6461220  21.0318490  29.7504500
  38.0746650  22.0985050  28.8407470  47.9325060  30.6187140  27.6046130
  47.3136500  31.0744640  27.0340570  48.7876840  30.7738600  27.2035830
  47.1263310  26.6026130  29.2113170  47.0571590  25.6616070  29.0502300
  47.8883170  26.6927540  29.7835740  39.3169980  17.2080650  31.5369790
  39.1372820  16.3106400  31.8172550  38.9150060  17.7552520  32.2116740
  48.1568480  19.4096510  29.4382100  48.5333300  18.5368390  29.3255770
  48.0587990  19.7455210  28.5472540  42.2873490  17.7822140  24.8999540
  42.3940240  18.6825870  25.2068300  41.3765850  17.7340110  24.6094190
  51.9392600  16.9046950  26.3710440  52.7602220  16.4143520  26.4135920
  51.9726680  17.4944610  27.1242280  39.9356650  19.7041150  30.1452130
  40.6166760  19.9679520  30.7639530  39.6204700  18.8642020  30.4790140
  44.1281220  20.7508510  29.2324720  44.6359440  21.2489480  29.8729740
  44.6594460  19.9743710  29.0564080  56.2292150  18.9213700  32.9354070
  55.5244320  19.3095410  32.4169180  56.4950070  19.6163990  33.5375000
  42.4117320  15.3907070  33.4988140  42.4135760  15.9079460  32.6934040
  41.5821630  14.9137250  33.4758070  48.7988410  25.5026380  24.9978040
  48.1805680  25.9675830  24.4340760  49.3111660  26.1953860  25.4147550
  43.6620170  25.0302250  31.6761640  43.3289550  25.6571170  32.3182710
  43.8386850  25.5564130  30.8963310  52.1754080  18.8447330  29.1437980
  51.4709650  19.1332220  29.7241090  52.5366240  19.6547440  28.7837540
  42.0932650  17.1017030  31.5058590  42.4349460  17.9459080  31.2112460
  41.1548460  17.2500770  31.6223930  42.8739270  26.9983050  33.4910820
  43.4913270  27.6734130  33.2095270  42.0132390  27.4071030  33.3998320
  38.1671610  26.1882910  22.3717670  37.7899590  26.6770010  21.6402570
  38.4244680  26.8608190  23.0024200  53.7916860  28.4622460  31.4065460
  53.1080380  29.1321570  31.3982130  54.3311150  28.6603110  30.6410320
  55.2441000  18.2902120  29.5347190  54.2965910  18.3241100  29.6662620
  55.5690990  19.1041070  29.9196550  45.7760540  14.5899300  27.8303180
  46.0835520  14.0346190  27.1138680  44.8461240  14.7243760  27.6476170
  51.3275600  30.3066590  30.1210640  51.3402760  29.9028880  29.2532900
  50.7750820  31.0813880  30.0172070  52.6221020  27.0282810  25.2100810
  52.5117350  26.0857140  25.3350230  52.6189270  27.3898450  26.0963570
  50.7261040  25.2096430  31.4493250  51.1429830  24.9956540  30.6146710
  51.4500860  25.4669220  32.0201870  48.1641300  22.6548130  24.5663300
  47.2370580  22.5885510  24.7951770  48.3166120  23.5928260  24.4518540
  48.1510380  18.9265130  21.5630460  47.2114050  19.0879090  21.6482920
  48.4693640  19.6450810  21.0166450  54.6723140  23.6083650  31.5409490
  53.8441770  23.6776740  31.0659620  55.2673620  24.1937960  31.0725320
  52.1938590  24.2168430  25.0698550  51.5751010  23.8787980  24.4224850
  52.1763040  23.5728190  25.7777740  51.6365150  20.3952970  32.4864360
  51.2236330  21.2206680  32.7404350  50.9041100  19.8098010  32.2940720
  43.7697940  23.1812870  27.3483030  43.3654940  22.4690120  26.8528930
  43.8561060  22.8366110  28.2371070  44.2379640  26.8680430  29.5122240
  43.9407930  26.2625900  28.8330020  45.1879460  26.9057740  29.4011600
  42.4826560  19.9556080  31.1282070  43.0341150  20.0651420  30.3535320
  42.9970070  20.3293680  31.8437300  52.3265250  30.4412300  33.1745340
  51.8495810  31.2484490  32.9817950  51.6427040  29.7890630  33.3271550
  43.3298070  26.6062120  36.1630040  42.4326600  26.8302090  36.4103440
  43.3550940  26.7297060  35.2141440  50.3703290  23.4555240  22.0771300
  50.8096570  22.6177670  21.9309120  51.0831710  24.0884640  22.1635440
  42.1569290  23.4775440  34.7387410  42.0177060  24.3498240  35.1074810
  41.2750650  23.1348250  34.5935350  48.4798670  28.3951310  26.0452540
  48.9194580  29.1375640  25.6307930  48.4185560  28.6377880  26.9691500
  53.9520430  14.7098050  20.3912340  53.6393090  14.8024880  21.2911410
  54.7132900  15.2879080  20.3409770  40.4702570  22.0757850  24.8489680
  40.3500170  22.8019940  24.2370950  40.1603460  21.3060760  24.3717590
  55.9064460  30.2024240  38.2436730  56.3824180  30.6807130  38.9225810
  56.5271620  30.1341730  37.5182230  38.1087940  25.2472990  30.6558320
  38.1868360  25.3821760  29.7114040  38.7229620  24.5388880  30.8486440
  39.3535570  26.9473180  27.0664500  38.9463650  27.0887770  26.2118100
  40.2448580  26.6633340  26.8635710  55.3097710  27.3937090  35.4036740
  55.4360770  27.1548970  34.4853920  55.3519090  26.5621630  35.8758820
  51.1468850  31.3820430  23.4015550  50.9869990  31.0923370  24.2997380
  50.9815560  30.6060560  22.8660780  43.6257230  31.1618960  25.1787170
  43.4499710  30.2454500  24.9654970  42.7712970  31.5206250  25.4184970
  50.8494980  28.8907990  21.9613550  50.1560140  28.8885280  21.3015830
  51.5917840  28.4667310  21.5307720  50.4144910  30.5170700  26.0362040
  50.8701860  29.7360080  26.3500660  50.7537430  31.2277520  26.5803220
  55.1621720  19.4469550  36.3686480  54.5465990  19.9549220  35.8401940
  54.8418140  18.5467880  36.3112420  38.1647460  26.2887160  33.1952780
  38.3278500  25.8192520  32.3772150  38.6299910  25.7810720  33.8601620
  42.9366230  15.4192920  28.2313350  42.4934380  16.2002460  27.8997870
  43.4951220  15.7422810  28.9384290  47.2236040  18.2861440  33.8348670
  46.7615410  18.4944460  34.6468610  46.8214150  17.4720790  33.5319340
  52.2240550  19.5070390  34.9645330  51.3734140  19.2076140  35.2854400
  52.0642340  19.7512400  34.0529150  49.3190260  21.0072140  37.0644120
  49.6443670  20.1735890  36.7246350  50.1070590  21.5300660  37.2122450
  46.0525050  15.0403620  23.1119180  45.4279230  15.0363490  23.8372490
  45.9655170  14.1734580  22.7155150  44.9742130  15.9640250  30.0902950
  45.2714460  16.8703080  30.0094970  45.5227690  15.4759030  29.4762520
  42.7280450  20.5426490  25.9594600  42.5021370  20.3263660  26.8641220
  41.9472980  20.9754950  25.6140570  49.9578210  20.5489860  24.5585250
  49.3587100  21.2725660  24.3748870  50.5057820  20.4866640  23.7761700
  45.1679660  21.4412070  36.6254870  45.0723260  20.5006800  36.4755270
  46.0111640  21.6627140  36.2302940  48.5643080  19.1853400  26.5888530
  48.9572650  19.5025600  25.7757220  48.9259930  18.3065280  26.7033050
  40.2990200  17.8525740  34.7788650  39.9053590  18.7000950  34.9861430
  39.6108600  17.2152110  34.9697290  46.8735250  17.9360710  37.8485390
  46.1833570  17.7432910  38.4831480  47.6167550  18.2195350  38.3809690
  37.6007250  15.7754200  28.8118730  37.3120300  16.3457060  29.5243710
  38.3453010  15.2958650  29.1749960  37.7877480  19.7174320  20.0221450
  37.7052150  20.6605080  20.1636440  37.4360540  19.5749230  19.1433800
  49.1498220  21.7759150  30.6839310  48.4179340  22.2845960  31.0329410
  48.7522560  20.9589130  30.3828090  45.5875610  18.4513350  29.0891800
  45.5911670  18.0103300  28.2396340  46.4826730  18.7730680  29.1963620
  41.4377990  18.3339840  28.0486010  41.0978040  18.8115070  28.8053060
  40.6755310  17.8804960  27.6887110  45.6495760  19.4525430  22.0798560
  45.7708580  19.4111910  23.0284380  45.2644270  20.3149580  21.9245290
  49.6124130  17.2292830  30.0962250  49.6296870  17.6801480  30.9404100
  49.3639710  16.3298470  30.3095690  44.6617260  21.7626570  21.4781860
  44.0934160  21.3144820  20.8517770  45.3706260  22.1219350  20.9447010
  53.0394880  14.6425010  35.9348630  53.3640650  13.9114670  36.4606610
  53.0751390  14.3238650  35.0329620  39.7386440  25.6638590  35.3548590
  39.3541230  25.0232260  35.9531550  40.0498630  26.3674710  35.9243320
  45.8883580  22.5115130  30.8357210  46.2553710  22.0373700  31.5818550
  45.6988640  23.3856700  31.1765550  38.7524070  17.2558820  26.9650680
  38.4670990  16.8914490  27.8029300  38.6902930  16.5239280  26.3513820
  43.6782950  21.5523770  33.1541420  43.3740020  22.4315750  33.3791780
  44.6329410  21.6123560  33.1898860  42.2064740  25.7584760  23.7508270
  41.4327000  25.2182380  23.5906990  42.9359370  25.2391370  23.4126030
  52.9652720  24.7550120  29.5434660  53.6851840  25.2505410  29.1530770
  52.7634540  24.0768010  28.8988530  48.4262660  16.1488080  23.6864050
  47.6127270  15.6501250  23.6109360  48.2324610  16.9886330  23.2700400
  48.3471520  24.8259180  35.4303660  48.2808830  23.9054850  35.1761250
  47.7176660  24.9234620  36.1448300  51.1411050  20.5207730  21.9826210
  52.0290670  20.8324960  21.8077550  51.1116140  19.6479980  21.5906790
  42.2502140  25.4265140  27.3887080  42.7680810  24.6233400  27.3343970
  41.7986160  25.3644280  28.2303910  47.1371640  26.6931420  22.6614380
  47.4787340  27.4373650  22.1657700  46.3084350  27.0062540  23.0239210
  39.7346680  22.3926510  34.3012780  39.3761620  23.0580360  34.8886120
  39.4401240  21.5610060  34.6725400  42.9359800  22.8510750  37.1852330
  42.6359940  22.9967930  36.2880150  43.7071040  22.2916040  37.0925720
  48.2788250  27.6479750  35.1807460  48.2932790  26.7160710  34.9626370
  47.5713350  27.7339510  35.8197230  53.4125320  21.8319570  21.4506070
  53.3289040  22.2633790  20.6002510  54.1319510  22.2917920  21.8832890
  54.4899460  24.2887090  34.5276040  53.7647650  24.8815870  34.3305430
  55.0174920  24.2810630  33.7289410  54.4412570  28.6861830  24.1788200
  53.7988730  28.0317450  24.4531920  54.0543230  29.0916920  23.4028870
  50.0199050  26.0147260  28.0259890  50.3722870  25.4175390  27.3661260
  49.1361380  25.6891490  28.1968140  46.1062330  26.7744950  25.4330300
  46.7933460  27.3214160  25.8137890  45.3194750  27.3185680  25.4679910
  38.2454730  22.3917770  20.9247380  39.1149580  22.6742570  21.2083300
  37.7545050  23.2053640  20.8096190  45.4089540  23.7790980  25.0455660
  45.8652320  24.5896230  25.2715850  45.0577750  23.4614120  25.8774150
  47.7122150  29.2897320  32.2747960  48.3564370  29.4956700  32.9521380
  48.0751590  28.5285720  31.8218810  41.3101320  14.1228630  25.5178180
  41.1815950  14.1146530  26.4663100  40.4863340  14.4611720  25.1669190
  48.9854230  27.2929670  30.9925410  49.6276460  26.5922830  31.1057580
  49.5103580  28.0728110  30.8122300  52.8309950  27.5778290  20.7164550
  52.6047530  26.8608730  21.3089190  52.4406150  27.3290730  19.8786300
  50.7591850  28.0924570  34.1961470  51.0948090  28.6791260  34.8739390
  49.8392190  27.9617280  34.4259260  38.6125980  31.6045150  21.4909010
  38.9723620  32.2034490  20.8366280  38.4718320  32.1505040  22.2644040
  38.3095250  15.8819750  34.9784880  37.5953770  16.0816670  35.5837490
  38.7290290  15.1059320  35.3499680  52.4126200  25.4950230  22.3778710
  52.1247900  25.9562920  23.1656590  53.2078370  25.0348000  22.6462930
  38.5967840  29.8700010  35.9651410  38.7058960  28.9294750  35.8246800
  37.9448400  30.1354760  35.3165140  46.5880430  28.1415900  37.3649530
  46.2677300  27.4225140  37.9095220  45.9138790  28.8170970  37.4385590
  44.6294600  28.9876350  22.3082680  44.6204700  29.7206040  21.6927190
  43.7092960  28.7407930  22.4009640  40.2301240  24.2091240  23.0529440
  39.6229190  24.9490140  23.0624740  40.7050590  24.2990600  22.2267640
  49.8034030  18.3742060  32.7286330  50.1714850  17.5537270  33.0565900
  48.9432230  18.4343950  33.1441980  53.1696060  17.3299000  23.5373890
  52.5409220  17.4344670  22.8232120  52.6747980  17.5495780  24.3267770
  47.6154200  29.0504590  20.9707870  47.7166180  28.8468580  20.0409850
  46.7155940  28.7962870  21.1755650  45.1380090  19.6084950  24.9531770
  44.4296240  20.0771290  25.3945380  45.4224570  18.9506960  25.5876960
  46.7636020  21.0281650  32.9524300  47.2621270  21.5027470  33.6176150
  46.9058970  20.1045170  33.1594330  49.1695520  16.3335610  26.3927560
  49.0463300  16.3521740  25.4437070  50.1180080  16.3814550  26.5125960
  46.2572310  31.5690910  25.6655540  46.5113810  31.5312300  24.7434910
  45.3084790  31.4424240  25.6583790  43.3415110  17.9170030  22.3282480
  44.1905640  18.3540180  22.2622670  42.9746380  18.2290290  23.1554540
  53.9702880  17.2449610  33.7952690  53.4676480  17.9855010  34.1346500
  54.7859540  17.6333610  33.4789480  52.2624890  22.4882790  27.2414050
  51.3215030  22.5033020  27.4161740  52.5768960  21.7018750  27.6874350
  42.2406530  24.1702390  20.8018010  43.0069800  24.0583750  21.3643440
  42.3181220  23.4740360  20.1494780  40.9353290  21.6027460  21.4850900
  41.0156880  20.6554970  21.5968300  41.8273040  21.9334340  21.5911560
  54.2650470  29.6591640  28.9168310  54.3897890  30.4822810  29.3892120
  55.1316030  29.4482370  28.5692460  41.7368000  31.7522850  28.5885440
  42.4730480  31.2038310  28.8594010  42.1208920  32.6178860  28.4491430
  38.6213480  27.8196420  24.4626950  37.6953260  28.0617560  24.4532360
  39.0869910  28.6470680  24.3411700  44.8470310  30.9253160  20.4111010
  45.6398920  31.2141990  19.9592800  44.3274660  30.4945330  19.7323490
  49.5790910  27.0448790  37.7246430  48.9729070  27.0680390  36.9842180
  49.2745020  26.3131830  38.2613680  51.0091280  30.7729080  36.3355840
  51.9613030  30.6887100  36.2856080  50.8619500  31.4370790  37.0089630
  53.9000480  30.1523290  21.8347750  53.6141990  29.7388430  21.0201930
  53.7020030  31.0811000  21.7148270  38.4624090  23.4242380  36.7207070
  38.9663110  22.8449660  37.2923300  37.7231510  23.7082610  37.2583440
  45.3647710  26.1456570  20.2753360  45.2598350  25.5308920  21.0014740
  45.1971930  25.6222460  19.4916370  45.5162030  24.8313370  36.2542590
  44.7507700  25.3998370  36.1697260  45.6977990  24.5389580  35.3610820
  48.6050440  25.2076600  20.8795350  48.0560540  25.6545900  21.5238090
  49.2269700  24.7025850  21.4033020  52.6585380  26.5618700  36.8117610
  53.3994850  26.8994460  36.3085070  51.8958060  26.7310760  36.2587380
  40.4947170  21.5671970  37.6157140  40.5352510  21.2685840  38.5242370
  41.3492670  21.9679580  37.4564660  44.2725560  24.1667520  22.7760650
  44.6941980  24.0007390  23.6192040  44.3976400  23.3567750  22.2815790
  42.4352980  20.1464070  35.5831630  41.9049440  19.6555020  34.9554970
  43.1041050  20.5748270  35.0489560  46.7853200  23.1905130  20.0237750
  47.3058860  22.4754150  19.6578900  47.4321600  23.8291000  20.3238260
  51.3331040  24.6133530  35.3472820  51.7472060  24.7678610  36.1963240
  50.3982040  24.7388750  35.5098600  51.8053210  21.9529690  37.3511970
  52.3873980  21.1982010  37.2632450  51.9814980  22.4837130  36.5743450
  42.9225280  17.1126440  35.6628920  42.8282150  16.4947190  34.9379790
  42.3422670  17.8392730  35.4358830  45.6886720  15.6699680  32.6956310
  45.2404020  15.6923940  31.8501860  45.0551920  15.2718700  33.2926610
  46.0946270  24.5654010  33.3168750  46.5134380  25.4086740  33.1444990
  45.1754900  24.7026050  33.0875530  48.4310170  22.2970190  34.7006590
  48.5506380  21.7011330  35.4401430  49.2904170  22.3339880  34.2807890
  50.7698070  22.8507380  33.2769100  50.2433290  23.3750000  32.6734240
  51.1129410  23.4834770  33.9078830  43.1684460  20.2400750  19.7218810
  42.9673520  19.3768110  20.0832150  42.9976510  20.1534110  18.7840410
  45.1978940  18.8391540  35.9582410  45.7878630  18.5307390  36.6460230
  44.3799180  18.3671290  36.1142310  50.0172370  18.4557350  36.1915430
  49.3287890  17.7938890  36.1265420  50.7378390  18.0095620  36.6363890
  50.6472770  15.0508980  22.2505690  50.9275060  14.2076880  22.6065110
  49.8738500  15.2832090  22.7644440  41.9667260  17.3401370  19.7096690
  42.2693160  17.3468800  18.8015840  42.7061850  16.9899230  20.2064350
  45.1852190  16.2835990  20.6952890  44.8374190  15.6059980  20.1155340
  45.3864960  15.8225500  21.5096280  47.3501230  31.2716740  22.3139490
  48.2452020  31.6101710  22.3358250  47.3818860  30.5496150  21.6863770
  40.9897390  26.6443790  20.5426490  41.4272260  27.1873460  21.1984070
  41.4745120  25.8190740  20.5522830  38.2043190  29.4332820  27.9946750
  38.5346200  28.5653880  27.7625390  38.6334190  29.6391340  28.8251710
  42.8005110  27.7641830  25.6548720  42.5000650  27.6406800  26.5552630
  42.6942600  26.9050420  25.2464450  38.6933400  30.3003410  30.7328380
  38.2564390  30.4804210  31.5652530  39.2611080  31.0578030  30.5910100
  54.3295580  29.8020410  35.0205690  53.7297570  29.8612970  34.2769610
  54.4589480  28.8625390  35.1502540  55.5697030  27.5438230  20.3575400
  54.7389990  27.6114880  20.8282630  55.7468860  28.4342350  20.0542260
  55.0253490  24.2885710  22.8609600  55.7872400  24.8582360  22.9669290
  55.0407860  23.7212910  23.6317910  38.5257830  22.8123640  27.0917260
  37.8706670  22.5435280  26.4476960  39.3635780  22.7028120  26.6419240
  56.0313460  25.1435810  27.7051530  56.4022290  24.3603130  27.2987500
  56.6715390  25.8324910  27.5268830  53.0147220  26.5272390  33.1181850
  52.2007060  26.9569550  33.3807640  53.4221420  27.1390800  32.5050900
  55.0772660  24.5820080  20.0182120  55.3521500  25.4898960  19.8901340
  54.8883400  24.5182610  20.9544110  51.4748270  17.6064930  21.3135750
  51.8933150  17.4195910  20.4732410  51.1684330  16.7543980  21.6238680
  54.9738000  22.5189070  25.0111550  54.5981600  21.7517000  24.5792840
  54.2441120  22.9011770  25.4986480  39.5633760  23.1976210  31.6320600
  39.9306800  23.1103610  32.5116620  38.9944580  22.4342760  31.5327460
  54.3637620  21.6660590  34.6451070  54.1323710  21.4373340  33.7449020
  54.6242170  22.5860140  34.5995960  39.1149760  20.1085300  35.5379020
  38.2205810  20.0752060  35.8772730  39.6547310  20.3072090  36.3030270
  52.8025690  16.8917020  37.4230770  53.6795870  16.9000420  37.8064770
  52.8146530  16.1547860  36.8123120  37.7395910  20.0222570  23.0342590
  36.8359990  20.2852770  22.8594250  38.2236530  20.2933740  22.2542550
  54.2488960  20.7446560  28.3118790  54.7726440  20.2509210  27.6808960
  54.8348380  20.8796920  29.0566360  54.4278680  20.8286430  31.8338340
  53.4781390  20.7949970  31.9483330  54.6091690  21.7386540  31.5988110
  40.2823120  19.0788110  20.9436970  40.9914820  18.6571330  20.4584250
  39.5663060  19.1463340  20.3120320  39.9297280  15.1327440  19.9839620
  40.6525410  15.6736380  20.3020840  40.2021800  14.8590860  19.1081160
  53.7388930  20.0019910  24.2511200  54.2348050  19.7690780  25.0360080
  53.5405000  19.1631750  23.8348840  39.6189470  14.3833630  29.8862240
  40.2665660  13.8331010  29.4457400  40.0391310  14.6376780  30.7078050
  55.1676090  18.6380860  26.7848880  55.0575370  18.4836900  27.7231150
  55.9283680  18.1101800  26.5424290  53.5141810  14.5774990  33.2431880
  54.1514030  15.1909130  33.6091070  53.6616700  14.6135650  32.2981110
  56.0566360  16.4688780  20.0255020  56.9815670  16.3369960  19.8173310
  56.0342150  16.5481600  20.9791470  56.1304850  17.2399440  22.6511730
  55.3356350  17.1744560  23.1804640  56.3348130  18.1750080  22.6397080
  53.0723270  31.2790990  26.6450120  53.6682340  30.9575560  25.9684540
  53.3301420  30.8062810  27.4363390  39.3721470  14.5389300  32.6287560
  39.0236290  14.9953120  33.3945740  39.0409170  13.6446430  32.7109990
  40.9785840  27.7108900  36.7940750  40.9355470  27.3401810  37.6755210
  41.1096850  28.6486470  36.9342570  44.6791870  29.2668490  32.3950470
  44.4383230  29.5343050  31.5080990  45.6194510  29.4374220  32.4501330
  46.8846290  15.7301180  36.1506980  46.8235180  16.3223010  36.9002390
  47.8246670  15.6227140  36.0057240  49.5220850  15.3871240  35.7899270
  50.1361260  15.7050530  35.1280350  50.0670410  14.9019830  36.4095130
  55.9396030  31.2862870  33.1961110  55.4454310  31.6831740  32.4788240
  55.3309320  30.6612080  33.5898390  40.0442110  14.0665500  35.9038330
  40.5925100  13.8853550  35.1404440  40.1097420  13.2759610  36.4394640
  40.8173870  30.6571150  33.9138530  40.2234190  30.5255850  34.6528570
  40.8097710  29.8209290  33.4480630  50.2628890  13.9503380  32.1168560
  49.3888730  14.2838490  31.9141490  50.1539640  13.4776560  32.9420430
  51.1700870  16.1574250  33.5010280  50.8414230  15.3426010  33.1212010
  52.1183170  16.1144060  33.3775970  53.6235480  31.9286290  30.4747850
  53.1638450  32.6802100  30.1005870  52.9947940  31.2092760  30.4162650
  40.4486100  28.0229530  32.8646570  39.7220160  27.4034820  32.7972520
  40.5095250  28.4170140  31.9944650  44.0531200  30.2374530  29.6495980
  44.5696220  29.6261890  29.1244240  44.7028580  30.7403310  30.1406990
  46.7926700  31.1283020  30.4764960  47.0804510  30.8737320  29.5997970
  47.3049920  30.5760380  31.0670530  48.0103710  14.8673220  31.0561470
  47.2275500  15.3418720  31.3358230  47.7166640  13.9628050  30.9474650
  52.5624780  15.5696320  29.1010560  53.0032870  15.5141420  28.2532160
  52.2932370  16.4854330  29.1720740  54.4263350  15.2011560  27.1119380
  54.3651750  14.2572780  26.9650400  55.2055380  15.3091650  27.6572840
  38.7316100  31.3403920  26.0743330  38.5638140  30.7074600  26.7725220
  37.8650610  31.5463320  25.7237520  39.3544120  15.1720700  23.5775190
  40.1123480  15.2849580  23.0039220  38.8921290  16.0089900  23.5318620
  45.8957930  17.2859970  26.5677500  45.0832440  16.9116860  26.2273380
  46.3999570  16.5305050  26.8698690  50.3982910  13.9502420  27.8060570
  51.0012280  14.5222630  28.2809090  49.6575900  14.5141860  27.5834470
  53.5417510  14.3523980  23.0800850  53.7368140  15.2507430  23.3468280
  52.7547380  14.1211060  23.5733800  40.3378800  30.0337150  23.5193470
  39.8126420  30.4145180  22.8155430  40.2623380  30.6587920  24.2403180
  41.7269270  15.6984750  22.1177160  42.2562030  14.9114550  21.9885110
  42.3597590  16.3775940  22.3512690  43.9207110  15.4359890  25.1722550
  43.2909850  14.7347200  25.3392680  43.3812250  16.1964020  24.9555710
  55.0944120  31.5924690  24.8407410  55.2696310  30.9062430  24.1968330
  54.3965690  32.1171740  24.4484080  44.0462670  14.7143870  37.6075040
  43.7646940  15.2177470  36.8435860  44.4282370  13.9165620  37.2417170
  42.9371770  31.9819530  22.3942720  43.6690590  31.6978810  21.8466610
  43.1965440  31.7432810  23.2842100  42.0986560  28.0984260  22.3989050
  41.4695440  28.5669360  22.9474880  42.2134390  27.2533480  22.8335240
  50.6478130  14.1297450  38.1855510  50.5343580  14.4492060  39.0807030
  51.4647870  14.5309960  37.8892790  53.4276620  31.2768980  37.6674200
  54.2201940  30.7818210  37.4600160  53.7209770  31.9559120  38.2749810
  49.5536280  22.1489920   8.5490250  49.4730330  21.2344530   8.2781960
  49.1400700  22.6456990   7.8429960  47.6854320  23.9268940  10.4299520
  46.9096420  23.4469380  10.7198090  48.3367250  23.2474590  10.2555680
  41.7020150  24.2388750  11.3075280  40.8705030  23.9837460  11.7071790
  42.3101130  24.3099520  12.0433200  51.7061750  28.3329130   9.2098650
  51.2443280  27.5616370   9.5385820  52.5187300  28.3595200   9.7151100
  41.6821410  28.2728840  11.5033300  41.9849450  27.3826580  11.3243520
  42.4265000  28.8299060  11.2755550  40.1112100  19.1990640   5.0917670
  39.2228800  19.5406610   4.9897550  40.3953290  18.9990960   4.1998500
  38.0745110  21.7996290  10.9757370  38.6461220  21.0318490  10.9761010
  38.0746650  22.0985050  10.0663980  47.9325060  30.6187140   8.8302640
  47.3136500  31.0744640   8.2597080  48.7876840  30.7738600   8.4292340
  47.1263310  26.6026130  10.4369680  47.0571590  25.6616070  10.2758810
  47.8883170  26.6927540  11.0092250  39.3169980  17.2080650  12.7626300
  39.1372820  16.3106400  13.0429060  38.9150060  17.7552520  13.4373250
  48.1568480  19.4096510  10.6638610  48.5333300  18.5368390  10.5512280
  48.0587990  19.7455210   9.7729050  42.2873490  17.7822140   6.1256050
  42.3940240  18.6825870   6.4324810  41.3765850  17.7340110   5.8350700
  51.9392600  16.9046950   7.5966950  52.7602220  16.4143520   7.6392430
  51.9726680  17.4944610   8.3498790  39.9356650  19.7041150  11.3708640
  40.6166760  19.9679520  11.9896040  39.6204700  18.8642020  11.7046650
  44.1281220  20.7508510  10.4581230  44.6359440  21.2489480  11.0986250
  44.6594460  19.9743710  10.2820590  56.2292150  18.9213700  14.1610580
  55.5244320  19.3095410  13.6425690  56.4950070  19.6163990  14.7631510
  42.4117320  15.3907070  14.7244650  42.4135760  15.9079460  13.9190550
  41.5821630  14.9137250  14.7014580  48.7988410  25.5026380   6.2234550
  48.1805680  25.9675830   5.6597270  49.3111660  26.1953860   6.6404060
  43.6620170  25.0302250  12.9018150  43.3289550  25.6571170  13.5439220
  43.8386850  25.5564130  12.1219820  52.1754080  18.8447330  10.3694490
  51.4709650  19.1332220  10.9497600  52.5366240  19.6547440  10.0094050
  42.0932650  17.1017030  12.7315100  42.4349460  17.9459080  12.4368970
  41.1548460  17.2500770  12.8480440  42.8739270  26.9983050  14.7167330
  43.4913270  27.6734130  14.4351780  42.0132390  27.4071030  14.6254830
  38.1671610  26.1882910   3.5974180  37.7899590  26.6770010   2.8659080
  38.4244680  26.8608190   4.2280710  53.7916860  28.4622460  12.6321970
  53.1080380  29.1321570  12.6238640  54.3311150  28.6603110  11.8666830
  55.2441000  18.2902120  10.7603700  54.2965910  18.3241100  10.8919130
  55.5690990  19.1041070  11.1453060  45.7760540  14.5899300   9.0559690
  46.0835520  14.0346190   8.3395190  44.8461240  14.7243760   8.8732680
  51.3275600  30.3066590  11.3467150  51.3402760  29.9028880  10.4789410
  50.7750820  31.0813880  11.2428580  52.6221020  27.0282810   6.4357320
  52.5117350  26.0857140   6.5606740  52.6189270  27.3898450   7.3220080
  50.7261040  25.2096430  12.6749760  51.1429830  24.9956540  11.8403220
  51.4500860  25.4669220  13.2458380  48.1641300  22.6548130   5.7919810
  47.2370580  22.5885510   6.0208280  48.3166120  23.5928260   5.6775050
  48.1510380  18.9265130   2.7886970  47.2114050  19.0879090   2.8739430
  48.4693640  19.6450810   2.2422960  54.6723140  23.6083650  12.7666000
  53.8441770  23.6776740  12.2916130  55.2673620  24.1937960  12.2981830
  52.1938590  24.2168430   6.2955060  51.5751010  23.8787980   5.6481360
  52.1763040  23.5728190   7.0034250  51.6365150  20.3952970  13.7120870
  51.2236330  21.2206680  13.9660860  50.9041100  19.8098010  13.5197230
  43.7697940  23.1812870   8.5739540  43.3654940  22.4690120   8.0785440
  43.8561060  22.8366110   9.4627580  44.2379640  26.8680430  10.7378750
  43.9407930  26.2625900  10.0586530  45.1879460  26.9057740  10.6268110
  42.4826560  19.9556080  12.3538580  43.0341150  20.0651420  11.5791830
  42.9970070  20.3293680  13.0693810  52.3265250  30.4412300  14.4001850
  51.8495810  31.2484490  14.2074460  51.6427040  29.7890630  14.5528060
  43.3298070  26.6062120  17.3886550  42.4326600  26.8302090  17.6359950
  43.3550940  26.7297060  16.4397950  50.3703290  23.4555240   3.3027810
  50.8096570  22.6177670   3.1565630  51.0831710  24.0884640   3.3891950
  42.1569290  23.4775440  15.9643920  42.0177060  24.3498240  16.3331320
  41.2750650  23.1348250  15.8191860  48.4798670  28.3951310   7.2709050
  48.9194580  29.1375640   6.8564440  48.4185560  28.6377880   8.1948010
  43.9549640  29.4197140  18.1729070  43.9265070  29.8240090  17.3057500
  43.7914610  28.4907500  18.0100670  40.4702570  22.0757850   6.0746190
  40.3500170  22.8019940   5.4627460  40.1603460  21.3060760   5.5974100
  55.9064460  30.2024240  19.4693240  56.3824180  30.6807130  20.1482320
  56.5271620  30.1341730  18.7438740  38.1087940  25.2472990  11.8814830
  38.1868360  25.3821760  10.9370550  38.7229620  24.5388880  12.0742950
  39.3535570  26.9473180   8.2921010  38.9463650  27.0887770   7.4374610
  40.2448580  26.6633340   8.0892220  55.3097710  27.3937090  16.6293250
  55.4360770  27.1548970  15.7110430  55.3519090  26.5621630  17.1015330
  49.1714450  31.0965090  15.1988060  49.6859120  31.0073100  16.0010490
  48.3283530  31.4424790  15.4915970  51.1468850  31.3820430   4.6272060
  50.9869990  31.0923370   5.5253890  50.9815560  30.6060560   4.0917290
  43.6257230  31.1618960   6.4043680  43.4499710  30.2454500   6.1911480
  42.7712970  31.5206250   6.6441480  50.8494980  28.8907990   3.1870060
  50.1560140  28.8885280   2.5272340  51.5917840  28.4667310   2.7564230
  50.4144910  30.5170700   7.2618550  50.8701860  29.7360080   7.5757170
  50.7537430  31.2277520   7.8059730  55.1621720  19.4469550  17.5942990
  54.5465990  19.9549220  17.0658450  54.8418140  18.5467880  17.5368930
  38.1647460  26.2887160  14.4209290  38.3278500  25.8192520  13.6028660
  38.6299910  25.7810720  15.0858130  42.9366230  15.4192920   9.4569860
  42.4934380  16.2002460   9.1254380  43.4951220  15.7422810  10.1640800
  47.2236040  18.2861440  15.0605180  46.7615410  18.4944460  15.8725120
  46.8214150  17.4720790  14.7575850  52.2240550  19.5070390  16.1901840
  51.3734140  19.2076140  16.5110910  52.0642340  19.7512400  15.2785660
  49.3190260  21.0072140  18.2900630  49.6443670  20.1735890  17.9502860
  50.1070590  21.5300660  18.4378960  46.0525050  15.0403620   4.3375690
  45.4279230  15.0363490   5.0629000  45.9655170  14.1734580   3.9411660
  44.9742130  15.9640250  11.3159460  45.2714460  16.8703080  11.2351480
  45.5227690  15.4759030  10.7019030  42.7280450  20.5426490   7.1851110
  42.5021370  20.3263660   8.0897730  41.9472980  20.9754950   6.8397080
  49.9578210  20.5489860   5.7841760  49.3587100  21.2725660   5.6005380
  50.5057820  20.4866640   5.0018210  45.1679660  21.4412070  17.8511380
  45.0723260  20.5006800  17.7011780  46.0111640  21.6627140  17.4559450
  48.5643080  19.1853400   7.8145040  48.9572650  19.5025600   7.0013730
  48.9259930  18.3065280   7.9289560  40.2990200  17.8525740  16.0045160
  39.9053590  18.7000950  16.2117940  39.6108600  17.2152110  16.1953800
  46.8735250  17.9360710  19.0741900  46.1833570  17.7432910  19.7087990
  47.6167550  18.2195350  19.6066200  37.6007250  15.7754200  10.0375240
  37.3120300  16.3457060  10.7500220  38.3453010  15.2958650  10.4006470
  49.1498220  21.7759150  11.9095820  48.4179340  22.2845960  12.2585920
  48.7522560  20.9589130  11.6084600  45.5875610  18.4513350  10.3148310
  45.5911670  18.0103300   9.4652850  46.4826730  18.7730680  10.4220130
  41.4377990  18.3339840   9.2742520  41.0978040  18.8115070  10.0309570
  40.6755310  17.8804960   8.9143620  45.6495760  19.4525430   3.3055070
  45.7708580  19.4111910   4.2540890  45.2644270  20.3149580   3.1501800
  49.6124130  17.2292830  11.3218760  49.6296870  17.6801480  12.1660610
  49.3639710  16.3298470  11.5352200  44.6617260  21.7626570   2.7038370
  44.0934160  21.3144820   2.0774280  45.3706260  22.1219350   2.1703520
  53.0394880  14.6425010  17.1605140  53.3640650  13.9114670  17.6863120
  53.0751390  14.3238650  16.2586130  39.7386440  25.6638590  16.5805100
  39.3541230  25.0232260  17.1788060  40.0498630  26.3674710  17.1499830
  45.8883580  22.5115130  12.0613720  46.2553710  22.0373700  12.8075060
  45.6988640  23.3856700  12.4022060  38.7524070  17.2558820   8.1907190
  38.4670990  16.8914490   9.0285810  38.6902930  16.5239280   7.5770330
  43.6782950  21.5523770  14.3797930  43.3740020  22.4315750  14.6048290
  44.6329410  21.6123560  14.4155370  42.2064740  25.7584760   4.9764780
  41.4327000  25.2182380   4.8163500  42.9359370  25.2391370   4.6382540
  52.9652720  24.7550120  10.7691170  53.6851840  25.2505410  10.3787280
  52.7634540  24.0768010  10.1245040  48.4262660  16.1488080   4.9120560
  47.6127270  15.6501250   4.8365870  48.2324610  16.9886330   4.4956910
  48.3471520  24.8259180  16.6560170  48.2808830  23.9054850  16.4017760
  47.7176660  24.9234620  17.3704810  51.1411050  20.5207730   3.2082720
  52.0290670  20.8324960   3.0334060  51.1116140  19.6479980   2.8163300
  42.2502140  25.4265140   8.6143590  42.7680810  24.6233400   8.5600480
  41.7986160  25.3644280   9.4560420  47.1371640  26.6931420   3.8870890
  47.4787340  27.4373650   3.3914210  46.3084350  27.0062540   4.2495720
  39.7346680  22.3926510  15.5269290  39.3761620  23.0580360  16.1142630
  39.4401240  21.5610060  15.8981910  42.9359800  22.8510750  18.4108840
  42.6359940  22.9967930  17.5136660  43.7071040  22.2916040  18.3182230
  48.2788250  27.6479750  16.4063970  48.2932790  26.7160710  16.1882880
  47.5713350  27.7339510  17.0453740  53.4125320  21.8319570   2.6762580
  53.3289040  22.2633790   1.8259020  54.1319510  22.2917920   3.1089400
  54.4899460  24.2887090  15.7532550  53.7647650  24.8815870  15.5561940
  55.0174920  24.2810630  14.9545920  54.4412570  28.6861830   5.4044710
  53.7988730  28.0317450   5.6788430  54.0543230  29.0916920   4.6285380
  50.0199050  26.0147260   9.2516400  50.3722870  25.4175390   8.5917770
  49.1361380  25.6891490   9.4224650  46.1062330  26.7744950   6.6586810
  46.7933460  27.3214160   7.0394400  45.3194750  27.3185680   6.6936420
  38.2454730  22.3917770   2.1503890  39.1149580  22.6742570   2.4339810
  37.7545050  23.2053640   2.0352700  45.4089540  23.7790980   6.2712170
  45.8652320  24.5896230   6.4972360  45.0577750  23.4614120   7.1030660
  47.7122150  29.2897320  13.5004470  48.3564370  29.4956700  14.1777890
  48.0751590  28.5285720  13.0475320  41.3101320  14.1228630   6.7434690
  41.1815950  14.1146530   7.6919610  40.4863340  14.4611720   6.3925700
  48.9854230  27.2929670  12.2181920  49.6276460  26.5922830  12.3314090
  49.5103580  28.0728110  12.0378810  50.7591850  28.0924570  15.4217980
  51.0948090  28.6791260  16.0995900  49.8392190  27.9617280  15.6515770
  38.6125980  31.6045150   2.7165520  38.9723620  32.2034490   2.0622790
  38.4718320  32.1505040   3.4900550  38.3095250  15.8819750  16.2041390
  37.5953770  16.0816670  16.8094000  38.7290290  15.1059320  16.5756190
  52.4126200  25.4950230   3.6035220  52.1247900  25.9562920   4.3913100
  53.2078370  25.0348000   3.8719440  38.5967840  29.8700010  17.1907920
  38.7058960  28.9294750  17.0503310  37.9448400  30.1354760  16.5421650
  46.5880430  28.1415900  18.5906040  46.2677300  27.4225140  19.1351730
  45.9138790  28.8170970  18.6642100  44.6294600  28.9876350   3.5339190
  44.6204700  29.7206040   2.9183700  43.7092960  28.7407930   3.6266150
  40.2301240  24.2091240   4.2785950  39.6229190  24.9490140   4.2881250
  40.7050590  24.2990600   3.4524150  49.8034030  18.3742060  13.9542840
  50.1714850  17.5537270  14.2822410  48.9432230  18.4343950  14.3698490
  53.1696060  17.3299000   4.7630400  52.5409220  17.4344670   4.0488630
  52.6747980  17.5495780   5.5524280  45.1380090  19.6084950   6.1788280
  44.4296240  20.0771290   6.6201890  45.4224570  18.9506960   6.8133470
  46.7636020  21.0281650  14.1780810  47.2621270  21.5027470  14.8432660
  46.9058970  20.1045170  14.3850840  49.1695520  16.3335610   7.6184070
  49.0463300  16.3521740   6.6693580  50.1180080  16.3814550   7.7382470
  46.2572310  31.5690910   6.8912050  46.5113810  31.5312300   5.9691420
  45.3084790  31.4424240   6.8840300  43.3415110  17.9170030   3.5538990
  44.1905640  18.3540180   3.4879180  42.9746380  18.2290290   4.3811050
  53.9702880  17.2449610  15.0209200  53.4676480  17.9855010  15.3603010
  54.7859540  17.6333610  14.7045990  52.2624890  22.4882790   8.4670560
  51.3215030  22.5033020   8.6418250  52.5768960  21.7018750   8.9130860
  40.9353290  21.6027460   2.7107410  41.0156880  20.6554970   2.8224810
  41.8273040  21.9334340   2.8168070  54.2650470  29.6591640  10.1424820
  54.3897890  30.4822810  10.6148630  55.1316030  29.4482370   9.7948970
  41.7368000  31.7522850   9.8141950  42.4730480  31.2038310  10.0850520
  42.1208920  32.6178860   9.6747940  38.6213480  27.8196420   5.6883460
  37.6953260  28.0617560   5.6788870  39.0869910  28.6470680   5.5668210
  40.7426280  30.9368920  19.0027530  41.5439010  31.2580970  19.4162930
  40.2278100  30.5764500  19.7247440  49.5790910  27.0448790  18.9502940
  48.9729070  27.0680390  18.2098690  49.2745020  26.3131830  19.4870190
  51.0091280  30.7729080  17.5612350  51.9613030  30.6887100  17.5112590
  50.8619500  31.4370790  18.2346140  53.9000480  30.1523290   3.0604260
  53.6141990  29.7388430   2.2458440  53.7020030  31.0811000   2.9404780
  38.4624090  23.4242380  17.9463580  38.9663110  22.8449660  18.5179810
  37.7231510  23.7082610  18.4839950  45.5162030  24.8313370  17.4799100
  44.7507700  25.3998370  17.3953770  45.6977990  24.5389580  16.5867330
  48.6050440  25.2076600   2.1051860  48.0560540  25.6545900   2.7494600
  49.2269700  24.7025850   2.6289530  52.6585380  26.5618700  18.0374120
  53.3994850  26.8994460  17.5341580  51.8958060  26.7310760  17.4843890
  40.4947170  21.5671970  18.8413650  40.5352510  21.2685840  19.7498880
  41.3492670  21.9679580  18.6821170  44.2725560  24.1667520   4.0017160
  44.6941980  24.0007390   4.8448550  44.3976400  23.3567750   3.5072300
  42.4352980  20.1464070  16.8088140  41.9049440  19.6555020  16.1811480
  43.1041050  20.5748270  16.2746070  51.3331040  24.6133530  16.5729330
  51.7472060  24.7678610  17.4219750  50.3982040  24.7388750  16.7355110
  51.8053210  21.9529690  18.5768480  52.3873980  21.1982010  18.4888960
  51.9814980  22.4837130  17.7999960  42.9225280  17.1126440  16.8885430
  42.8282150  16.4947190  16.1636300  42.3422670  17.8392730  16.6615340
  45.6886720  15.6699680  13.9212820  45.2404020  15.6923940  13.0758370
  45.0551920  15.2718700  14.5183120  46.0946270  24.5654010  14.5425260
  46.5134380  25.4086740  14.3701500  45.1754900  24.7026050  14.3132040
  48.4310170  22.2970190  15.9263100  48.5506380  21.7011330  16.6657940
  49.2904170  22.3339880  15.5064400  50.7698070  22.8507380  14.5025610
  50.2433290  23.3750000  13.8990750  51.1129410  23.4834770  15.1335340
  43.9453690  30.8707020  15.6582990  43.4074780  31.5953080  15.3391690
  44.1987650  30.3937360  14.8680330  45.1978940  18.8391540  17.1838920
  45.7878630  18.5307390  17.8716740  44.3799180  18.3671290  17.3398820
  50.0172370  18.4557350  17.4171940  49.3287890  17.7938890  17.3521930
  50.7378390  18.0095620  17.8620400  50.6472770  15.0508980   3.4762200
  50.9275060  14.2076880   3.8321620  49.8738500  15.2832090   3.9900950
  46.8015900  32.1058230  15.9169640  46.7274600  33.0093370  16.2242010
  45.8994740  31.7870130  15.8891710  47.3501230  31.2716740   3.5396000
  48.2452020  31.6101710   3.5614760  47.3818860  30.5496150   2.9120280
  40.9897390  26.6443790   1.7683000  41.4272260  27.1873460   2.4240580
  41.4745120  25.8190740   1.7779340  38.2043190  29.4332820   9.2203260
  38.5346200  28.5653880   8.9881900  38.6334190  29.6391340  10.0508220
  42.8005110  27.7641830   6.8805230  42.5000650  27.6406800   7.7809140
  42.6942600  26.9050420   6.4720960  38.6933400  30.3003410  11.9584890
  38.2564390  30.4804210  12.7909040  39.2611080  31.0578030  11.8166610
  54.3295580  29.8020410  16.2462200  53.7297570  29.8612970  15.5026120
  54.4589480  28.8625390  16.3759050  55.0253490  24.2885710   4.0866110
  55.7872400  24.8582360   4.1925800  55.0407860  23.7212910   4.8574420
  38.5257830  22.8123640   8.3173770  37.8706670  22.5435280   7.6733470
  39.3635780  22.7028120   7.8675750  56.0313460  25.1435810   8.9308040
  56.4022290  24.3603130   8.5244010  56.6715390  25.8324910   8.7525340
  53.0147220  26.5272390  14.3438360  52.2007060  26.9569550  14.6064150
  53.4221420  27.1390800  13.7307410  51.4748270  17.6064930   2.5392260
  51.8933150  17.4195910   1.6988920  51.1684330  16.7543980   2.8495190
  54.9738000  22.5189070   6.2368060  54.5981600  21.7517000   5.8049350
  54.2441120  22.9011770   6.7242990  39.5633760  23.1976210  12.8577110
  39.9306800  23.1103610  13.7373130  38.9944580  22.4342760  12.7583970
  54.3637620  21.6660590  15.8707580  54.1323710  21.4373340  14.9705530
  54.6242170  22.5860140  15.8252470  39.1149760  20.1085300  16.7635530
  38.2205810  20.0752060  17.1029240  39.6547310  20.3072090  17.5286780
  52.8025690  16.8917020  18.6487280  53.6795870  16.9000420  19.0321280
  52.8146530  16.1547860  18.0379630  37.7395910  20.0222570   4.2599100
  36.8359990  20.2852770   4.0850760  38.2236530  20.2933740   3.4799060
  54.2488960  20.7446560   9.5375300  54.7726440  20.2509210   8.9065470
  54.8348380  20.8796920  10.2822870  54.4278680  20.8286430  13.0594850
  53.4781390  20.7949970  13.1739840  54.6091690  21.7386540  12.8244620
  53.7388930  20.0019910   5.4767710  54.2348050  19.7690780   6.2616590
  53.5405000  19.1631750   5.0605350  39.6189470  14.3833630  11.1118750
  40.2665660  13.8331010  10.6713910  40.0391310  14.6376780  11.9334560
  55.1676090  18.6380860   8.0105390  55.0575370  18.4836900   8.9487660
  55.9283680  18.1101800   7.7680800  53.5141810  14.5774990  14.4688390
  54.1514030  15.1909130  14.8347580  53.6616700  14.6135650  13.5237620
  56.1304850  17.2399440   3.8768240  55.3356350  17.1744560   4.4061150
  56.3348130  18.1750080   3.8653590  53.0723270  31.2790990   7.8706630
  53.6682340  30.9575560   7.1941050  53.3301420  30.8062810   8.6619900
  39.3721470  14.5389300  13.8544070  39.0236290  14.9953120  14.6202250
  39.0409170  13.6446430  13.9366500  40.9785840  27.7108900  18.0197260
  40.9355470  27.3401810  18.9011720  41.1096850  28.6486470  18.1599080
  44.6791870  29.2668490  13.6206980  44.4383230  29.5343050  12.7337500
  45.6194510  29.4374220  13.6757840  46.8846290  15.7301180  17.3763490
  46.8235180  16.3223010  18.1258900  47.8246670  15.6227140  17.2313750
  49.5220850  15.3871240  17.0155780  50.1361260  15.7050530  16.3536860
  50.0670410  14.9019830  17.6351640  55.9396030  31.2862870  14.4217620
  55.4454310  31.6831740  13.7044750  55.3309320  30.6612080  14.8154900
  40.0442110  14.0665500  17.1294840  40.5925100  13.8853550  16.3660950
  40.1097420  13.2759610  17.6651150  40.8173870  30.6571150  15.1395040
  40.2234190  30.5255850  15.8785080  40.8097710  29.8209290  14.6737140
  50.2628890  13.9503380  13.3425070  49.3888730  14.2838490  13.1398000
  50.1539640  13.4776560  14.1676940  51.1700870  16.1574250  14.7266790
  50.8414230  15.3426010  14.3468520  52.1183170  16.1144060  14.6032480
  53.6235480  31.9286290  11.7004360  53.1638450  32.6802100  11.3262380
  52.9947940  31.2092760  11.6419160  40.4486100  28.0229530  14.0903080
  39.7220160  27.4034820  14.0229030  40.5095250  28.4170140  13.2201160
  44.0531200  30.2374530  10.8752490  44.5696220  29.6261890  10.3500750
  44.7028580  30.7403310  11.3663500  46.7926700  31.1283020  11.7021470
  47.0804510  30.8737320  10.8254480  47.3049920  30.5760380  12.2927040
  48.0103710  14.8673220  12.2817980  47.2275500  15.3418720  12.5614740
  47.7166640  13.9628050  12.1731160  52.5624780  15.5696320  10.3267070
  53.0032870  15.5141420   9.4788670  52.2932370  16.4854330  10.3977250
  54.4263350  15.2011560   8.3375890  54.3651750  14.2572780   8.1906910
  55.2055380  15.3091650   8.8829350  38.7316100  31.3403920   7.2999840
  38.5638140  30.7074600   7.9981730  37.8650610  31.5463320   6.9494030
  39.3544120  15.1720700   4.8031700  40.1123480  15.2849580   4.2295730
  38.8921290  16.0089900   4.7575130  45.8957930  17.2859970   7.7934010
  45.0832440  16.9116860   7.4529890  46.3999570  16.5305050   8.0955200
  50.3982910  13.9502420   9.0317080  51.0012280  14.5222630   9.5065600
  49.6575900  14.5141860   8.8090980  53.5417510  14.3523980   4.3057360
  53.7368140  15.2507430   4.5724790  52.7547380  14.1211060   4.7990310
  40.3378800  30.0337150   4.7449980  39.8126420  30.4145180   4.0411940
  40.2623380  30.6587920   5.4659690  41.7269270  15.6984750   3.3433670
  42.2562030  14.9114550   3.2141620  42.3597590  16.3775940   3.5769200
  43.9207110  15.4359890   6.3979060  43.2909850  14.7347200   6.5649190
  43.3812250  16.1964020   6.1812220  46.8599060  32.0499120  19.0689670
  47.7866370  31.8143390  19.1125630  46.8449490  32.8771120  18.5875700
  55.0944120  31.5924690   6.0663920  55.2696310  30.9062430   5.4224840
  54.3965690  32.1171740   5.6740590  44.0462670  14.7143870  18.8331550
  43.7646940  15.2177470  18.0692370  44.4282370  13.9165620  18.4673680
  42.9371770  31.9819530   3.6199230  43.6690590  31.6978810   3.0723120
  43.1965440  31.7432810   4.5098610  42.0986560  28.0984260   3.6245560
  41.4695440  28.5669360   4.1731390  42.2134390  27.2533480   4.0591750
  50.6478130  14.1297450  19.4112020  50.5343580  14.4492060  20.3063540
  51.4647870  14.5309960  19.1149300  53.4276620  31.2768980  18.8930710
  54.2201940  30.7818210  18.6856670  53.7209770  31.9559120  19.5006320
  49.5536280   3.3746430  64.8720720  49.4730330   2.4601040  64.6012430
  49.1400700   3.8713500  64.1660430  47.6854320   5.1525450  66.7529990
  46.9096420   4.6725890  67.0428560  48.3367250   4.4731100  66.5786150
  41.7020150   5.4645260  67.6305750  40.8705030   5.2093970  68.0302260
  42.3101130   5.5356030  68.3663670  51.7061750   9.5585640  65.5329120
  51.2443280   8.7872880  65.8616290  52.5187300   9.5851710  66.0381570
  41.6821410   9.4985350  67.8263770  41.9849450   8.6083090  67.6473990
  42.4265000  10.0555570  67.5986020  38.0745110   3.0252800  67.2987840
  38.6461220   2.2575000  67.2991480  38.0746650   3.3241560  66.3894450
  47.9325060  11.8443650  65.1533110  47.3136500  12.3001150  64.5827550
  48.7876840  11.9995110  64.7522810  47.1263310   7.8282640  66.7600150
  47.0571590   6.8872580  66.5989280  47.8883170   7.9184050  67.3322720
  48.7988410   6.7282890  62.5465020  48.1805680   7.1932340  61.9827740
  49.3111660   7.4210370  62.9634530  43.6620170   6.2558760  69.2248620
  43.3289550   6.8827680  69.8669690  43.8386850   6.7820640  68.4450290
  42.8739270   8.2239560  71.0397800  43.4913270   8.8990640  70.7582250
  42.0132390   8.6327540  70.9485300  38.1671610   7.4139420  59.9204650
  37.7899590   7.9026520  59.1889550  38.4244680   8.0864700  60.5511180
  53.7916860   9.6878970  68.9552440  53.1080380  10.3578080  68.9469110
  54.3311150   9.8859620  68.1897300  51.3275600  11.5323100  67.6697620
  51.3402760  11.1285390  66.8019880  50.7750820  12.3070390  67.5659050
  52.6221020   8.2539320  62.7587790  52.5117350   7.3113650  62.8837210
  52.6189270   8.6154960  63.6450550  50.7261040   6.4352940  68.9980230
  51.1429830   6.2213050  68.1633690  51.4500860   6.6925730  69.5688850
  48.1641300   3.8804640  62.1150280  47.2370580   3.8142020  62.3438750
  48.3166120   4.8184770  62.0005520  54.6723140   4.8340160  69.0896470
  53.8441770   4.9033250  68.6146600  55.2673620   5.4194470  68.6212300
  52.1938590   5.4424940  62.6185530  51.5751010   5.1044490  61.9711830
  52.1763040   4.7984700  63.3264720  43.7697940   4.4069380  64.8970010
  43.3654940   3.6946630  64.4015910  43.8561060   4.0622620  65.7858050
  44.2379640   8.0936940  67.0609220  43.9407930   7.4882410  66.3817000
  45.1879460   8.1314250  66.9498580  52.3265250  11.6668810  70.7232320
  51.8495810  12.4741000  70.5304930  51.6427040  11.0147140  70.8758530
  43.3298070   7.8318630  73.7117020  42.4326600   8.0558600  73.9590420
  43.3550940   7.9553570  72.7628420  50.3703290   4.6811750  59.6258280
  50.8096570   3.8434180  59.4796100  51.0831710   5.3141150  59.7122420
  42.1569290   4.7031950  72.2874390  42.0177060   5.5754750  72.6561790
  41.2750650   4.3604760  72.1422330  48.4798670   9.6207820  63.5939520
  48.9194580  10.3632150  63.1794910  48.4185560   9.8634390  64.5178480
  43.9549640  10.6453650  74.4959540  43.9265070  11.0496600  73.6287970
  43.7914610   9.7164010  74.3331140  40.4702570   3.3014360  62.3976660
  40.3500170   4.0276450  61.7857930  40.1603460   2.5317270  61.9204570
  38.1087940   6.4729500  68.2045300  38.1868360   6.6078270  67.2601020
  38.7229620   5.7645390  68.3973420  39.3535570   8.1729690  64.6151480
  38.9463650   8.3144280  63.7605080  40.2448580   7.8889850  64.4122690
  55.3097710   8.6193600  72.9523720  55.4360770   8.3805480  72.0340900
  55.3519090   7.7878140  73.4245800  49.1714450  12.3221600  71.5218530
  49.6859120  12.2329610  72.3240960  48.3283530  12.6681300  71.8146440
  51.1468850  12.6076940  60.9502530  50.9869990  12.3179880  61.8484360
  50.9815560  11.8317070  60.4147760  43.6257230  12.3875470  62.7274150
  43.4499710  11.4711010  62.5141950  42.7712970  12.7462760  62.9671950
  50.8494980  10.1164500  59.5100530  50.1560140  10.1141790  58.8502810
  51.5917840   9.6923820  59.0794700  50.4144910  11.7427210  63.5849020
  50.8701860  10.9616590  63.8987640  50.7537430  12.4534030  64.1290200
  38.1647460   7.5143670  70.7439760  38.3278500   7.0449030  69.9259130
  38.6299910   7.0067230  71.4088600  49.3190260   2.2328650  74.6131100
  49.6443670   1.3992400  74.2733330  50.1070590   2.7557170  74.7609430
  42.7280450   1.7683000  63.5081580  42.5021370   1.5520170  64.4128200
  41.9472980   2.2011460  63.1627550  49.9578210   1.7746370  62.1072230
  49.3587100   2.4982170  61.9235850  50.5057820   1.7123150  61.3248680
  45.1679660   2.6668580  74.1741850  45.0723260   1.7263310  74.0242250
  46.0111640   2.8883650  73.7789920  49.1498220   3.0015660  68.2326290
  48.4179340   3.5102470  68.5816390  48.7522560   2.1845640  67.9315070
  44.6617260   2.9883080  59.0268840  44.0934160   2.5401330  58.4004750
  45.3706260   3.3475860  58.4933990  39.7386440   6.8895100  72.9035570
  39.3541230   6.2488770  73.5018530  40.0498630   7.5931220  73.4730300
  45.8883580   3.7371640  68.3844190  46.2553710   3.2630210  69.1305530
  45.6988640   4.6113210  68.7252530  43.6782950   2.7780280  70.7028400
  43.3740020   3.6572260  70.9278760  44.6329410   2.8380070  70.7385840
  42.2064740   6.9841270  61.2995250  41.4327000   6.4438890  61.1393970
  42.9359370   6.4647880  60.9613010  52.9652720   5.9806630  67.0921640
  53.6851840   6.4761920  66.7017750  52.7634540   5.3024520  66.4475510
  48.3471520   6.0515690  72.9790640  48.2808830   5.1311360  72.7248230
  47.7176660   6.1491130  73.6935280  42.2502140   6.6521650  64.9374060
  42.7680810   5.8489910  64.8830950  41.7986160   6.5900790  65.7790890
  47.1371640   7.9187930  60.2101360  47.4787340   8.6630160  59.7144680
  46.3084350   8.2319050  60.5726190  39.7346680   3.6183020  71.8499760
  39.3761620   4.2836870  72.4373100  39.4401240   2.7866570  72.2212380
  42.9359800   4.0767260  74.7339310  42.6359940   4.2224440  73.8367130
  43.7071040   3.5172550  74.6412700  48.2788250   8.8736260  72.7294440
  48.2932790   7.9417220  72.5113350  47.5713350   8.9596020  73.3684210
  53.4125320   3.0576080  58.9993050  53.3289040   3.4890300  58.1489490
  54.1319510   3.5174430  59.4319870  54.4899460   5.5143600  72.0763020
  53.7647650   6.1072380  71.8792410  55.0174920   5.5067140  71.2776390
  54.4412570   9.9118340  61.7275180  53.7988730   9.2573960  62.0018900
  54.0543230  10.3173430  60.9515850  50.0199050   7.2403770  65.5746870
  50.3722870   6.6431900  64.9148240  49.1361380   6.9148000  65.7455120
  46.1062330   8.0001460  62.9817280  46.7933460   8.5470670  63.3624870
  45.3194750   8.5442190  63.0166890  38.2454730   3.6174280  58.4734360
  39.1149580   3.8999080  58.7570280  37.7545050   4.4310150  58.3583170
  45.4089540   5.0047490  62.5942640  45.8652320   5.8152740  62.8202830
  45.0577750   4.6870630  63.4261130  47.7122150  10.5153830  69.8234940
  48.3564370  10.7213210  70.5008360  48.0751590   9.7542230  69.3705790
  48.9854230   8.5186180  68.5412390  49.6276460   7.8179340  68.6544560
  49.5103580   9.2984620  68.3609280  52.8309950   8.8034800  58.2651530
  52.6047530   8.0865240  58.8576170  52.4406150   8.5547240  57.4273280
  50.7591850   9.3181080  71.7448450  51.0948090   9.9047770  72.4226370
  49.8392190   9.1873790  71.9746240  38.6125980  12.8301660  59.0395990
  38.9723620  13.4291000  58.3853260  38.4718320  13.3761550  59.8131020
  52.4126200   6.7206740  59.9265690  52.1247900   7.1819430  60.7143570
  53.2078370   6.2604510  60.1949910  38.5967840  11.0956520  73.5138390
  38.7058960  10.1551260  73.3733780  37.9448400  11.3611270  72.8652120
  44.6294600  10.2132860  59.8569660  44.6204700  10.9462550  59.2414170
  43.7092960   9.9664440  59.9496620  40.2301240   5.4347750  60.6016420
  39.6229190   6.1746650  60.6111720  40.7050590   5.5247110  59.7754620
  47.6154200  10.2761100  58.5194850  47.7166180  10.0725090  57.5896830
  46.7155940  10.0219380  58.7242630  46.7636020   2.2538160  70.5011280
  47.2621270   2.7283980  71.1663130  46.9058970   1.3301680  70.7081310
  46.2572310  12.7947420  63.2142520  46.5113810  12.7568810  62.2921890
  45.3084790  12.6680750  63.2070770  52.2624890   3.7139300  64.7901030
  51.3215030   3.7289530  64.9648720  52.5768960   2.9275260  65.2361330
  42.2406530   5.3958900  58.3504990  43.0069800   5.2840260  58.9130420
  42.3181220   4.6996870  57.6981760  40.9353290   2.8283970  59.0337880
  41.0156880   1.8811480  59.1455280  41.8273040   3.1590850  59.1398540
  54.2650470  10.8848150  66.4655290  54.3897890  11.7079320  66.9379100
  55.1316030  10.6738880  66.1179440  41.7368000  12.9779360  66.1372420
  42.4730480  12.4294820  66.4080990  42.1208920  13.8435370  65.9978410
  38.6213480   9.0452930  62.0113930  37.6953260   9.2874070  62.0019340
  39.0869910   9.8727190  61.8898680  44.8470310  12.1509670  57.9597990
  45.6398920  12.4398500  57.5079780  44.3274660  11.7201840  57.2810470
  51.0091280  11.9985590  73.8842820  51.9613030  11.9143610  73.8343060
  50.8619500  12.6627300  74.5576610  53.9000480  11.3779800  59.3834730
  53.6141990  10.9644940  58.5688910  53.7020030  12.3067510  59.2635250
  38.4624090   4.6498890  74.2694050  38.9663110   4.0706170  74.8410280
  37.7231510   4.9339120  74.8070420  45.3647710   7.3713080  57.8240340
  45.2598350   6.7565430  58.5501720  45.1971930   6.8478970  57.0403350
  45.5162030   6.0569880  73.8029570  44.7507700   6.6254880  73.7184240
  45.6977990   5.7646090  72.9097800  48.6050440   6.4333110  58.4282330
  48.0560540   6.8802410  59.0725070  49.2269700   5.9282360  58.9520000
  52.6585380   7.7875210  74.3604590  53.3994850   8.1250970  73.8572050
  51.8958060   7.9567270  73.8074360  44.2725560   5.3924030  60.3247630
  44.6941980   5.2263900  61.1679020  44.3976400   4.5824260  59.8302770
  46.7853200   4.4161640  57.5724730  47.3058860   3.7010660  57.2065880
  47.4321600   5.0547510  57.8725240  51.3331040   5.8390040  72.8959800
  51.7472060   5.9935120  73.7450220  50.3982040   5.9645260  73.0585580
  51.8053210   3.1786200  74.8998950  52.3873980   2.4238520  74.8119430
  51.9814980   3.7093640  74.1230430  46.0946270   5.7910520  70.8655730
  46.5134380   6.6343250  70.6931970  45.1754900   5.9282560  70.6362510
  48.4310170   3.5226700  72.2493570  48.5506380   2.9267840  72.9888410
  49.2904170   3.5596390  71.8294870  50.7698070   4.0763890  70.8256080
  50.2433290   4.6006510  70.2221220  51.1129410   4.7091280  71.4565810
  43.9453690  12.0963530  71.9813460  43.4074780  12.8209590  71.6622160
  44.1987650  11.6193870  71.1910800  46.8015900  13.3314740  72.2400110
  46.7274600  14.2349880  72.5472480  45.8994740  13.0126640  72.2122180
  47.3501230  12.4973250  59.8626470  48.2452020  12.8358220  59.8845230
  47.3818860  11.7752660  59.2350750  40.9897390   7.8700300  58.0913470
  41.4272260   8.4129970  58.7471050  41.4745120   7.0447250  58.1009810
  38.2043190  10.6589330  65.5433730  38.5346200   9.7910390  65.3112370
  38.6334190  10.8647850  66.3738690  42.8005110   8.9898340  63.2035700
  42.5000650   8.8663310  64.1039610  42.6942600   8.1306930  62.7951430
  38.6933400  11.5259920  68.2815360  38.2564390  11.7060720  69.1139510
  39.2611080  12.2834540  68.1397080  54.3295580  11.0276920  72.5692670
  53.7297570  11.0869480  71.8256590  54.4589480  10.0881900  72.6989520
  55.5697030   8.7694740  57.9062380  54.7389990   8.8371390  58.3769610
  55.7468860   9.6598860  57.6029240  55.0253490   5.5142220  60.4096580
  55.7872400   6.0838870  60.5156270  55.0407860   4.9469420  61.1804890
  38.5257830   4.0380150  64.6404240  37.8706670   3.7691790  63.9963940
  39.3635780   3.9284630  64.1906220  56.0313460   6.3692320  65.2538510
  56.4022290   5.5859640  64.8474480  56.6715390   7.0581420  65.0755810
  53.0147220   7.7528900  70.6668830  52.2007060   8.1826060  70.9294620
  53.4221420   8.3647310  70.0537880  55.0772660   5.8076590  57.5669100
  55.3521500   6.7155470  57.4388320  54.8883400   5.7439120  58.5031090
  54.9738000   3.7445580  62.5598530  54.5981600   2.9773510  62.1279820
  54.2441120   4.1268280  63.0473460  39.5633760   4.4232720  69.1807580
  39.9306800   4.3360120  70.0603600  38.9944580   3.6599270  69.0814440
  54.3637620   2.8917100  72.1938050  54.1323710   2.6629850  71.2936000
  54.6242170   3.8116650  72.1482940  54.2488960   1.9703070  65.8605770
  54.7726440   1.4765720  65.2295940  54.8348380   2.1053430  66.6053340
  54.4278680   2.0542940  69.3825320  53.4781390   2.0206480  69.4970310
  54.6091690   2.9643050  69.1475090  53.0723270  12.5047500  64.1937100
  53.6682340  12.1832070  63.5171520  53.3301420  12.0319320  64.9850370
  44.6791870  10.4925000  69.9437450  44.4383230  10.7599560  69.0567970
  45.6194510  10.6630730  69.9988310  55.9396030  12.5119380  70.7448090
  55.4454310  12.9088250  70.0275220  55.3309320  11.8868590  71.1385370
  40.8173870  11.8827660  71.4625510  40.2234190  11.7512360  72.2015550
  40.8097710  11.0465800  70.9967610  53.6235480  13.1542800  68.0234830
  53.1638450  13.9058610  67.6492850  52.9947940  12.4349270  67.9649630
  40.4486100   9.2486040  70.4133550  39.7220160   8.6291330  70.3459500
  40.5095250   9.6426650  69.5431630  44.0531200  11.4631040  67.1982960
  44.5696220  10.8518400  66.6731220  44.7028580  11.9659820  67.6893970
  46.7926700  12.3539530  68.0251940  47.0804510  12.0993830  67.1484950
  47.3049920  11.8016890  68.6157510  38.7316100  12.5660430  63.6230310
  38.5638140  11.9331110  64.3212200  37.8650610  12.7719830  63.2724500
  40.3378800  11.2593660  61.0680450  39.8126420  11.6401690  60.3642410
  40.2623380  11.8844430  61.7890160  55.0944120  12.8181200  62.3894390
  55.2696310  12.1318940  61.7455310  54.3965690  13.3428250  61.9971060
  42.9371770  13.2076040  59.9429700  43.6690590  12.9235320  59.3953590
  43.1965440  12.9689320  60.8329080  42.0986560   9.3240770  59.9476030
  41.4695440   9.7925870  60.4961860  42.2134390   8.4789990  60.3822220
  49.5536280   3.3746430  46.0977230  49.4730330   2.4601040  45.8268940
  49.1400700   3.8713500  45.3916940  47.6854320   5.1525450  47.9786500
  46.9096420   4.6725890  48.2685070  48.3367250   4.4731100  47.8042660
  41.7020150   5.4645260  48.8562260  40.8705030   5.2093970  49.2558770
  42.3101130   5.5356030  49.5920180  51.7061750   9.5585640  46.7585630
  51.2443280   8.7872880  47.0872800  52.5187300   9.5851710  47.2638080
  41.6821410   9.4985350  49.0520280  41.9849450   8.6083090  48.8730500
  42.4265000  10.0555570  48.8242530  38.0745110   3.0252800  48.5244350
  38.6461220   2.2575000  48.5247990  38.0746650   3.3241560  47.6150960
  47.9325060  11.8443650  46.3789620  47.3136500  12.3001150  45.8084060
  48.7876840  11.9995110  45.9779320  47.1263310   7.8282640  47.9856660
  47.0571590   6.8872580  47.8245790  47.8883170   7.9184050  48.5579230
  48.7988410   6.7282890  43.7721530  48.1805680   7.1932340  43.2084250
  49.3111660   7.4210370  44.1891040  43.6620170   6.2558760  50.4505130
  43.3289550   6.8827680  51.0926200  43.8386850   6.7820640  49.6706800
  42.8739270   8.2239560  52.2654310  43.4913270   8.8990640  51.9838760
  42.0132390   8.6327540  52.1741810  38.1671610   7.4139420  41.1461160
  37.7899590   7.9026520  40.4146060  38.4244680   8.0864700  41.7767690
  53.7916860   9.6878970  50.1808950  53.1080380  10.3578080  50.1725620
  54.3311150   9.8859620  49.4153810  51.3275600  11.5323100  48.8954130
  51.3402760  11.1285390  48.0276390  50.7750820  12.3070390  48.7915560
  52.6221020   8.2539320  43.9844300  52.5117350   7.3113650  44.1093720
  52.6189270   8.6154960  44.8707060  50.7261040   6.4352940  50.2236740
  51.1429830   6.2213050  49.3890200  51.4500860   6.6925730  50.7945360
  48.1641300   3.8804640  43.3406790  47.2370580   3.8142020  43.5695260
  48.3166120   4.8184770  43.2262030  54.6723140   4.8340160  50.3152980
  53.8441770   4.9033250  49.8403110  55.2673620   5.4194470  49.8468810
  52.1938590   5.4424940  43.8442040  51.5751010   5.1044490  43.1968340
  52.1763040   4.7984700  44.5521230  43.7697940   4.4069380  46.1226520
  43.3654940   3.6946630  45.6272420  43.8561060   4.0622620  47.0114560
  44.2379640   8.0936940  48.2865730  43.9407930   7.4882410  47.6073510
  45.1879460   8.1314250  48.1755090  52.3265250  11.6668810  51.9488830
  51.8495810  12.4741000  51.7561440  51.6427040  11.0147140  52.1015040
  43.3298070   7.8318630  54.9373530  42.4326600   8.0558600  55.1846930
  43.3550940   7.9553570  53.9884930  50.3703290   4.6811750  40.8514790
  50.8096570   3.8434180  40.7052610  51.0831710   5.3141150  40.9378930
  42.1569290   4.7031950  53.5130900  42.0177060   5.5754750  53.8818300
  41.2750650   4.3604760  53.3678840  48.4798670   9.6207820  44.8196030
  48.9194580  10.3632150  44.4051420  48.4185560   9.8634390  45.7434990
  43.9549640  10.6453650  55.7216050  43.9265070  11.0496600  54.8544480
  43.7914610   9.7164010  55.5587650  40.4702570   3.3014360  43.6233170
  40.3500170   4.0276450  43.0114440  40.1603460   2.5317270  43.1461080
  55.9064460  11.4280750  57.0180220  56.3824180  11.9063640  57.6969300
  56.5271620  11.3598240  56.2925720  38.1087940   6.4729500  49.4301810
  38.1868360   6.6078270  48.4857530  38.7229620   5.7645390  49.6229930
  39.3535570   8.1729690  45.8407990  38.9463650   8.3144280  44.9861590
  40.2448580   7.8889850  45.6379200  55.3097710   8.6193600  54.1780230
  55.4360770   8.3805480  53.2597410  55.3519090   7.7878140  54.6502310
  49.1714450  12.3221600  52.7475040  49.6859120  12.2329610  53.5497470
  48.3283530  12.6681300  53.0402950  51.1468850  12.6076940  42.1759040
  50.9869990  12.3179880  43.0740870  50.9815560  11.8317070  41.6404270
  43.6257230  12.3875470  43.9530660  43.4499710  11.4711010  43.7398460
  42.7712970  12.7462760  44.1928460  50.8494980  10.1164500  40.7357040
  50.1560140  10.1141790  40.0759320  51.5917840   9.6923820  40.3051210
  50.4144910  11.7427210  44.8105530  50.8701860  10.9616590  45.1244150
  50.7537430  12.4534030  45.3546710  38.1647460   7.5143670  51.9696270
  38.3278500   7.0449030  51.1515640  38.6299910   7.0067230  52.6345110
  49.3190260   2.2328650  55.8387610  49.6443670   1.3992400  55.4989840
  50.1070590   2.7557170  55.9865940  42.7280450   1.7683000  44.7338090
  42.5021370   1.5520170  45.6384710  41.9472980   2.2011460  44.3884060
  49.9578210   1.7746370  43.3328740  49.3587100   2.4982170  43.1492360
  50.5057820   1.7123150  42.5505190  45.1679660   2.6668580  55.3998360
  45.0723260   1.7263310  55.2498760  46.0111640   2.8883650  55.0046430
  49.1498220   3.0015660  49.4582800  48.4179340   3.5102470  49.8072900
  48.7522560   2.1845640  49.1571580  44.6617260   2.9883080  40.2525350
  44.0934160   2.5401330  39.6261260  45.3706260   3.3475860  39.7190500
  39.7386440   6.8895100  54.1292080  39.3541230   6.2488770  54.7275040
  40.0498630   7.5931220  54.6986810  45.8883580   3.7371640  49.6100700
  46.2553710   3.2630210  50.3562040  45.6988640   4.6113210  49.9509040
  43.6782950   2.7780280  51.9284910  43.3740020   3.6572260  52.1535270
  44.6329410   2.8380070  51.9642350  42.2064740   6.9841270  42.5251760
  41.4327000   6.4438890  42.3650480  42.9359370   6.4647880  42.1869520
  52.9652720   5.9806630  48.3178150  53.6851840   6.4761920  47.9274260
  52.7634540   5.3024520  47.6732020  48.3471520   6.0515690  54.2047150
  48.2808830   5.1311360  53.9504740  47.7176660   6.1491130  54.9191790
  42.2502140   6.6521650  46.1630570  42.7680810   5.8489910  46.1087460
  41.7986160   6.5900790  47.0047400  47.1371640   7.9187930  41.4357870
  47.4787340   8.6630160  40.9401190  46.3084350   8.2319050  41.7982700
  39.7346680   3.6183020  53.0756270  39.3761620   4.2836870  53.6629610
  39.4401240   2.7866570  53.4468890  42.9359800   4.0767260  55.9595820
  42.6359940   4.2224440  55.0623640  43.7071040   3.5172550  55.8669210
  48.2788250   8.8736260  53.9550950  48.2932790   7.9417220  53.7369860
  47.5713350   8.9596020  54.5940720  53.4125320   3.0576080  40.2249560
  53.3289040   3.4890300  39.3746000  54.1319510   3.5174430  40.6576380
  54.4899460   5.5143600  53.3019530  53.7647650   6.1072380  53.1048920
  55.0174920   5.5067140  52.5032900  54.4412570   9.9118340  42.9531690
  53.7988730   9.2573960  43.2275410  54.0543230  10.3173430  42.1772360
  50.0199050   7.2403770  46.8003380  50.3722870   6.6431900  46.1404750
  49.1361380   6.9148000  46.9711630  46.1062330   8.0001460  44.2073790
  46.7933460   8.5470670  44.5881380  45.3194750   8.5442190  44.2423400
  38.2454730   3.6174280  39.6990870  39.1149580   3.8999080  39.9826790
  37.7545050   4.4310150  39.5839680  45.4089540   5.0047490  43.8199150
  45.8652320   5.8152740  44.0459340  45.0577750   4.6870630  44.6517640
  47.7122150  10.5153830  51.0491450  48.3564370  10.7213210  51.7264870
  48.0751590   9.7542230  50.5962300  48.9854230   8.5186180  49.7668900
  49.6276460   7.8179340  49.8801070  49.5103580   9.2984620  49.5865790
  52.8309950   8.8034800  39.4908040  52.6047530   8.0865240  40.0832680
  52.4406150   8.5547240  38.6529790  50.7591850   9.3181080  52.9704960
  51.0948090   9.9047770  53.6482880  49.8392190   9.1873790  53.2002750
  38.6125980  12.8301660  40.2652500  38.9723620  13.4291000  39.6109770
  38.4718320  13.3761550  41.0387530  52.4126200   6.7206740  41.1522200
  52.1247900   7.1819430  41.9400080  53.2078370   6.2604510  41.4206420
  38.5967840  11.0956520  54.7394900  38.7058960  10.1551260  54.5990290
  37.9448400  11.3611270  54.0908630  46.5880430   9.3672410  56.1393020
  46.2677300   8.6481650  56.6838710  45.9138790  10.0427480  56.2129080
  44.6294600  10.2132860  41.0826170  44.6204700  10.9462550  40.4670680
  43.7092960   9.9664440  41.1753130  40.2301240   5.4347750  41.8272930
  39.6229190   6.1746650  41.8368230  40.7050590   5.5247110  41.0011130
  47.6154200  10.2761100  39.7451360  47.7166180  10.0725090  38.8153340
  46.7155940  10.0219380  39.9499140  46.7636020   2.2538160  51.7267790
  47.2621270   2.7283980  52.3919640  46.9058970   1.3301680  51.9337820
  46.2572310  12.7947420  44.4399030  46.5113810  12.7568810  43.5178400
  45.3084790  12.6680750  44.4327280  52.2624890   3.7139300  46.0157540
  51.3215030   3.7289530  46.1905230  52.5768960   2.9275260  46.4617840
  42.2406530   5.3958900  39.5761500  43.0069800   5.2840260  40.1386930
  42.3181220   4.6996870  38.9238270  40.9353290   2.8283970  40.2594390
  41.0156880   1.8811480  40.3711790  41.8273040   3.1590850  40.3655050
  54.2650470  10.8848150  47.6911800  54.3897890  11.7079320  48.1635610
  55.1316030  10.6738880  47.3435950  41.7368000  12.9779360  47.3628930
  42.4730480  12.4294820  47.6337500  42.1208920  13.8435370  47.2234920
  38.6213480   9.0452930  43.2370440  37.6953260   9.2874070  43.2275850
  39.0869910   9.8727190  43.1155190  40.7426280  12.1625430  56.5514510
  41.5439010  12.4837480  56.9649910  40.2278100  11.8021010  57.2734420
  44.8470310  12.1509670  39.1854500  45.6398920  12.4398500  38.7336290
  44.3274660  11.7201840  38.5066980  49.5790910   8.2705300  56.4989920
  48.9729070   8.2936900  55.7585670  49.2745020   7.5388340  57.0357170
  51.0091280  11.9985590  55.1099330  51.9613030  11.9143610  55.0599570
  50.8619500  12.6627300  55.7833120  53.9000480  11.3779800  40.6091240
  53.6141990  10.9644940  39.7945420  53.7020030  12.3067510  40.4891760
  38.4624090   4.6498890  55.4950560  38.9663110   4.0706170  56.0666790
  37.7231510   4.9339120  56.0326930  45.3647710   7.3713080  39.0496850
  45.2598350   6.7565430  39.7758230  45.1971930   6.8478970  38.2659860
  45.5162030   6.0569880  55.0286080  44.7507700   6.6254880  54.9440750
  45.6977990   5.7646090  54.1354310  48.6050440   6.4333110  39.6538840
  48.0560540   6.8802410  40.2981580  49.2269700   5.9282360  40.1776510
  52.6585380   7.7875210  55.5861100  53.3994850   8.1250970  55.0828560
  51.8958060   7.9567270  55.0330870  40.4947170   2.7928480  56.3900630
  40.5352510   2.4942350  57.2985860  41.3492670   3.1936090  56.2308150
  44.2725560   5.3924030  41.5504140  44.6941980   5.2263900  42.3935530
  44.3976400   4.5824260  41.0559280  46.7853200   4.4161640  38.7981240
  47.3058860   3.7010660  38.4322390  47.4321600   5.0547510  39.0981750
  51.3331040   5.8390040  54.1216310  51.7472060   5.9935120  54.9706730
  50.3982040   5.9645260  54.2842090  51.8053210   3.1786200  56.1255460
  52.3873980   2.4238520  56.0375940  51.9814980   3.7093640  55.3486940
  46.0946270   5.7910520  52.0912240  46.5134380   6.6343250  51.9188480
  45.1754900   5.9282560  51.8619020  48.4310170   3.5226700  53.4750080
  48.5506380   2.9267840  54.2144920  49.2904170   3.5596390  53.0551380
  50.7698070   4.0763890  52.0512590  50.2433290   4.6006510  51.4477730
  51.1129410   4.7091280  52.6822320  43.9453690  12.0963530  53.2069970
  43.4074780  12.8209590  52.8878670  44.1987650  11.6193870  52.4167310
  46.8015900  13.3314740  53.4656620  46.7274600  14.2349880  53.7728990
  45.8994740  13.0126640  53.4378690  47.3501230  12.4973250  41.0882980
  48.2452020  12.8358220  41.1101740  47.3818860  11.7752660  40.4607260
  40.9897390   7.8700300  39.3169980  41.4272260   8.4129970  39.9727560
  41.4745120   7.0447250  39.3266320  38.2043190  10.6589330  46.7690240
  38.5346200   9.7910390  46.5368880  38.6334190  10.8647850  47.5995200
  42.8005110   8.9898340  44.4292210  42.5000650   8.8663310  45.3296120
  42.6942600   8.1306930  44.0207940  38.6933400  11.5259920  49.5071870
  38.2564390  11.7060720  50.3396020  39.2611080  12.2834540  49.3653590
  54.3295580  11.0276920  53.7949180  53.7297570  11.0869480  53.0513100
  54.4589480  10.0881900  53.9246030  55.5697030   8.7694740  39.1318890
  54.7389990   8.8371390  39.6026120  55.7468860   9.6598860  38.8285750
  55.0253490   5.5142220  41.6353090  55.7872400   6.0838870  41.7412780
  55.0407860   4.9469420  42.4061400  38.5257830   4.0380150  45.8660750
  37.8706670   3.7691790  45.2220450  39.3635780   3.9284630  45.4162730
  56.0313460   6.3692320  46.4795020  56.4022290   5.5859640  46.0730990
  56.6715390   7.0581420  46.3012320  53.0147220   7.7528900  51.8925340
  52.2007060   8.1826060  52.1551130  53.4221420   8.3647310  51.2794390
  55.0772660   5.8076590  38.7925610  55.3521500   6.7155470  38.6644830
  54.8883400   5.7439120  39.7287600  54.9738000   3.7445580  43.7855040
  54.5981600   2.9773510  43.3536330  54.2441120   4.1268280  44.2729970
  39.5633760   4.4232720  50.4064090  39.9306800   4.3360120  51.2860110
  38.9944580   3.6599270  50.3070950  54.3637620   2.8917100  53.4194560
  54.1323710   2.6629850  52.5192510  54.6242170   3.8116650  53.3739450
  54.2488960   1.9703070  47.0862280  54.7726440   1.4765720  46.4552450
  54.8348380   2.1053430  47.8309850  54.4278680   2.0542940  50.6081830
  53.4781390   2.0206480  50.7226820  54.6091690   2.9643050  50.3731600
  53.0723270  12.5047500  45.4193610  53.6682340  12.1832070  44.7428030
  53.3301420  12.0319320  46.2106880  40.9785840   8.9365410  55.5684240
  40.9355470   8.5658320  56.4498700  41.1096850   9.8742980  55.7086060
  44.6791870  10.4925000  51.1693960  44.4383230  10.7599560  50.2824480
  45.6194510  10.6630730  51.2244820  55.9396030  12.5119380  51.9704600
  55.4454310  12.9088250  51.2531730  55.3309320  11.8868590  52.3641880
  40.8173870  11.8827660  52.6882020  40.2234190  11.7512360  53.4272060
  40.8097710  11.0465800  52.2224120  53.6235480  13.1542800  49.2491340
  53.1638450  13.9058610  48.8749360  52.9947940  12.4349270  49.1906140
  40.4486100   9.2486040  51.6390060  39.7220160   8.6291330  51.5716010
  40.5095250   9.6426650  50.7688140  44.0531200  11.4631040  48.4239470
  44.5696220  10.8518400  47.8987730  44.7028580  11.9659820  48.9150480
  46.7926700  12.3539530  49.2508450  47.0804510  12.0993830  48.3741460
  47.3049920  11.8016890  49.8414020  38.7316100  12.5660430  44.8486820
  38.5638140  11.9331110  45.5468710  37.8650610  12.7719830  44.4981010
  40.3378800  11.2593660  42.2936960  39.8126420  11.6401690  41.5898920
  40.2623380  11.8844430  43.0146670  46.8599060  13.2755630  56.6176650
  47.7866370  13.0399900  56.6612610  46.8449490  14.1027630  56.1362680
  55.0944120  12.8181200  43.6150900  55.2696310  12.1318940  42.9711820
  54.3965690  13.3428250  43.2227570  42.9371770  13.2076040  41.1686210
  43.6690590  12.9235320  40.6210100  43.1965440  12.9689320  42.0585590
  42.0986560   9.3240770  41.1732540  41.4695440   9.7925870  41.7218370
  42.2134390   8.4789990  41.6078730  53.4276620  12.5025490  56.4417690
  54.2201940  12.0074720  56.2343650  53.7209770  13.1815630  57.0493300
  49.5536280   3.3746430  27.3233740  49.4730330   2.4601040  27.0525450
  49.1400700   3.8713500  26.6173450  47.6854320   5.1525450  29.2043010
  46.9096420   4.6725890  29.4941580  48.3367250   4.4731100  29.0299170
  41.7020150   5.4645260  30.0818770  40.8705030   5.2093970  30.4815280
  42.3101130   5.5356030  30.8176690  51.7061750   9.5585640  27.9842140
  51.2443280   8.7872880  28.3129310  52.5187300   9.5851710  28.4894590
  41.6821410   9.4985350  30.2776790  41.9849450   8.6083090  30.0987010
  42.4265000  10.0555570  30.0499040  38.0745110   3.0252800  29.7500860
  38.6461220   2.2575000  29.7504500  38.0746650   3.3241560  28.8407470
  47.9325060  11.8443650  27.6046130  47.3136500  12.3001150  27.0340570
  48.7876840  11.9995110  27.2035830  47.1263310   7.8282640  29.2113170
  47.0571590   6.8872580  29.0502300  47.8883170   7.9184050  29.7835740
  48.7988410   6.7282890  24.9978040  48.1805680   7.1932340  24.4340760
  49.3111660   7.4210370  25.4147550  43.6620170   6.2558760  31.6761640
  43.3289550   6.8827680  32.3182710  43.8386850   6.7820640  30.8963310
  42.8739270   8.2239560  33.4910820  43.4913270   8.8990640  33.2095270
  42.0132390   8.6327540  33.3998320  38.1671610   7.4139420  22.3717670
  37.7899590   7.9026520  21.6402570  38.4244680   8.0864700  23.0024200
  53.7916860   9.6878970  31.4065460  53.1080380  10.3578080  31.3982130
  54.3311150   9.8859620  30.6410320  51.3275600  11.5323100  30.1210640
  51.3402760  11.1285390  29.2532900  50.7750820  12.3070390  30.0172070
  52.6221020   8.2539320  25.2100810  52.5117350   7.3113650  25.3350230
  52.6189270   8.6154960  26.0963570  50.7261040   6.4352940  31.4493250
  51.1429830   6.2213050  30.6146710  51.4500860   6.6925730  32.0201870
  48.1641300   3.8804640  24.5663300  47.2370580   3.8142020  24.7951770
  48.3166120   4.8184770  24.4518540  54.6723140   4.8340160  31.5409490
  53.8441770   4.9033250  31.0659620  55.2673620   5.4194470  31.0725320
  52.1938590   5.4424940  25.0698550  51.5751010   5.1044490  24.4224850
  52.1763040   4.7984700  25.7777740  43.7697940   4.4069380  27.3483030
  43.3654940   3.6946630  26.8528930  43.8561060   4.0622620  28.2371070
  44.2379640   8.0936940  29.5122240  43.9407930   7.4882410  28.8330020
  45.1879460   8.1314250  29.4011600  52.3265250  11.6668810  33.1745340
  51.8495810  12.4741000  32.9817950  51.6427040  11.0147140  33.3271550
  43.3298070   7.8318630  36.1630040  42.4326600   8.0558600  36.4103440
  43.3550940   7.9553570  35.2141440  50.3703290   4.6811750  22.0771300
  50.8096570   3.8434180  21.9309120  51.0831710   5.3141150  22.1635440
  42.1569290   4.7031950  34.7387410  42.0177060   5.5754750  35.1074810
  41.2750650   4.3604760  34.5935350  48.4798670   9.6207820  26.0452540
  48.9194580  10.3632150  25.6307930  48.4185560   9.8634390  26.9691500
  43.9549640  10.6453650  36.9472560  43.9265070  11.0496600  36.0800990
  43.7914610   9.7164010  36.7844160  40.4702570   3.3014360  24.8489680
  40.3500170   4.0276450  24.2370950  40.1603460   2.5317270  24.3717590
  55.9064460  11.4280750  38.2436730  56.3824180  11.9063640  38.9225810
  56.5271620  11.3598240  37.5182230  38.1087940   6.4729500  30.6558320
  38.1868360   6.6078270  29.7114040  38.7229620   5.7645390  30.8486440
  39.3535570   8.1729690  27.0664500  38.9463650   8.3144280  26.2118100
  40.2448580   7.8889850  26.8635710  55.3097710   8.6193600  35.4036740
  55.4360770   8.3805480  34.4853920  55.3519090   7.7878140  35.8758820
  49.1714450  12.3221600  33.9731550  49.6859120  12.2329610  34.7753980
  48.3283530  12.6681300  34.2659460  51.1468850  12.6076940  23.4015550
  50.9869990  12.3179880  24.2997380  50.9815560  11.8317070  22.8660780
  43.6257230  12.3875470  25.1787170  43.4499710  11.4711010  24.9654970
  42.7712970  12.7462760  25.4184970  50.8494980  10.1164500  21.9613550
  50.1560140  10.1141790  21.3015830  51.5917840   9.6923820  21.5307720
  50.4144910  11.7427210  26.0362040  50.8701860  10.9616590  26.3500660
  50.7537430  12.4534030  26.5803220  38.1647460   7.5143670  33.1952780
  38.3278500   7.0449030  32.3772150  38.6299910   7.0067230  33.8601620
  49.3190260   2.2328650  37.0644120  49.6443670   1.3992400  36.7246350
  50.1070590   2.7557170  37.2122450  42.7280450   1.7683000  25.9594600
  42.5021370   1.5520170  26.8641220  41.9472980   2.2011460  25.6140570
  49.9578210   1.7746370  24.5585250  49.3587100   2.4982170  24.3748870
  50.5057820   1.7123150  23.7761700  45.1679660   2.6668580  36.6254870
  45.0723260   1.7263310  36.4755270  46.0111640   2.8883650  36.2302940
  49.1498220   3.0015660  30.6839310  48.4179340   3.5102470  31.0329410
  48.7522560   2.1845640  30.3828090  44.6617260   2.9883080  21.4781860
  44.0934160   2.5401330  20.8517770  45.3706260   3.3475860  20.9447010
  39.7386440   6.8895100  35.3548590  39.3541230   6.2488770  35.9531550
  40.0498630   7.5931220  35.9243320  45.8883580   3.7371640  30.8357210
  46.2553710   3.2630210  31.5818550  45.6988640   4.6113210  31.1765550
  43.6782950   2.7780280  33.1541420  43.3740020   3.6572260  33.3791780
  44.6329410   2.8380070  33.1898860  42.2064740   6.9841270  23.7508270
  41.4327000   6.4438890  23.5906990  42.9359370   6.4647880  23.4126030
  52.9652720   5.9806630  29.5434660  53.6851840   6.4761920  29.1530770
  52.7634540   5.3024520  28.8988530  48.3471520   6.0515690  35.4303660
  48.2808830   5.1311360  35.1761250  47.7176660   6.1491130  36.1448300
  42.2502140   6.6521650  27.3887080  42.7680810   5.8489910  27.3343970
  41.7986160   6.5900790  28.2303910  47.1371640   7.9187930  22.6614380
  47.4787340   8.6630160  22.1657700  46.3084350   8.2319050  23.0239210
  39.7346680   3.6183020  34.3012780  39.3761620   4.2836870  34.8886120
  39.4401240   2.7866570  34.6725400  42.9359800   4.0767260  37.1852330
  42.6359940   4.2224440  36.2880150  43.7071040   3.5172550  37.0925720
  48.2788250   8.8736260  35.1807460  48.2932790   7.9417220  34.9626370
  47.5713350   8.9596020  35.8197230  53.4125320   3.0576080  21.4506070
  53.3289040   3.4890300  20.6002510  54.1319510   3.5174430  21.8832890
  54.4899460   5.5143600  34.5276040  53.7647650   6.1072380  34.3305430
  55.0174920   5.5067140  33.7289410  54.4412570   9.9118340  24.1788200
  53.7988730   9.2573960  24.4531920  54.0543230  10.3173430  23.4028870
  50.0199050   7.2403770  28.0259890  50.3722870   6.6431900  27.3661260
  49.1361380   6.9148000  28.1968140  46.1062330   8.0001460  25.4330300
  46.7933460   8.5470670  25.8137890  45.3194750   8.5442190  25.4679910
  38.2454730   3.6174280  20.9247380  39.1149580   3.8999080  21.2083300
  37.7545050   4.4310150  20.8096190  45.4089540   5.0047490  25.0455660
  45.8652320   5.8152740  25.2715850  45.0577750   4.6870630  25.8774150
  47.7122150  10.5153830  32.2747960  48.3564370  10.7213210  32.9521380
  48.0751590   9.7542230  31.8218810  48.9854230   8.5186180  30.9925410
  49.6276460   7.8179340  31.1057580  49.5103580   9.2984620  30.8122300
  52.8309950   8.8034800  20.7164550  52.6047530   8.0865240  21.3089190
  52.4406150   8.5547240  19.8786300  50.7591850   9.3181080  34.1961470
  51.0948090   9.9047770  34.8739390  49.8392190   9.1873790  34.4259260
  38.6125980  12.8301660  21.4909010  38.9723620  13.4291000  20.8366280
  38.4718320  13.3761550  22.2644040  52.4126200   6.7206740  22.3778710
  52.1247900   7.1819430  23.1656590  53.2078370   6.2604510  22.6462930
  38.5967840  11.0956520  35.9651410  38.7058960  10.1551260  35.8246800
  37.9448400  11.3611270  35.3165140  46.5880430   9.3672410  37.3649530
  46.2677300   8.6481650  37.9095220  45.9138790  10.0427480  37.4385590
  44.6294600  10.2132860  22.3082680  44.6204700  10.9462550  21.6927190
  43.7092960   9.9664440  22.4009640  40.2301240   5.4347750  23.0529440
  39.6229190   6.1746650  23.0624740  40.7050590   5.5247110  22.2267640
  47.6154200  10.2761100  20.9707870  47.7166180  10.0725090  20.0409850
  46.7155940  10.0219380  21.1755650  46.7636020   2.2538160  32.9524300
  47.2621270   2.7283980  33.6176150  46.9058970   1.3301680  33.1594330
  46.2572310  12.7947420  25.6655540  46.5113810  12.7568810  24.7434910
  45.3084790  12.6680750  25.6583790  52.2624890   3.7139300  27.2414050
  51.3215030   3.7289530  27.4161740  52.5768960   2.9275260  27.6874350
  42.2406530   5.3958900  20.8018010  43.0069800   5.2840260  21.3643440
  42.3181220   4.6996870  20.1494780  40.9353290   2.8283970  21.4850900
  41.0156880   1.8811480  21.5968300  41.8273040   3.1590850  21.5911560
  54.2650470  10.8848150  28.9168310  54.3897890  11.7079320  29.3892120
  55.1316030  10.6738880  28.5692460  41.7368000  12.9779360  28.5885440
  42.4730480  12.4294820  28.8594010  42.1208920  13.8435370  28.4491430
  38.6213480   9.0452930  24.4626950  37.6953260   9.2874070  24.4532360
  39.0869910   9.8727190  24.3411700  40.7426280  12.1625430  37.7771020
  41.5439010  12.4837480  38.1906420  40.2278100  11.8021010  38.4990930
  44.8470310  12.1509670  20.4111010  45.6398920  12.4398500  19.9592800
  44.3274660  11.7201840  19.7323490  49.5790910   8.2705300  37.7246430
  48.9729070   8.2936900  36.9842180  49.2745020   7.5388340  38.2613680
  51.0091280  11.9985590  36.3355840  51.9613030  11.9143610  36.2856080
  50.8619500  12.6627300  37.0089630  53.9000480  11.3779800  21.8347750
  53.6141990  10.9644940  21.0201930  53.7020030  12.3067510  21.7148270
  38.4624090   4.6498890  36.7207070  38.9663110   4.0706170  37.2923300
  37.7231510   4.9339120  37.2583440  45.3647710   7.3713080  20.2753360
  45.2598350   6.7565430  21.0014740  45.1971930   6.8478970  19.4916370
  45.5162030   6.0569880  36.2542590  44.7507700   6.6254880  36.1697260
  45.6977990   5.7646090  35.3610820  48.6050440   6.4333110  20.8795350
  48.0560540   6.8802410  21.5238090  49.2269700   5.9282360  21.4033020
  52.6585380   7.7875210  36.8117610  53.3994850   8.1250970  36.3085070
  51.8958060   7.9567270  36.2587380  40.4947170   2.7928480  37.6157140
  40.5352510   2.4942350  38.5242370  41.3492670   3.1936090  37.4564660
  44.2725560   5.3924030  22.7760650  44.6941980   5.2263900  23.6192040
  44.3976400   4.5824260  22.2815790  46.7853200   4.4161640  20.0237750
  47.3058860   3.7010660  19.6578900  47.4321600   5.0547510  20.3238260
  51.3331040   5.8390040  35.3472820  51.7472060   5.9935120  36.1963240
  50.3982040   5.9645260  35.5098600  51.8053210   3.1786200  37.3511970
  52.3873980   2.4238520  37.2632450  51.9814980   3.7093640  36.5743450
  46.0946270   5.7910520  33.3168750  46.5134380   6.6343250  33.1444990
  45.1754900   5.9282560  33.0875530  48.4310170   3.5226700  34.7006590
  48.5506380   2.9267840  35.4401430  49.2904170   3.5596390  34.2807890
  50.7698070   4.0763890  33.2769100  50.2433290   4.6006510  32.6734240
  51.1129410   4.7091280  33.9078830  43.9453690  12.0963530  34.4326480
  43.4074780  12.8209590  34.1135180  44.1987650  11.6193870  33.6423820
  46.8015900  13.3314740  34.6913130  46.7274600  14.2349880  34.9985500
  45.8994740  13.0126640  34.6635200  47.3501230  12.4973250  22.3139490
  48.2452020  12.8358220  22.3358250  47.3818860  11.7752660  21.6863770
  40.9897390   7.8700300  20.5426490  41.4272260   8.4129970  21.1984070
  41.4745120   7.0447250  20.5522830  38.2043190  10.6589330  27.9946750
  38.5346200   9.7910390  27.7625390  38.6334190  10.8647850  28.8251710
  42.8005110   8.9898340  25.6548720  42.5000650   8.8663310  26.5552630
  42.6942600   8.1306930  25.2464450  38.6933400  11.5259920  30.7328380
  38.2564390  11.7060720  31.5652530  39.2611080  12.2834540  30.5910100
  54.3295580  11.0276920  35.0205690  53.7297570  11.0869480  34.2769610
  54.4589480  10.0881900  35.1502540  55.5697030   8.7694740  20.3575400
  54.7389990   8.8371390  20.8282630  55.7468860   9.6598860  20.0542260
  55.0253490   5.5142220  22.8609600  55.7872400   6.0838870  22.9669290
  55.0407860   4.9469420  23.6317910  38.5257830   4.0380150  27.0917260
  37.8706670   3.7691790  26.4476960  39.3635780   3.9284630  26.6419240
  56.0313460   6.3692320  27.7051530  56.4022290   5.5859640  27.2987500
  56.6715390   7.0581420  27.5268830  53.0147220   7.7528900  33.1181850
  52.2007060   8.1826060  33.3807640  53.4221420   8.3647310  32.5050900
  55.0772660   5.8076590  20.0182120  55.3521500   6.7155470  19.8901340
  54.8883400   5.7439120  20.9544110  54.9738000   3.7445580  25.0111550
  54.5981600   2.9773510  24.5792840  54.2441120   4.1268280  25.4986480
  39.5633760   4.4232720  31.6320600  39.9306800   4.3360120  32.5116620
  38.9944580   3.6599270  31.5327460  54.3637620   2.8917100  34.6451070
  54.1323710   2.6629850  33.7449020  54.6242170   3.8116650  34.5995960
  54.2488960   1.9703070  28.3118790  54.7726440   1.4765720  27.6808960
  54.8348380   2.1053430  29.0566360  54.4278680   2.0542940  31.8338340
  53.4781390   2.0206480  31.9483330  54.6091690   2.9643050  31.5988110
  53.0723270  12.5047500  26.6450120  53.6682340  12.1832070  25.9684540
  53.3301420  12.0319320  27.4363390  40.9785840   8.9365410  36.7940750
  40.9355470   8.5658320  37.6755210  41.1096850   9.8742980  36.9342570
  44.6791870  10.4925000  32.3950470  44.4383230  10.7599560  31.5080990
  45.6194510  10.6630730  32.4501330  55.9396030  12.5119380  33.1961110
  55.4454310  12.9088250  32.4788240  55.3309320  11.8868590  33.5898390
  40.8173870  11.8827660  33.9138530  40.2234190  11.7512360  34.6528570
  40.8097710  11.0465800  33.4480630  53.6235480  13.1542800  30.4747850
  53.1638450  13.9058610  30.1005870  52.9947940  12.4349270  30.4162650
  40.4486100   9.2486040  32.8646570  39.7220160   8.6291330  32.7972520
  40.5095250   9.6426650  31.9944650  44.0531200  11.4631040  29.6495980
  44.5696220  10.8518400  29.1244240  44.7028580  11.9659820  30.1406990
  46.7926700  12.3539530  30.4764960  47.0804510  12.0993830  29.5997970
  47.3049920  11.8016890  31.0670530  38.7316100  12.5660430  26.0743330
  38.5638140  11.9331110  26.7725220  37.8650610  12.7719830  25.7237520
  40.3378800  11.2593660  23.5193470  39.8126420  11.6401690  22.8155430
  40.2623380  11.8844430  24.2403180  46.8599060  13.2755630  37.8433160
  47.7866370  13.0399900  37.8869120  46.8449490  14.1027630  37.3619190
  55.0944120  12.8181200  24.8407410  55.2696310  12.1318940  24.1968330
  54.3965690  13.3428250  24.4484080  42.9371770  13.2076040  22.3942720
  43.6690590  12.9235320  21.8466610  43.1965440  12.9689320  23.2842100
  42.0986560   9.3240770  22.3989050  41.4695440   9.7925870  22.9474880
  42.2134390   8.4789990  22.8335240  53.4276620  12.5025490  37.6674200
  54.2201940  12.0074720  37.4600160  53.7209770  13.1815630  38.2749810
  49.5536280   3.3746430   8.5490250  49.4730330   2.4601040   8.2781960
  49.1400700   3.8713500   7.8429960  47.6854320   5.1525450  10.4299520
  46.9096420   4.6725890  10.7198090  48.3367250   4.4731100  10.2555680
  41.7020150   5.4645260  11.3075280  40.8705030   5.2093970  11.7071790
  42.3101130   5.5356030  12.0433200  51.7061750   9.5585640   9.2098650
  51.2443280   8.7872880   9.5385820  52.5187300   9.5851710   9.7151100
  41.6821410   9.4985350  11.5033300  41.9849450   8.6083090  11.3243520
  42.4265000  10.0555570  11.2755550  38.0745110   3.0252800  10.9757370
  38.6461220   2.2575000  10.9761010  38.0746650   3.3241560  10.0663980
  47.9325060  11.8443650   8.8302640  47.3136500  12.3001150   8.2597080
  48.7876840  11.9995110   8.4292340  47.1263310   7.8282640  10.4369680
  47.0571590   6.8872580  10.2758810  47.8883170   7.9184050  11.0092250
  48.7988410   6.7282890   6.2234550  48.1805680   7.1932340   5.6597270
  49.3111660   7.4210370   6.6404060  43.6620170   6.2558760  12.9018150
  43.3289550   6.8827680  13.5439220  43.8386850   6.7820640  12.1219820
  42.8739270   8.2239560  14.7167330  43.4913270   8.8990640  14.4351780
  42.0132390   8.6327540  14.6254830  38.1671610   7.4139420   3.5974180
  37.7899590   7.9026520   2.8659080  38.4244680   8.0864700   4.2280710
  53.7916860   9.6878970  12.6321970  53.1080380  10.3578080  12.6238640
  54.3311150   9.8859620  11.8666830  51.3275600  11.5323100  11.3467150
  51.3402760  11.1285390  10.4789410  50.7750820  12.3070390  11.2428580
  52.6221020   8.2539320   6.4357320  52.5117350   7.3113650   6.5606740
  52.6189270   8.6154960   7.3220080  50.7261040   6.4352940  12.6749760
  51.1429830   6.2213050  11.8403220  51.4500860   6.6925730  13.2458380
  48.1641300   3.8804640   5.7919810  47.2370580   3.8142020   6.0208280
  48.3166120   4.8184770   5.6775050  54.6723140   4.8340160  12.7666000
  53.8441770   4.9033250  12.2916130  55.2673620   5.4194470  12.2981830
  52.1938590   5.4424940   6.2955060  51.5751010   5.1044490   5.6481360
  52.1763040   4.7984700   7.0034250  43.7697940   4.4069380   8.5739540
  43.3654940   3.6946630   8.0785440  43.8561060   4.0622620   9.4627580
  44.2379640   8.0936940  10.7378750  43.9407930   7.4882410  10.0586530
  45.1879460   8.1314250  10.6268110  52.3265250  11.6668810  14.4001850
  51.8495810  12.4741000  14.2074460  51.6427040  11.0147140  14.5528060
  43.3298070   7.8318630  17.3886550  42.4326600   8.0558600  17.6359950
  43.3550940   7.9553570  16.4397950  50.3703290   4.6811750   3.3027810
  50.8096570   3.8434180   3.1565630  51.0831710   5.3141150   3.3891950
  42.1569290   4.7031950  15.9643920  42.0177060   5.5754750  16.3331320
  41.2750650   4.3604760  15.8191860  48.4798670   9.6207820   7.2709050
  48.9194580  10.3632150   6.8564440  48.4185560   9.8634390   8.1948010
  43.9549640  10.6453650  18.1729070  43.9265070  11.0496600  17.3057500
  43.7914610   9.7164010  18.0100670  40.4702570   3.3014360   6.0746190
  40.3500170   4.0276450   5.4627460  40.1603460   2.5317270   5.5974100
  55.9064460  11.4280750  19.4693240  56.3824180  11.9063640  20.1482320
  56.5271620  11.3598240  18.7438740  38.1087940   6.4729500  11.8814830
  38.1868360   6.6078270  10.9370550  38.7229620   5.7645390  12.0742950
  39.3535570   8.1729690   8.2921010  38.9463650   8.3144280   7.4374610
  40.2448580   7.8889850   8.0892220  55.3097710   8.6193600  16.6293250
  55.4360770   8.3805480  15.7110430  55.3519090   7.7878140  17.1015330
  49.1714450  12.3221600  15.1988060  49.6859120  12.2329610  16.0010490
  48.3283530  12.6681300  15.4915970  51.1468850  12.6076940   4.6272060
  50.9869990  12.3179880   5.5253890  50.9815560  11.8317070   4.0917290
  43.6257230  12.3875470   6.4043680  43.4499710  11.4711010   6.1911480
  42.7712970  12.7462760   6.6441480  50.8494980  10.1164500   3.1870060
  50.1560140  10.1141790   2.5272340  51.5917840   9.6923820   2.7564230
  50.4144910  11.7427210   7.2618550  50.8701860  10.9616590   7.5757170
  50.7537430  12.4534030   7.8059730  38.1647460   7.5143670  14.4209290
  38.3278500   7.0449030  13.6028660  38.6299910   7.0067230  15.0858130
  49.3190260   2.2328650  18.2900630  49.6443670   1.3992400  17.9502860
  50.1070590   2.7557170  18.4378960  42.7280450   1.7683000   7.1851110
  42.5021370   1.5520170   8.0897730  41.9472980   2.2011460   6.8397080
  49.9578210   1.7746370   5.7841760  49.3587100   2.4982170   5.6005380
  50.5057820   1.7123150   5.0018210  45.1679660   2.6668580  17.8511380
  45.0723260   1.7263310  17.7011780  46.0111640   2.8883650  17.4559450
  49.1498220   3.0015660  11.9095820  48.4179340   3.5102470  12.2585920
  48.7522560   2.1845640  11.6084600  44.6617260   2.9883080   2.7038370
  44.0934160   2.5401330   2.0774280  45.3706260   3.3475860   2.1703520
  39.7386440   6.8895100  16.5805100  39.3541230   6.2488770  17.1788060
  40.0498630   7.5931220  17.1499830  45.8883580   3.7371640  12.0613720
  46.2553710   3.2630210  12.8075060  45.6988640   4.6113210  12.4022060
  43.6782950   2.7780280  14.3797930  43.3740020   3.6572260  14.6048290
  44.6329410   2.8380070  14.4155370  42.2064740   6.9841270   4.9764780
  41.4327000   6.4438890   4.8163500  42.9359370   6.4647880   4.6382540
  52.9652720   5.9806630  10.7691170  53.6851840   6.4761920  10.3787280
  52.7634540   5.3024520  10.1245040  48.3471520   6.0515690  16.6560170
  48.2808830   5.1311360  16.4017760  47.7176660   6.1491130  17.3704810
  42.2502140   6.6521650   8.6143590  42.7680810   5.8489910   8.5600480
  41.7986160   6.5900790   9.4560420  47.1371640   7.9187930   3.8870890
  47.4787340   8.6630160   3.3914210  46.3084350   8.2319050   4.2495720
  39.7346680   3.6183020  15.5269290  39.3761620   4.2836870  16.1142630
  39.4401240   2.7866570  15.8981910  42.9359800   4.0767260  18.4108840
  42.6359940   4.2224440  17.5136660  43.7071040   3.5172550  18.3182230
  48.2788250   8.8736260  16.4063970  48.2932790   7.9417220  16.1882880
  47.5713350   8.9596020  17.0453740  53.4125320   3.0576080   2.6762580
  53.3289040   3.4890300   1.8259020  54.1319510   3.5174430   3.1089400
  54.4899460   5.5143600  15.7532550  53.7647650   6.1072380  15.5561940
  55.0174920   5.5067140  14.9545920  54.4412570   9.9118340   5.4044710
  53.7988730   9.2573960   5.6788430  54.0543230  10.3173430   4.6285380
  50.0199050   7.2403770   9.2516400  50.3722870   6.6431900   8.5917770
  49.1361380   6.9148000   9.4224650  46.1062330   8.0001460   6.6586810
  46.7933460   8.5470670   7.0394400  45.3194750   8.5442190   6.6936420
  38.2454730   3.6174280   2.1503890  39.1149580   3.8999080   2.4339810
  37.7545050   4.4310150   2.0352700  45.4089540   5.0047490   6.2712170
  45.8652320   5.8152740   6.4972360  45.0577750   4.6870630   7.1030660
  47.7122150  10.5153830  13.5004470  48.3564370  10.7213210  14.1777890
  48.0751590   9.7542230  13.0475320  48.9854230   8.5186180  12.2181920
  49.6276460   7.8179340  12.3314090  49.5103580   9.2984620  12.0378810
  50.7591850   9.3181080  15.4217980  51.0948090   9.9047770  16.0995900
  49.8392190   9.1873790  15.6515770  38.6125980  12.8301660   2.7165520
  38.9723620  13.4291000   2.0622790  38.4718320  13.3761550   3.4900550
  52.4126200   6.7206740   3.6035220  52.1247900   7.1819430   4.3913100
  53.2078370   6.2604510   3.8719440  38.5967840  11.0956520  17.1907920
  38.7058960  10.1551260  17.0503310  37.9448400  11.3611270  16.5421650
  46.5880430   9.3672410  18.5906040  46.2677300   8.6481650  19.1351730
  45.9138790  10.0427480  18.6642100  44.6294600  10.2132860   3.5339190
  44.6204700  10.9462550   2.9183700  43.7092960   9.9664440   3.6266150
  40.2301240   5.4347750   4.2785950  39.6229190   6.1746650   4.2881250
  40.7050590   5.5247110   3.4524150  46.7636020   2.2538160  14.1780810
  47.2621270   2.7283980  14.8432660  46.9058970   1.3301680  14.3850840
  46.2572310  12.7947420   6.8912050  46.5113810  12.7568810   5.9691420
  45.3084790  12.6680750   6.8840300  52.2624890   3.7139300   8.4670560
  51.3215030   3.7289530   8.6418250  52.5768960   2.9275260   8.9130860
  40.9353290   2.8283970   2.7107410  41.0156880   1.8811480   2.8224810
  41.8273040   3.1590850   2.8168070  54.2650470  10.8848150  10.1424820
  54.3897890  11.7079320  10.6148630  55.1316030  10.6738880   9.7948970
  41.7368000  12.9779360   9.8141950  42.4730480  12.4294820  10.0850520
  42.1208920  13.8435370   9.6747940  38.6213480   9.0452930   5.6883460
  37.6953260   9.2874070   5.6788870  39.0869910   9.8727190   5.5668210
  40.7426280  12.1625430  19.0027530  41.5439010  12.4837480  19.4162930
  40.2278100  11.8021010  19.7247440  49.5790910   8.2705300  18.9502940
  48.9729070   8.2936900  18.2098690  49.2745020   7.5388340  19.4870190
  51.0091280  11.9985590  17.5612350  51.9613030  11.9143610  17.5112590
  50.8619500  12.6627300  18.2346140  53.9000480  11.3779800   3.0604260
  53.6141990  10.9644940   2.2458440  53.7020030  12.3067510   2.9404780
  38.4624090   4.6498890  17.9463580  38.9663110   4.0706170  18.5179810
  37.7231510   4.9339120  18.4839950  45.5162030   6.0569880  17.4799100
  44.7507700   6.6254880  17.3953770  45.6977990   5.7646090  16.5867330
  48.6050440   6.4333110   2.1051860  48.0560540   6.8802410   2.7494600
  49.2269700   5.9282360   2.6289530  52.6585380   7.7875210  18.0374120
  53.3994850   8.1250970  17.5341580  51.8958060   7.9567270  17.4843890
  40.4947170   2.7928480  18.8413650  40.5352510   2.4942350  19.7498880
  41.3492670   3.1936090  18.6821170  44.2725560   5.3924030   4.0017160
  44.6941980   5.2263900   4.8448550  44.3976400   4.5824260   3.5072300
  51.3331040   5.8390040  16.5729330  51.7472060   5.9935120  17.4219750
  50.3982040   5.9645260  16.7355110  51.8053210   3.1786200  18.5768480
  52.3873980   2.4238520  18.4888960  51.9814980   3.7093640  17.7999960
  46.0946270   5.7910520  14.5425260  46.5134380   6.6343250  14.3701500
  45.1754900   5.9282560  14.3132040  48.4310170   3.5226700  15.9263100
  48.5506380   2.9267840  16.6657940  49.2904170   3.5596390  15.5064400
  50.7698070   4.0763890  14.5025610  50.2433290   4.6006510  13.8990750
  51.1129410   4.7091280  15.1335340  43.9453690  12.0963530  15.6582990
  43.4074780  12.8209590  15.3391690  44.1987650  11.6193870  14.8680330
  46.8015900  13.3314740  15.9169640  46.7274600  14.2349880  16.2242010
  45.8994740  13.0126640  15.8891710  47.3501230  12.4973250   3.5396000
  48.2452020  12.8358220   3.5614760  47.3818860  11.7752660   2.9120280
  40.9897390   7.8700300   1.7683000  41.4272260   8.4129970   2.4240580
  41.4745120   7.0447250   1.7779340  38.2043190  10.6589330   9.2203260
  38.5346200   9.7910390   8.9881900  38.6334190  10.8647850  10.0508220
  42.8005110   8.9898340   6.8805230  42.5000650   8.8663310   7.7809140
  42.6942600   8.1306930   6.4720960  38.6933400  11.5259920  11.9584890
  38.2564390  11.7060720  12.7909040  39.2611080  12.2834540  11.8166610
  54.3295580  11.0276920  16.2462200  53.7297570  11.0869480  15.5026120
  54.4589480  10.0881900  16.3759050  55.0253490   5.5142220   4.0866110
  55.7872400   6.0838870   4.1925800  55.0407860   4.9469420   4.8574420
  38.5257830   4.0380150   8.3173770  37.8706670   3.7691790   7.6733470
  39.3635780   3.9284630   7.8675750  56.0313460   6.3692320   8.9308040
  56.4022290   5.5859640   8.5244010  56.6715390   7.0581420   8.7525340
  53.0147220   7.7528900  14.3438360  52.2007060   8.1826060  14.6064150
  53.4221420   8.3647310  13.7307410  54.9738000   3.7445580   6.2368060
  54.5981600   2.9773510   5.8049350  54.2441120   4.1268280   6.7242990
  39.5633760   4.4232720  12.8577110  39.9306800   4.3360120  13.7373130
  38.9944580   3.6599270  12.7583970  54.3637620   2.8917100  15.8707580
  54.1323710   2.6629850  14.9705530  54.6242170   3.8116650  15.8252470
  54.2488960   1.9703070   9.5375300  54.7726440   1.4765720   8.9065470
  54.8348380   2.1053430  10.2822870  54.4278680   2.0542940  13.0594850
  53.4781390   2.0206480  13.1739840  54.6091690   2.9643050  12.8244620
  53.0723270  12.5047500   7.8706630  53.6682340  12.1832070   7.1941050
  53.3301420  12.0319320   8.6619900  40.9785840   8.9365410  18.0197260
  40.9355470   8.5658320  18.9011720  41.1096850   9.8742980  18.1599080
  44.6791870  10.4925000  13.6206980  44.4383230  10.7599560  12.7337500
  45.6194510  10.6630730  13.6757840  55.9396030  12.5119380  14.4217620
  55.4454310  12.9088250  13.7044750  55.3309320  11.8868590  14.8154900
  40.8173870  11.8827660  15.1395040  40.2234190  11.7512360  15.8785080
  40.8097710  11.0465800  14.6737140  53.6235480  13.1542800  11.7004360
  53.1638450  13.9058610  11.3262380  52.9947940  12.4349270  11.6419160
  40.4486100   9.2486040  14.0903080  39.7220160   8.6291330  14.0229030
  40.5095250   9.6426650  13.2201160  44.0531200  11.4631040  10.8752490
  44.5696220  10.8518400  10.3500750  44.7028580  11.9659820  11.3663500
  46.7926700  12.3539530  11.7021470  47.0804510  12.0993830  10.8254480
  47.3049920  11.8016890  12.2927040  38.7316100  12.5660430   7.2999840
  38.5638140  11.9331110   7.9981730  37.8650610  12.7719830   6.9494030
  40.3378800  11.2593660   4.7449980  39.8126420  11.6401690   4.0411940
  40.2623380  11.8844430   5.4659690  46.8599060  13.2755630  19.0689670
  47.7866370  13.0399900  19.1125630  46.8449490  14.1027630  18.5875700
  55.0944120  12.8181200   6.0663920  55.2696310  12.1318940   5.4224840
  54.3965690  13.3428250   5.6740590  42.9371770  13.2076040   3.6199230
  43.6690590  12.9235320   3.0723120  43.1965440  12.9689320   4.5098610
  42.0986560   9.3240770   3.6245560  41.4695440   9.7925870   4.1731390
  42.2134390   8.4789990   4.0591750  53.4276620  12.5025490  18.8930710
  54.2201940  12.0074720  18.6856670  53.7209770  13.1815630  19.5006320
  30.7792790  97.2463880  64.8720720  30.6986840  96.3318490  64.6012430
  30.3657210  97.7430950  64.1660430  28.9110830  99.0242900  66.7529990
  28.1352930  98.5443340  67.0428560  29.5623760  98.3448550  66.5786150
  22.9276660  99.3362710  67.6305750  22.0961540  99.0811420  68.0302260
  23.5357640  99.4073480  68.3663670  21.3368610  94.2964600  61.4148140
  20.4485310  94.6380570  61.3128020  21.6209800  94.0964920  60.5228970
  19.3001620  96.8970250  67.2987840  19.8717730  96.1292450  67.2991480
  19.3003160  97.1959010  66.3894450  20.5426490  92.3054610  69.0856770
  20.3629330  91.4080360  69.3659530  20.1406570  92.8526480  69.7603720
  29.3824990  94.5070470  66.9869080  29.7589810  93.6342350  66.8742750
  29.2844500  94.8429170  66.0959520  23.5130000  92.8796100  62.4486520
  23.6196750  93.7799830  62.7555280  22.6022360  92.8314070  62.1581170
  33.1649110  92.0020910  63.9197420  33.9858730  91.5117480  63.9622900
  33.1983190  92.5918570  64.6729260  21.1613160  94.8015110  67.6939110
  21.8423270  95.0653480  68.3126510  20.8461210  93.9615980  68.0277120
  25.3537730  95.8482470  66.7811700  25.8615950  96.3463440  67.4216720
  25.8850970  95.0717670  66.6051060  37.4548660  94.0187660  70.4841050
  36.7500830  94.4069370  69.9656160  37.7206580  94.7137950  71.0861980
  23.6373830  90.4881030  71.0475120  23.6392270  91.0053420  70.2421020
  22.8078140  90.0111210  71.0245050  24.8876680 100.1276210  69.2248620
  24.5546060 100.7545130  69.8669690  25.0643360 100.6538090  68.4450290
  33.4010590  93.9421290  66.6924960  32.6966160  94.2306180  67.2728070
  33.7622750  94.7521400  66.3324520  23.3189160  92.1990990  69.0545570
  23.6605970  93.0433040  68.7599440  22.3804970  92.3474730  69.1710910
  36.4697510  93.3876080  67.0834170  35.5222420  93.4215060  67.2149600
  36.7947500  94.2015030  67.4683530  27.0017050  89.6873260  65.3790160
  27.3092030  89.1320150  64.6625660  26.0717750  89.8217720  65.1963150
  31.9517550 100.3070390  68.9980230  32.3686340 100.0930500  68.1633690
  32.6757370 100.5643180  69.5688850  29.3897810  97.7522090  62.1150280
  28.4627090  97.6859470  62.3438750  29.5422630  98.6902220  62.0005520
  29.3766890  94.0239090  59.1117440  28.4370560  94.1853050  59.1969900
  29.6950150  94.7424770  58.5653430  35.8979650  98.7057610  69.0896470
  35.0698280  98.7750700  68.6146600  36.4930130  99.2911920  68.6212300
  33.4195100  99.3142390  62.6185530  32.8007520  98.9761940  61.9711830
  33.4019550  98.6702150  63.3264720  32.8621660  95.4926930  70.0351340
  32.4492840  96.3180640  70.2891330  32.1297610  94.9071970  69.8427700
  24.9954450  98.2786830  64.8970010  24.5911450  97.5664080  64.4015910
  25.0817570  97.9340070  65.7858050  23.7083070  95.0530040  68.6769050
  24.2597660  95.1625380  67.9022300  24.2226580  95.4267640  69.3924280
  31.5959800  98.5529200  59.6258280  32.0353080  97.7151630  59.4796100
  32.3088220  99.1858600  59.7122420  23.3825800  98.5749400  72.2874390
  23.2433570  99.4472200  72.6561790  22.5007160  98.2322210  72.1422330
  35.1776940  89.8072010  57.9399320  34.8649600  89.8998840  58.8398390
  35.9389410  90.3853040  57.8896750  21.6959080  97.1731810  62.3976660
  21.5756680  97.8993900  61.7857930  21.3859970  96.4034720  61.9204570
  19.3344450 100.3446950  68.2045300  19.4124870 100.4795720  67.2601020
  19.9486130  99.6362840  68.3973420  36.3878230  94.5443510  73.9173460
  35.7722500  95.0523180  73.3888920  36.0674650  93.6441840  73.8599400
  24.1622740  90.5166880  65.7800330  23.7190890  91.2976420  65.4484850
  24.7207730  90.8396770  66.4871270  28.4492550  93.3835400  71.3835650
  27.9871920  93.5918420  72.1955590  28.0470660  92.5694750  71.0806320
  33.4497060  94.6044350  72.5132310  32.5990650  94.3050100  72.8341380
  33.2898850  94.8486360  71.6016130  30.5446770  96.1046100  74.6131100
  30.8700180  95.2709850  74.2733330  31.3327100  96.6274620  74.7609430
  27.2781560  90.1377580  60.6606160  26.6535740  90.1337450  61.3859470
  27.1911680  89.2708540  60.2642130  26.1998640  91.0614210  67.6389930
  26.4970970  91.9677040  67.5581950  26.7484200  90.5732990  67.0249500
  23.9536960  95.6400450  63.5081580  23.7277880  95.4237620  64.4128200
  23.1729490  96.0728910  63.1627550  31.1834720  95.6463820  62.1072230
  30.5843610  96.3699620  61.9235850  31.7314330  95.5840600  61.3248680
  26.3936170  96.5386030  74.1741850  26.2979770  95.5980760  74.0242250
  27.2368150  96.7601100  73.7789920  29.7899590  94.2827360  64.1375510
  30.1829160  94.5999560  63.3244200  30.1516440  93.4039240  64.2520030
  21.5246710  92.9499700  72.3275630  21.1310100  93.7974910  72.5348410
  20.8365110  92.3126070  72.5184270  18.8263760  90.8728160  66.3605710
  18.5376810  91.4431020  67.0730690  19.5709520  90.3932610  66.7236940
  19.0133990  94.8148280  57.5708430  18.9308660  95.7579040  57.7123420
  18.6617050  94.6723190  56.6920780  30.3754730  96.8733110  68.2326290
  29.6435850  97.3819920  68.5816390  29.9779070  96.0563090  67.9315070
  26.8132120  93.5487310  66.6378780  26.8168180  93.1077260  65.7883320
  27.7083240  93.8704640  66.7450600  22.6634500  93.4313800  65.5972990
  22.3234550  93.9089030  66.3540040  21.9011820  92.9778920  65.2374090
  26.8752270  94.5499390  59.6285540  26.9965090  94.5085870  60.5771360
  26.4900780  95.4123540  59.4732270  30.8380640  92.3266790  67.6449230
  30.8553380  92.7775440  68.4891080  30.5896220  91.4272430  67.8582670
  25.8873770  96.8600530  59.0268840  25.3190670  96.4118780  58.4004750
  26.5962770  97.2193310  58.4933990  34.2651390  89.7398970  73.4835610
  34.5897160  89.0088630  74.0093590  34.3007900  89.4212610  72.5816600
  27.1140090  97.6089090  68.3844190  27.4810220  97.1347660  69.1305530
  26.9245150  98.4830660  68.7252530  19.9780580  92.3532780  64.5137660
  19.6927500  91.9888450  65.3516280  19.9159440  91.6213240  63.9000800
  24.9039460  96.6497730  70.7028400  24.5996530  97.5289710  70.9278760
  25.8585920  96.7097520  70.7385840  23.4321250 100.8558720  61.2995250
  22.6583510 100.3156340  61.1393970  24.1615880 100.3365330  60.9613010
  34.1909230  99.8524080  67.0921640  34.9108350 100.3479370  66.7017750
  33.9891050  99.1741970  66.4475510  29.6519170  91.2462040  61.2351030
  28.8383780  90.7475210  61.1596340  29.4581120  92.0860290  60.8187380
  29.5728030  99.9233140  72.9790640  29.5065340  99.0028810  72.7248230
  28.9433170 100.0208580  73.6935280  32.3667560  95.6181690  59.5313190
  33.2547180  95.9298920  59.3564530  32.3372650  94.7453940  59.1393770
  23.4758650 100.5239100  64.9374060  23.9937320  99.7207360  64.8830950
  23.0242670 100.4618240  65.7790890  20.9603190  97.4900470  71.8499760
  20.6018130  98.1554320  72.4373100  20.6657750  96.6584020  72.2212380
  24.1616310  97.9484710  74.7339310  23.8616450  98.0941890  73.8367130
  24.9327550  97.3890000  74.6412700  34.6381830  96.9293530  58.9993050
  34.5545550  97.3607750  58.1489490  35.3576020  97.3891880  59.4319870
  35.7155970  99.3861050  72.0763020  34.9904160  99.9789830  71.8792410
  36.2431430  99.3784590  71.2776390  19.4711240  97.4891730  58.4734360
  20.3406090  97.7716530  58.7570280  18.9801560  98.3027600  58.3583170
  26.6346050  98.8764940  62.5942640  27.0908830  99.6870190  62.8202830
  26.2834260  98.5588080  63.4261130  22.5357830  89.2202590  63.0665160
  22.4072460  89.2120490  64.0150080  21.7119850  89.5585680  62.7156170
  19.5351760  90.9793710  72.5271860  18.8210280  91.1790630  73.1324470
  19.9546800  90.2033280  72.8986660  21.4557750  99.3065200  60.6016420
  20.8485700 100.0464100  60.6111720  21.9307100  99.3964560  59.7754620
  31.0290540  93.4716020  70.2773310  31.3971360  92.6511230  70.6052880
  30.1688740  93.5317910  70.6928960  34.3952570  92.4272960  61.0860870
  33.7665730  92.5318630  60.3719100  33.9004490  92.6469740  61.8754750
  26.3636600  94.7058910  62.5018750  25.6552750  95.1745250  62.9432360
  26.6481080  94.0480920  63.1363940  27.9892530  96.1255610  70.5011280
  28.4877780  96.6001430  71.1663130  28.1315480  95.2019130  70.7081310
  30.3952030  91.4309570  63.9414540  30.2719810  91.4495700  62.9924050
  31.3436590  91.4788510  64.0612940  24.5671620  93.0143990  59.8769460
  25.4162150  93.4514140  59.8109650  24.2002890  93.3264250  60.7041520
  35.1959390  92.3423570  71.3439670  34.6932990  93.0828970  71.6833480
  36.0116050  92.7307570  71.0276460  33.4881400  97.5856750  64.7901030
  32.5471540  97.6006980  64.9648720  33.8025470  96.7992710  65.2361330
  23.4663040  99.2676350  58.3504990  24.2326310  99.1557710  58.9130420
  23.5437730  98.5714320  57.6981760  22.1609800  96.7001420  59.0337880
  22.2413390  95.7528930  59.1455280  23.0529550  97.0308300  59.1398540
  19.6880600  98.5216340  74.2694050  20.1919620  97.9423620  74.8410280
  18.9488020  98.8056570  74.8070420  26.7418540  99.9287330  73.8029570
  25.9764210 100.4972330  73.7184240  26.9234500  99.6363540  72.9097800
  29.8306950 100.3050560  58.4282330  29.2817050 100.7519860  59.0725070
  30.4526210  99.7999810  58.9520000  25.4982070  99.2641480  60.3247630
  25.9198490  99.0981350  61.1679020  25.6232910  98.4541710  59.8302770
  23.6609490  95.2438030  73.1318610  23.1305950  94.7528980  72.5041950
  24.3297560  95.6722230  72.5976540  28.0109710  98.2879090  57.5724730
  28.5315370  97.5728110  57.2065880  28.6578110  98.9264960  57.8725240
  32.5587550  99.7107490  72.8959800  32.9728570  99.8652570  73.7450220
  31.6238550  99.8362710  73.0585580  33.0309720  97.0503650  74.8998950
  33.6130490  96.2955970  74.8119430  33.2071490  97.5811090  74.1230430
  24.1481790  92.2100400  73.2115900  24.0538660  91.5921150  72.4866770
  23.5679180  92.9366690  72.9845810  26.9143230  90.7673640  70.2443290
  26.4660530  90.7897900  69.3988840  26.2808430  90.3692660  70.8413590
  27.3202780  99.6627970  70.8655730  27.7390890 100.5060700  70.6931970
  26.4011410  99.8000010  70.6362510  29.6566680  97.3944150  72.2493570
  29.7762890  96.7985290  72.9888410  30.5160680  97.4313840  71.8294870
  31.9954580  97.9481340  70.8256080  31.4689800  98.4723960  70.2221220
  32.3385920  98.5808730  71.4565810  24.3940970  95.3374710  57.2705790
  24.1930030  94.4742070  57.6319130  24.2233020  95.2508070  56.3327390
  26.4235450  93.9365500  73.5069390  27.0135140  93.6281350  74.1947210
  25.6055690  93.4645250  73.6629290  31.2428880  93.5531310  73.7402410
  30.5544400  92.8912850  73.6752400  31.9634900  93.1069580  74.1850870
  31.8729280  90.1482940  59.7992670  32.1531570  89.3050840  60.1552090
  31.0995010  90.3806050  60.3131420  23.1923770  92.4375330  57.2583670
  23.4949670  92.4442760  56.3502820  23.9318360  92.0873190  57.7551330
  26.4108700  91.3809950  58.2439870  26.0630700  90.7033940  57.6642320
  26.6121470  90.9199460  59.0583260  36.2510000  99.3859670  60.4096580
  37.0128910  99.9556320  60.5156270  36.2664370  98.8186870  61.1804890
  19.7514340  97.9097600  64.6404240  19.0963180  97.6409240  63.9963940
  20.5892290  97.8002080  64.1906220  36.3029170  99.6794040  57.5669100
  36.5778010 100.5872920  57.4388320  36.1139910  99.6156570  58.5031090
  32.7004780  92.7038890  58.8622730  33.1189660  92.5169870  58.0219390
  32.3940840  91.8517940  59.1725660  36.1994510  97.6163030  62.5598530
  35.8238110  96.8490960  62.1279820  35.4697630  97.9985730  63.0473460
  20.7890270  98.2950170  69.1807580  21.1563310  98.2077570  70.0603600
  20.2201090  97.5316720  69.0814440  35.5894130  96.7634550  72.1938050
  35.3580220  96.5347300  71.2936000  35.8498680  97.6834100  72.1482940
  20.3406270  95.2059260  73.0866000  19.4462320  95.1726020  73.4259710
  20.8803820  95.4046050  73.8517250  18.9652420  95.1196530  60.5829570
  18.0616500  95.3826730  60.4081230  19.4493040  95.3907700  59.8029530
  35.4745470  95.8420520  65.8605770  35.9982950  95.3483170  65.2295940
  36.0604890  95.9770880  66.6053340  35.6535190  95.9260390  69.3825320
  34.7037900  95.8923930  69.4970310  35.8348200  96.8360500  69.1475090
  21.5079630  94.1762070  58.4923950  22.2171330  93.7545290  58.0071230
  20.7919570  94.2437300  57.8607300  21.1553790  90.2301400  57.5326600
  21.8781920  90.7710340  57.8507820  21.4278310  89.9564820  56.6568140
  34.9645440  95.0993870  61.7998180  35.4604560  94.8664740  62.5847060
  34.7661510  94.2605710  61.3835820  20.8445980  89.4807590  67.4349220
  21.4922170  88.9304970  66.9944380  21.2647820  89.7350740  68.2565030
  36.3932600  93.7354820  64.3335860  36.2831880  93.5810860  65.2718130
  37.1540190  93.2075760  64.0911270  34.7398320  89.6748950  70.7918860
  35.3770540  90.2883090  71.1578050  34.8873210  89.7109610  69.8468090
  37.2822870  91.5662740  57.5742000  38.2072180  91.4343920  57.3660290
  37.2598660  91.6455560  58.5278450  37.3561360  92.3373400  60.1998710
  36.5612860  92.2718520  60.7291620  37.5604640  93.2724040  60.1884060
  20.5977980  89.6363260  70.1774540  20.2492800  90.0927080  70.9432720
  20.2665680  88.7420390  70.2596970  28.1102800  90.8275140  73.6993960
  28.0491690  91.4196970  74.4489370  29.0503180  90.7201100  73.5544220
  30.7477360  90.4845200  73.3386250  31.3617770  90.8024490  72.6767330
  31.2926920  89.9993790  73.9582110  21.2698620  89.1639460  73.4525310
  21.8181610  88.9827510  72.6891420  21.3353930  88.3733570  73.9881620
  31.4885400  89.0477340  69.6655540  30.6145240  89.3812450  69.4628470
  31.3796150  88.5750520  70.4907410  32.3957380  91.2548210  71.0497260
  32.0670740  90.4399970  70.6698990  33.3439680  91.2118020  70.9262950
  29.2360220  89.9647180  68.6048450  28.4532010  90.4392680  68.8845210
  28.9423150  89.0602010  68.4961630  33.7881290  90.6670280  66.6497540
  34.2289380  90.6115380  65.8019140  33.5188880  91.5828290  66.7207720
  35.6519860  90.2985520  64.6606360  35.5908260  89.3546740  64.5137380
  36.4311890  90.4065610  65.2059820  20.5800630  90.2694660  61.1262170
  21.3379990  90.3823540  60.5526200  20.1177800  91.1063860  61.0805600
  27.1214440  92.3833930  64.1164480  26.3088950  92.0090820  63.7760360
  27.6256080  91.6279010  64.4185670  31.6239420  89.0476380  65.3547550
  32.2268790  89.6196590  65.8296070  30.8832410  89.6115820  65.1321450
  34.7674020  89.4497940  60.6287830  34.9624650  90.3481390  60.8955260
  33.9803890  89.2185020  61.1220780  22.9525780  90.7958710  59.6664140
  23.4818540  90.0088510  59.5372090  23.5854100  91.4749900  59.8999670
  25.1463620  90.5333850  62.7209530  24.5166360  89.8321160  62.8879660
  24.6068760  91.2937980  62.5042690  30.7792790  97.2463880  46.0977230
  30.6986840  96.3318490  45.8268940  30.3657210  97.7430950  45.3916940
  28.9110830  99.0242900  47.9786500  28.1352930  98.5443340  48.2685070
  29.5623760  98.3448550  47.8042660  22.9276660  99.3362710  48.8562260
  22.0961540  99.0811420  49.2558770  23.5357640  99.4073480  49.5920180
  21.3368610  94.2964600  42.6404650  20.4485310  94.6380570  42.5384530
  21.6209800  94.0964920  41.7485480  19.3001620  96.8970250  48.5244350
  19.8717730  96.1292450  48.5247990  19.3003160  97.1959010  47.6150960
  20.5426490  92.3054610  50.3113280  20.3629330  91.4080360  50.5916040
  20.1406570  92.8526480  50.9860230  29.3824990  94.5070470  48.2125590
  29.7589810  93.6342350  48.0999260  29.2844500  94.8429170  47.3216030
  23.5130000  92.8796100  43.6743030  23.6196750  93.7799830  43.9811790
  22.6022360  92.8314070  43.3837680  33.1649110  92.0020910  45.1453930
  33.9858730  91.5117480  45.1879410  33.1983190  92.5918570  45.8985770
  21.1613160  94.8015110  48.9195620  21.8423270  95.0653480  49.5383020
  20.8461210  93.9615980  49.2533630  25.3537730  95.8482470  48.0068210
  25.8615950  96.3463440  48.6473230  25.8850970  95.0717670  47.8307570
  37.4548660  94.0187660  51.7097560  36.7500830  94.4069370  51.1912670
  37.7206580  94.7137950  52.3118490  23.6373830  90.4881030  52.2731630
  23.6392270  91.0053420  51.4677530  22.8078140  90.0111210  52.2501560
  24.8876680 100.1276210  50.4505130  24.5546060 100.7545130  51.0926200
  25.0643360 100.6538090  49.6706800  33.4010590  93.9421290  47.9181470
  32.6966160  94.2306180  48.4984580  33.7622750  94.7521400  47.5581030
  23.3189160  92.1990990  50.2802080  23.6605970  93.0433040  49.9855950
  22.3804970  92.3474730  50.3967420  36.4697510  93.3876080  48.3090680
  35.5222420  93.4215060  48.4406110  36.7947500  94.2015030  48.6940040
  27.0017050  89.6873260  46.6046670  27.3092030  89.1320150  45.8882170
  26.0717750  89.8217720  46.4219660  31.9517550 100.3070390  50.2236740
  32.3686340 100.0930500  49.3890200  32.6757370 100.5643180  50.7945360
  29.3897810  97.7522090  43.3406790  28.4627090  97.6859470  43.5695260
  29.5422630  98.6902220  43.2262030  29.3766890  94.0239090  40.3373950
  28.4370560  94.1853050  40.4226410  29.6950150  94.7424770  39.7909940
  35.8979650  98.7057610  50.3152980  35.0698280  98.7750700  49.8403110
  36.4930130  99.2911920  49.8468810  33.4195100  99.3142390  43.8442040
  32.8007520  98.9761940  43.1968340  33.4019550  98.6702150  44.5521230
  32.8621660  95.4926930  51.2607850  32.4492840  96.3180640  51.5147840
  32.1297610  94.9071970  51.0684210  24.9954450  98.2786830  46.1226520
  24.5911450  97.5664080  45.6272420  25.0817570  97.9340070  47.0114560
  23.7083070  95.0530040  49.9025560  24.2597660  95.1625380  49.1278810
  24.2226580  95.4267640  50.6180790  31.5959800  98.5529200  40.8514790
  32.0353080  97.7151630  40.7052610  32.3088220  99.1858600  40.9378930
  23.3825800  98.5749400  53.5130900  23.2433570  99.4472200  53.8818300
  22.5007160  98.2322210  53.3678840  35.1776940  89.8072010  39.1655830
  34.8649600  89.8998840  40.0654900  35.9389410  90.3853040  39.1153260
  21.6959080  97.1731810  43.6233170  21.5756680  97.8993900  43.0114440
  21.3859970  96.4034720  43.1461080  19.3344450 100.3446950  49.4301810
  19.4124870 100.4795720  48.4857530  19.9486130  99.6362840  49.6229930
  36.3878230  94.5443510  55.1429970  35.7722500  95.0523180  54.6145430
  36.0674650  93.6441840  55.0855910  24.1622740  90.5166880  47.0056840
  23.7190890  91.2976420  46.6741360  24.7207730  90.8396770  47.7127780
  28.4492550  93.3835400  52.6092160  27.9871920  93.5918420  53.4212100
  28.0470660  92.5694750  52.3062830  33.4497060  94.6044350  53.7388820
  32.5990650  94.3050100  54.0597890  33.2898850  94.8486360  52.8272640
  30.5446770  96.1046100  55.8387610  30.8700180  95.2709850  55.4989840
  31.3327100  96.6274620  55.9865940  27.2781560  90.1377580  41.8862670
  26.6535740  90.1337450  42.6115980  27.1911680  89.2708540  41.4898640
  26.1998640  91.0614210  48.8646440  26.4970970  91.9677040  48.7838460
  26.7484200  90.5732990  48.2506010  23.9536960  95.6400450  44.7338090
  23.7277880  95.4237620  45.6384710  23.1729490  96.0728910  44.3884060
  31.1834720  95.6463820  43.3328740  30.5843610  96.3699620  43.1492360
  31.7314330  95.5840600  42.5505190  26.3936170  96.5386030  55.3998360
  26.2979770  95.5980760  55.2498760  27.2368150  96.7601100  55.0046430
  29.7899590  94.2827360  45.3632020  30.1829160  94.5999560  44.5500710
  30.1516440  93.4039240  45.4776540  21.5246710  92.9499700  53.5532140
  21.1310100  93.7974910  53.7604920  20.8365110  92.3126070  53.7440780
  28.0991760  93.0334670  56.6228880  27.4090080  92.8406870  57.2574970
  28.8424060  93.3169310  57.1553180  18.8263760  90.8728160  47.5862220
  18.5376810  91.4431020  48.2987200  19.5709520  90.3932610  47.9493450
  19.0133990  94.8148280  38.7964940  18.9308660  95.7579040  38.9379930
  18.6617050  94.6723190  37.9177290  30.3754730  96.8733110  49.4582800
  29.6435850  97.3819920  49.8072900  29.9779070  96.0563090  49.1571580
  26.8132120  93.5487310  47.8635290  26.8168180  93.1077260  47.0139830
  27.7083240  93.8704640  47.9707110  22.6634500  93.4313800  46.8229500
  22.3234550  93.9089030  47.5796550  21.9011820  92.9778920  46.4630600
  26.8752270  94.5499390  40.8542050  26.9965090  94.5085870  41.8027870
  26.4900780  95.4123540  40.6988780  30.8380640  92.3266790  48.8705740
  30.8553380  92.7775440  49.7147590  30.5896220  91.4272430  49.0839180
  25.8873770  96.8600530  40.2525350  25.3190670  96.4118780  39.6261260
  26.5962770  97.2193310  39.7190500  34.2651390  89.7398970  54.7092120
  34.5897160  89.0088630  55.2350100  34.3007900  89.4212610  53.8073110
  27.1140090  97.6089090  49.6100700  27.4810220  97.1347660  50.3562040
  26.9245150  98.4830660  49.9509040  19.9780580  92.3532780  45.7394170
  19.6927500  91.9888450  46.5772790  19.9159440  91.6213240  45.1257310
  24.9039460  96.6497730  51.9284910  24.5996530  97.5289710  52.1535270
  25.8585920  96.7097520  51.9642350  23.4321250 100.8558720  42.5251760
  22.6583510 100.3156340  42.3650480  24.1615880 100.3365330  42.1869520
  34.1909230  99.8524080  48.3178150  34.9108350 100.3479370  47.9274260
  33.9891050  99.1741970  47.6732020  29.6519170  91.2462040  42.4607540
  28.8383780  90.7475210  42.3852850  29.4581120  92.0860290  42.0443890
  29.5728030  99.9233140  54.2047150  29.5065340  99.0028810  53.9504740
  28.9433170 100.0208580  54.9191790  32.3667560  95.6181690  40.7569700
  33.2547180  95.9298920  40.5821040  32.3372650  94.7453940  40.3650280
  23.4758650 100.5239100  46.1630570  23.9937320  99.7207360  46.1087460
  23.0242670 100.4618240  47.0047400  20.9603190  97.4900470  53.0756270
  20.6018130  98.1554320  53.6629610  20.6657750  96.6584020  53.4468890
  24.1616310  97.9484710  55.9595820  23.8616450  98.0941890  55.0623640
  24.9327550  97.3890000  55.8669210  34.6381830  96.9293530  40.2249560
  34.5545550  97.3607750  39.3746000  35.3576020  97.3891880  40.6576380
  35.7155970  99.3861050  53.3019530  34.9904160  99.9789830  53.1048920
  36.2431430  99.3784590  52.5032900  19.4711240  97.4891730  39.6990870
  20.3406090  97.7716530  39.9826790  18.9801560  98.3027600  39.5839680
  26.6346050  98.8764940  43.8199150  27.0908830  99.6870190  44.0459340
  26.2834260  98.5588080  44.6517640  22.5357830  89.2202590  44.2921670
  22.4072460  89.2120490  45.2406590  21.7119850  89.5585680  43.9412680
  19.5351760  90.9793710  53.7528370  18.8210280  91.1790630  54.3580980
  19.9546800  90.2033280  54.1243170  21.4557750  99.3065200  41.8272930
  20.8485700 100.0464100  41.8368230  21.9307100  99.3964560  41.0011130
  31.0290540  93.4716020  51.5029820  31.3971360  92.6511230  51.8309390
  30.1688740  93.5317910  51.9185470  34.3952570  92.4272960  42.3117380
  33.7665730  92.5318630  41.5975610  33.9004490  92.6469740  43.1011260
  26.3636600  94.7058910  43.7275260  25.6552750  95.1745250  44.1688870
  26.6481080  94.0480920  44.3620450  27.9892530  96.1255610  51.7267790
  28.4877780  96.6001430  52.3919640  28.1315480  95.2019130  51.9337820
  30.3952030  91.4309570  45.1671050  30.2719810  91.4495700  44.2180560
  31.3436590  91.4788510  45.2869450  24.5671620  93.0143990  41.1025970
  25.4162150  93.4514140  41.0366160  24.2002890  93.3264250  41.9298030
  35.1959390  92.3423570  52.5696180  34.6932990  93.0828970  52.9089990
  36.0116050  92.7307570  52.2532970  33.4881400  97.5856750  46.0157540
  32.5471540  97.6006980  46.1905230  33.8025470  96.7992710  46.4617840
  23.4663040  99.2676350  39.5761500  24.2326310  99.1557710  40.1386930
  23.5437730  98.5714320  38.9238270  22.1609800  96.7001420  40.2594390
  22.2413390  95.7528930  40.3711790  23.0529550  97.0308300  40.3655050
  19.6880600  98.5216340  55.4950560  20.1919620  97.9423620  56.0666790
  18.9488020  98.8056570  56.0326930  26.7418540  99.9287330  55.0286080
  25.9764210 100.4972330  54.9440750  26.9234500  99.6363540  54.1354310
  29.8306950 100.3050560  39.6538840  29.2817050 100.7519860  40.2981580
  30.4526210  99.7999810  40.1776510  21.7203680  96.6645930  56.3900630
  21.7609020  96.3659800  57.2985860  22.5749180  97.0653540  56.2308150
  25.4982070  99.2641480  41.5504140  25.9198490  99.0981350  42.3935530
  25.6232910  98.4541710  41.0559280  23.6609490  95.2438030  54.3575120
  23.1305950  94.7528980  53.7298460  24.3297560  95.6722230  53.8233050
  28.0109710  98.2879090  38.7981240  28.5315370  97.5728110  38.4322390
  28.6578110  98.9264960  39.0981750  32.5587550  99.7107490  54.1216310
  32.9728570  99.8652570  54.9706730  31.6238550  99.8362710  54.2842090
  33.0309720  97.0503650  56.1255460  33.6130490  96.2955970  56.0375940
  33.2071490  97.5811090  55.3486940  24.1481790  92.2100400  54.4372410
  24.0538660  91.5921150  53.7123280  23.5679180  92.9366690  54.2102320
  26.9143230  90.7673640  51.4699800  26.4660530  90.7897900  50.6245350
  26.2808430  90.3692660  52.0670100  27.3202780  99.6627970  52.0912240
  27.7390890 100.5060700  51.9188480  26.4011410  99.8000010  51.8619020
  29.6566680  97.3944150  53.4750080  29.7762890  96.7985290  54.2144920
  30.5160680  97.4313840  53.0551380  31.9954580  97.9481340  52.0512590
  31.4689800  98.4723960  51.4477730  32.3385920  98.5808730  52.6822320
  24.3940970  95.3374710  38.4962300  24.1930030  94.4742070  38.8575640
  24.2233020  95.2508070  37.5583900  26.4235450  93.9365500  54.7325900
  27.0135140  93.6281350  55.4203720  25.6055690  93.4645250  54.8885800
  31.2428880  93.5531310  54.9658920  30.5544400  92.8912850  54.9008910
  31.9634900  93.1069580  55.4107380  31.8729280  90.1482940  41.0249180
  32.1531570  89.3050840  41.3808600  31.0995010  90.3806050  41.5387930
  23.1923770  92.4375330  38.4840180  23.4949670  92.4442760  37.5759330
  23.9318360  92.0873190  38.9807840  26.4108700  91.3809950  39.4696380
  26.0630700  90.7033940  38.8898830  26.6121470  90.9199460  40.2839770
  36.2510000  99.3859670  41.6353090  37.0128910  99.9556320  41.7412780
  36.2664370  98.8186870  42.4061400  19.7514340  97.9097600  45.8660750
  19.0963180  97.6409240  45.2220450  20.5892290  97.8002080  45.4162730
  36.3029170  99.6794040  38.7925610  36.5778010 100.5872920  38.6644830
  36.1139910  99.6156570  39.7287600  32.7004780  92.7038890  40.0879240
  33.1189660  92.5169870  39.2475900  32.3940840  91.8517940  40.3982170
  36.1994510  97.6163030  43.7855040  35.8238110  96.8490960  43.3536330
  35.4697630  97.9985730  44.2729970  20.7890270  98.2950170  50.4064090
  21.1563310  98.2077570  51.2860110  20.2201090  97.5316720  50.3070950
  35.5894130  96.7634550  53.4194560  35.3580220  96.5347300  52.5192510
  35.8498680  97.6834100  53.3739450  20.3406270  95.2059260  54.3122510
  19.4462320  95.1726020  54.6516220  20.8803820  95.4046050  55.0773760
  34.0282200  91.9890980  56.1974260  34.9052380  91.9974380  56.5808260
  34.0403040  91.2521820  55.5866610  18.9652420  95.1196530  41.8086080
  18.0616500  95.3826730  41.6337740  19.4493040  95.3907700  41.0286040
  35.4745470  95.8420520  47.0862280  35.9982950  95.3483170  46.4552450
  36.0604890  95.9770880  47.8309850  35.6535190  95.9260390  50.6081830
  34.7037900  95.8923930  50.7226820  35.8348200  96.8360500  50.3731600
  21.5079630  94.1762070  39.7180460  22.2171330  93.7545290  39.2327740
  20.7919570  94.2437300  39.0863810  21.1553790  90.2301400  38.7583110
  21.8781920  90.7710340  39.0764330  21.4278310  89.9564820  37.8824650
  34.9645440  95.0993870  43.0254690  35.4604560  94.8664740  43.8103570
  34.7661510  94.2605710  42.6092330  20.8445980  89.4807590  48.6605730
  21.4922170  88.9304970  48.2200890  21.2647820  89.7350740  49.4821540
  36.3932600  93.7354820  45.5592370  36.2831880  93.5810860  46.4974640
  37.1540190  93.2075760  45.3167780  34.7398320  89.6748950  52.0175370
  35.3770540  90.2883090  52.3834560  34.8873210  89.7109610  51.0724600
  37.2822870  91.5662740  38.7998510  38.2072180  91.4343920  38.5916800
  37.2598660  91.6455560  39.7534960  37.3561360  92.3373400  41.4255220
  36.5612860  92.2718520  41.9548130  37.5604640  93.2724040  41.4140570
  20.5977980  89.6363260  51.4031050  20.2492800  90.0927080  52.1689230
  20.2665680  88.7420390  51.4853480  28.1102800  90.8275140  54.9250470
  28.0491690  91.4196970  55.6745880  29.0503180  90.7201100  54.7800730
  30.7477360  90.4845200  54.5642760  31.3617770  90.8024490  53.9023840
  31.2926920  89.9993790  55.1838620  21.2698620  89.1639460  54.6781820
  21.8181610  88.9827510  53.9147930  21.3353930  88.3733570  55.2138130
  31.4885400  89.0477340  50.8912050  30.6145240  89.3812450  50.6884980
  31.3796150  88.5750520  51.7163920  32.3957380  91.2548210  52.2753770
  32.0670740  90.4399970  51.8955500  33.3439680  91.2118020  52.1519460
  29.2360220  89.9647180  49.8304960  28.4532010  90.4392680  50.1101720
  28.9423150  89.0602010  49.7218140  33.7881290  90.6670280  47.8754050
  34.2289380  90.6115380  47.0275650  33.5188880  91.5828290  47.9464230
  35.6519860  90.2985520  45.8862870  35.5908260  89.3546740  45.7393890
  36.4311890  90.4065610  46.4316330  20.5800630  90.2694660  42.3518680
  21.3379990  90.3823540  41.7782710  20.1177800  91.1063860  42.3062110
  27.1214440  92.3833930  45.3420990  26.3088950  92.0090820  45.0016870
  27.6256080  91.6279010  45.6442180  31.6239420  89.0476380  46.5804060
  32.2268790  89.6196590  47.0552580  30.8832410  89.6115820  46.3577960
  34.7674020  89.4497940  41.8544340  34.9624650  90.3481390  42.1211770
  33.9803890  89.2185020  42.3477290  22.9525780  90.7958710  40.8920650
  23.4818540  90.0088510  40.7628600  23.5854100  91.4749900  41.1256180
  25.1463620  90.5333850  43.9466040  24.5166360  89.8321160  44.1136170
  24.6068760  91.2937980  43.7299200  25.2719180  89.8117830  56.3818530
  24.9903450  90.3151430  55.6179350  25.6538880  89.0139580  56.0160660
  31.8734640  89.2271410  56.9599000  31.7600090  89.5466020  57.8550520
  32.6904380  89.6283920  56.6636280  30.7792790  97.2463880  27.3233740
  30.6986840  96.3318490  27.0525450  30.3657210  97.7430950  26.6173450
  28.9110830  99.0242900  29.2043010  28.1352930  98.5443340  29.4941580
  29.5623760  98.3448550  29.0299170  22.9276660  99.3362710  30.0818770
  22.0961540  99.0811420  30.4815280  23.5357640  99.4073480  30.8176690
  21.3368610  94.2964600  23.8661160  20.4485310  94.6380570  23.7641040
  21.6209800  94.0964920  22.9741990  19.3001620  96.8970250  29.7500860
  19.8717730  96.1292450  29.7504500  19.3003160  97.1959010  28.8407470
  20.5426490  92.3054610  31.5369790  20.3629330  91.4080360  31.8172550
  20.1406570  92.8526480  32.2116740  29.3824990  94.5070470  29.4382100
  29.7589810  93.6342350  29.3255770  29.2844500  94.8429170  28.5472540
  23.5130000  92.8796100  24.8999540  23.6196750  93.7799830  25.2068300
  22.6022360  92.8314070  24.6094190  33.1649110  92.0020910  26.3710440
  33.9858730  91.5117480  26.4135920  33.1983190  92.5918570  27.1242280
  21.1613160  94.8015110  30.1452130  21.8423270  95.0653480  30.7639530
  20.8461210  93.9615980  30.4790140  25.3537730  95.8482470  29.2324720
  25.8615950  96.3463440  29.8729740  25.8850970  95.0717670  29.0564080
  37.4548660  94.0187660  32.9354070  36.7500830  94.4069370  32.4169180
  37.7206580  94.7137950  33.5375000  23.6373830  90.4881030  33.4988140
  23.6392270  91.0053420  32.6934040  22.8078140  90.0111210  33.4758070
  24.8876680 100.1276210  31.6761640  24.5546060 100.7545130  32.3182710
  25.0643360 100.6538090  30.8963310  33.4010590  93.9421290  29.1437980
  32.6966160  94.2306180  29.7241090  33.7622750  94.7521400  28.7837540
  23.3189160  92.1990990  31.5058590  23.6605970  93.0433040  31.2112460
  22.3804970  92.3474730  31.6223930  36.4697510  93.3876080  29.5347190
  35.5222420  93.4215060  29.6662620  36.7947500  94.2015030  29.9196550
  27.0017050  89.6873260  27.8303180  27.3092030  89.1320150  27.1138680
  26.0717750  89.8217720  27.6476170  31.9517550 100.3070390  31.4493250
  32.3686340 100.0930500  30.6146710  32.6757370 100.5643180  32.0201870
  29.3897810  97.7522090  24.5663300  28.4627090  97.6859470  24.7951770
  29.5422630  98.6902220  24.4518540  29.3766890  94.0239090  21.5630460
  28.4370560  94.1853050  21.6482920  29.6950150  94.7424770  21.0166450
  35.8979650  98.7057610  31.5409490  35.0698280  98.7750700  31.0659620
  36.4930130  99.2911920  31.0725320  33.4195100  99.3142390  25.0698550
  32.8007520  98.9761940  24.4224850  33.4019550  98.6702150  25.7777740
  32.8621660  95.4926930  32.4864360  32.4492840  96.3180640  32.7404350
  32.1297610  94.9071970  32.2940720  24.9954450  98.2786830  27.3483030
  24.5911450  97.5664080  26.8528930  25.0817570  97.9340070  28.2371070
  23.7083070  95.0530040  31.1282070  24.2597660  95.1625380  30.3535320
  24.2226580  95.4267640  31.8437300  31.5959800  98.5529200  22.0771300
  32.0353080  97.7151630  21.9309120  32.3088220  99.1858600  22.1635440
  23.3825800  98.5749400  34.7387410  23.2433570  99.4472200  35.1074810
  22.5007160  98.2322210  34.5935350  35.1776940  89.8072010  20.3912340
  34.8649600  89.8998840  21.2911410  35.9389410  90.3853040  20.3409770
  21.6959080  97.1731810  24.8489680  21.5756680  97.8993900  24.2370950
  21.3859970  96.4034720  24.3717590  19.3344450 100.3446950  30.6558320
  19.4124870 100.4795720  29.7114040  19.9486130  99.6362840  30.8486440
  36.3878230  94.5443510  36.3686480  35.7722500  95.0523180  35.8401940
  36.0674650  93.6441840  36.3112420  24.1622740  90.5166880  28.2313350
  23.7190890  91.2976420  27.8997870  24.7207730  90.8396770  28.9384290
  28.4492550  93.3835400  33.8348670  27.9871920  93.5918420  34.6468610
  28.0470660  92.5694750  33.5319340  33.4497060  94.6044350  34.9645330
  32.5990650  94.3050100  35.2854400  33.2898850  94.8486360  34.0529150
  30.5446770  96.1046100  37.0644120  30.8700180  95.2709850  36.7246350
  31.3327100  96.6274620  37.2122450  27.2781560  90.1377580  23.1119180
  26.6535740  90.1337450  23.8372490  27.1911680  89.2708540  22.7155150
  26.1998640  91.0614210  30.0902950  26.4970970  91.9677040  30.0094970
  26.7484200  90.5732990  29.4762520  23.9536960  95.6400450  25.9594600
  23.7277880  95.4237620  26.8641220  23.1729490  96.0728910  25.6140570
  31.1834720  95.6463820  24.5585250  30.5843610  96.3699620  24.3748870
  31.7314330  95.5840600  23.7761700  26.3936170  96.5386030  36.6254870
  26.2979770  95.5980760  36.4755270  27.2368150  96.7601100  36.2302940
  29.7899590  94.2827360  26.5888530  30.1829160  94.5999560  25.7757220
  30.1516440  93.4039240  26.7033050  21.5246710  92.9499700  34.7788650
  21.1310100  93.7974910  34.9861430  20.8365110  92.3126070  34.9697290
  28.0991760  93.0334670  37.8485390  27.4090080  92.8406870  38.4831480
  28.8424060  93.3169310  38.3809690  18.8263760  90.8728160  28.8118730
  18.5376810  91.4431020  29.5243710  19.5709520  90.3932610  29.1749960
  19.0133990  94.8148280  20.0221450  18.9308660  95.7579040  20.1636440
  18.6617050  94.6723190  19.1433800  30.3754730  96.8733110  30.6839310
  29.6435850  97.3819920  31.0329410  29.9779070  96.0563090  30.3828090
  26.8132120  93.5487310  29.0891800  26.8168180  93.1077260  28.2396340
  27.7083240  93.8704640  29.1963620  22.6634500  93.4313800  28.0486010
  22.3234550  93.9089030  28.8053060  21.9011820  92.9778920  27.6887110
  26.8752270  94.5499390  22.0798560  26.9965090  94.5085870  23.0284380
  26.4900780  95.4123540  21.9245290  30.8380640  92.3266790  30.0962250
  30.8553380  92.7775440  30.9404100  30.5896220  91.4272430  30.3095690
  25.8873770  96.8600530  21.4781860  25.3190670  96.4118780  20.8517770
  26.5962770  97.2193310  20.9447010  34.2651390  89.7398970  35.9348630
  34.5897160  89.0088630  36.4606610  34.3007900  89.4212610  35.0329620
  27.1140090  97.6089090  30.8357210  27.4810220  97.1347660  31.5818550
  26.9245150  98.4830660  31.1765550  19.9780580  92.3532780  26.9650680
  19.6927500  91.9888450  27.8029300  19.9159440  91.6213240  26.3513820
  24.9039460  96.6497730  33.1541420  24.5996530  97.5289710  33.3791780
  25.8585920  96.7097520  33.1898860  23.4321250 100.8558720  23.7508270
  22.6583510 100.3156340  23.5906990  24.1615880 100.3365330  23.4126030
  34.1909230  99.8524080  29.5434660  34.9108350 100.3479370  29.1530770
  33.9891050  99.1741970  28.8988530  29.6519170  91.2462040  23.6864050
  28.8383780  90.7475210  23.6109360  29.4581120  92.0860290  23.2700400
  29.5728030  99.9233140  35.4303660  29.5065340  99.0028810  35.1761250
  28.9433170 100.0208580  36.1448300  32.3667560  95.6181690  21.9826210
  33.2547180  95.9298920  21.8077550  32.3372650  94.7453940  21.5906790
  23.4758650 100.5239100  27.3887080  23.9937320  99.7207360  27.3343970
  23.0242670 100.4618240  28.2303910  20.9603190  97.4900470  34.3012780
  20.6018130  98.1554320  34.8886120  20.6657750  96.6584020  34.6725400
  24.1616310  97.9484710  37.1852330  23.8616450  98.0941890  36.2880150
  24.9327550  97.3890000  37.0925720  34.6381830  96.9293530  21.4506070
  34.5545550  97.3607750  20.6002510  35.3576020  97.3891880  21.8832890
  35.7155970  99.3861050  34.5276040  34.9904160  99.9789830  34.3305430
  36.2431430  99.3784590  33.7289410  19.4711240  97.4891730  20.9247380
  20.3406090  97.7716530  21.2083300  18.9801560  98.3027600  20.8096190
  26.6346050  98.8764940  25.0455660  27.0908830  99.6870190  25.2715850
  26.2834260  98.5588080  25.8774150  22.5357830  89.2202590  25.5178180
  22.4072460  89.2120490  26.4663100  21.7119850  89.5585680  25.1669190
  19.5351760  90.9793710  34.9784880  18.8210280  91.1790630  35.5837490
  19.9546800  90.2033280  35.3499680  21.4557750  99.3065200  23.0529440
  20.8485700 100.0464100  23.0624740  21.9307100  99.3964560  22.2267640
  31.0290540  93.4716020  32.7286330  31.3971360  92.6511230  33.0565900
  30.1688740  93.5317910  33.1441980  34.3952570  92.4272960  23.5373890
  33.7665730  92.5318630  22.8232120  33.9004490  92.6469740  24.3267770
  26.3636600  94.7058910  24.9531770  25.6552750  95.1745250  25.3945380
  26.6481080  94.0480920  25.5876960  27.9892530  96.1255610  32.9524300
  28.4877780  96.6001430  33.6176150  28.1315480  95.2019130  33.1594330
  30.3952030  91.4309570  26.3927560  30.2719810  91.4495700  25.4437070
  31.3436590  91.4788510  26.5125960  24.5671620  93.0143990  22.3282480
  25.4162150  93.4514140  22.2622670  24.2002890  93.3264250  23.1554540
  35.1959390  92.3423570  33.7952690  34.6932990  93.0828970  34.1346500
  36.0116050  92.7307570  33.4789480  33.4881400  97.5856750  27.2414050
  32.5471540  97.6006980  27.4161740  33.8025470  96.7992710  27.6874350
  23.4663040  99.2676350  20.8018010  24.2326310  99.1557710  21.3643440
  23.5437730  98.5714320  20.1494780  22.1609800  96.7001420  21.4850900
  22.2413390  95.7528930  21.5968300  23.0529550  97.0308300  21.5911560
  19.6880600  98.5216340  36.7207070  20.1919620  97.9423620  37.2923300
  18.9488020  98.8056570  37.2583440  26.7418540  99.9287330  36.2542590
  25.9764210 100.4972330  36.1697260  26.9234500  99.6363540  35.3610820
  29.8306950 100.3050560  20.8795350  29.2817050 100.7519860  21.5238090
  30.4526210  99.7999810  21.4033020  21.7203680  96.6645930  37.6157140
  21.7609020  96.3659800  38.5242370  22.5749180  97.0653540  37.4564660
  25.4982070  99.2641480  22.7760650  25.9198490  99.0981350  23.6192040
  25.6232910  98.4541710  22.2815790  23.6609490  95.2438030  35.5831630
  23.1305950  94.7528980  34.9554970  24.3297560  95.6722230  35.0489560
  28.0109710  98.2879090  20.0237750  28.5315370  97.5728110  19.6578900
  28.6578110  98.9264960  20.3238260  32.5587550  99.7107490  35.3472820
  32.9728570  99.8652570  36.1963240  31.6238550  99.8362710  35.5098600
  33.0309720  97.0503650  37.3511970  33.6130490  96.2955970  37.2632450
  33.2071490  97.5811090  36.5743450  24.1481790  92.2100400  35.6628920
  24.0538660  91.5921150  34.9379790  23.5679180  92.9366690  35.4358830
  26.9143230  90.7673640  32.6956310  26.4660530  90.7897900  31.8501860
  26.2808430  90.3692660  33.2926610  27.3202780  99.6627970  33.3168750
  27.7390890 100.5060700  33.1444990  26.4011410  99.8000010  33.0875530
  29.6566680  97.3944150  34.7006590  29.7762890  96.7985290  35.4401430
  30.5160680  97.4313840  34.2807890  31.9954580  97.9481340  33.2769100
  31.4689800  98.4723960  32.6734240  32.3385920  98.5808730  33.9078830
  24.3940970  95.3374710  19.7218810  24.1930030  94.4742070  20.0832150
  24.2233020  95.2508070  18.7840410  26.4235450  93.9365500  35.9582410
  27.0135140  93.6281350  36.6460230  25.6055690  93.4645250  36.1142310
  31.2428880  93.5531310  36.1915430  30.5544400  92.8912850  36.1265420
  31.9634900  93.1069580  36.6363890  31.8729280  90.1482940  22.2505690
  32.1531570  89.3050840  22.6065110  31.0995010  90.3806050  22.7644440
  23.1923770  92.4375330  19.7096690  23.4949670  92.4442760  18.8015840
  23.9318360  92.0873190  20.2064350  26.4108700  91.3809950  20.6952890
  26.0630700  90.7033940  20.1155340  26.6121470  90.9199460  21.5096280
  36.2510000  99.3859670  22.8609600  37.0128910  99.9556320  22.9669290
  36.2664370  98.8186870  23.6317910  19.7514340  97.9097600  27.0917260
  19.0963180  97.6409240  26.4476960  20.5892290  97.8002080  26.6419240
  36.3029170  99.6794040  20.0182120  36.5778010 100.5872920  19.8901340
  36.1139910  99.6156570  20.9544110  32.7004780  92.7038890  21.3135750
  33.1189660  92.5169870  20.4732410  32.3940840  91.8517940  21.6238680
  36.1994510  97.6163030  25.0111550  35.8238110  96.8490960  24.5792840
  35.4697630  97.9985730  25.4986480  20.7890270  98.2950170  31.6320600
  21.1563310  98.2077570  32.5116620  20.2201090  97.5316720  31.5327460
  35.5894130  96.7634550  34.6451070  35.3580220  96.5347300  33.7449020
  35.8498680  97.6834100  34.5995960  20.3406270  95.2059260  35.5379020
  19.4462320  95.1726020  35.8772730  20.8803820  95.4046050  36.3030270
  34.0282200  91.9890980  37.4230770  34.9052380  91.9974380  37.8064770
  34.0403040  91.2521820  36.8123120  18.9652420  95.1196530  23.0342590
  18.0616500  95.3826730  22.8594250  19.4493040  95.3907700  22.2542550
  35.4745470  95.8420520  28.3118790  35.9982950  95.3483170  27.6808960
  36.0604890  95.9770880  29.0566360  35.6535190  95.9260390  31.8338340
  34.7037900  95.8923930  31.9483330  35.8348200  96.8360500  31.5988110
  21.5079630  94.1762070  20.9436970  22.2171330  93.7545290  20.4584250
  20.7919570  94.2437300  20.3120320  21.1553790  90.2301400  19.9839620
  21.8781920  90.7710340  20.3020840  21.4278310  89.9564820  19.1081160
  34.9645440  95.0993870  24.2511200  35.4604560  94.8664740  25.0360080
  34.7661510  94.2605710  23.8348840  20.8445980  89.4807590  29.8862240
  21.4922170  88.9304970  29.4457400  21.2647820  89.7350740  30.7078050
  36.3932600  93.7354820  26.7848880  36.2831880  93.5810860  27.7231150
  37.1540190  93.2075760  26.5424290  34.7398320  89.6748950  33.2431880
  35.3770540  90.2883090  33.6091070  34.8873210  89.7109610  32.2981110
  37.2822870  91.5662740  20.0255020  38.2072180  91.4343920  19.8173310
  37.2598660  91.6455560  20.9791470  37.3561360  92.3373400  22.6511730
  36.5612860  92.2718520  23.1804640  37.5604640  93.2724040  22.6397080
  20.5977980  89.6363260  32.6287560  20.2492800  90.0927080  33.3945740
  20.2665680  88.7420390  32.7109990  28.1102800  90.8275140  36.1506980
  28.0491690  91.4196970  36.9002390  29.0503180  90.7201100  36.0057240
  30.7477360  90.4845200  35.7899270  31.3617770  90.8024490  35.1280350
  31.2926920  89.9993790  36.4095130  21.2698620  89.1639460  35.9038330
  21.8181610  88.9827510  35.1404440  21.3353930  88.3733570  36.4394640
  31.4885400  89.0477340  32.1168560  30.6145240  89.3812450  31.9141490
  31.3796150  88.5750520  32.9420430  32.3957380  91.2548210  33.5010280
  32.0670740  90.4399970  33.1212010  33.3439680  91.2118020  33.3775970
  29.2360220  89.9647180  31.0561470  28.4532010  90.4392680  31.3358230
  28.9423150  89.0602010  30.9474650  33.7881290  90.6670280  29.1010560
  34.2289380  90.6115380  28.2532160  33.5188880  91.5828290  29.1720740
  35.6519860  90.2985520  27.1119380  35.5908260  89.3546740  26.9650400
  36.4311890  90.4065610  27.6572840  20.5800630  90.2694660  23.5775190
  21.3379990  90.3823540  23.0039220  20.1177800  91.1063860  23.5318620
  27.1214440  92.3833930  26.5677500  26.3088950  92.0090820  26.2273380
  27.6256080  91.6279010  26.8698690  31.6239420  89.0476380  27.8060570
  32.2268790  89.6196590  28.2809090  30.8832410  89.6115820  27.5834470
  34.7674020  89.4497940  23.0800850  34.9624650  90.3481390  23.3468280
  33.9803890  89.2185020  23.5733800  22.9525780  90.7958710  22.1177160
  23.4818540  90.0088510  21.9885110  23.5854100  91.4749900  22.3512690
  25.1463620  90.5333850  25.1722550  24.5166360  89.8321160  25.3392680
  24.6068760  91.2937980  24.9555710  25.2719180  89.8117830  37.6075040
  24.9903450  90.3151430  36.8435860  25.6538880  89.0139580  37.2417170
  31.8734640  89.2271410  38.1855510  31.7600090  89.5466020  39.0807030
  32.6904380  89.6283920  37.8892790  30.7792790  97.2463880   8.5490250
  30.6986840  96.3318490   8.2781960  30.3657210  97.7430950   7.8429960
  28.9110830  99.0242900  10.4299520  28.1352930  98.5443340  10.7198090
  29.5623760  98.3448550  10.2555680  22.9276660  99.3362710  11.3075280
  22.0961540  99.0811420  11.7071790  23.5357640  99.4073480  12.0433200
  21.3368610  94.2964600   5.0917670  20.4485310  94.6380570   4.9897550
  21.6209800  94.0964920   4.1998500  19.3001620  96.8970250  10.9757370
  19.8717730  96.1292450  10.9761010  19.3003160  97.1959010  10.0663980
  20.5426490  92.3054610  12.7626300  20.3629330  91.4080360  13.0429060
  20.1406570  92.8526480  13.4373250  29.3824990  94.5070470  10.6638610
  29.7589810  93.6342350  10.5512280  29.2844500  94.8429170   9.7729050
  23.5130000  92.8796100   6.1256050  23.6196750  93.7799830   6.4324810
  22.6022360  92.8314070   5.8350700  33.1649110  92.0020910   7.5966950
  33.9858730  91.5117480   7.6392430  33.1983190  92.5918570   8.3498790
  21.1613160  94.8015110  11.3708640  21.8423270  95.0653480  11.9896040
  20.8461210  93.9615980  11.7046650  25.3537730  95.8482470  10.4581230
  25.8615950  96.3463440  11.0986250  25.8850970  95.0717670  10.2820590
  37.4548660  94.0187660  14.1610580  36.7500830  94.4069370  13.6425690
  37.7206580  94.7137950  14.7631510  23.6373830  90.4881030  14.7244650
  23.6392270  91.0053420  13.9190550  22.8078140  90.0111210  14.7014580
  24.8876680 100.1276210  12.9018150  24.5546060 100.7545130  13.5439220
  25.0643360 100.6538090  12.1219820  33.4010590  93.9421290  10.3694490
  32.6966160  94.2306180  10.9497600  33.7622750  94.7521400  10.0094050
  23.3189160  92.1990990  12.7315100  23.6605970  93.0433040  12.4368970
  22.3804970  92.3474730  12.8480440  36.4697510  93.3876080  10.7603700
  35.5222420  93.4215060  10.8919130  36.7947500  94.2015030  11.1453060
  27.0017050  89.6873260   9.0559690  27.3092030  89.1320150   8.3395190
  26.0717750  89.8217720   8.8732680  31.9517550 100.3070390  12.6749760
  32.3686340 100.0930500  11.8403220  32.6757370 100.5643180  13.2458380
  29.3897810  97.7522090   5.7919810  28.4627090  97.6859470   6.0208280
  29.5422630  98.6902220   5.6775050  29.3766890  94.0239090   2.7886970
  28.4370560  94.1853050   2.8739430  29.6950150  94.7424770   2.2422960
  35.8979650  98.7057610  12.7666000  35.0698280  98.7750700  12.2916130
  36.4930130  99.2911920  12.2981830  33.4195100  99.3142390   6.2955060
  32.8007520  98.9761940   5.6481360  33.4019550  98.6702150   7.0034250
  32.8621660  95.4926930  13.7120870  32.4492840  96.3180640  13.9660860
  32.1297610  94.9071970  13.5197230  24.9954450  98.2786830   8.5739540
  24.5911450  97.5664080   8.0785440  25.0817570  97.9340070   9.4627580
  23.7083070  95.0530040  12.3538580  24.2597660  95.1625380  11.5791830
  24.2226580  95.4267640  13.0693810  31.5959800  98.5529200   3.3027810
  32.0353080  97.7151630   3.1565630  32.3088220  99.1858600   3.3891950
  23.3825800  98.5749400  15.9643920  23.2433570  99.4472200  16.3331320
  22.5007160  98.2322210  15.8191860  21.6959080  97.1731810   6.0746190
  21.5756680  97.8993900   5.4627460  21.3859970  96.4034720   5.5974100
  19.3344450 100.3446950  11.8814830  19.4124870 100.4795720  10.9370550
  19.9486130  99.6362840  12.0742950  36.3878230  94.5443510  17.5942990
  35.7722500  95.0523180  17.0658450  36.0674650  93.6441840  17.5368930
  24.1622740  90.5166880   9.4569860  23.7190890  91.2976420   9.1254380
  24.7207730  90.8396770  10.1640800  28.4492550  93.3835400  15.0605180
  27.9871920  93.5918420  15.8725120  28.0470660  92.5694750  14.7575850
  33.4497060  94.6044350  16.1901840  32.5990650  94.3050100  16.5110910
  33.2898850  94.8486360  15.2785660  30.5446770  96.1046100  18.2900630
  30.8700180  95.2709850  17.9502860  31.3327100  96.6274620  18.4378960
  27.2781560  90.1377580   4.3375690  26.6535740  90.1337450   5.0629000
  27.1911680  89.2708540   3.9411660  26.1998640  91.0614210  11.3159460
  26.4970970  91.9677040  11.2351480  26.7484200  90.5732990  10.7019030
  23.9536960  95.6400450   7.1851110  23.7277880  95.4237620   8.0897730
  23.1729490  96.0728910   6.8397080  31.1834720  95.6463820   5.7841760
  30.5843610  96.3699620   5.6005380  31.7314330  95.5840600   5.0018210
  26.3936170  96.5386030  17.8511380  26.2979770  95.5980760  17.7011780
  27.2368150  96.7601100  17.4559450  29.7899590  94.2827360   7.8145040
  30.1829160  94.5999560   7.0013730  30.1516440  93.4039240   7.9289560
  21.5246710  92.9499700  16.0045160  21.1310100  93.7974910  16.2117940
  20.8365110  92.3126070  16.1953800  28.0991760  93.0334670  19.0741900
  27.4090080  92.8406870  19.7087990  28.8424060  93.3169310  19.6066200
  18.8263760  90.8728160  10.0375240  18.5376810  91.4431020  10.7500220
  19.5709520  90.3932610  10.4006470  30.3754730  96.8733110  11.9095820
  29.6435850  97.3819920  12.2585920  29.9779070  96.0563090  11.6084600
  26.8132120  93.5487310  10.3148310  26.8168180  93.1077260   9.4652850
  27.7083240  93.8704640  10.4220130  22.6634500  93.4313800   9.2742520
  22.3234550  93.9089030  10.0309570  21.9011820  92.9778920   8.9143620
  26.8752270  94.5499390   3.3055070  26.9965090  94.5085870   4.2540890
  26.4900780  95.4123540   3.1501800  30.8380640  92.3266790  11.3218760
  30.8553380  92.7775440  12.1660610  30.5896220  91.4272430  11.5352200
  25.8873770  96.8600530   2.7038370  25.3190670  96.4118780   2.0774280
  26.5962770  97.2193310   2.1703520  34.2651390  89.7398970  17.1605140
  34.5897160  89.0088630  17.6863120  34.3007900  89.4212610  16.2586130
  27.1140090  97.6089090  12.0613720  27.4810220  97.1347660  12.8075060
  26.9245150  98.4830660  12.4022060  19.9780580  92.3532780   8.1907190
  19.6927500  91.9888450   9.0285810  19.9159440  91.6213240   7.5770330
  24.9039460  96.6497730  14.3797930  24.5996530  97.5289710  14.6048290
  25.8585920  96.7097520  14.4155370  23.4321250 100.8558720   4.9764780
  22.6583510 100.3156340   4.8163500  24.1615880 100.3365330   4.6382540
  34.1909230  99.8524080  10.7691170  34.9108350 100.3479370  10.3787280
  33.9891050  99.1741970  10.1245040  29.6519170  91.2462040   4.9120560
  28.8383780  90.7475210   4.8365870  29.4581120  92.0860290   4.4956910
  29.5728030  99.9233140  16.6560170  29.5065340  99.0028810  16.4017760
  28.9433170 100.0208580  17.3704810  32.3667560  95.6181690   3.2082720
  33.2547180  95.9298920   3.0334060  32.3372650  94.7453940   2.8163300
  23.4758650 100.5239100   8.6143590  23.9937320  99.7207360   8.5600480
  23.0242670 100.4618240   9.4560420  20.9603190  97.4900470  15.5269290
  20.6018130  98.1554320  16.1142630  20.6657750  96.6584020  15.8981910
  24.1616310  97.9484710  18.4108840  23.8616450  98.0941890  17.5136660
  24.9327550  97.3890000  18.3182230  34.6381830  96.9293530   2.6762580
  34.5545550  97.3607750   1.8259020  35.3576020  97.3891880   3.1089400
  35.7155970  99.3861050  15.7532550  34.9904160  99.9789830  15.5561940
  36.2431430  99.3784590  14.9545920  19.4711240  97.4891730   2.1503890
  20.3406090  97.7716530   2.4339810  18.9801560  98.3027600   2.0352700
  26.6346050  98.8764940   6.2712170  27.0908830  99.6870190   6.4972360
  26.2834260  98.5588080   7.1030660  22.5357830  89.2202590   6.7434690
  22.4072460  89.2120490   7.6919610  21.7119850  89.5585680   6.3925700
  19.5351760  90.9793710  16.2041390  18.8210280  91.1790630  16.8094000
  19.9546800  90.2033280  16.5756190  21.4557750  99.3065200   4.2785950
  20.8485700 100.0464100   4.2881250  21.9307100  99.3964560   3.4524150
  31.0290540  93.4716020  13.9542840  31.3971360  92.6511230  14.2822410
  30.1688740  93.5317910  14.3698490  34.3952570  92.4272960   4.7630400
  33.7665730  92.5318630   4.0488630  33.9004490  92.6469740   5.5524280
  26.3636600  94.7058910   6.1788280  25.6552750  95.1745250   6.6201890
  26.6481080  94.0480920   6.8133470  27.9892530  96.1255610  14.1780810
  28.4877780  96.6001430  14.8432660  28.1315480  95.2019130  14.3850840
  30.3952030  91.4309570   7.6184070  30.2719810  91.4495700   6.6693580
  31.3436590  91.4788510   7.7382470  24.5671620  93.0143990   3.5538990
  25.4162150  93.4514140   3.4879180  24.2002890  93.3264250   4.3811050
  35.1959390  92.3423570  15.0209200  34.6932990  93.0828970  15.3603010
  36.0116050  92.7307570  14.7045990  33.4881400  97.5856750   8.4670560
  32.5471540  97.6006980   8.6418250  33.8025470  96.7992710   8.9130860
  22.1609800  96.7001420   2.7107410  22.2413390  95.7528930   2.8224810
  23.0529550  97.0308300   2.8168070  19.6880600  98.5216340  17.9463580
  20.1919620  97.9423620  18.5179810  18.9488020  98.8056570  18.4839950
  26.7418540  99.9287330  17.4799100  25.9764210 100.4972330  17.3953770
  26.9234500  99.6363540  16.5867330  29.8306950 100.3050560   2.1051860
  29.2817050 100.7519860   2.7494600  30.4526210  99.7999810   2.6289530
  21.7203680  96.6645930  18.8413650  21.7609020  96.3659800  19.7498880
  22.5749180  97.0653540  18.6821170  25.4982070  99.2641480   4.0017160
  25.9198490  99.0981350   4.8448550  25.6232910  98.4541710   3.5072300
  23.6609490  95.2438030  16.8088140  23.1305950  94.7528980  16.1811480
  24.3297560  95.6722230  16.2746070  32.5587550  99.7107490  16.5729330
  32.9728570  99.8652570  17.4219750  31.6238550  99.8362710  16.7355110
  33.0309720  97.0503650  18.5768480  33.6130490  96.2955970  18.4888960
  33.2071490  97.5811090  17.7999960  24.1481790  92.2100400  16.8885430
  24.0538660  91.5921150  16.1636300  23.5679180  92.9366690  16.6615340
  26.9143230  90.7673640  13.9212820  26.4660530  90.7897900  13.0758370
  26.2808430  90.3692660  14.5183120  27.3202780  99.6627970  14.5425260
  27.7390890 100.5060700  14.3701500  26.4011410  99.8000010  14.3132040
  29.6566680  97.3944150  15.9263100  29.7762890  96.7985290  16.6657940
  30.5160680  97.4313840  15.5064400  31.9954580  97.9481340  14.5025610
  31.4689800  98.4723960  13.8990750  32.3385920  98.5808730  15.1335340
  26.4235450  93.9365500  17.1838920  27.0135140  93.6281350  17.8716740
  25.6055690  93.4645250  17.3398820  31.2428880  93.5531310  17.4171940
  30.5544400  92.8912850  17.3521930  31.9634900  93.1069580  17.8620400
  31.8729280  90.1482940   3.4762200  32.1531570  89.3050840   3.8321620
  31.0995010  90.3806050   3.9900950  36.2510000  99.3859670   4.0866110
  37.0128910  99.9556320   4.1925800  36.2664370  98.8186870   4.8574420
  19.7514340  97.9097600   8.3173770  19.0963180  97.6409240   7.6733470
  20.5892290  97.8002080   7.8675750  32.7004780  92.7038890   2.5392260
  33.1189660  92.5169870   1.6988920  32.3940840  91.8517940   2.8495190
  36.1994510  97.6163030   6.2368060  35.8238110  96.8490960   5.8049350
  35.4697630  97.9985730   6.7242990  20.7890270  98.2950170  12.8577110
  21.1563310  98.2077570  13.7373130  20.2201090  97.5316720  12.7583970
  35.5894130  96.7634550  15.8707580  35.3580220  96.5347300  14.9705530
  35.8498680  97.6834100  15.8252470  20.3406270  95.2059260  16.7635530
  19.4462320  95.1726020  17.1029240  20.8803820  95.4046050  17.5286780
  34.0282200  91.9890980  18.6487280  34.9052380  91.9974380  19.0321280
  34.0403040  91.2521820  18.0379630  18.9652420  95.1196530   4.2599100
  18.0616500  95.3826730   4.0850760  19.4493040  95.3907700   3.4799060
  35.4745470  95.8420520   9.5375300  35.9982950  95.3483170   8.9065470
  36.0604890  95.9770880  10.2822870  35.6535190  95.9260390  13.0594850
  34.7037900  95.8923930  13.1739840  35.8348200  96.8360500  12.8244620
  34.9645440  95.0993870   5.4767710  35.4604560  94.8664740   6.2616590
  34.7661510  94.2605710   5.0605350  20.8445980  89.4807590  11.1118750
  21.4922170  88.9304970  10.6713910  21.2647820  89.7350740  11.9334560
  36.3932600  93.7354820   8.0105390  36.2831880  93.5810860   8.9487660
  37.1540190  93.2075760   7.7680800  34.7398320  89.6748950  14.4688390
  35.3770540  90.2883090  14.8347580  34.8873210  89.7109610  13.5237620
  37.3561360  92.3373400   3.8768240  36.5612860  92.2718520   4.4061150
  37.5604640  93.2724040   3.8653590  20.5977980  89.6363260  13.8544070
  20.2492800  90.0927080  14.6202250  20.2665680  88.7420390  13.9366500
  28.1102800  90.8275140  17.3763490  28.0491690  91.4196970  18.1258900
  29.0503180  90.7201100  17.2313750  30.7477360  90.4845200  17.0155780
  31.3617770  90.8024490  16.3536860  31.2926920  89.9993790  17.6351640
  21.2698620  89.1639460  17.1294840  21.8181610  88.9827510  16.3660950
  21.3353930  88.3733570  17.6651150  31.4885400  89.0477340  13.3425070
  30.6145240  89.3812450  13.1398000  31.3796150  88.5750520  14.1676940
  32.3957380  91.2548210  14.7266790  32.0670740  90.4399970  14.3468520
  33.3439680  91.2118020  14.6032480  29.2360220  89.9647180  12.2817980
  28.4532010  90.4392680  12.5614740  28.9423150  89.0602010  12.1731160
  33.7881290  90.6670280  10.3267070  34.2289380  90.6115380   9.4788670
  33.5188880  91.5828290  10.3977250  35.6519860  90.2985520   8.3375890
  35.5908260  89.3546740   8.1906910  36.4311890  90.4065610   8.8829350
  20.5800630  90.2694660   4.8031700  21.3379990  90.3823540   4.2295730
  20.1177800  91.1063860   4.7575130  27.1214440  92.3833930   7.7934010
  26.3088950  92.0090820   7.4529890  27.6256080  91.6279010   8.0955200
  31.6239420  89.0476380   9.0317080  32.2268790  89.6196590   9.5065600
  30.8832410  89.6115820   8.8090980  34.7674020  89.4497940   4.3057360
  34.9624650  90.3481390   4.5724790  33.9803890  89.2185020   4.7990310
  22.9525780  90.7958710   3.3433670  23.4818540  90.0088510   3.2141620
  23.5854100  91.4749900   3.5769200  25.1463620  90.5333850   6.3979060
  24.5166360  89.8321160   6.5649190  24.6068760  91.2937980   6.1812220
  25.2719180  89.8117830  18.8331550  24.9903450  90.3151430  18.0692370
  25.6538880  89.0139580  18.4673680  31.8734640  89.2271410  19.4112020
  31.7600090  89.5466020  20.3063540  32.6904380  89.6283920  19.1149300
  30.7792790  78.4720390  64.8720720  30.6986840  77.5575000  64.6012430
  30.3657210  78.9687460  64.1660430  28.9110830  80.2499410  66.7529990
  28.1352930  79.7699850  67.0428560  29.5623760  79.5705060  66.5786150
  22.9276660  80.5619220  67.6305750  22.0961540  80.3067930  68.0302260
  23.5357640  80.6329990  68.3663670  32.9318260  84.6559600  65.5329120
  32.4699790  83.8846840  65.8616290  33.7443810  84.6825670  66.0381570
  22.9077920  84.5959310  67.8263770  23.2105960  83.7057050  67.6473990
  23.6521510  85.1529530  67.5986020  21.3368610  75.5221110  61.4148140
  20.4485310  75.8637080  61.3128020  21.6209800  75.3221430  60.5228970
  19.3001620  78.1226760  67.2987840  19.8717730  77.3548960  67.2991480
  19.3003160  78.4215520  66.3894450  29.1581570  86.9417610  65.1533110
  28.5393010  87.3975110  64.5827550  30.0133350  87.0969070  64.7522810
  28.3519820  82.9256600  66.7600150  28.2828100  81.9846540  66.5989280
  29.1139680  83.0158010  67.3322720  20.5426490  73.5311120  69.0856770
  20.3629330  72.6336870  69.3659530  20.1406570  74.0782990  69.7603720
  29.3824990  75.7326980  66.9869080  29.7589810  74.8598860  66.8742750
  29.2844500  76.0685680  66.0959520  23.5130000  74.1052610  62.4486520
  23.6196750  75.0056340  62.7555280  22.6022360  74.0570580  62.1581170
  33.1649110  73.2277420  63.9197420  33.9858730  72.7373990  63.9622900
  33.1983190  73.8175080  64.6729260  21.1613160  76.0271620  67.6939110
  21.8423270  76.2909990  68.3126510  20.8461210  75.1872490  68.0277120
  25.3537730  77.0738980  66.7811700  25.8615950  77.5719950  67.4216720
  25.8850970  76.2974180  66.6051060  37.4548660  75.2444170  70.4841050
  36.7500830  75.6325880  69.9656160  37.7206580  75.9394460  71.0861980
  23.6373830  71.7137540  71.0475120  23.6392270  72.2309930  70.2421020
  22.8078140  71.2367720  71.0245050  30.0244920  81.8256850  62.5465020
  29.4062190  82.2906300  61.9827740  30.5368170  82.5184330  62.9634530
  24.8876680  81.3532720  69.2248620  24.5546060  81.9801640  69.8669690
  25.0643360  81.8794600  68.4450290  33.4010590  75.1677800  66.6924960
  32.6966160  75.4562690  67.2728070  33.7622750  75.9777910  66.3324520
  23.3189160  73.4247500  69.0545570  23.6605970  74.2689550  68.7599440
  22.3804970  73.5731240  69.1710910  24.0995780  83.3213520  71.0397800
  24.7169780  83.9964600  70.7582250  23.2388900  83.7301500  70.9485300
  19.3928120  82.5113380  59.9204650  19.0156100  83.0000480  59.1889550
  19.6501190  83.1838660  60.5511180  35.0173370  84.7852930  68.9552440
  34.3336890  85.4552040  68.9469110  35.5567660  84.9833580  68.1897300
  36.4697510  74.6132590  67.0834170  35.5222420  74.6471570  67.2149600
  36.7947500  75.4271540  67.4683530  27.0017050  70.9129770  65.3790160
  27.3092030  70.3576660  64.6625660  26.0717750  71.0474230  65.1963150
  32.5532110  86.6297060  67.6697620  32.5659270  86.2259350  66.8019880
  32.0007330  87.4044350  67.5659050  33.8477530  83.3513280  62.7587790
  33.7373860  82.4087610  62.8837210  33.8445780  83.7128920  63.6450550
  31.9517550  81.5326900  68.9980230  32.3686340  81.3187010  68.1633690
  32.6757370  81.7899690  69.5688850  29.3897810  78.9778600  62.1150280
  28.4627090  78.9115980  62.3438750  29.5422630  79.9158730  62.0005520
  29.3766890  75.2495600  59.1117440  28.4370560  75.4109560  59.1969900
  29.6950150  75.9681280  58.5653430  35.8979650  79.9314120  69.0896470
  35.0698280  80.0007210  68.6146600  36.4930130  80.5168430  68.6212300
  33.4195100  80.5398900  62.6185530  32.8007520  80.2018450  61.9711830
  33.4019550  79.8958660  63.3264720  32.8621660  76.7183440  70.0351340
  32.4492840  77.5437150  70.2891330  32.1297610  76.1328480  69.8427700
  24.9954450  79.5043340  64.8970010  24.5911450  78.7920590  64.4015910
  25.0817570  79.1596580  65.7858050  25.4636150  83.1910900  67.0609220
  25.1664440  82.5856370  66.3817000  26.4135970  83.2288210  66.9498580
  23.7083070  76.2786550  68.6769050  24.2597660  76.3881890  67.9022300
  24.2226580  76.6524150  69.3924280  33.5521760  86.7642770  70.7232320
  33.0752320  87.5714960  70.5304930  32.8683550  86.1121100  70.8758530
  24.5554580  82.9292590  73.7117020  23.6583110  83.1532560  73.9590420
  24.5807450  83.0527530  72.7628420  31.5959800  79.7785710  59.6258280
  32.0353080  78.9408140  59.4796100  32.3088220  80.4115110  59.7122420
  23.3825800  79.8005910  72.2874390  23.2433570  80.6728710  72.6561790
  22.5007160  79.4578720  72.1422330  29.7055180  84.7181780  63.5939520
  30.1451090  85.4606110  63.1794910  29.6442070  84.9608350  64.5178480
  25.1806150  85.7427610  74.4959540  25.1521580  86.1470560  73.6287970
  25.0171120  84.8137970  74.3331140  35.1776940  71.0328520  57.9399320
  34.8649600  71.1255350  58.8398390  35.9389410  71.6109550  57.8896750
  21.6959080  78.3988320  62.3976660  21.5756680  79.1250410  61.7857930
  21.3859970  77.6291230  61.9204570  19.3344450  81.5703460  68.2045300
  19.4124870  81.7052230  67.2601020  19.9486130  80.8619350  68.3973420
  20.5792080  83.2703650  64.6151480  20.1720160  83.4118240  63.7605080
  21.4705090  82.9863810  64.4122690  36.5354220  83.7167560  72.9523720
  36.6617280  83.4779440  72.0340900  36.5775600  82.8852100  73.4245800
  30.3970960  87.4195560  71.5218530  30.9115630  87.3303570  72.3240960
  29.5540040  87.7655260  71.8146440  32.3725360  87.7050900  60.9502530
  32.2126500  87.4153840  61.8484360  32.2072070  86.9291030  60.4147760
  24.8513740  87.4849430  62.7274150  24.6756220  86.5684970  62.5141950
  23.9969480  87.8436720  62.9671950  32.0751490  85.2138460  59.5100530
  31.3816650  85.2115750  58.8502810  32.8174350  84.7897780  59.0794700
  31.6401420  86.8401170  63.5849020  32.0958370  86.0590550  63.8987640
  31.9793940  87.5507990  64.1290200  36.3878230  75.7700020  73.9173460
  35.7722500  76.2779690  73.3888920  36.0674650  74.8698350  73.8599400
  19.3903970  82.6117630  70.7439760  19.5535010  82.1422990  69.9259130
  19.8556420  82.1041190  71.4088600  24.1622740  71.7423390  65.7800330
  23.7190890  72.5232930  65.4484850  24.7207730  72.0653280  66.4871270
  28.4492550  74.6091910  71.3835650  27.9871920  74.8174930  72.1955590
  28.0470660  73.7951260  71.0806320  33.4497060  75.8300860  72.5132310
  32.5990650  75.5306610  72.8341380  33.2898850  76.0742870  71.6016130
  30.5446770  77.3302610  74.6131100  30.8700180  76.4966360  74.2733330
  31.3327100  77.8531130  74.7609430  27.2781560  71.3634090  60.6606160
  26.6535740  71.3593960  61.3859470  27.1911680  70.4965050  60.2642130
  26.1998640  72.2870720  67.6389930  26.4970970  73.1933550  67.5581950
  26.7484200  71.7989500  67.0249500  23.9536960  76.8656960  63.5081580
  23.7277880  76.6494130  64.4128200  23.1729490  77.2985420  63.1627550
  31.1834720  76.8720330  62.1072230  30.5843610  77.5956130  61.9235850
  31.7314330  76.8097110  61.3248680  26.3936170  77.7642540  74.1741850
  26.2979770  76.8237270  74.0242250  27.2368150  77.9857610  73.7789920
  29.7899590  75.5083870  64.1375510  30.1829160  75.8256070  63.3244200
  30.1516440  74.6295750  64.2520030  21.5246710  74.1756210  72.3275630
  21.1310100  75.0231420  72.5348410  20.8365110  73.5382580  72.5184270
  18.8263760  72.0984670  66.3605710  18.5376810  72.6687530  67.0730690
  19.5709520  71.6189120  66.7236940  19.0133990  76.0404790  57.5708430
  18.9308660  76.9835550  57.7123420  18.6617050  75.8979700  56.6920780
  30.3754730  78.0989620  68.2326290  29.6435850  78.6076430  68.5816390
  29.9779070  77.2819600  67.9315070  26.8132120  74.7743820  66.6378780
  26.8168180  74.3333770  65.7883320  27.7083240  75.0961150  66.7450600
  22.6634500  74.6570310  65.5972990  22.3234550  75.1345540  66.3540040
  21.9011820  74.2035430  65.2374090  26.8752270  75.7755900  59.6285540
  26.9965090  75.7342380  60.5771360  26.4900780  76.6380050  59.4732270
  30.8380640  73.5523300  67.6449230  30.8553380  74.0031950  68.4891080
  30.5896220  72.6528940  67.8582670  25.8873770  78.0857040  59.0268840
  25.3190670  77.6375290  58.4004750  26.5962770  78.4449820  58.4933990
  34.2651390  70.9655480  73.4835610  34.5897160  70.2345140  74.0093590
  34.3007900  70.6469120  72.5816600  20.9642950  81.9869060  72.9035570
  20.5797740  81.3462730  73.5018530  21.2755140  82.6905180  73.4730300
  27.1140090  78.8345600  68.3844190  27.4810220  78.3604170  69.1305530
  26.9245150  79.7087170  68.7252530  19.9780580  73.5789290  64.5137660
  19.6927500  73.2144960  65.3516280  19.9159440  72.8469750  63.9000800
  24.9039460  77.8754240  70.7028400  24.5996530  78.7546220  70.9278760
  25.8585920  77.9354030  70.7385840  23.4321250  82.0815230  61.2995250
  22.6583510  81.5412850  61.1393970  24.1615880  81.5621840  60.9613010
  34.1909230  81.0780590  67.0921640  34.9108350  81.5735880  66.7017750
  33.9891050  80.3998480  66.4475510  29.6519170  72.4718550  61.2351030
  28.8383780  71.9731720  61.1596340  29.4581120  73.3116800  60.8187380
  29.5728030  81.1489650  72.9790640  29.5065340  80.2285320  72.7248230
  28.9433170  81.2465090  73.6935280  32.3667560  76.8438200  59.5313190
  33.2547180  77.1555430  59.3564530  32.3372650  75.9710450  59.1393770
  23.4758650  81.7495610  64.9374060  23.9937320  80.9463870  64.8830950
  23.0242670  81.6874750  65.7790890  28.3628150  83.0161890  60.2101360
  28.7043850  83.7604120  59.7144680  27.5340860  83.3293010  60.5726190
  20.9603190  78.7156980  71.8499760  20.6018130  79.3810830  72.4373100
  20.6657750  77.8840530  72.2212380  24.1616310  79.1741220  74.7339310
  23.8616450  79.3198400  73.8367130  24.9327550  78.6146510  74.6412700
  29.5044760  83.9710220  72.7294440  29.5189300  83.0391180  72.5113350
  28.7969860  84.0569980  73.3684210  34.6381830  78.1550040  58.9993050
  34.5545550  78.5864260  58.1489490  35.3576020  78.6148390  59.4319870
  35.7155970  80.6117560  72.0763020  34.9904160  81.2046340  71.8792410
  36.2431430  80.6041100  71.2776390  35.6669080  85.0092300  61.7275180
  35.0245240  84.3547920  62.0018900  35.2799740  85.4147390  60.9515850
  31.2455560  82.3377730  65.5746870  31.5979380  81.7405860  64.9148240
  30.3617890  82.0121960  65.7455120  27.3318840  83.0975420  62.9817280
  28.0189970  83.6444630  63.3624870  26.5451260  83.6416150  63.0166890
  19.4711240  78.7148240  58.4734360  20.3406090  78.9973040  58.7570280
  18.9801560  79.5284110  58.3583170  26.6346050  80.1021450  62.5942640
  27.0908830  80.9126700  62.8202830  26.2834260  79.7844590  63.4261130
  28.9378660  85.6127790  69.8234940  29.5820880  85.8187170  70.5008360
  29.3008100  84.8516190  69.3705790  22.5357830  70.4459100  63.0665160
  22.4072460  70.4377000  64.0150080  21.7119850  70.7842190  62.7156170
  30.2110740  83.6160140  68.5412390  30.8532970  82.9153300  68.6544560
  30.7360090  84.3958580  68.3609280  34.0566460  83.9008760  58.2651530
  33.8304040  83.1839200  58.8576170  33.6662660  83.6521200  57.4273280
  31.9848360  84.4155040  71.7448450  32.3204600  85.0021730  72.4226370
  31.0648700  84.2847750  71.9746240  19.8382490  87.9275620  59.0395990
  20.1980130  88.5264960  58.3853260  19.6974830  88.4735510  59.8131020
  19.5351760  72.2050220  72.5271860  18.8210280  72.4047140  73.1324470
  19.9546800  71.4289790  72.8986660  33.6382710  81.8180700  59.9265690
  33.3504410  82.2793390  60.7143570  34.4334880  81.3578470  60.1949910
  19.8224350  86.1930480  73.5138390  19.9315470  85.2525220  73.3733780
  19.1704910  86.4585230  72.8652120  25.8551110  85.3106820  59.8569660
  25.8461210  86.0436510  59.2414170  24.9349470  85.0638400  59.9496620
  21.4557750  80.5321710  60.6016420  20.8485700  81.2720610  60.6111720
  21.9307100  80.6221070  59.7754620  31.0290540  74.6972530  70.2773310
  31.3971360  73.8767740  70.6052880  30.1688740  74.7574420  70.6928960
  34.3952570  73.6529470  61.0860870  33.7665730  73.7575140  60.3719100
  33.9004490  73.8726250  61.8754750  28.8410710  85.3735060  58.5194850
  28.9422690  85.1699050  57.5896830  27.9412450  85.1193340  58.7242630
  26.3636600  75.9315420  62.5018750  25.6552750  76.4001760  62.9432360
  26.6481080  75.2737430  63.1363940  27.9892530  77.3512120  70.5011280
  28.4877780  77.8257940  71.1663130  28.1315480  76.4275640  70.7081310
  30.3952030  72.6566080  63.9414540  30.2719810  72.6752210  62.9924050
  31.3436590  72.7045020  64.0612940  27.4828820  87.8921380  63.2142520
  27.7370320  87.8542770  62.2921890  26.5341300  87.7654710  63.2070770
  24.5671620  74.2400500  59.8769460  25.4162150  74.6770650  59.8109650
  24.2002890  74.5520760  60.7041520  35.1959390  73.5680080  71.3439670
  34.6932990  74.3085480  71.6833480  36.0116050  73.9564080  71.0276460
  33.4881400  78.8113260  64.7901030  32.5471540  78.8263490  64.9648720
  33.8025470  78.0249220  65.2361330  23.4663040  80.4932860  58.3504990
  24.2326310  80.3814220  58.9130420  23.5437730  79.7970830  57.6981760
  22.1609800  77.9257930  59.0337880  22.2413390  76.9785440  59.1455280
  23.0529550  78.2564810  59.1398540  35.4906980  85.9822110  66.4655290
  35.6154400  86.8053280  66.9379100  36.3572540  85.7712840  66.1179440
  22.9624510  88.0753320  66.1372420  23.6986990  87.5268780  66.4080990
  23.3465430  88.9409330  65.9978410  19.8469990  84.1426890  62.0113930
  18.9209770  84.3848030  62.0019340  20.3126420  84.9701150  61.8898680
  26.0726820  87.2483630  57.9597990  26.8655430  87.5372460  57.5079780
  25.5531170  86.8175800  57.2810470  32.2347790  87.0959550  73.8842820
  33.1869540  87.0117570  73.8343060  32.0876010  87.7601260  74.5576610
  35.1256990  86.4753760  59.3834730  34.8398500  86.0618900  58.5688910
  34.9276540  87.4041470  59.2635250  19.6880600  79.7472850  74.2694050
  20.1919620  79.1680130  74.8410280  18.9488020  80.0313080  74.8070420
  26.5904220  82.4687040  57.8240340  26.4854860  81.8539390  58.5501720
  26.4228440  81.9452930  57.0403350  26.7418540  81.1543840  73.8029570
  25.9764210  81.7228840  73.7184240  26.9234500  80.8620050  72.9097800
  29.8306950  81.5307070  58.4282330  29.2817050  81.9776370  59.0725070
  30.4526210  81.0256320  58.9520000  33.8841890  82.8849170  74.3604590
  34.6251360  83.2224930  73.8572050  33.1214570  83.0541230  73.8074360
  25.4982070  80.4897990  60.3247630  25.9198490  80.3237860  61.1679020
  25.6232910  79.6798220  59.8302770  23.6609490  76.4694540  73.1318610
  23.1305950  75.9785490  72.5041950  24.3297560  76.8978740  72.5976540
  28.0109710  79.5135600  57.5724730  28.5315370  78.7984620  57.2065880
  28.6578110  80.1521470  57.8725240  32.5587550  80.9364000  72.8959800
  32.9728570  81.0909080  73.7450220  31.6238550  81.0619220  73.0585580
  33.0309720  78.2760160  74.8998950  33.6130490  77.5212480  74.8119430
  33.2071490  78.8067600  74.1230430  24.1481790  73.4356910  73.2115900
  24.0538660  72.8177660  72.4866770  23.5679180  74.1623200  72.9845810
  26.9143230  71.9930150  70.2443290  26.4660530  72.0154410  69.3988840
  26.2808430  71.5949170  70.8413590  27.3202780  80.8884480  70.8655730
  27.7390890  81.7317210  70.6931970  26.4011410  81.0256520  70.6362510
  29.6566680  78.6200660  72.2493570  29.7762890  78.0241800  72.9888410
  30.5160680  78.6570350  71.8294870  31.9954580  79.1737850  70.8256080
  31.4689800  79.6980470  70.2221220  32.3385920  79.8065240  71.4565810
  24.3940970  76.5631220  57.2705790  24.1930030  75.6998580  57.6319130
  24.2233020  76.4764580  56.3327390  25.1710200  87.1937490  71.9813460
  24.6331290  87.9183550  71.6622160  25.4244160  86.7167830  71.1910800
  26.4235450  75.1622010  73.5069390  27.0135140  74.8537860  74.1947210
  25.6055690  74.6901760  73.6629290  31.2428880  74.7787820  73.7402410
  30.5544400  74.1169360  73.6752400  31.9634900  74.3326090  74.1850870
  31.8729280  71.3739450  59.7992670  32.1531570  70.5307350  60.1552090
  31.0995010  71.6062560  60.3131420  23.1923770  73.6631840  57.2583670
  23.4949670  73.6699270  56.3502820  23.9318360  73.3129700  57.7551330
  28.0272410  88.4288700  72.2400110  27.9531110  89.3323840  72.5472480
  27.1251250  88.1100600  72.2122180  26.4108700  72.6066460  58.2439870
  26.0630700  71.9290450  57.6642320  26.6121470  72.1455970  59.0583260
  28.5757740  87.5947210  59.8626470  29.4708530  87.9332180  59.8845230
  28.6075370  86.8726620  59.2350750  22.2153900  82.9674260  58.0913470
  22.6528770  83.5103930  58.7471050  22.7001630  82.1421210  58.1009810
  19.4299700  85.7563290  65.5433730  19.7602710  84.8884350  65.3112370
  19.8590700  85.9621810  66.3738690  24.0261620  84.0872300  63.2035700
  23.7257160  83.9637270  64.1039610  23.9199110  83.2280890  62.7951430
  19.9189910  86.6233880  68.2815360  19.4820900  86.8034680  69.1139510
  20.4867590  87.3808500  68.1397080  35.5552090  86.1250880  72.5692670
  34.9554080  86.1843440  71.8256590  35.6845990  85.1855860  72.6989520
  36.7953540  83.8668700  57.9062380  35.9646500  83.9345350  58.3769610
  36.9725370  84.7572820  57.6029240  36.2510000  80.6116180  60.4096580
  37.0128910  81.1812830  60.5156270  36.2664370  80.0443380  61.1804890
  19.7514340  79.1354110  64.6404240  19.0963180  78.8665750  63.9963940
  20.5892290  79.0258590  64.1906220  37.2569970  81.4666280  65.2538510
  37.6278800  80.6833600  64.8474480  37.8971900  82.1555380  65.0755810
  34.2403730  82.8502860  70.6668830  33.4263570  83.2800020  70.9294620
  34.6477930  83.4621270  70.0537880  36.3029170  80.9050550  57.5669100
  36.5778010  81.8129430  57.4388320  36.1139910  80.8413080  58.5031090
  32.7004780  73.9295400  58.8622730  33.1189660  73.7426380  58.0219390
  32.3940840  73.0774450  59.1725660  36.1994510  78.8419540  62.5598530
  35.8238110  78.0747470  62.1279820  35.4697630  79.2242240  63.0473460
  20.7890270  79.5206680  69.1807580  21.1563310  79.4334080  70.0603600
  20.2201090  78.7573230  69.0814440  35.5894130  77.9891060  72.1938050
  35.3580220  77.7603810  71.2936000  35.8498680  78.9090610  72.1482940
  20.3406270  76.4315770  73.0866000  19.4462320  76.3982530  73.4259710
  20.8803820  76.6302560  73.8517250  18.9652420  76.3453040  60.5829570
  18.0616500  76.6083240  60.4081230  19.4493040  76.6164210  59.8029530
  35.4745470  77.0677030  65.8605770  35.9982950  76.5739680  65.2295940
  36.0604890  77.2027390  66.6053340  35.6535190  77.1516900  69.3825320
  34.7037900  77.1180440  69.4970310  35.8348200  78.0617010  69.1475090
  21.5079630  75.4018580  58.4923950  22.2171330  74.9801800  58.0071230
  20.7919570  75.4693810  57.8607300  21.1553790  71.4557910  57.5326600
  21.8781920  71.9966850  57.8507820  21.4278310  71.1821330  56.6568140
  34.9645440  76.3250380  61.7998180  35.4604560  76.0921250  62.5847060
  34.7661510  75.4862220  61.3835820  20.8445980  70.7064100  67.4349220
  21.4922170  70.1561480  66.9944380  21.2647820  70.9607250  68.2565030
  36.3932600  74.9611330  64.3335860  36.2831880  74.8067370  65.2718130
  37.1540190  74.4332270  64.0911270  34.7398320  70.9005460  70.7918860
  35.3770540  71.5139600  71.1578050  34.8873210  70.9366120  69.8468090
  37.2822870  72.7919250  57.5742000  38.2072180  72.6600430  57.3660290
  37.2598660  72.8712070  58.5278450  37.3561360  73.5629910  60.1998710
  36.5612860  73.4975030  60.7291620  37.5604640  74.4980550  60.1884060
  34.2979780  87.6021460  64.1937100  34.8938850  87.2806030  63.5171520
  34.5557930  87.1293280  64.9850370  20.5977980  70.8619770  70.1774540
  20.2492800  71.3183590  70.9432720  20.2665680  69.9676900  70.2596970
  25.9048380  85.5898960  69.9437450  25.6639740  85.8573520  69.0567970
  26.8451020  85.7604690  69.9988310  28.1102800  72.0531650  73.6993960
  28.0491690  72.6453480  74.4489370  29.0503180  71.9457610  73.5544220
  30.7477360  71.7101710  73.3386250  31.3617770  72.0281000  72.6767330
  31.2926920  71.2250300  73.9582110  37.1652540  87.6093340  70.7448090
  36.6710820  88.0062210  70.0275220  36.5565830  86.9842550  71.1385370
  21.2698620  70.3895970  73.4525310  21.8181610  70.2084020  72.6891420
  21.3353930  69.5990080  73.9881620  22.0430380  86.9801620  71.4625510
  21.4490700  86.8486320  72.2015550  22.0354220  86.1439760  70.9967610
  31.4885400  70.2733850  69.6655540  30.6145240  70.6068960  69.4628470
  31.3796150  69.8007030  70.4907410  32.3957380  72.4804720  71.0497260
  32.0670740  71.6656480  70.6698990  33.3439680  72.4374530  70.9262950
  34.8491990  88.2516760  68.0234830  34.3894960  89.0032570  67.6492850
  34.2204450  87.5323230  67.9649630  21.6742610  84.3460000  70.4133550
  20.9476670  83.7265290  70.3459500  21.7351760  84.7400610  69.5431630
  25.2787710  86.5605000  67.1982960  25.7952730  85.9492360  66.6731220
  25.9285090  87.0633780  67.6893970  28.0183210  87.4513490  68.0251940
  28.3061020  87.1967790  67.1484950  28.5306430  86.8990850  68.6157510
  29.2360220  71.1903690  68.6048450  28.4532010  71.6649190  68.8845210
  28.9423150  70.2858520  68.4961630  33.7881290  71.8926790  66.6497540
  34.2289380  71.8371890  65.8019140  33.5188880  72.8084800  66.7207720
  35.6519860  71.5242030  64.6606360  35.5908260  70.5803250  64.5137380
  36.4311890  71.6322120  65.2059820  19.9572610  87.6634390  63.6230310
  19.7894650  87.0305070  64.3212200  19.0907120  87.8693790  63.2724500
  20.5800630  71.4951170  61.1262170  21.3379990  71.6080050  60.5526200
  20.1177800  72.3320370  61.0805600  27.1214440  73.6090440  64.1164480
  26.3088950  73.2347330  63.7760360  27.6256080  72.8535520  64.4185670
  31.6239420  70.2732890  65.3547550  32.2268790  70.8453100  65.8296070
  30.8832410  70.8372330  65.1321450  34.7674020  70.6754450  60.6287830
  34.9624650  71.5737900  60.8955260  33.9803890  70.4441530  61.1220780
  21.5635310  86.3567620  61.0680450  21.0382930  86.7375650  60.3642410
  21.4879890  86.9818390  61.7890160  22.9525780  72.0215220  59.6664140
  23.4818540  71.2345020  59.5372090  23.5854100  72.7006410  59.8999670
  25.1463620  71.7590360  62.7209530  24.5166360  71.0577670  62.8879660
  24.6068760  72.5194490  62.5042690  36.3200630  87.9155160  62.3894390
  36.4952820  87.2292900  61.7455310  35.6222200  88.4402210  61.9971060
  24.1628280  88.3050000  59.9429700  24.8947100  88.0209280  59.3953590
  24.4221950  88.0663280  60.8329080  23.3243070  84.4214730  59.9476030
  22.6951950  84.8899830  60.4961860  23.4390900  83.5763950  60.3822220
  28.9110830  80.2499410  47.9786500  28.1352930  79.7699850  48.2685070
  29.5623760  79.5705060  47.8042660  22.9276660  80.5619220  48.8562260
  22.0961540  80.3067930  49.2558770  23.5357640  80.6329990  49.5920180
  32.9318260  84.6559600  46.7585630  32.4699790  83.8846840  47.0872800
  33.7443810  84.6825670  47.2638080  22.9077920  84.5959310  49.0520280
  23.2105960  83.7057050  48.8730500  23.6521510  85.1529530  48.8242530
  21.3368610  75.5221110  42.6404650  20.4485310  75.8637080  42.5384530
  21.6209800  75.3221430  41.7485480  19.3001620  78.1226760  48.5244350
  19.8717730  77.3548960  48.5247990  19.3003160  78.4215520  47.6150960
  29.1581570  86.9417610  46.3789620  28.5393010  87.3975110  45.8084060
  30.0133350  87.0969070  45.9779320  28.3519820  82.9256600  47.9856660
  28.2828100  81.9846540  47.8245790  29.1139680  83.0158010  48.5579230
  20.5426490  73.5311120  50.3113280  20.3629330  72.6336870  50.5916040
  20.1406570  74.0782990  50.9860230  21.1613160  76.0271620  48.9195620
  21.8423270  76.2909990  49.5383020  20.8461210  75.1872490  49.2533630
  25.3537730  77.0738980  48.0068210  25.8615950  77.5719950  48.6473230
  25.8850970  76.2974180  47.8307570  37.4548660  75.2444170  51.7097560
  36.7500830  75.6325880  51.1912670  37.7206580  75.9394460  52.3118490
  23.6373830  71.7137540  52.2731630  23.6392270  72.2309930  51.4677530
  22.8078140  71.2367720  52.2501560  24.8876680  81.3532720  50.4505130
  24.5546060  81.9801640  51.0926200  25.0643360  81.8794600  49.6706800
  23.3189160  73.4247500  50.2802080  23.6605970  74.2689550  49.9855950
  22.3804970  73.5731240  50.3967420  24.0995780  83.3213520  52.2654310
  24.7169780  83.9964600  51.9838760  23.2388900  83.7301500  52.1741810
  19.3928120  82.5113380  41.1461160  19.0156100  83.0000480  40.4146060
  19.6501190  83.1838660  41.7767690  35.0173370  84.7852930  50.1808950
  34.3336890  85.4552040  50.1725620  35.5567660  84.9833580  49.4153810
  27.0017050  70.9129770  46.6046670  27.3092030  70.3576660  45.8882170
  26.0717750  71.0474230  46.4219660  32.5532110  86.6297060  48.8954130
  32.5659270  86.2259350  48.0276390  32.0007330  87.4044350  48.7915560
  31.9517550  81.5326900  50.2236740  32.3686340  81.3187010  49.3890200
  32.6757370  81.7899690  50.7945360  35.8979650  79.9314120  50.3152980
  35.0698280  80.0007210  49.8403110  36.4930130  80.5168430  49.8468810
  32.8621660  76.7183440  51.2607850  32.4492840  77.5437150  51.5147840
  32.1297610  76.1328480  51.0684210  24.9954450  79.5043340  46.1226520
  24.5911450  78.7920590  45.6272420  25.0817570  79.1596580  47.0114560
  25.4636150  83.1910900  48.2865730  25.1664440  82.5856370  47.6073510
  26.4135970  83.2288210  48.1755090  23.7083070  76.2786550  49.9025560
  24.2597660  76.3881890  49.1278810  24.2226580  76.6524150  50.6180790
  33.5521760  86.7642770  51.9488830  33.0752320  87.5714960  51.7561440
  32.8683550  86.1121100  52.1015040  24.5554580  82.9292590  54.9373530
  23.6583110  83.1532560  55.1846930  24.5807450  83.0527530  53.9884930
  23.3825800  79.8005910  53.5130900  23.2433570  80.6728710  53.8818300
  22.5007160  79.4578720  53.3678840  25.1806150  85.7427610  55.7216050
  25.1521580  86.1470560  54.8544480  25.0171120  84.8137970  55.5587650
  21.6959080  78.3988320  43.6233170  21.5756680  79.1250410  43.0114440
  21.3859970  77.6291230  43.1461080  37.1320970  86.5254710  57.0180220
  37.6080690  87.0037600  57.6969300  37.7528130  86.4572200  56.2925720
  19.3344450  81.5703460  49.4301810  19.4124870  81.7052230  48.4857530
  19.9486130  80.8619350  49.6229930  20.5792080  83.2703650  45.8407990
  20.1720160  83.4118240  44.9861590  21.4705090  82.9863810  45.6379200
  36.5354220  83.7167560  54.1780230  36.6617280  83.4779440  53.2597410
  36.5775600  82.8852100  54.6502310  30.3970960  87.4195560  52.7475040
  30.9115630  87.3303570  53.5497470  29.5540040  87.7655260  53.0402950
  32.3725360  87.7050900  42.1759040  32.2126500  87.4153840  43.0740870
  32.2072070  86.9291030  41.6404270  24.8513740  87.4849430  43.9530660
  24.6756220  86.5684970  43.7398460  23.9969480  87.8436720  44.1928460
  31.6401420  86.8401170  44.8105530  32.0958370  86.0590550  45.1244150
  31.9793940  87.5507990  45.3546710  36.3878230  75.7700020  55.1429970
  35.7722500  76.2779690  54.6145430  36.0674650  74.8698350  55.0855910
  19.3903970  82.6117630  51.9696270  19.5535010  82.1422990  51.1515640
  19.8556420  82.1041190  52.6345110  24.1622740  71.7423390  47.0056840
  23.7190890  72.5232930  46.6741360  24.7207730  72.0653280  47.7127780
  28.4492550  74.6091910  52.6092160  27.9871920  74.8174930  53.4212100
  28.0470660  73.7951260  52.3062830  33.4497060  75.8300860  53.7388820
  32.5990650  75.5306610  54.0597890  33.2898850  76.0742870  52.8272640
  30.5446770  77.3302610  55.8387610  30.8700180  76.4966360  55.4989840
  31.3327100  77.8531130  55.9865940  26.1998640  72.2870720  48.8646440
  26.4970970  73.1933550  48.7838460  26.7484200  71.7989500  48.2506010
  23.9536960  76.8656960  44.7338090  23.7277880  76.6494130  45.6384710
  23.1729490  77.2985420  44.3884060  26.3936170  77.7642540  55.3998360
  26.2979770  76.8237270  55.2498760  27.2368150  77.9857610  55.0046430
  21.5246710  74.1756210  53.5532140  21.1310100  75.0231420  53.7604920
  20.8365110  73.5382580  53.7440780  28.0991760  74.2591180  56.6228880
  27.4090080  74.0663380  57.2574970  28.8424060  74.5425820  57.1553180
  18.8263760  72.0984670  47.5862220  18.5376810  72.6687530  48.2987200
  19.5709520  71.6189120  47.9493450  19.0133990  76.0404790  38.7964940
  18.9308660  76.9835550  38.9379930  18.6617050  75.8979700  37.9177290
  30.3754730  78.0989620  49.4582800  29.6435850  78.6076430  49.8072900
  29.9779070  77.2819600  49.1571580  26.8132120  74.7743820  47.8635290
  26.8168180  74.3333770  47.0139830  27.7083240  75.0961150  47.9707110
  22.6634500  74.6570310  46.8229500  22.3234550  75.1345540  47.5796550
  21.9011820  74.2035430  46.4630600  34.2651390  70.9655480  54.7092120
  34.5897160  70.2345140  55.2350100  34.3007900  70.6469120  53.8073110
  20.9642950  81.9869060  54.1292080  20.5797740  81.3462730  54.7275040
  21.2755140  82.6905180  54.6986810  27.1140090  78.8345600  49.6100700
  27.4810220  78.3604170  50.3562040  26.9245150  79.7087170  49.9509040
  19.9780580  73.5789290  45.7394170  19.6927500  73.2144960  46.5772790
  19.9159440  72.8469750  45.1257310  24.9039460  77.8754240  51.9284910
  24.5996530  78.7546220  52.1535270  25.8585920  77.9354030  51.9642350
  23.4321250  82.0815230  42.5251760  22.6583510  81.5412850  42.3650480
  24.1615880  81.5621840  42.1869520  34.1909230  81.0780590  48.3178150
  34.9108350  81.5735880  47.9274260  33.9891050  80.3998480  47.6732020
  29.5728030  81.1489650  54.2047150  29.5065340  80.2285320  53.9504740
  28.9433170  81.2465090  54.9191790  23.4758650  81.7495610  46.1630570
  23.9937320  80.9463870  46.1087460  23.0242670  81.6874750  47.0047400
  20.9603190  78.7156980  53.0756270  20.6018130  79.3810830  53.6629610
  20.6657750  77.8840530  53.4468890  24.1616310  79.1741220  55.9595820
  23.8616450  79.3198400  55.0623640  24.9327550  78.6146510  55.8669210
  29.5044760  83.9710220  53.9550950  29.5189300  83.0391180  53.7369860
  28.7969860  84.0569980  54.5940720  35.7155970  80.6117560  53.3019530
  34.9904160  81.2046340  53.1048920  36.2431430  80.6041100  52.5032900
  35.6669080  85.0092300  42.9531690  35.0245240  84.3547920  43.2275410
  35.2799740  85.4147390  42.1772360  31.2455560  82.3377730  46.8003380
  31.5979380  81.7405860  46.1404750  30.3617890  82.0121960  46.9711630
  27.3318840  83.0975420  44.2073790  28.0189970  83.6444630  44.5881380
  26.5451260  83.6416150  44.2423400  19.4711240  78.7148240  39.6990870
  20.3406090  78.9973040  39.9826790  18.9801560  79.5284110  39.5839680
  28.9378660  85.6127790  51.0491450  29.5820880  85.8187170  51.7264870
  29.3008100  84.8516190  50.5962300  30.2110740  83.6160140  49.7668900
  30.8532970  82.9153300  49.8801070  30.7360090  84.3958580  49.5865790
  31.9848360  84.4155040  52.9704960  32.3204600  85.0021730  53.6482880
  31.0648700  84.2847750  53.2002750  19.8382490  87.9275620  40.2652500
  20.1980130  88.5264960  39.6109770  19.6974830  88.4735510  41.0387530
  19.5351760  72.2050220  53.7528370  18.8210280  72.4047140  54.3580980
  19.9546800  71.4289790  54.1243170  19.8224350  86.1930480  54.7394900
  19.9315470  85.2525220  54.5990290  19.1704910  86.4585230  54.0908630
  27.8136940  84.4646370  56.1393020  27.4933810  83.7455610  56.6838710
  27.1395300  85.1401440  56.2129080  21.4557750  80.5321710  41.8272930
  20.8485700  81.2720610  41.8368230  21.9307100  80.6221070  41.0011130
  31.0290540  74.6972530  51.5029820  31.3971360  73.8767740  51.8309390
  30.1688740  74.7574420  51.9185470  26.3636600  75.9315420  43.7275260
  25.6552750  76.4001760  44.1688870  26.6481080  75.2737430  44.3620450
  27.9892530  77.3512120  51.7267790  28.4877780  77.8257940  52.3919640
  28.1315480  76.4275640  51.9337820  27.4828820  87.8921380  44.4399030
  27.7370320  87.8542770  43.5178400  26.5341300  87.7654710  44.4327280
  35.1959390  73.5680080  52.5696180  34.6932990  74.3085480  52.9089990
  36.0116050  73.9564080  52.2532970  23.4663040  80.4932860  39.5761500
  24.2326310  80.3814220  40.1386930  23.5437730  79.7970830  38.9238270
  22.1609800  77.9257930  40.2594390  22.2413390  76.9785440  40.3711790
  23.0529550  78.2564810  40.3655050  35.4906980  85.9822110  47.6911800
  35.6154400  86.8053280  48.1635610  36.3572540  85.7712840  47.3435950
  22.9624510  88.0753320  47.3628930  23.6986990  87.5268780  47.6337500
  23.3465430  88.9409330  47.2234920  19.8469990  84.1426890  43.2370440
  18.9209770  84.3848030  43.2275850  20.3126420  84.9701150  43.1155190
  21.9682790  87.2599390  56.5514510  22.7695520  87.5811440  56.9649910
  21.4534610  86.8994970  57.2734420  26.0726820  87.2483630  39.1854500
  26.8655430  87.5372460  38.7336290  25.5531170  86.8175800  38.5066980
  30.8047420  83.3679260  56.4989920  30.1985580  83.3910860  55.7585670
  30.5001530  82.6362300  57.0357170  32.2347790  87.0959550  55.1099330
  33.1869540  87.0117570  55.0599570  32.0876010  87.7601260  55.7833120
  35.1256990  86.4753760  40.6091240  34.8398500  86.0618900  39.7945420
  34.9276540  87.4041470  40.4891760  19.6880600  79.7472850  55.4950560
  20.1919620  79.1680130  56.0666790  18.9488020  80.0313080  56.0326930
  26.7418540  81.1543840  55.0286080  25.9764210  81.7228840  54.9440750
  26.9234500  80.8620050  54.1354310  33.8841890  82.8849170  55.5861100
  34.6251360  83.2224930  55.0828560  33.1214570  83.0541230  55.0330870
  21.7203680  77.8902440  56.3900630  21.7609020  77.5916310  57.2985860
  22.5749180  78.2910050  56.2308150  23.6609490  76.4694540  54.3575120
  23.1305950  75.9785490  53.7298460  24.3297560  76.8978740  53.8233050
  32.5587550  80.9364000  54.1216310  32.9728570  81.0909080  54.9706730
  31.6238550  81.0619220  54.2842090  33.0309720  78.2760160  56.1255460
  33.6130490  77.5212480  56.0375940  33.2071490  78.8067600  55.3486940
  24.1481790  73.4356910  54.4372410  24.0538660  72.8177660  53.7123280
  23.5679180  74.1623200  54.2102320  26.9143230  71.9930150  51.4699800
  26.4660530  72.0154410  50.6245350  26.2808430  71.5949170  52.0670100
  27.3202780  80.8884480  52.0912240  27.7390890  81.7317210  51.9188480
  26.4011410  81.0256520  51.8619020  29.6566680  78.6200660  53.4750080
  29.7762890  78.0241800  54.2144920  30.5160680  78.6570350  53.0551380
  31.9954580  79.1737850  52.0512590  31.4689800  79.6980470  51.4477730
  32.3385920  79.8065240  52.6822320  25.1710200  87.1937490  53.2069970
  24.6331290  87.9183550  52.8878670  25.4244160  86.7167830  52.4167310
  26.4235450  75.1622010  54.7325900  27.0135140  74.8537860  55.4203720
  25.6055690  74.6901760  54.8885800  31.2428880  74.7787820  54.9658920
  30.5544400  74.1169360  54.9008910  31.9634900  74.3326090  55.4107380
  28.0272410  88.4288700  53.4656620  27.9531110  89.3323840  53.7728990
  27.1251250  88.1100600  53.4378690  22.2153900  82.9674260  39.3169980
  22.6528770  83.5103930  39.9727560  22.7001630  82.1421210  39.3266320
  19.4299700  85.7563290  46.7690240  19.7602710  84.8884350  46.5368880
  19.8590700  85.9621810  47.5995200  24.0261620  84.0872300  44.4292210
  23.7257160  83.9637270  45.3296120  23.9199110  83.2280890  44.0207940
  19.9189910  86.6233880  49.5071870  19.4820900  86.8034680  50.3396020
  20.4867590  87.3808500  49.3653590  35.5552090  86.1250880  53.7949180
  34.9554080  86.1843440  53.0513100  35.6845990  85.1855860  53.9246030
  36.7953540  83.8668700  39.1318890  35.9646500  83.9345350  39.6026120
  36.9725370  84.7572820  38.8285750  19.7514340  79.1354110  45.8660750
  19.0963180  78.8665750  45.2220450  20.5892290  79.0258590  45.4162730
  37.2569970  81.4666280  46.4795020  37.6278800  80.6833600  46.0730990
  37.8971900  82.1555380  46.3012320  34.2403730  82.8502860  51.8925340
  33.4263570  83.2800020  52.1551130  34.6477930  83.4621270  51.2794390
  20.7890270  79.5206680  50.4064090  21.1563310  79.4334080  51.2860110
  20.2201090  78.7573230  50.3070950  35.5894130  77.9891060  53.4194560
  35.3580220  77.7603810  52.5192510  35.8498680  78.9090610  53.3739450
  20.3406270  76.4315770  54.3122510  19.4462320  76.3982530  54.6516220
  20.8803820  76.6302560  55.0773760  34.0282200  73.2147490  56.1974260
  34.9052380  73.2230890  56.5808260  34.0403040  72.4778330  55.5866610
  18.9652420  76.3453040  41.8086080  18.0616500  76.6083240  41.6337740
  19.4493040  76.6164210  41.0286040  35.6535190  77.1516900  50.6081830
  34.7037900  77.1180440  50.7226820  35.8348200  78.0617010  50.3731600
  20.8445980  70.7064100  48.6605730  21.4922170  70.1561480  48.2200890
  21.2647820  70.9607250  49.4821540  34.7398320  70.9005460  52.0175370
  35.3770540  71.5139600  52.3834560  34.8873210  70.9366120  51.0724600
  37.3561360  73.5629910  41.4255220  36.5612860  73.4975030  41.9548130
  37.5604640  74.4980550  41.4140570  34.2979780  87.6021460  45.4193610
  34.8938850  87.2806030  44.7428030  34.5557930  87.1293280  46.2106880
  20.5977980  70.8619770  51.4031050  20.2492800  71.3183590  52.1689230
  20.2665680  69.9676900  51.4853480  22.2042350  84.0339370  55.5684240
  22.1611980  83.6632280  56.4498700  22.3353360  84.9716940  55.7086060
  25.9048380  85.5898960  51.1693960  25.6639740  85.8573520  50.2824480
  26.8451020  85.7604690  51.2244820  28.1102800  72.0531650  54.9250470
  28.0491690  72.6453480  55.6745880  29.0503180  71.9457610  54.7800730
  30.7477360  71.7101710  54.5642760  31.3617770  72.0281000  53.9023840
  31.2926920  71.2250300  55.1838620  37.1652540  87.6093340  51.9704600
  36.6710820  88.0062210  51.2531730  36.5565830  86.9842550  52.3641880
  21.2698620  70.3895970  54.6781820  21.8181610  70.2084020  53.9147930
  21.3353930  69.5990080  55.2138130  22.0430380  86.9801620  52.6882020
  21.4490700  86.8486320  53.4272060  22.0354220  86.1439760  52.2224120
  31.4885400  70.2733850  50.8912050  30.6145240  70.6068960  50.6884980
  31.3796150  69.8007030  51.7163920  32.3957380  72.4804720  52.2753770
  32.0670740  71.6656480  51.8955500  33.3439680  72.4374530  52.1519460
  34.8491990  88.2516760  49.2491340  34.3894960  89.0032570  48.8749360
  34.2204450  87.5323230  49.1906140  21.6742610  84.3460000  51.6390060
  20.9476670  83.7265290  51.5716010  21.7351760  84.7400610  50.7688140
  25.2787710  86.5605000  48.4239470  25.7952730  85.9492360  47.8987730
  25.9285090  87.0633780  48.9150480  28.0183210  87.4513490  49.2508450
  28.3061020  87.1967790  48.3741460  28.5306430  86.8990850  49.8414020
  29.2360220  71.1903690  49.8304960  28.4532010  71.6649190  50.1101720
  28.9423150  70.2858520  49.7218140  19.9572610  87.6634390  44.8486820
  19.7894650  87.0305070  45.5468710  19.0907120  87.8693790  44.4981010
  21.5635310  86.3567620  42.2936960  21.0382930  86.7375650  41.5898920
  21.4879890  86.9818390  43.0146670  28.0855570  88.3729590  56.6176650
  29.0122880  88.1373860  56.6612610  28.0706000  89.2001590  56.1362680
  36.3200630  87.9155160  43.6150900  36.4952820  87.2292900  42.9711820
  35.6222200  88.4402210  43.2227570  25.2719180  71.0374340  56.3818530
  24.9903450  71.5407940  55.6179350  25.6538880  70.2396090  56.0160660
  24.1628280  88.3050000  41.1686210  24.8947100  88.0209280  40.6210100
  24.4221950  88.0663280  42.0585590  23.3243070  84.4214730  41.1732540
  22.6951950  84.8899830  41.7218370  23.4390900  83.5763950  41.6078730
  31.8734640  70.4527920  56.9599000  31.7600090  70.7722530  57.8550520
  32.6904380  70.8540430  56.6636280  34.6533130  87.5999450  56.4417690
  35.4458450  87.1048680  56.2343650  34.9466280  88.2789590  57.0493300
  30.7792790  78.4720390  27.3233740  30.6986840  77.5575000  27.0525450
  30.3657210  78.9687460  26.6173450  32.9318260  84.6559600  27.9842140
  32.4699790  83.8846840  28.3129310  33.7443810  84.6825670  28.4894590
  21.3368610  75.5221110  23.8661160  20.4485310  75.8637080  23.7641040
  21.6209800  75.3221430  22.9741990  23.5130000  74.1052610  24.8999540
  23.6196750  75.0056340  25.2068300  22.6022360  74.0570580  24.6094190
  30.0244920  81.8256850  24.9978040  29.4062190  82.2906300  24.4340760
  30.5368170  82.5184330  25.4147550  35.0173370  84.7852930  31.4065460
  34.3336890  85.4552040  31.3982130  35.5567660  84.9833580  30.6410320
  32.5532110  86.6297060  30.1210640  32.5659270  86.2259350  29.2532900
  32.0007330  87.4044350  30.0172070  33.8477530  83.3513280  25.2100810
  33.7373860  82.4087610  25.3350230  33.8445780  83.7128920  26.0963570
  29.3897810  78.9778600  24.5663300  28.4627090  78.9115980  24.7951770
  29.5422630  79.9158730  24.4518540  29.3766890  75.2495600  21.5630460
  28.4370560  75.4109560  21.6482920  29.6950150  75.9681280  21.0166450
  33.4195100  80.5398900  25.0698550  32.8007520  80.2018450  24.4224850
  33.4019550  79.8958660  25.7777740  33.5521760  86.7642770  33.1745340
  33.0752320  87.5714960  32.9817950  32.8683550  86.1121100  33.3271550
  31.5959800  79.7785710  22.0771300  32.0353080  78.9408140  21.9309120
  32.3088220  80.4115110  22.1635440  29.7055180  84.7181780  26.0452540
  30.1451090  85.4606110  25.6307930  29.6442070  84.9608350  26.9691500
  37.1320970  86.5254710  38.2436730  37.6080690  87.0037600  38.9225810
  37.7528130  86.4572200  37.5182230  30.3970960  87.4195560  33.9731550
  30.9115630  87.3303570  34.7753980  29.5540040  87.7655260  34.2659460
  32.3725360  87.7050900  23.4015550  32.2126500  87.4153840  24.2997380
  32.2072070  86.9291030  22.8660780  24.8513740  87.4849430  25.1787170
  24.6756220  86.5684970  24.9654970  23.9969480  87.8436720  25.4184970
  32.0751490  85.2138460  21.9613550  31.3816650  85.2115750  21.3015830
  32.8174350  84.7897780  21.5307720  31.6401420  86.8401170  26.0362040
  32.0958370  86.0590550  26.3500660  31.9793940  87.5507990  26.5803220
  23.9536960  76.8656960  25.9594600  23.7277880  76.6494130  26.8641220
  23.1729490  77.2985420  25.6140570  31.1834720  76.8720330  24.5585250
  30.5843610  77.5956130  24.3748870  31.7314330  76.8097110  23.7761700
  18.8263760  72.0984670  28.8118730  18.5376810  72.6687530  29.5243710
  19.5709520  71.6189120  29.1749960  19.0133990  76.0404790  20.0221450
  18.9308660  76.9835550  20.1636440  18.6617050  75.8979700  19.1433800
  22.6634500  74.6570310  28.0486010  22.3234550  75.1345540  28.8053060
  21.9011820  74.2035430  27.6887110  26.8752270  75.7755900  22.0798560
  26.9965090  75.7342380  23.0284380  26.4900780  76.6380050  21.9245290
  25.8873770  78.0857040  21.4781860  25.3190670  77.6375290  20.8517770
  26.5962770  78.4449820  20.9447010  19.9780580  73.5789290  26.9650680
  19.6927500  73.2144960  27.8029300  19.9159440  72.8469750  26.3513820
  32.3667560  76.8438200  21.9826210  33.2547180  77.1555430  21.8077550
  32.3372650  75.9710450  21.5906790  28.3628150  83.0161890  22.6614380
  28.7043850  83.7604120  22.1657700  27.5340860  83.3293010  23.0239210
  34.6381830  78.1550040  21.4506070  34.5545550  78.5864260  20.6002510
  35.3576020  78.6148390  21.8832890  35.6669080  85.0092300  24.1788200
  35.0245240  84.3547920  24.4531920  35.2799740  85.4147390  23.4028870
  31.2455560  82.3377730  28.0259890  31.5979380  81.7405860  27.3661260
  30.3617890  82.0121960  28.1968140  27.3318840  83.0975420  25.4330300
  28.0189970  83.6444630  25.8137890  26.5451260  83.6416150  25.4679910
  19.4711240  78.7148240  20.9247380  20.3406090  78.9973040  21.2083300
  18.9801560  79.5284110  20.8096190  34.0566460  83.9008760  20.7164550
  33.8304040  83.1839200  21.3089190  33.6662660  83.6521200  19.8786300
  19.8382490  87.9275620  21.4909010  20.1980130  88.5264960  20.8366280
  19.6974830  88.4735510  22.2644040  33.6382710  81.8180700  22.3778710
  33.3504410  82.2793390  23.1656590  34.4334880  81.3578470  22.6462930
  19.8224350  86.1930480  35.9651410  19.9315470  85.2525220  35.8246800
  19.1704910  86.4585230  35.3165140  25.8551110  85.3106820  22.3082680
  25.8461210  86.0436510  21.6927190  24.9349470  85.0638400  22.4009640
  28.8410710  85.3735060  20.9707870  28.9422690  85.1699050  20.0409850
  27.9412450  85.1193340  21.1755650  26.3636600  75.9315420  24.9531770
  25.6552750  76.4001760  25.3945380  26.6481080  75.2737430  25.5876960
  27.4828820  87.8921380  25.6655540  27.7370320  87.8542770  24.7434910
  26.5341300  87.7654710  25.6583790  24.5671620  74.2400500  22.3282480
  25.4162150  74.6770650  22.2622670  24.2002890  74.5520760  23.1554540
  23.4663040  80.4932860  20.8018010  24.2326310  80.3814220  21.3643440
  23.5437730  79.7970830  20.1494780  22.1609800  77.9257930  21.4850900
  22.2413390  76.9785440  21.5968300  23.0529550  78.2564810  21.5911560
  35.4906980  85.9822110  28.9168310  35.6154400  86.8053280  29.3892120
  36.3572540  85.7712840  28.5692460  21.9682790  87.2599390  37.7771020
  22.7695520  87.5811440  38.1906420  21.4534610  86.8994970  38.4990930
  26.0726820  87.2483630  20.4111010  26.8655430  87.5372460  19.9592800
  25.5531170  86.8175800  19.7323490  35.1256990  86.4753760  21.8347750
  34.8398500  86.0618900  21.0201930  34.9276540  87.4041470  21.7148270
  26.5904220  82.4687040  20.2753360  26.4854860  81.8539390  21.0014740
  26.4228440  81.9452930  19.4916370  29.8306950  81.5307070  20.8795350
  29.2817050  81.9776370  21.5238090  30.4526210  81.0256320  21.4033020
  25.4982070  80.4897990  22.7760650  25.9198490  80.3237860  23.6192040
  25.6232910  79.6798220  22.2815790  28.0109710  79.5135600  20.0237750
  28.5315370  78.7984620  19.6578900  28.6578110  80.1521470  20.3238260
  24.3940970  76.5631220  19.7218810  24.1930030  75.6998580  20.0832150
  24.2233020  76.4764580  18.7840410  23.1923770  73.6631840  19.7096690
  23.4949670  73.6699270  18.8015840  23.9318360  73.3129700  20.2064350
  28.0272410  88.4288700  34.6913130  27.9531110  89.3323840  34.9985500
  27.1251250  88.1100600  34.6635200  28.5757740  87.5947210  22.3139490
  29.4708530  87.9332180  22.3358250  28.6075370  86.8726620  21.6863770
  22.2153900  82.9674260  20.5426490  22.6528770  83.5103930  21.1984070
  22.7001630  82.1421210  20.5522830  35.5552090  86.1250880  35.0205690
  34.9554080  86.1843440  34.2769610  35.6845990  85.1855860  35.1502540
  36.7953540  83.8668700  20.3575400  35.9646500  83.9345350  20.8282630
  36.9725370  84.7572820  20.0542260  36.2510000  80.6116180  22.8609600
  37.0128910  81.1812830  22.9669290  36.2664370  80.0443380  23.6317910
  36.3029170  80.9050550  20.0182120  36.5778010  81.8129430  19.8901340
  36.1139910  80.8413080  20.9544110  36.1994510  78.8419540  25.0111550
  35.8238110  78.0747470  24.5792840  35.4697630  79.2242240  25.4986480
  18.9652420  76.3453040  23.0342590  18.0616500  76.6083240  22.8594250
  19.4493040  76.6164210  22.2542550  21.5079630  75.4018580  20.9436970
  22.2171330  74.9801800  20.4584250  20.7919570  75.4693810  20.3120320
  21.1553790  71.4557910  19.9839620  21.8781920  71.9966850  20.3020840
  21.4278310  71.1821330  19.1081160  20.8445980  70.7064100  29.8862240
  21.4922170  70.1561480  29.4457400  21.2647820  70.9607250  30.7078050
  34.2979780  87.6021460  26.6450120  34.8938850  87.2806030  25.9684540
  34.5557930  87.1293280  27.4363390  37.1652540  87.6093340  33.1961110
  36.6710820  88.0062210  32.4788240  36.5565830  86.9842550  33.5898390
  34.8491990  88.2516760  30.4747850  34.3894960  89.0032570  30.1005870
  34.2204450  87.5323230  30.4162650  20.5800630  71.4951170  23.5775190
  21.3379990  71.6080050  23.0039220  20.1177800  72.3320370  23.5318620
  22.9525780  72.0215220  22.1177160  23.4818540  71.2345020  21.9885110
  23.5854100  72.7006410  22.3512690  28.0855570  88.3729590  37.8433160
  29.0122880  88.1373860  37.8869120  28.0706000  89.2001590  37.3619190
  36.3200630  87.9155160  24.8407410  36.4952820  87.2292900  24.1968330
  35.6222200  88.4402210  24.4484080  24.1628280  88.3050000  22.3942720
  24.8947100  88.0209280  21.8466610  24.4221950  88.0663280  23.2842100
  34.6533130  87.5999450  37.6674200  35.4458450  87.1048680  37.4600160
  34.9466280  88.2789590  38.2749810  30.7792790  78.4720390   8.5490250
  30.6986840  77.5575000   8.2781960  30.3657210  78.9687460   7.8429960
  28.9110830  80.2499410  10.4299520  28.1352930  79.7699850  10.7198090
  29.5623760  79.5705060  10.2555680  22.9276660  80.5619220  11.3075280
  22.0961540  80.3067930  11.7071790  23.5357640  80.6329990  12.0433200
  32.9318260  84.6559600   9.2098650  32.4699790  83.8846840   9.5385820
  33.7443810  84.6825670   9.7151100  22.9077920  84.5959310  11.5033300
  23.2105960  83.7057050  11.3243520  23.6521510  85.1529530  11.2755550
  21.3368610  75.5221110   5.0917670  20.4485310  75.8637080   4.9897550
  21.6209800  75.3221430   4.1998500  19.3001620  78.1226760  10.9757370
  19.8717730  77.3548960  10.9761010  19.3003160  78.4215520  10.0663980
  29.1581570  86.9417610   8.8302640  28.5393010  87.3975110   8.2597080
  30.0133350  87.0969070   8.4292340  28.3519820  82.9256600  10.4369680
  28.2828100  81.9846540  10.2758810  29.1139680  83.0158010  11.0092250
  20.5426490  73.5311120  12.7626300  20.3629330  72.6336870  13.0429060
  20.1406570  74.0782990  13.4373250  29.3824990  75.7326980  10.6638610
  29.7589810  74.8598860  10.5512280  29.2844500  76.0685680   9.7729050
  23.5130000  74.1052610   6.1256050  23.6196750  75.0056340   6.4324810
  22.6022360  74.0570580   5.8350700  33.1649110  73.2277420   7.5966950
  33.9858730  72.7373990   7.6392430  33.1983190  73.8175080   8.3498790
  21.1613160  76.0271620  11.3708640  21.8423270  76.2909990  11.9896040
  20.8461210  75.1872490  11.7046650  25.3537730  77.0738980  10.4581230
  25.8615950  77.5719950  11.0986250  25.8850970  76.2974180  10.2820590
  23.6373830  71.7137540  14.7244650  23.6392270  72.2309930  13.9190550
  22.8078140  71.2367720  14.7014580  30.0244920  81.8256850   6.2234550
  29.4062190  82.2906300   5.6597270  30.5368170  82.5184330   6.6404060
  24.8876680  81.3532720  12.9018150  24.5546060  81.9801640  13.5439220
  25.0643360  81.8794600  12.1219820  33.4010590  75.1677800  10.3694490
  32.6966160  75.4562690  10.9497600  33.7622750  75.9777910  10.0094050
  23.3189160  73.4247500  12.7315100  23.6605970  74.2689550  12.4368970
  22.3804970  73.5731240  12.8480440  24.0995780  83.3213520  14.7167330
  24.7169780  83.9964600  14.4351780  23.2388900  83.7301500  14.6254830
  19.3928120  82.5113380   3.5974180  19.0156100  83.0000480   2.8659080
  19.6501190  83.1838660   4.2280710  35.0173370  84.7852930  12.6321970
  34.3336890  85.4552040  12.6238640  35.5567660  84.9833580  11.8666830
  36.4697510  74.6132590  10.7603700  35.5222420  74.6471570  10.8919130
  36.7947500  75.4271540  11.1453060  27.0017050  70.9129770   9.0559690
  27.3092030  70.3576660   8.3395190  26.0717750  71.0474230   8.8732680
  32.5532110  86.6297060  11.3467150  32.5659270  86.2259350  10.4789410
  32.0007330  87.4044350  11.2428580  33.8477530  83.3513280   6.4357320
  33.7373860  82.4087610   6.5606740  33.8445780  83.7128920   7.3220080
  31.9517550  81.5326900  12.6749760  32.3686340  81.3187010  11.8403220
  32.6757370  81.7899690  13.2458380  29.3897810  78.9778600   5.7919810
  28.4627090  78.9115980   6.0208280  29.5422630  79.9158730   5.6775050
  29.3766890  75.2495600   2.7886970  28.4370560  75.4109560   2.8739430
  29.6950150  75.9681280   2.2422960  35.8979650  79.9314120  12.7666000
  35.0698280  80.0007210  12.2916130  36.4930130  80.5168430  12.2981830
  33.4195100  80.5398900   6.2955060  32.8007520  80.2018450   5.6481360
  33.4019550  79.8958660   7.0034250  32.8621660  76.7183440  13.7120870
  32.4492840  77.5437150  13.9660860  32.1297610  76.1328480  13.5197230
  24.9954450  79.5043340   8.5739540  24.5911450  78.7920590   8.0785440
  25.0817570  79.1596580   9.4627580  25.4636150  83.1910900  10.7378750
  25.1664440  82.5856370  10.0586530  26.4135970  83.2288210  10.6268110
  23.7083070  76.2786550  12.3538580  24.2597660  76.3881890  11.5791830
  24.2226580  76.6524150  13.0693810  33.5521760  86.7642770  14.4001850
  33.0752320  87.5714960  14.2074460  32.8683550  86.1121100  14.5528060
  24.5554580  82.9292590  17.3886550  23.6583110  83.1532560  17.6359950
  24.5807450  83.0527530  16.4397950  31.5959800  79.7785710   3.3027810
  32.0353080  78.9408140   3.1565630  32.3088220  80.4115110   3.3891950
  23.3825800  79.8005910  15.9643920  23.2433570  80.6728710  16.3331320
  22.5007160  79.4578720  15.8191860  29.7055180  84.7181780   7.2709050
  30.1451090  85.4606110   6.8564440  29.6442070  84.9608350   8.1948010
  25.1806150  85.7427610  18.1729070  25.1521580  86.1470560  17.3057500
  25.0171120  84.8137970  18.0100670  21.6959080  78.3988320   6.0746190
  21.5756680  79.1250410   5.4627460  21.3859970  77.6291230   5.5974100
  37.1320970  86.5254710  19.4693240  37.6080690  87.0037600  20.1482320
  37.7528130  86.4572200  18.7438740  19.3344450  81.5703460  11.8814830
  19.4124870  81.7052230  10.9370550  19.9486130  80.8619350  12.0742950
  20.5792080  83.2703650   8.2921010  20.1720160  83.4118240   7.4374610
  21.4705090  82.9863810   8.0892220  36.5354220  83.7167560  16.6293250
  36.6617280  83.4779440  15.7110430  36.5775600  82.8852100  17.1015330
  30.3970960  87.4195560  15.1988060  30.9115630  87.3303570  16.0010490
  29.5540040  87.7655260  15.4915970  32.3725360  87.7050900   4.6272060
  32.2126500  87.4153840   5.5253890  32.2072070  86.9291030   4.0917290
  24.8513740  87.4849430   6.4043680  24.6756220  86.5684970   6.1911480
  23.9969480  87.8436720   6.6441480  32.0751490  85.2138460   3.1870060
  31.3816650  85.2115750   2.5272340  32.8174350  84.7897780   2.7564230
  31.6401420  86.8401170   7.2618550  32.0958370  86.0590550   7.5757170
  31.9793940  87.5507990   7.8059730  19.3903970  82.6117630  14.4209290
  19.5535010  82.1422990  13.6028660  19.8556420  82.1041190  15.0858130
  24.1622740  71.7423390   9.4569860  23.7190890  72.5232930   9.1254380
  24.7207730  72.0653280  10.1640800  28.4492550  74.6091910  15.0605180
  27.9871920  74.8174930  15.8725120  28.0470660  73.7951260  14.7575850
  33.4497060  75.8300860  16.1901840  32.5990650  75.5306610  16.5110910
  33.2898850  76.0742870  15.2785660  30.5446770  77.3302610  18.2900630
  30.8700180  76.4966360  17.9502860  31.3327100  77.8531130  18.4378960
  27.2781560  71.3634090   4.3375690  26.6535740  71.3593960   5.0629000
  27.1911680  70.4965050   3.9411660  26.1998640  72.2870720  11.3159460
  26.4970970  73.1933550  11.2351480  26.7484200  71.7989500  10.7019030
  23.9536960  76.8656960   7.1851110  23.7277880  76.6494130   8.0897730
  23.1729490  77.2985420   6.8397080  31.1834720  76.8720330   5.7841760
  30.5843610  77.5956130   5.6005380  31.7314330  76.8097110   5.0018210
  26.3936170  77.7642540  17.8511380  26.2979770  76.8237270  17.7011780
  27.2368150  77.9857610  17.4559450  29.7899590  75.5083870   7.8145040
  30.1829160  75.8256070   7.0013730  30.1516440  74.6295750   7.9289560
  21.5246710  74.1756210  16.0045160  21.1310100  75.0231420  16.2117940
  20.8365110  73.5382580  16.1953800  28.0991760  74.2591180  19.0741900
  27.4090080  74.0663380  19.7087990  28.8424060  74.5425820  19.6066200
  18.8263760  72.0984670  10.0375240  18.5376810  72.6687530  10.7500220
  19.5709520  71.6189120  10.4006470  30.3754730  78.0989620  11.9095820
  29.6435850  78.6076430  12.2585920  29.9779070  77.2819600  11.6084600
  26.8132120  74.7743820  10.3148310  26.8168180  74.3333770   9.4652850
  27.7083240  75.0961150  10.4220130  22.6634500  74.6570310   9.2742520
  22.3234550  75.1345540  10.0309570  21.9011820  74.2035430   8.9143620
  26.8752270  75.7755900   3.3055070  26.9965090  75.7342380   4.2540890
  26.4900780  76.6380050   3.1501800  30.8380640  73.5523300  11.3218760
  30.8553380  74.0031950  12.1660610  30.5896220  72.6528940  11.5352200
  25.8873770  78.0857040   2.7038370  25.3190670  77.6375290   2.0774280
  26.5962770  78.4449820   2.1703520  20.9642950  81.9869060  16.5805100
  20.5797740  81.3462730  17.1788060  21.2755140  82.6905180  17.1499830
  27.1140090  78.8345600  12.0613720  27.4810220  78.3604170  12.8075060
  26.9245150  79.7087170  12.4022060  19.9780580  73.5789290   8.1907190
  19.6927500  73.2144960   9.0285810  19.9159440  72.8469750   7.5770330
  24.9039460  77.8754240  14.3797930  24.5996530  78.7546220  14.6048290
  25.8585920  77.9354030  14.4155370  23.4321250  82.0815230   4.9764780
  22.6583510  81.5412850   4.8163500  24.1615880  81.5621840   4.6382540
  34.1909230  81.0780590  10.7691170  34.9108350  81.5735880  10.3787280
  33.9891050  80.3998480  10.1245040  29.6519170  72.4718550   4.9120560
  28.8383780  71.9731720   4.8365870  29.4581120  73.3116800   4.4956910
  29.5728030  81.1489650  16.6560170  29.5065340  80.2285320  16.4017760
  28.9433170  81.2465090  17.3704810  32.3667560  76.8438200   3.2082720
  33.2547180  77.1555430   3.0334060  32.3372650  75.9710450   2.8163300
  23.4758650  81.7495610   8.6143590  23.9937320  80.9463870   8.5600480
  23.0242670  81.6874750   9.4560420  28.3628150  83.0161890   3.8870890
  28.7043850  83.7604120   3.3914210  27.5340860  83.3293010   4.2495720
  20.9603190  78.7156980  15.5269290  20.6018130  79.3810830  16.1142630
  20.6657750  77.8840530  15.8981910  24.1616310  79.1741220  18.4108840
  23.8616450  79.3198400  17.5136660  24.9327550  78.6146510  18.3182230
  29.5044760  83.9710220  16.4063970  29.5189300  83.0391180  16.1882880
  28.7969860  84.0569980  17.0453740  34.6381830  78.1550040   2.6762580
  34.5545550  78.5864260   1.8259020  35.3576020  78.6148390   3.1089400
  35.7155970  80.6117560  15.7532550  34.9904160  81.2046340  15.5561940
  36.2431430  80.6041100  14.9545920  35.6669080  85.0092300   5.4044710
  35.0245240  84.3547920   5.6788430  35.2799740  85.4147390   4.6285380
  31.2455560  82.3377730   9.2516400  31.5979380  81.7405860   8.5917770
  30.3617890  82.0121960   9.4224650  27.3318840  83.0975420   6.6586810
  28.0189970  83.6444630   7.0394400  26.5451260  83.6416150   6.6936420
  19.4711240  78.7148240   2.1503890  20.3406090  78.9973040   2.4339810
  18.9801560  79.5284110   2.0352700  26.6346050  80.1021450   6.2712170
  27.0908830  80.9126700   6.4972360  26.2834260  79.7844590   7.1030660
  28.9378660  85.6127790  13.5004470  29.5820880  85.8187170  14.1777890
  29.3008100  84.8516190  13.0475320  22.5357830  70.4459100   6.7434690
  22.4072460  70.4377000   7.6919610  21.7119850  70.7842190   6.3925700
  30.2110740  83.6160140  12.2181920  30.8532970  82.9153300  12.3314090
  30.7360090  84.3958580  12.0378810  31.9848360  84.4155040  15.4217980
  32.3204600  85.0021730  16.0995900  31.0648700  84.2847750  15.6515770
  19.8382490  87.9275620   2.7165520  20.1980130  88.5264960   2.0622790
  19.6974830  88.4735510   3.4900550  19.5351760  72.2050220  16.2041390
  18.8210280  72.4047140  16.8094000  19.9546800  71.4289790  16.5756190
  33.6382710  81.8180700   3.6035220  33.3504410  82.2793390   4.3913100
  34.4334880  81.3578470   3.8719440  19.8224350  86.1930480  17.1907920
  19.9315470  85.2525220  17.0503310  19.1704910  86.4585230  16.5421650
  27.8136940  84.4646370  18.5906040  27.4933810  83.7455610  19.1351730
  27.1395300  85.1401440  18.6642100  25.8551110  85.3106820   3.5339190
  25.8461210  86.0436510   2.9183700  24.9349470  85.0638400   3.6266150
  21.4557750  80.5321710   4.2785950  20.8485700  81.2720610   4.2881250
  21.9307100  80.6221070   3.4524150  31.0290540  74.6972530  13.9542840
  31.3971360  73.8767740  14.2822410  30.1688740  74.7574420  14.3698490
  34.3952570  73.6529470   4.7630400  33.7665730  73.7575140   4.0488630
  33.9004490  73.8726250   5.5524280  26.3636600  75.9315420   6.1788280
  25.6552750  76.4001760   6.6201890  26.6481080  75.2737430   6.8133470
  27.9892530  77.3512120  14.1780810  28.4877780  77.8257940  14.8432660
  28.1315480  76.4275640  14.3850840  30.3952030  72.6566080   7.6184070
  30.2719810  72.6752210   6.6693580  31.3436590  72.7045020   7.7382470
  27.4828820  87.8921380   6.8912050  27.7370320  87.8542770   5.9691420
  26.5341300  87.7654710   6.8840300  24.5671620  74.2400500   3.5538990
  25.4162150  74.6770650   3.4879180  24.2002890  74.5520760   4.3811050
  33.4881400  78.8113260   8.4670560  32.5471540  78.8263490   8.6418250
  33.8025470  78.0249220   8.9130860  22.1609800  77.9257930   2.7107410
  22.2413390  76.9785440   2.8224810  23.0529550  78.2564810   2.8168070
  35.4906980  85.9822110  10.1424820  35.6154400  86.8053280  10.6148630
  36.3572540  85.7712840   9.7948970  22.9624510  88.0753320   9.8141950
  23.6986990  87.5268780  10.0850520  23.3465430  88.9409330   9.6747940
  19.8469990  84.1426890   5.6883460  18.9209770  84.3848030   5.6788870
  20.3126420  84.9701150   5.5668210  21.9682790  87.2599390  19.0027530
  22.7695520  87.5811440  19.4162930  21.4534610  86.8994970  19.7247440
  30.8047420  83.3679260  18.9502940  30.1985580  83.3910860  18.2098690
  30.5001530  82.6362300  19.4870190  32.2347790  87.0959550  17.5612350
  33.1869540  87.0117570  17.5112590  32.0876010  87.7601260  18.2346140
  35.1256990  86.4753760   3.0604260  34.8398500  86.0618900   2.2458440
  34.9276540  87.4041470   2.9404780  19.6880600  79.7472850  17.9463580
  20.1919620  79.1680130  18.5179810  18.9488020  80.0313080  18.4839950
  26.7418540  81.1543840  17.4799100  25.9764210  81.7228840  17.3953770
  26.9234500  80.8620050  16.5867330  29.8306950  81.5307070   2.1051860
  29.2817050  81.9776370   2.7494600  30.4526210  81.0256320   2.6289530
  33.8841890  82.8849170  18.0374120  34.6251360  83.2224930  17.5341580
  33.1214570  83.0541230  17.4843890  21.7203680  77.8902440  18.8413650
  21.7609020  77.5916310  19.7498880  22.5749180  78.2910050  18.6821170
  25.4982070  80.4897990   4.0017160  25.9198490  80.3237860   4.8448550
  25.6232910  79.6798220   3.5072300  23.6609490  76.4694540  16.8088140
  23.1305950  75.9785490  16.1811480  24.3297560  76.8978740  16.2746070
  32.5587550  80.9364000  16.5729330  32.9728570  81.0909080  17.4219750
  31.6238550  81.0619220  16.7355110  33.0309720  78.2760160  18.5768480
  33.6130490  77.5212480  18.4888960  33.2071490  78.8067600  17.7999960
  24.1481790  73.4356910  16.8885430  24.0538660  72.8177660  16.1636300
  23.5679180  74.1623200  16.6615340  26.9143230  71.9930150  13.9212820
  26.4660530  72.0154410  13.0758370  26.2808430  71.5949170  14.5183120
  27.3202780  80.8884480  14.5425260  27.7390890  81.7317210  14.3701500
  26.4011410  81.0256520  14.3132040  29.6566680  78.6200660  15.9263100
  29.7762890  78.0241800  16.6657940  30.5160680  78.6570350  15.5064400
  31.9954580  79.1737850  14.5025610  31.4689800  79.6980470  13.8990750
  32.3385920  79.8065240  15.1335340  25.1710200  87.1937490  15.6582990
  24.6331290  87.9183550  15.3391690  25.4244160  86.7167830  14.8680330
  26.4235450  75.1622010  17.1838920  27.0135140  74.8537860  17.8716740
  25.6055690  74.6901760  17.3398820  31.2428880  74.7787820  17.4171940
  30.5544400  74.1169360  17.3521930  31.9634900  74.3326090  17.8620400
  31.8729280  71.3739450   3.4762200  32.1531570  70.5307350   3.8321620
  31.0995010  71.6062560   3.9900950  28.0272410  88.4288700  15.9169640
  27.9531110  89.3323840  16.2242010  27.1251250  88.1100600  15.8891710
  28.5757740  87.5947210   3.5396000  29.4708530  87.9332180   3.5614760
  28.6075370  86.8726620   2.9120280  22.2153900  82.9674260   1.7683000
  22.6528770  83.5103930   2.4240580  22.7001630  82.1421210   1.7779340
  19.4299700  85.7563290   9.2203260  19.7602710  84.8884350   8.9881900
  19.8590700  85.9621810  10.0508220  24.0261620  84.0872300   6.8805230
  23.7257160  83.9637270   7.7809140  23.9199110  83.2280890   6.4720960
  19.9189910  86.6233880  11.9584890  19.4820900  86.8034680  12.7909040
  20.4867590  87.3808500  11.8166610  35.5552090  86.1250880  16.2462200
  34.9554080  86.1843440  15.5026120  35.6845990  85.1855860  16.3759050
  36.2510000  80.6116180   4.0866110  37.0128910  81.1812830   4.1925800
  36.2664370  80.0443380   4.8574420  19.7514340  79.1354110   8.3173770
  19.0963180  78.8665750   7.6733470  20.5892290  79.0258590   7.8675750
  37.2569970  81.4666280   8.9308040  37.6278800  80.6833600   8.5244010
  37.8971900  82.1555380   8.7525340  34.2403730  82.8502860  14.3438360
  33.4263570  83.2800020  14.6064150  34.6477930  83.4621270  13.7307410
  32.7004780  73.9295400   2.5392260  33.1189660  73.7426380   1.6988920
  32.3940840  73.0774450   2.8495190  36.1994510  78.8419540   6.2368060
  35.8238110  78.0747470   5.8049350  35.4697630  79.2242240   6.7242990
  20.7890270  79.5206680  12.8577110  21.1563310  79.4334080  13.7373130
  20.2201090  78.7573230  12.7583970  35.5894130  77.9891060  15.8707580
  35.3580220  77.7603810  14.9705530  35.8498680  78.9090610  15.8252470
  20.3406270  76.4315770  16.7635530  19.4462320  76.3982530  17.1029240
  20.8803820  76.6302560  17.5286780  18.9652420  76.3453040   4.2599100
  18.0616500  76.6083240   4.0850760  19.4493040  76.6164210   3.4799060
  35.4745470  77.0677030   9.5375300  35.9982950  76.5739680   8.9065470
  36.0604890  77.2027390  10.2822870  35.6535190  77.1516900  13.0594850
  34.7037900  77.1180440  13.1739840  35.8348200  78.0617010  12.8244620
  34.9645440  76.3250380   5.4767710  35.4604560  76.0921250   6.2616590
  34.7661510  75.4862220   5.0605350  20.8445980  70.7064100  11.1118750
  21.4922170  70.1561480  10.6713910  21.2647820  70.9607250  11.9334560
  36.3932600  74.9611330   8.0105390  36.2831880  74.8067370   8.9487660
  37.1540190  74.4332270   7.7680800  34.7398320  70.9005460  14.4688390
  35.3770540  71.5139600  14.8347580  34.8873210  70.9366120  13.5237620
  37.3561360  73.5629910   3.8768240  36.5612860  73.4975030   4.4061150
  37.5604640  74.4980550   3.8653590  34.2979780  87.6021460   7.8706630
  34.8938850  87.2806030   7.1941050  34.5557930  87.1293280   8.6619900
  20.5977980  70.8619770  13.8544070  20.2492800  71.3183590  14.6202250
  20.2665680  69.9676900  13.9366500  22.2042350  84.0339370  18.0197260
  22.1611980  83.6632280  18.9011720  22.3353360  84.9716940  18.1599080
  25.9048380  85.5898960  13.6206980  25.6639740  85.8573520  12.7337500
  26.8451020  85.7604690  13.6757840  28.1102800  72.0531650  17.3763490
  28.0491690  72.6453480  18.1258900  29.0503180  71.9457610  17.2313750
  30.7477360  71.7101710  17.0155780  31.3617770  72.0281000  16.3536860
  31.2926920  71.2250300  17.6351640  37.1652540  87.6093340  14.4217620
  36.6710820  88.0062210  13.7044750  36.5565830  86.9842550  14.8154900
  21.2698620  70.3895970  17.1294840  21.8181610  70.2084020  16.3660950
  21.3353930  69.5990080  17.6651150  22.0430380  86.9801620  15.1395040
  21.4490700  86.8486320  15.8785080  22.0354220  86.1439760  14.6737140
  31.4885400  70.2733850  13.3425070  30.6145240  70.6068960  13.1398000
  31.3796150  69.8007030  14.1676940  32.3957380  72.4804720  14.7266790
  32.0670740  71.6656480  14.3468520  33.3439680  72.4374530  14.6032480
  34.8491990  88.2516760  11.7004360  34.3894960  89.0032570  11.3262380
  34.2204450  87.5323230  11.6419160  21.6742610  84.3460000  14.0903080
  20.9476670  83.7265290  14.0229030  21.7351760  84.7400610  13.2201160
  25.2787710  86.5605000  10.8752490  25.7952730  85.9492360  10.3500750
  25.9285090  87.0633780  11.3663500  28.0183210  87.4513490  11.7021470
  28.3061020  87.1967790  10.8254480  28.5306430  86.8990850  12.2927040
  29.2360220  71.1903690  12.2817980  28.4532010  71.6649190  12.5614740
  28.9423150  70.2858520  12.1731160  33.7881290  71.8926790  10.3267070
  34.2289380  71.8371890   9.4788670  33.5188880  72.8084800  10.3977250
  35.6519860  71.5242030   8.3375890  35.5908260  70.5803250   8.1906910
  36.4311890  71.6322120   8.8829350  19.9572610  87.6634390   7.2999840
  19.7894650  87.0305070   7.9981730  19.0907120  87.8693790   6.9494030
  20.5800630  71.4951170   4.8031700  21.3379990  71.6080050   4.2295730
  20.1177800  72.3320370   4.7575130  27.1214440  73.6090440   7.7934010
  26.3088950  73.2347330   7.4529890  27.6256080  72.8535520   8.0955200
  31.6239420  70.2732890   9.0317080  32.2268790  70.8453100   9.5065600
  30.8832410  70.8372330   8.8090980  34.7674020  70.6754450   4.3057360
  34.9624650  71.5737900   4.5724790  33.9803890  70.4441530   4.7990310
  21.5635310  86.3567620   4.7449980  21.0382930  86.7375650   4.0411940
  21.4879890  86.9818390   5.4659690  22.9525780  72.0215220   3.3433670
  23.4818540  71.2345020   3.2141620  23.5854100  72.7006410   3.5769200
  25.1463620  71.7590360   6.3979060  24.5166360  71.0577670   6.5649190
  24.6068760  72.5194490   6.1812220  28.0855570  88.3729590  19.0689670
  29.0122880  88.1373860  19.1125630  28.0706000  89.2001590  18.5875700
  36.3200630  87.9155160   6.0663920  36.4952820  87.2292900   5.4224840
  35.6222200  88.4402210   5.6740590  25.2719180  71.0374340  18.8331550
  24.9903450  71.5407940  18.0692370  25.6538880  70.2396090  18.4673680
  24.1628280  88.3050000   3.6199230  24.8947100  88.0209280   3.0723120
  24.4221950  88.0663280   4.5098610  23.3243070  84.4214730   3.6245560
  22.6951950  84.8899830   4.1731390  23.4390900  83.5763950   4.0591750
  34.6533130  87.5999450  18.8930710  35.4458450  87.1048680  18.6856670
  34.9466280  88.2789590  19.5006320  30.7792790  59.6976900  64.8720720
  30.6986840  58.7831510  64.6012430  30.3657210  60.1943970  64.1660430
  28.9110830  61.4755920  66.7529990  28.1352930  60.9956360  67.0428560
  29.5623760  60.7961570  66.5786150  22.9276660  61.7875730  67.6305750
  22.0961540  61.5324440  68.0302260  23.5357640  61.8586500  68.3663670
  32.9318260  65.8816110  65.5329120  32.4699790  65.1103350  65.8616290
  33.7443810  65.9082180  66.0381570  22.9077920  65.8215820  67.8263770
  23.2105960  64.9313560  67.6473990  23.6521510  66.3786040  67.5986020
  21.3368610  56.7477620  61.4148140  20.4485310  57.0893590  61.3128020
  21.6209800  56.5477940  60.5228970  19.3001620  59.3483270  67.2987840
  19.8717730  58.5805470  67.2991480  19.3003160  59.6472030  66.3894450
  29.1581570  68.1674120  65.1533110  28.5393010  68.6231620  64.5827550
  30.0133350  68.3225580  64.7522810  28.3519820  64.1513110  66.7600150
  28.2828100  63.2103050  66.5989280  29.1139680  64.2414520  67.3322720
  20.5426490  54.7567630  69.0856770  20.3629330  53.8593380  69.3659530
  20.1406570  55.3039500  69.7603720  29.3824990  56.9583490  66.9869080
  29.7589810  56.0855370  66.8742750  29.2844500  57.2942190  66.0959520
  23.5130000  55.3309120  62.4486520  23.6196750  56.2312850  62.7555280
  22.6022360  55.2827090  62.1581170  33.1649110  54.4533930  63.9197420
  33.9858730  53.9630500  63.9622900  33.1983190  55.0431590  64.6729260
  21.1613160  57.2528130  67.6939110  21.8423270  57.5166500  68.3126510
  20.8461210  56.4129000  68.0277120  25.3537730  58.2995490  66.7811700
  25.8615950  58.7976460  67.4216720  25.8850970  57.5230690  66.6051060
  37.4548660  56.4700680  70.4841050  36.7500830  56.8582390  69.9656160
  37.7206580  57.1650970  71.0861980  23.6373830  52.9394050  71.0475120
  23.6392270  53.4566440  70.2421020  22.8078140  52.4624230  71.0245050
  30.0244920  63.0513360  62.5465020  29.4062190  63.5162810  61.9827740
  30.5368170  63.7440840  62.9634530  24.8876680  62.5789230  69.2248620
  24.5546060  63.2058150  69.8669690  25.0643360  63.1051110  68.4450290
  33.4010590  56.3934310  66.6924960  32.6966160  56.6819200  67.2728070
  33.7622750  57.2034420  66.3324520  23.3189160  54.6504010  69.0545570
  23.6605970  55.4946060  68.7599440  22.3804970  54.7987750  69.1710910
  24.0995780  64.5470030  71.0397800  24.7169780  65.2221110  70.7582250
  23.2388900  64.9558010  70.9485300  19.3928120  63.7369890  59.9204650
  19.0156100  64.2256990  59.1889550  19.6501190  64.4095170  60.5511180
  35.0173370  66.0109440  68.9552440  34.3336890  66.6808550  68.9469110
  35.5567660  66.2090090  68.1897300  36.4697510  55.8389100  67.0834170
  35.5222420  55.8728080  67.2149600  36.7947500  56.6528050  67.4683530
  27.0017050  52.1386280  65.3790160  27.3092030  51.5833170  64.6625660
  26.0717750  52.2730740  65.1963150  32.5532110  67.8553570  67.6697620
  32.5659270  67.4515860  66.8019880  32.0007330  68.6300860  67.5659050
  33.8477530  64.5769790  62.7587790  33.7373860  63.6344120  62.8837210
  33.8445780  64.9385430  63.6450550  31.9517550  62.7583410  68.9980230
  32.3686340  62.5443520  68.1633690  32.6757370  63.0156200  69.5688850
  29.3897810  60.2035110  62.1150280  28.4627090  60.1372490  62.3438750
  29.5422630  61.1415240  62.0005520  35.8979650  61.1570630  69.0896470
  35.0698280  61.2263720  68.6146600  36.4930130  61.7424940  68.6212300
  33.4195100  61.7655410  62.6185530  32.8007520  61.4274960  61.9711830
  33.4019550  61.1215170  63.3264720  32.8621660  57.9439950  70.0351340
  32.4492840  58.7693660  70.2891330  32.1297610  57.3584990  69.8427700
  24.9954450  60.7299850  64.8970010  24.5911450  60.0177100  64.4015910
  25.0817570  60.3853090  65.7858050  25.4636150  64.4167410  67.0609220
  25.1664440  63.8112880  66.3817000  26.4135970  64.4544720  66.9498580
  23.7083070  57.5043060  68.6769050  24.2597660  57.6138400  67.9022300
  24.2226580  57.8780660  69.3924280  33.5521760  67.9899280  70.7232320
  33.0752320  68.7971470  70.5304930  32.8683550  67.3377610  70.8758530
  24.5554580  64.1549100  73.7117020  23.6583110  64.3789070  73.9590420
  24.5807450  64.2784040  72.7628420  31.5959800  61.0042220  59.6258280
  32.0353080  60.1664650  59.4796100  32.3088220  61.6371620  59.7122420
  23.3825800  61.0262420  72.2874390  23.2433570  61.8985220  72.6561790
  22.5007160  60.6835230  72.1422330  29.7055180  65.9438290  63.5939520
  30.1451090  66.6862620  63.1794910  29.6442070  66.1864860  64.5178480
  25.1806150  66.9684120  74.4959540  25.1521580  67.3727070  73.6287970
  25.0171120  66.0394480  74.3331140  35.1776940  52.2585030  57.9399320
  34.8649600  52.3511860  58.8398390  35.9389410  52.8366060  57.8896750
  21.6959080  59.6244830  62.3976660  21.5756680  60.3506920  61.7857930
  21.3859970  58.8547740  61.9204570  19.3344450  62.7959970  68.2045300
  19.4124870  62.9308740  67.2601020  19.9486130  62.0875860  68.3973420
  20.5792080  64.4960160  64.6151480  20.1720160  64.6374750  63.7605080
  21.4705090  64.2120320  64.4122690  36.5354220  64.9424070  72.9523720
  36.6617280  64.7035950  72.0340900  36.5775600  64.1108610  73.4245800
  30.3970960  68.6452070  71.5218530  30.9115630  68.5560080  72.3240960
  29.5540040  68.9911770  71.8146440  32.3725360  68.9307410  60.9502530
  32.2126500  68.6410350  61.8484360  32.2072070  68.1547540  60.4147760
  24.8513740  68.7105940  62.7274150  24.6756220  67.7941480  62.5141950
  23.9969480  69.0693230  62.9671950  32.0751490  66.4394970  59.5100530
  31.3816650  66.4372260  58.8502810  32.8174350  66.0154290  59.0794700
  31.6401420  68.0657680  63.5849020  32.0958370  67.2847060  63.8987640
  31.9793940  68.7764500  64.1290200  36.3878230  56.9956530  73.9173460
  35.7722500  57.5036200  73.3888920  36.0674650  56.0954860  73.8599400
  19.3903970  63.8374140  70.7439760  19.5535010  63.3679500  69.9259130
  19.8556420  63.3297700  71.4088600  24.1622740  52.9679900  65.7800330
  23.7190890  53.7489440  65.4484850  24.7207730  53.2909790  66.4871270
  28.4492550  55.8348420  71.3835650  27.9871920  56.0431440  72.1955590
  28.0470660  55.0207770  71.0806320  33.4497060  57.0557370  72.5132310
  32.5990650  56.7563120  72.8341380  33.2898850  57.2999380  71.6016130
  30.5446770  58.5559120  74.6131100  30.8700180  57.7222870  74.2733330
  31.3327100  59.0787640  74.7609430  26.1998640  53.5127230  67.6389930
  26.4970970  54.4190060  67.5581950  26.7484200  53.0246010  67.0249500
  23.9536960  58.0913470  63.5081580  23.7277880  57.8750640  64.4128200
  23.1729490  58.5241930  63.1627550  31.1834720  58.0976840  62.1072230
  30.5843610  58.8212640  61.9235850  31.7314330  58.0353620  61.3248680
  26.3936170  58.9899050  74.1741850  26.2979770  58.0493780  74.0242250
  27.2368150  59.2114120  73.7789920  29.7899590  56.7340380  64.1375510
  30.1829160  57.0512580  63.3244200  30.1516440  55.8552260  64.2520030
  21.5246710  55.4012720  72.3275630  21.1310100  56.2487930  72.5348410
  20.8365110  54.7639090  72.5184270  18.8263760  53.3241180  66.3605710
  18.5376810  53.8944040  67.0730690  19.5709520  52.8445630  66.7236940
  19.0133990  57.2661300  57.5708430  18.9308660  58.2092060  57.7123420
  18.6617050  57.1236210  56.6920780  30.3754730  59.3246130  68.2326290
  29.6435850  59.8332940  68.5816390  29.9779070  58.5076110  67.9315070
  26.8132120  56.0000330  66.6378780  26.8168180  55.5590280  65.7883320
  27.7083240  56.3217660  66.7450600  22.6634500  55.8826820  65.5972990
  22.3234550  56.3602050  66.3540040  21.9011820  55.4291940  65.2374090
  30.8380640  54.7779810  67.6449230  30.8553380  55.2288460  68.4891080
  30.5896220  53.8785450  67.8582670  34.2651390  52.1911990  73.4835610
  34.5897160  51.4601650  74.0093590  34.3007900  51.8725630  72.5816600
  20.9642950  63.2125570  72.9035570  20.5797740  62.5719240  73.5018530
  21.2755140  63.9161690  73.4730300  27.1140090  60.0602110  68.3844190
  27.4810220  59.5860680  69.1305530  26.9245150  60.9343680  68.7252530
  19.9780580  54.8045800  64.5137660  19.6927500  54.4401470  65.3516280
  19.9159440  54.0726260  63.9000800  24.9039460  59.1010750  70.7028400
  24.5996530  59.9802730  70.9278760  25.8585920  59.1610540  70.7385840
  23.4321250  63.3071740  61.2995250  22.6583510  62.7669360  61.1393970
  24.1615880  62.7878350  60.9613010  34.1909230  62.3037100  67.0921640
  34.9108350  62.7992390  66.7017750  33.9891050  61.6254990  66.4475510
  29.5728030  62.3746160  72.9790640  29.5065340  61.4541830  72.7248230
  28.9433170  62.4721600  73.6935280  32.3667560  58.0694710  59.5313190
  33.2547180  58.3811940  59.3564530  32.3372650  57.1966960  59.1393770
  23.4758650  62.9752120  64.9374060  23.9937320  62.1720380  64.8830950
  23.0242670  62.9131260  65.7790890  28.3628150  64.2418400  60.2101360
  28.7043850  64.9860630  59.7144680  27.5340860  64.5549520  60.5726190
  20.9603190  59.9413490  71.8499760  20.6018130  60.6067340  72.4373100
  20.6657750  59.1097040  72.2212380  24.1616310  60.3997730  74.7339310
  23.8616450  60.5454910  73.8367130  24.9327550  59.8403020  74.6412700
  29.5044760  65.1966730  72.7294440  29.5189300  64.2647690  72.5113350
  28.7969860  65.2826490  73.3684210  34.6381830  59.3806550  58.9993050
  34.5545550  59.8120770  58.1489490  35.3576020  59.8404900  59.4319870
  35.7155970  61.8374070  72.0763020  34.9904160  62.4302850  71.8792410
  36.2431430  61.8297610  71.2776390  35.6669080  66.2348810  61.7275180
  35.0245240  65.5804430  62.0018900  35.2799740  66.6403900  60.9515850
  31.2455560  63.5634240  65.5746870  31.5979380  62.9662370  64.9148240
  30.3617890  63.2378470  65.7455120  27.3318840  64.3231930  62.9817280
  28.0189970  64.8701140  63.3624870  26.5451260  64.8672660  63.0166890
  19.4711240  59.9404750  58.4734360  20.3406090  60.2229550  58.7570280
  18.9801560  60.7540620  58.3583170  26.6346050  61.3277960  62.5942640
  27.0908830  62.1383210  62.8202830  26.2834260  61.0101100  63.4261130
  28.9378660  66.8384300  69.8234940  29.5820880  67.0443680  70.5008360
  29.3008100  66.0772700  69.3705790  22.5357830  51.6715610  63.0665160
  22.4072460  51.6633510  64.0150080  21.7119850  52.0098700  62.7156170
  30.2110740  64.8416650  68.5412390  30.8532970  64.1409810  68.6544560
  30.7360090  65.6215090  68.3609280  34.0566460  65.1265270  58.2651530
  33.8304040  64.4095710  58.8576170  33.6662660  64.8777710  57.4273280
  31.9848360  65.6411550  71.7448450  32.3204600  66.2278240  72.4226370
  31.0648700  65.5104260  71.9746240  19.8382490  69.1532130  59.0395990
  20.1980130  69.7521470  58.3853260  19.6974830  69.6992020  59.8131020
  19.5351760  53.4306730  72.5271860  18.8210280  53.6303650  73.1324470
  19.9546800  52.6546300  72.8986660  33.6382710  63.0437210  59.9265690
  33.3504410  63.5049900  60.7143570  34.4334880  62.5834980  60.1949910
  19.8224350  67.4186990  73.5138390  19.9315470  66.4781730  73.3733780
  19.1704910  67.6841740  72.8652120  25.8551110  66.5363330  59.8569660
  25.8461210  67.2693020  59.2414170  24.9349470  66.2894910  59.9496620
  21.4557750  61.7578220  60.6016420  20.8485700  62.4977120  60.6111720
  21.9307100  61.8477580  59.7754620  31.0290540  55.9229040  70.2773310
  31.3971360  55.1024250  70.6052880  30.1688740  55.9830930  70.6928960
  34.3952570  54.8785980  61.0860870  33.7665730  54.9831650  60.3719100
  33.9004490  55.0982760  61.8754750  28.8410710  66.5991570  58.5194850
  28.9422690  66.3955560  57.5896830  27.9412450  66.3449850  58.7242630
  26.3636600  57.1571930  62.5018750  25.6552750  57.6258270  62.9432360
  26.6481080  56.4993940  63.1363940  27.9892530  58.5768630  70.5011280
  28.4877780  59.0514450  71.1663130  28.1315480  57.6532150  70.7081310
  27.4828820  69.1177890  63.2142520  27.7370320  69.0799280  62.2921890
  26.5341300  68.9911220  63.2070770  35.1959390  54.7936590  71.3439670
  34.6932990  55.5341990  71.6833480  36.0116050  55.1820590  71.0276460
  33.4881400  60.0369770  64.7901030  32.5471540  60.0520000  64.9648720
  33.8025470  59.2505730  65.2361330  22.1609800  59.1514440  59.0337880
  22.2413390  58.2041950  59.1455280  23.0529550  59.4821320  59.1398540
  35.4906980  67.2078620  66.4655290  35.6154400  68.0309790  66.9379100
  36.3572540  66.9969350  66.1179440  22.9624510  69.3009830  66.1372420
  23.6986990  68.7525290  66.4080990  23.3465430  70.1665840  65.9978410
  19.8469990  65.3683400  62.0113930  18.9209770  65.6104540  62.0019340
  20.3126420  66.1957660  61.8898680  26.0726820  68.4740140  57.9597990
  26.8655430  68.7628970  57.5079780  25.5531170  68.0432310  57.2810470
  32.2347790  68.3216060  73.8842820  33.1869540  68.2374080  73.8343060
  32.0876010  68.9857770  74.5576610  35.1256990  67.7010270  59.3834730
  34.8398500  67.2875410  58.5688910  34.9276540  68.6297980  59.2635250
  19.6880600  60.9729360  74.2694050  20.1919620  60.3936640  74.8410280
  18.9488020  61.2569590  74.8070420  26.7418540  62.3800350  73.8029570
  25.9764210  62.9485350  73.7184240  26.9234500  62.0876560  72.9097800
  29.8306950  62.7563580  58.4282330  29.2817050  63.2032880  59.0725070
  30.4526210  62.2512830  58.9520000  33.8841890  64.1105680  74.3604590
  34.6251360  64.4481440  73.8572050  33.1214570  64.2797740  73.8074360
  25.4982070  61.7154500  60.3247630  25.9198490  61.5494370  61.1679020
  25.6232910  60.9054730  59.8302770  23.6609490  57.6951050  73.1318610
  23.1305950  57.2042000  72.5041950  24.3297560  58.1235250  72.5976540
  32.5587550  62.1620510  72.8959800  32.9728570  62.3165590  73.7450220
  31.6238550  62.2875730  73.0585580  33.0309720  59.5016670  74.8998950
  33.6130490  58.7468990  74.8119430  33.2071490  60.0324110  74.1230430
  24.1481790  54.6613420  73.2115900  24.0538660  54.0434170  72.4866770
  23.5679180  55.3879710  72.9845810  26.9143230  53.2186660  70.2443290
  26.4660530  53.2410920  69.3988840  26.2808430  52.8205680  70.8413590
  27.3202780  62.1140990  70.8655730  27.7390890  62.9573720  70.6931970
  26.4011410  62.2513030  70.6362510  29.6566680  59.8457170  72.2493570
  29.7762890  59.2498310  72.9888410  30.5160680  59.8826860  71.8294870
  31.9954580  60.3994360  70.8256080  31.4689800  60.9236980  70.2221220
  32.3385920  61.0321750  71.4565810  25.1710200  68.4194000  71.9813460
  24.6331290  69.1440060  71.6622160  25.4244160  67.9424340  71.1910800
  26.4235450  56.3878520  73.5069390  27.0135140  56.0794370  74.1947210
  25.6055690  55.9158270  73.6629290  31.2428880  56.0044330  73.7402410
  30.5544400  55.3425870  73.6752400  31.9634900  55.5582600  74.1850870
  28.0272410  69.6545210  72.2400110  27.9531110  70.5580350  72.5472480
  27.1251250  69.3357110  72.2122180  28.5757740  68.8203720  59.8626470
  29.4708530  69.1588690  59.8845230  28.6075370  68.0983130  59.2350750
  19.4299700  66.9819800  65.5433730  19.7602710  66.1140860  65.3112370
  19.8590700  67.1878320  66.3738690  24.0261620  65.3128810  63.2035700
  23.7257160  65.1893780  64.1039610  23.9199110  64.4537400  62.7951430
  19.9189910  67.8490390  68.2815360  19.4820900  68.0291190  69.1139510
  20.4867590  68.6065010  68.1397080  35.5552090  67.3507390  72.5692670
  34.9554080  67.4099950  71.8256590  35.6845990  66.4112370  72.6989520
  36.7953540  65.0925210  57.9062380  35.9646500  65.1601860  58.3769610
  36.9725370  65.9829330  57.6029240  36.2510000  61.8372690  60.4096580
  37.0128910  62.4069340  60.5156270  36.2664370  61.2699890  61.1804890
  19.7514340  60.3610620  64.6404240  19.0963180  60.0922260  63.9963940
  20.5892290  60.2515100  64.1906220  37.2569970  62.6922790  65.2538510
  37.6278800  61.9090110  64.8474480  37.8971900  63.3811890  65.0755810
  34.2403730  64.0759370  70.6668830  33.4263570  64.5056530  70.9294620
  34.6477930  64.6877780  70.0537880  36.3029170  62.1307060  57.5669100
  36.5778010  63.0385940  57.4388320  36.1139910  62.0669590  58.5031090
  32.7004780  55.1551910  58.8622730  33.1189660  54.9682890  58.0219390
  32.3940840  54.3030960  59.1725660  36.1994510  60.0676050  62.5598530
  35.8238110  59.3003980  62.1279820  35.4697630  60.4498750  63.0473460
  20.7890270  60.7463190  69.1807580  21.1563310  60.6590590  70.0603600
  20.2201090  59.9829740  69.0814440  35.5894130  59.2147570  72.1938050
  35.3580220  58.9860320  71.2936000  35.8498680  60.1347120  72.1482940
  20.3406270  57.6572280  73.0866000  19.4462320  57.6239040  73.4259710
  20.8803820  57.8559070  73.8517250  18.9652420  57.5709550  60.5829570
  18.0616500  57.8339750  60.4081230  19.4493040  57.8420720  59.8029530
  35.4745470  58.2933540  65.8605770  35.9982950  57.7996190  65.2295940
  36.0604890  58.4283900  66.6053340  35.6535190  58.3773410  69.3825320
  34.7037900  58.3436950  69.4970310  35.8348200  59.2873520  69.1475090
  21.5079630  56.6275090  58.4923950  22.2171330  56.2058310  58.0071230
  20.7919570  56.6950320  57.8607300  21.1553790  52.6814420  57.5326600
  21.8781920  53.2223360  57.8507820  21.4278310  52.4077840  56.6568140
  34.9645440  57.5506890  61.7998180  35.4604560  57.3177760  62.5847060
  34.7661510  56.7118730  61.3835820  20.8445980  51.9320610  67.4349220
  21.4922170  51.3817990  66.9944380  21.2647820  52.1863760  68.2565030
  36.3932600  56.1867840  64.3335860  36.2831880  56.0323880  65.2718130
  37.1540190  55.6588780  64.0911270  34.7398320  52.1261970  70.7918860
  35.3770540  52.7396110  71.1578050  34.8873210  52.1622630  69.8468090
  37.2822870  54.0175760  57.5742000  38.2072180  53.8856940  57.3660290
  37.2598660  54.0968580  58.5278450  37.3561360  54.7886420  60.1998710
  36.5612860  54.7231540  60.7291620  37.5604640  55.7237060  60.1884060
  34.2979780  68.8277970  64.1937100  34.8938850  68.5062540  63.5171520
  34.5557930  68.3549790  64.9850370  20.5977980  52.0876280  70.1774540
  20.2492800  52.5440100  70.9432720  20.2665680  51.1933410  70.2596970
  25.9048380  66.8155470  69.9437450  25.6639740  67.0830030  69.0567970
  26.8451020  66.9861200  69.9988310  28.1102800  53.2788160  73.6993960
  28.0491690  53.8709990  74.4489370  29.0503180  53.1714120  73.5544220
  30.7477360  52.9358220  73.3386250  31.3617770  53.2537510  72.6767330
  31.2926920  52.4506810  73.9582110  37.1652540  68.8349850  70.7448090
  36.6710820  69.2318720  70.0275220  36.5565830  68.2099060  71.1385370
  21.2698620  51.6152480  73.4525310  21.8181610  51.4340530  72.6891420
  21.3353930  50.8246590  73.9881620  22.0430380  68.2058130  71.4625510
  21.4490700  68.0742830  72.2015550  22.0354220  67.3696270  70.9967610
  31.4885400  51.4990360  69.6655540  30.6145240  51.8325470  69.4628470
  31.3796150  51.0263540  70.4907410  32.3957380  53.7061230  71.0497260
  32.0670740  52.8912990  70.6698990  33.3439680  53.6631040  70.9262950
  34.8491990  69.4773270  68.0234830  34.3894960  70.2289080  67.6492850
  34.2204450  68.7579740  67.9649630  21.6742610  65.5716510  70.4133550
  20.9476670  64.9521800  70.3459500  21.7351760  65.9657120  69.5431630
  25.2787710  67.7861510  67.1982960  25.7952730  67.1748870  66.6731220
  25.9285090  68.2890290  67.6893970  28.0183210  68.6770000  68.0251940
  28.3061020  68.4224300  67.1484950  28.5306430  68.1247360  68.6157510
  29.2360220  52.4160200  68.6048450  28.4532010  52.8905700  68.8845210
  28.9423150  51.5115030  68.4961630  33.7881290  53.1183300  66.6497540
  34.2289380  53.0628400  65.8019140  33.5188880  54.0341310  66.7207720
  35.6519860  52.7498540  64.6606360  35.5908260  51.8059760  64.5137380
  36.4311890  52.8578630  65.2059820  19.9572610  68.8890900  63.6230310
  19.7894650  68.2561580  64.3212200  19.0907120  69.0950300  63.2724500
  20.5800630  52.7207680  61.1262170  21.3379990  52.8336560  60.5526200
  20.1177800  53.5576880  61.0805600  27.1214440  54.8346950  64.1164480
  26.3088950  54.4603840  63.7760360  27.6256080  54.0792030  64.4185670
  31.6239420  51.4989400  65.3547550  32.2268790  52.0709610  65.8296070
  30.8832410  52.0628840  65.1321450  34.7674020  51.9010960  60.6287830
  34.9624650  52.7994410  60.8955260  33.9803890  51.6698040  61.1220780
  21.5635310  67.5824130  61.0680450  21.0382930  67.9632160  60.3642410
  21.4879890  68.2074900  61.7890160  25.1463620  52.9846870  62.7209530
  24.5166360  52.2834180  62.8879660  24.6068760  53.7451000  62.5042690
  36.3200630  69.1411670  62.3894390  36.4952820  68.4549410  61.7455310
  35.6222200  69.6658720  61.9971060  24.1628280  69.5306510  59.9429700
  24.8947100  69.2465790  59.3953590  24.4221950  69.2919790  60.8329080
  23.3243070  65.6471240  59.9476030  22.6951950  66.1156340  60.4961860
  23.4390900  64.8020460  60.3822220  32.9318260  65.8816110  46.7585630
  32.4699790  65.1103350  47.0872800  33.7443810  65.9082180  47.2638080
  28.3519820  64.1513110  47.9856660  28.2828100  63.2103050  47.8245790
  29.1139680  64.2414520  48.5579230  37.4548660  56.4700680  51.7097560
  36.7500830  56.8582390  51.1912670  37.7206580  57.1650970  52.3118490
  19.3928120  63.7369890  41.1461160  19.0156100  64.2256990  40.4146060
  19.6501190  64.4095170  41.7767690  35.0173370  66.0109440  50.1808950
  34.3336890  66.6808550  50.1725620  35.5567660  66.2090090  49.4153810
  32.5532110  67.8553570  48.8954130  32.5659270  67.4515860  48.0276390
  32.0007330  68.6300860  48.7915560  31.9517550  62.7583410  50.2236740
  32.3686340  62.5443520  49.3890200  32.6757370  63.0156200  50.7945360
  35.8979650  61.1570630  50.3152980  35.0698280  61.2263720  49.8403110
  36.4930130  61.7424940  49.8468810  24.9954450  60.7299850  46.1226520
  24.5911450  60.0177100  45.6272420  25.0817570  60.3853090  47.0114560
  33.5521760  67.9899280  51.9488830  33.0752320  68.7971470  51.7561440
  32.8683550  67.3377610  52.1015040  35.1776940  52.2585030  39.1655830
  34.8649600  52.3511860  40.0654900  35.9389410  52.8366060  39.1153260
  37.1320970  67.7511220  57.0180220  37.6080690  68.2294110  57.6969300
  37.7528130  67.6828710  56.2925720  20.5792080  64.4960160  45.8407990
  20.1720160  64.6374750  44.9861590  21.4705090  64.2120320  45.6379200
  36.5354220  64.9424070  54.1780230  36.6617280  64.7035950  53.2597410
  36.5775600  64.1108610  54.6502310  30.3970960  68.6452070  52.7475040
  30.9115630  68.5560080  53.5497470  29.5540040  68.9911770  53.0402950
  36.3878230  56.9956530  55.1429970  35.7722500  57.5036200  54.6145430
  36.0674650  56.0954860  55.0855910  19.3903970  63.8374140  51.9696270
  19.5535010  63.3679500  51.1515640  19.8556420  63.3297700  52.6345110
  19.0133990  57.2661300  38.7964940  18.9308660  58.2092060  38.9379930
  18.6617050  57.1236210  37.9177290  34.1909230  62.3037100  48.3178150
  34.9108350  62.7992390  47.9274260  33.9891050  61.6254990  47.6732020
  23.4758650  62.9752120  46.1630570  23.9937320  62.1720380  46.1087460
  23.0242670  62.9131260  47.0047400  29.5044760  65.1966730  53.9550950
  29.5189300  64.2647690  53.7369860  28.7969860  65.2826490  54.5940720
  35.7155970  61.8374070  53.3019530  34.9904160  62.4302850  53.1048920
  36.2431430  61.8297610  52.5032900  19.4711240  59.9404750  39.6990870
  20.3406090  60.2229550  39.9826790  18.9801560  60.7540620  39.5839680
  28.9378660  66.8384300  51.0491450  29.5820880  67.0443680  51.7264870
  29.3008100  66.0772700  50.5962300  30.2110740  64.8416650  49.7668900
  30.8532970  64.1409810  49.8801070  30.7360090  65.6215090  49.5865790
  31.9848360  65.6411550  52.9704960  32.3204600  66.2278240  53.6482880
  31.0648700  65.5104260  53.2002750  19.5351760  53.4306730  53.7528370
  18.8210280  53.6303650  54.3580980  19.9546800  52.6546300  54.1243170
  19.8224350  67.4186990  54.7394900  19.9315470  66.4781730  54.5990290
  19.1704910  67.6841740  54.0908630  27.8136940  65.6902880  56.1393020
  27.4933810  64.9712120  56.6838710  27.1395300  66.3657950  56.2129080
  21.4557750  61.7578220  41.8272930  20.8485700  62.4977120  41.8368230
  21.9307100  61.8477580  41.0011130  35.1959390  54.7936590  52.5696180
  34.6932990  55.5341990  52.9089990  36.0116050  55.1820590  52.2532970
  23.4663040  61.7189370  39.5761500  24.2326310  61.6070730  40.1386930
  23.5437730  61.0227340  38.9238270  22.1609800  59.1514440  40.2594390
  22.2413390  58.2041950  40.3711790  23.0529550  59.4821320  40.3655050
  22.9624510  69.3009830  47.3628930  23.6986990  68.7525290  47.6337500
  23.3465430  70.1665840  47.2234920  19.8469990  65.3683400  43.2370440
  18.9209770  65.6104540  43.2275850  20.3126420  66.1957660  43.1155190
  21.9682790  68.4855900  56.5514510  22.7695520  68.8067950  56.9649910
  21.4534610  68.1251480  57.2734420  30.8047420  64.5935770  56.4989920
  30.1985580  64.6167370  55.7585670  30.5001530  63.8618810  57.0357170
  32.2347790  68.3216060  55.1099330  33.1869540  68.2374080  55.0599570
  32.0876010  68.9857770  55.7833120  33.8841890  64.1105680  55.5861100
  34.6251360  64.4481440  55.0828560  33.1214570  64.2797740  55.0330870
  32.5587550  62.1620510  54.1216310  32.9728570  62.3165590  54.9706730
  31.6238550  62.2875730  54.2842090  33.0309720  59.5016670  56.1255460
  33.6130490  58.7468990  56.0375940  33.2071490  60.0324110  55.3486940
  31.9954580  60.3994360  52.0512590  31.4689800  60.9236980  51.4477730
  32.3385920  61.0321750  52.6822320  25.1710200  68.4194000  53.2069970
  24.6331290  69.1440060  52.8878670  25.4244160  67.9424340  52.4167310
  28.0272410  69.6545210  53.4656620  27.9531110  70.5580350  53.7728990
  27.1251250  69.3357110  53.4378690  19.4299700  66.9819800  46.7690240
  19.7602710  66.1140860  46.5368880  19.8590700  67.1878320  47.5995200
  19.9189910  67.8490390  49.5071870  19.4820900  68.0291190  50.3396020
  20.4867590  68.6065010  49.3653590  35.5552090  67.3507390  53.7949180
  34.9554080  67.4099950  53.0513100  35.6845990  66.4112370  53.9246030
  37.2569970  62.6922790  46.4795020  37.6278800  61.9090110  46.0730990
  37.8971900  63.3811890  46.3012320  34.2403730  64.0759370  51.8925340
  33.4263570  64.5056530  52.1551130  34.6477930  64.6877780  51.2794390
  32.7004780  55.1551910  40.0879240  33.1189660  54.9682890  39.2475900
  32.3940840  54.3030960  40.3982170  35.5894130  59.2147570  53.4194560
  35.3580220  58.9860320  52.5192510  35.8498680  60.1347120  53.3739450
  35.6535190  58.3773410  50.6081830  34.7037900  58.3436950  50.7226820
  35.8348200  59.2873520  50.3731600  21.5079630  56.6275090  39.7180460
  22.2171330  56.2058310  39.2327740  20.7919570  56.6950320  39.0863810
  21.1553790  52.6814420  38.7583110  21.8781920  53.2223360  39.0764330
  21.4278310  52.4077840  37.8824650  36.3932600  56.1867840  45.5592370
  36.2831880  56.0323880  46.4974640  37.1540190  55.6588780  45.3167780
  37.2822870  54.0175760  38.7998510  38.2072180  53.8856940  38.5916800
  37.2598660  54.0968580  39.7534960  37.3561360  54.7886420  41.4255220
  36.5612860  54.7231540  41.9548130  37.5604640  55.7237060  41.4140570
  20.5977980  52.0876280  51.4031050  20.2492800  52.5440100  52.1689230
  20.2665680  51.1933410  51.4853480  37.1652540  68.8349850  51.9704600
  36.6710820  69.2318720  51.2531730  36.5565830  68.2099060  52.3641880
  21.2698620  51.6152480  54.6781820  21.8181610  51.4340530  53.9147930
  21.3353930  50.8246590  55.2138130  22.0430380  68.2058130  52.6882020
  21.4490700  68.0742830  53.4272060  22.0354220  67.3696270  52.2224120
  25.2787710  67.7861510  48.4239470  25.7952730  67.1748870  47.8987730
  25.9285090  68.2890290  48.9150480  28.0183210  68.6770000  49.2508450
  28.3061020  68.4224300  48.3741460  28.5306430  68.1247360  49.8414020
  19.9572610  68.8890900  44.8486820  19.7894650  68.2561580  45.5468710
  19.0907120  69.0950300  44.4981010  28.0855570  69.5986100  56.6176650
  29.0122880  69.3630370  56.6612610  28.0706000  70.4258100  56.1362680
  34.6533130  68.8255960  56.4417690  35.4458450  68.3305190  56.2343650
  34.9466280  69.5046100  57.0493300  30.7792790  59.6976900  27.3233740
  30.6986840  58.7831510  27.0525450  30.3657210  60.1943970  26.6173450
  28.9110830  61.4755920  29.2043010  28.1352930  60.9956360  29.4941580
  29.5623760  60.7961570  29.0299170  22.9276660  61.7875730  30.0818770
  22.0961540  61.5324440  30.4815280  23.5357640  61.8586500  30.8176690
  32.9318260  65.8816110  27.9842140  32.4699790  65.1103350  28.3129310
  33.7443810  65.9082180  28.4894590  22.9077920  65.8215820  30.2776790
  23.2105960  64.9313560  30.0987010  23.6521510  66.3786040  30.0499040
  21.3368610  56.7477620  23.8661160  20.4485310  57.0893590  23.7641040
  21.6209800  56.5477940  22.9741990  19.3001620  59.3483270  29.7500860
  19.8717730  58.5805470  29.7504500  19.3003160  59.6472030  28.8407470
  20.5426490  54.7567630  31.5369790  20.3629330  53.8593380  31.8172550
  20.1406570  55.3039500  32.2116740  29.3824990  56.9583490  29.4382100
  29.7589810  56.0855370  29.3255770  29.2844500  57.2942190  28.5472540
  23.5130000  55.3309120  24.8999540  23.6196750  56.2312850  25.2068300
  22.6022360  55.2827090  24.6094190  33.1649110  54.4533930  26.3710440
  33.9858730  53.9630500  26.4135920  33.1983190  55.0431590  27.1242280
  21.1613160  57.2528130  30.1452130  21.8423270  57.5166500  30.7639530
  20.8461210  56.4129000  30.4790140  25.3537730  58.2995490  29.2324720
  25.8615950  58.7976460  29.8729740  25.8850970  57.5230690  29.0564080
  37.4548660  56.4700680  32.9354070  36.7500830  56.8582390  32.4169180
  37.7206580  57.1650970  33.5375000  23.6373830  52.9394050  33.4988140
  23.6392270  53.4566440  32.6934040  22.8078140  52.4624230  33.4758070
  30.0244920  63.0513360  24.9978040  29.4062190  63.5162810  24.4340760
  30.5368170  63.7440840  25.4147550  24.8876680  62.5789230  31.6761640
  24.5546060  63.2058150  32.3182710  25.0643360  63.1051110  30.8963310
  33.4010590  56.3934310  29.1437980  32.6966160  56.6819200  29.7241090
  33.7622750  57.2034420  28.7837540  23.3189160  54.6504010  31.5058590
  23.6605970  55.4946060  31.2112460  22.3804970  54.7987750  31.6223930
  24.0995780  64.5470030  33.4910820  24.7169780  65.2221110  33.2095270
  23.2388900  64.9558010  33.3998320  19.3928120  63.7369890  22.3717670
  19.0156100  64.2256990  21.6402570  19.6501190  64.4095170  23.0024200
  35.0173370  66.0109440  31.4065460  34.3336890  66.6808550  31.3982130
  35.5567660  66.2090090  30.6410320  36.4697510  55.8389100  29.5347190
  35.5222420  55.8728080  29.6662620  36.7947500  56.6528050  29.9196550
  27.0017050  52.1386280  27.8303180  27.3092030  51.5833170  27.1138680
  26.0717750  52.2730740  27.6476170  33.8477530  64.5769790  25.2100810
  33.7373860  63.6344120  25.3350230  33.8445780  64.9385430  26.0963570
  31.9517550  62.7583410  31.4493250  32.3686340  62.5443520  30.6146710
  32.6757370  63.0156200  32.0201870  29.3897810  60.2035110  24.5663300
  28.4627090  60.1372490  24.7951770  29.5422630  61.1415240  24.4518540
  29.3766890  56.4752110  21.5630460  28.4370560  56.6366070  21.6482920
  29.6950150  57.1937790  21.0166450  35.8979650  61.1570630  31.5409490
  35.0698280  61.2263720  31.0659620  36.4930130  61.7424940  31.0725320
  33.4195100  61.7655410  25.0698550  32.8007520  61.4274960  24.4224850
  33.4019550  61.1215170  25.7777740  32.8621660  57.9439950  32.4864360
  32.4492840  58.7693660  32.7404350  32.1297610  57.3584990  32.2940720
  24.9954450  60.7299850  27.3483030  24.5911450  60.0177100  26.8528930
  25.0817570  60.3853090  28.2371070  25.4636150  64.4167410  29.5122240
  25.1664440  63.8112880  28.8330020  26.4135970  64.4544720  29.4011600
  23.7083070  57.5043060  31.1282070  24.2597660  57.6138400  30.3535320
  24.2226580  57.8780660  31.8437300  24.5554580  64.1549100  36.1630040
  23.6583110  64.3789070  36.4103440  24.5807450  64.2784040  35.2141440
  31.5959800  61.0042220  22.0771300  32.0353080  60.1664650  21.9309120
  32.3088220  61.6371620  22.1635440  23.3825800  61.0262420  34.7387410
  23.2433570  61.8985220  35.1074810  22.5007160  60.6835230  34.5935350
  25.1806150  66.9684120  36.9472560  25.1521580  67.3727070  36.0800990
  25.0171120  66.0394480  36.7844160  35.1776940  52.2585030  20.3912340
  34.8649600  52.3511860  21.2911410  35.9389410  52.8366060  20.3409770
  21.6959080  59.6244830  24.8489680  21.5756680  60.3506920  24.2370950
  21.3859970  58.8547740  24.3717590  19.3344450  62.7959970  30.6558320
  19.4124870  62.9308740  29.7114040  19.9486130  62.0875860  30.8486440
  20.5792080  64.4960160  27.0664500  20.1720160  64.6374750  26.2118100
  21.4705090  64.2120320  26.8635710  30.3970960  68.6452070  33.9731550
  30.9115630  68.5560080  34.7753980  29.5540040  68.9911770  34.2659460
  36.3878230  56.9956530  36.3686480  35.7722500  57.5036200  35.8401940
  36.0674650  56.0954860  36.3112420  19.3903970  63.8374140  33.1952780
  19.5535010  63.3679500  32.3772150  19.8556420  63.3297700  33.8601620
  24.1622740  52.9679900  28.2313350  23.7190890  53.7489440  27.8997870
  24.7207730  53.2909790  28.9384290  28.4492550  55.8348420  33.8348670
  27.9871920  56.0431440  34.6468610  28.0470660  55.0207770  33.5319340
  33.4497060  57.0557370  34.9645330  32.5990650  56.7563120  35.2854400
  33.2898850  57.2999380  34.0529150  30.5446770  58.5559120  37.0644120
  30.8700180  57.7222870  36.7246350  31.3327100  59.0787640  37.2122450
  27.2781560  52.5890600  23.1119180  26.6535740  52.5850470  23.8372490
  27.1911680  51.7221560  22.7155150  26.1998640  53.5127230  30.0902950
  26.4970970  54.4190060  30.0094970  26.7484200  53.0246010  29.4762520
  23.9536960  58.0913470  25.9594600  23.7277880  57.8750640  26.8641220
  23.1729490  58.5241930  25.6140570  31.1834720  58.0976840  24.5585250
  30.5843610  58.8212640  24.3748870  31.7314330  58.0353620  23.7761700
  26.3936170  58.9899050  36.6254870  26.2979770  58.0493780  36.4755270
  27.2368150  59.2114120  36.2302940  29.7899590  56.7340380  26.5888530
  30.1829160  57.0512580  25.7757220  30.1516440  55.8552260  26.7033050
  21.5246710  55.4012720  34.7788650  21.1310100  56.2487930  34.9861430
  20.8365110  54.7639090  34.9697290  18.8263760  53.3241180  28.8118730
  18.5376810  53.8944040  29.5243710  19.5709520  52.8445630  29.1749960
  19.0133990  57.2661300  20.0221450  18.9308660  58.2092060  20.1636440
  18.6617050  57.1236210  19.1433800  30.3754730  59.3246130  30.6839310
  29.6435850  59.8332940  31.0329410  29.9779070  58.5076110  30.3828090
  26.8132120  56.0000330  29.0891800  26.8168180  55.5590280  28.2396340
  27.7083240  56.3217660  29.1963620  22.6634500  55.8826820  28.0486010
  22.3234550  56.3602050  28.8053060  21.9011820  55.4291940  27.6887110
  26.8752270  57.0012410  22.0798560  26.9965090  56.9598890  23.0284380
  26.4900780  57.8636560  21.9245290  30.8380640  54.7779810  30.0962250
  30.8553380  55.2288460  30.9404100  30.5896220  53.8785450  30.3095690
  25.8873770  59.3113550  21.4781860  25.3190670  58.8631800  20.8517770
  26.5962770  59.6706330  20.9447010  34.2651390  52.1911990  35.9348630
  34.5897160  51.4601650  36.4606610  34.3007900  51.8725630  35.0329620
  20.9642950  63.2125570  35.3548590  20.5797740  62.5719240  35.9531550
  21.2755140  63.9161690  35.9243320  27.1140090  60.0602110  30.8357210
  27.4810220  59.5860680  31.5818550  26.9245150  60.9343680  31.1765550
  19.9780580  54.8045800  26.9650680  19.6927500  54.4401470  27.8029300
  19.9159440  54.0726260  26.3513820  24.9039460  59.1010750  33.1541420
  24.5996530  59.9802730  33.3791780  25.8585920  59.1610540  33.1898860
  23.4321250  63.3071740  23.7508270  22.6583510  62.7669360  23.5906990
  24.1615880  62.7878350  23.4126030  34.1909230  62.3037100  29.5434660
  34.9108350  62.7992390  29.1530770  33.9891050  61.6254990  28.8988530
  29.6519170  53.6975060  23.6864050  28.8383780  53.1988230  23.6109360
  29.4581120  54.5373310  23.2700400  29.5728030  62.3746160  35.4303660
  29.5065340  61.4541830  35.1761250  28.9433170  62.4721600  36.1448300
  32.3667560  58.0694710  21.9826210  33.2547180  58.3811940  21.8077550
  32.3372650  57.1966960  21.5906790  23.4758650  62.9752120  27.3887080
  23.9937320  62.1720380  27.3343970  23.0242670  62.9131260  28.2303910
  28.3628150  64.2418400  22.6614380  28.7043850  64.9860630  22.1657700
  27.5340860  64.5549520  23.0239210  20.9603190  59.9413490  34.3012780
  20.6018130  60.6067340  34.8886120  20.6657750  59.1097040  34.6725400
  24.1616310  60.3997730  37.1852330  23.8616450  60.5454910  36.2880150
  24.9327550  59.8403020  37.0925720  29.5044760  65.1966730  35.1807460
  29.5189300  64.2647690  34.9626370  28.7969860  65.2826490  35.8197230
  34.6381830  59.3806550  21.4506070  34.5545550  59.8120770  20.6002510
  35.3576020  59.8404900  21.8832890  31.2455560  63.5634240  28.0259890
  31.5979380  62.9662370  27.3661260  30.3617890  63.2378470  28.1968140
  27.3318840  64.3231930  25.4330300  28.0189970  64.8701140  25.8137890
  26.5451260  64.8672660  25.4679910  19.4711240  59.9404750  20.9247380
  20.3406090  60.2229550  21.2083300  18.9801560  60.7540620  20.8096190
  26.6346050  61.3277960  25.0455660  27.0908830  62.1383210  25.2715850
  26.2834260  61.0101100  25.8774150  28.9378660  66.8384300  32.2747960
  29.5820880  67.0443680  32.9521380  29.3008100  66.0772700  31.8218810
  22.5357830  51.6715610  25.5178180  22.4072460  51.6633510  26.4663100
  21.7119850  52.0098700  25.1669190  30.2110740  64.8416650  30.9925410
  30.8532970  64.1409810  31.1057580  30.7360090  65.6215090  30.8122300
  31.9848360  65.6411550  34.1961470  32.3204600  66.2278240  34.8739390
  31.0648700  65.5104260  34.4259260  19.8382490  69.1532130  21.4909010
  20.1980130  69.7521470  20.8366280  19.6974830  69.6992020  22.2644040
  19.5351760  53.4306730  34.9784880  18.8210280  53.6303650  35.5837490
  19.9546800  52.6546300  35.3499680  33.6382710  63.0437210  22.3778710
  33.3504410  63.5049900  23.1656590  34.4334880  62.5834980  22.6462930
  19.8224350  67.4186990  35.9651410  19.9315470  66.4781730  35.8246800
  19.1704910  67.6841740  35.3165140  27.8136940  65.6902880  37.3649530
  27.4933810  64.9712120  37.9095220  27.1395300  66.3657950  37.4385590
  21.4557750  61.7578220  23.0529440  20.8485700  62.4977120  23.0624740
  21.9307100  61.8477580  22.2267640  31.0290540  55.9229040  32.7286330
  31.3971360  55.1024250  33.0565900  30.1688740  55.9830930  33.1441980
  34.3952570  54.8785980  23.5373890  33.7665730  54.9831650  22.8232120
  33.9004490  55.0982760  24.3267770  26.3636600  57.1571930  24.9531770
  25.6552750  57.6258270  25.3945380  26.6481080  56.4993940  25.5876960
  27.9892530  58.5768630  32.9524300  28.4877780  59.0514450  33.6176150
  28.1315480  57.6532150  33.1594330  30.3952030  53.8822590  26.3927560
  30.2719810  53.9008720  25.4437070  31.3436590  53.9301530  26.5125960
  24.5671620  55.4657010  22.3282480  25.4162150  55.9027160  22.2622670
  24.2002890  55.7777270  23.1554540  35.1959390  54.7936590  33.7952690
  34.6932990  55.5341990  34.1346500  36.0116050  55.1820590  33.4789480
  33.4881400  60.0369770  27.2414050  32.5471540  60.0520000  27.4161740
  33.8025470  59.2505730  27.6874350  23.4663040  61.7189370  20.8018010
  24.2326310  61.6070730  21.3643440  23.5437730  61.0227340  20.1494780
  22.1609800  59.1514440  21.4850900  22.2413390  58.2041950  21.5968300
  23.0529550  59.4821320  21.5911560  19.8469990  65.3683400  24.4626950
  18.9209770  65.6104540  24.4532360  20.3126420  66.1957660  24.3411700
  30.8047420  64.5935770  37.7246430  30.1985580  64.6167370  36.9842180
  30.5001530  63.8618810  38.2613680  19.6880600  60.9729360  36.7207070
  20.1919620  60.3936640  37.2923300  18.9488020  61.2569590  37.2583440
  26.5904220  63.6943550  20.2753360  26.4854860  63.0795900  21.0014740
  26.4228440  63.1709440  19.4916370  26.7418540  62.3800350  36.2542590
  25.9764210  62.9485350  36.1697260  26.9234500  62.0876560  35.3610820
  29.8306950  62.7563580  20.8795350  29.2817050  63.2032880  21.5238090
  30.4526210  62.2512830  21.4033020  21.7203680  59.1158950  37.6157140
  21.7609020  58.8172820  38.5242370  22.5749180  59.5166560  37.4564660
  25.4982070  61.7154500  22.7760650  25.9198490  61.5494370  23.6192040
  25.6232910  60.9054730  22.2815790  23.6609490  57.6951050  35.5831630
  23.1305950  57.2042000  34.9554970  24.3297560  58.1235250  35.0489560
  28.0109710  60.7392110  20.0237750  28.5315370  60.0241130  19.6578900
  28.6578110  61.3777980  20.3238260  32.5587550  62.1620510  35.3472820
  32.9728570  62.3165590  36.1963240  31.6238550  62.2875730  35.5098600
  26.9143230  53.2186660  32.6956310  26.4660530  53.2410920  31.8501860
  26.2808430  52.8205680  33.2926610  27.3202780  62.1140990  33.3168750
  27.7390890  62.9573720  33.1444990  26.4011410  62.2513030  33.0875530
  29.6566680  59.8457170  34.7006590  29.7762890  59.2498310  35.4401430
  30.5160680  59.8826860  34.2807890  31.9954580  60.3994360  33.2769100
  31.4689800  60.9236980  32.6734240  32.3385920  61.0321750  33.9078830
  24.3940970  57.7887730  19.7218810  24.1930030  56.9255090  20.0832150
  24.2233020  57.7021090  18.7840410  25.1710200  68.4194000  34.4326480
  24.6331290  69.1440060  34.1135180  25.4244160  67.9424340  33.6423820
  31.2428880  56.0044330  36.1915430  30.5544400  55.3425870  36.1265420
  31.9634900  55.5582600  36.6363890  31.8729280  52.5995960  22.2505690
  32.1531570  51.7563860  22.6065110  31.0995010  52.8319070  22.7644440
  23.1923770  54.8888350  19.7096690  23.4949670  54.8955780  18.8015840
  23.9318360  54.5386210  20.2064350  26.4108700  53.8322970  20.6952890
  26.0630700  53.1546960  20.1155340  26.6121470  53.3712480  21.5096280
  22.2153900  64.1930770  20.5426490  22.6528770  64.7360440  21.1984070
  22.7001630  63.3677720  20.5522830  19.4299700  66.9819800  27.9946750
  19.7602710  66.1140860  27.7625390  19.8590700  67.1878320  28.8251710
  19.9189910  67.8490390  30.7328380  19.4820900  68.0291190  31.5652530
  20.4867590  68.6065010  30.5910100  36.2510000  61.8372690  22.8609600
  37.0128910  62.4069340  22.9669290  36.2664370  61.2699890  23.6317910
  19.7514340  60.3610620  27.0917260  19.0963180  60.0922260  26.4476960
  20.5892290  60.2515100  26.6419240  36.3029170  62.1307060  20.0182120
  36.5778010  63.0385940  19.8901340  36.1139910  62.0669590  20.9544110
  32.7004780  55.1551910  21.3135750  33.1189660  54.9682890  20.4732410
  32.3940840  54.3030960  21.6238680  36.1994510  60.0676050  25.0111550
  35.8238110  59.3003980  24.5792840  35.4697630  60.4498750  25.4986480
  20.7890270  60.7463190  31.6320600  21.1563310  60.6590590  32.5116620
  20.2201090  59.9829740  31.5327460  35.5894130  59.2147570  34.6451070
  35.3580220  58.9860320  33.7449020  35.8498680  60.1347120  34.5995960
  20.3406270  57.6572280  35.5379020  19.4462320  57.6239040  35.8772730
  20.8803820  57.8559070  36.3030270  34.0282200  54.4404000  37.4230770
  34.9052380  54.4487400  37.8064770  34.0403040  53.7034840  36.8123120
  18.9652420  57.5709550  23.0342590  18.0616500  57.8339750  22.8594250
  19.4493040  57.8420720  22.2542550  35.4745470  58.2933540  28.3118790
  35.9982950  57.7996190  27.6808960  36.0604890  58.4283900  29.0566360
  35.6535190  58.3773410  31.8338340  34.7037900  58.3436950  31.9483330
  35.8348200  59.2873520  31.5988110  21.5079630  56.6275090  20.9436970
  22.2171330  56.2058310  20.4584250  20.7919570  56.6950320  20.3120320
  21.1553790  52.6814420  19.9839620  21.8781920  53.2223360  20.3020840
  21.4278310  52.4077840  19.1081160  34.9645440  57.5506890  24.2511200
  35.4604560  57.3177760  25.0360080  34.7661510  56.7118730  23.8348840
  20.8445980  51.9320610  29.8862240  21.4922170  51.3817990  29.4457400
  21.2647820  52.1863760  30.7078050  36.3932600  56.1867840  26.7848880
  36.2831880  56.0323880  27.7231150  37.1540190  55.6588780  26.5424290
  34.7398320  52.1261970  33.2431880  35.3770540  52.7396110  33.6091070
  34.8873210  52.1622630  32.2981110  37.2822870  54.0175760  20.0255020
  38.2072180  53.8856940  19.8173310  37.2598660  54.0968580  20.9791470
  37.3561360  54.7886420  22.6511730  36.5612860  54.7231540  23.1804640
  37.5604640  55.7237060  22.6397080  20.5977980  52.0876280  32.6287560
  20.2492800  52.5440100  33.3945740  20.2665680  51.1933410  32.7109990
  22.2042350  65.2595880  36.7940750  22.1611980  64.8888790  37.6755210
  22.3353360  66.1973450  36.9342570  25.9048380  66.8155470  32.3950470
  25.6639740  67.0830030  31.5080990  26.8451020  66.9861200  32.4501330
  30.7477360  52.9358220  35.7899270  31.3617770  53.2537510  35.1280350
  31.2926920  52.4506810  36.4095130  21.2698620  51.6152480  35.9038330
  21.8181610  51.4340530  35.1404440  21.3353930  50.8246590  36.4394640
  22.0430380  68.2058130  33.9138530  21.4490700  68.0742830  34.6528570
  22.0354220  67.3696270  33.4480630  31.4885400  51.4990360  32.1168560
  30.6145240  51.8325470  31.9141490  31.3796150  51.0263540  32.9420430
  32.3957380  53.7061230  33.5010280  32.0670740  52.8912990  33.1212010
  33.3439680  53.6631040  33.3775970  21.6742610  65.5716510  32.8646570
  20.9476670  64.9521800  32.7972520  21.7351760  65.9657120  31.9944650
  29.2360220  52.4160200  31.0561470  28.4532010  52.8905700  31.3358230
  28.9423150  51.5115030  30.9474650  33.7881290  53.1183300  29.1010560
  34.2289380  53.0628400  28.2532160  33.5188880  54.0341310  29.1720740
  35.6519860  52.7498540  27.1119380  35.5908260  51.8059760  26.9650400
  36.4311890  52.8578630  27.6572840  19.9572610  68.8890900  26.0743330
  19.7894650  68.2561580  26.7725220  19.0907120  69.0950300  25.7237520
  20.5800630  52.7207680  23.5775190  21.3379990  52.8336560  23.0039220
  20.1177800  53.5576880  23.5318620  27.1214440  54.8346950  26.5677500
  26.3088950  54.4603840  26.2273380  27.6256080  54.0792030  26.8698690
  31.6239420  51.4989400  27.8060570  32.2268790  52.0709610  28.2809090
  30.8832410  52.0628840  27.5834470  34.7674020  51.9010960  23.0800850
  34.9624650  52.7994410  23.3468280  33.9803890  51.6698040  23.5733800
  21.5635310  67.5824130  23.5193470  21.0382930  67.9632160  22.8155430
  21.4879890  68.2074900  24.2403180  22.9525780  53.2471730  22.1177160
  23.4818540  52.4601530  21.9885110  23.5854100  53.9262920  22.3512690
  25.1463620  52.9846870  25.1722550  24.5166360  52.2834180  25.3392680
  24.6068760  53.7451000  24.9555710  23.3243070  65.6471240  22.3989050
  22.6951950  66.1156340  22.9474880  23.4390900  64.8020460  22.8335240
  31.8734640  51.6784430  38.1855510  31.7600090  51.9979040  39.0807030
  32.6904380  52.0796940  37.8892790  30.7792790  59.6976900   8.5490250
  30.6986840  58.7831510   8.2781960  30.3657210  60.1943970   7.8429960
  28.9110830  61.4755920  10.4299520  28.1352930  60.9956360  10.7198090
  29.5623760  60.7961570  10.2555680  22.9276660  61.7875730  11.3075280
  22.0961540  61.5324440  11.7071790  23.5357640  61.8586500  12.0433200
  32.9318260  65.8816110   9.2098650  32.4699790  65.1103350   9.5385820
  33.7443810  65.9082180   9.7151100  22.9077920  65.8215820  11.5033300
  23.2105960  64.9313560  11.3243520  23.6521510  66.3786040  11.2755550
  21.3368610  56.7477620   5.0917670  20.4485310  57.0893590   4.9897550
  21.6209800  56.5477940   4.1998500  19.3001620  59.3483270  10.9757370
  19.8717730  58.5805470  10.9761010  19.3003160  59.6472030  10.0663980
  29.1581570  68.1674120   8.8302640  28.5393010  68.6231620   8.2597080
  30.0133350  68.3225580   8.4292340  28.3519820  64.1513110  10.4369680
  28.2828100  63.2103050  10.2758810  29.1139680  64.2414520  11.0092250
  20.5426490  54.7567630  12.7626300  20.3629330  53.8593380  13.0429060
  20.1406570  55.3039500  13.4373250  29.3824990  56.9583490  10.6638610
  29.7589810  56.0855370  10.5512280  29.2844500  57.2942190   9.7729050
  23.5130000  55.3309120   6.1256050  23.6196750  56.2312850   6.4324810
  22.6022360  55.2827090   5.8350700  33.1649110  54.4533930   7.5966950
  33.9858730  53.9630500   7.6392430  33.1983190  55.0431590   8.3498790
  21.1613160  57.2528130  11.3708640  21.8423270  57.5166500  11.9896040
  20.8461210  56.4129000  11.7046650  25.3537730  58.2995490  10.4581230
  25.8615950  58.7976460  11.0986250  25.8850970  57.5230690  10.2820590
  37.4548660  56.4700680  14.1610580  36.7500830  56.8582390  13.6425690
  37.7206580  57.1650970  14.7631510  23.6373830  52.9394050  14.7244650
  23.6392270  53.4566440  13.9190550  22.8078140  52.4624230  14.7014580
  30.0244920  63.0513360   6.2234550  29.4062190  63.5162810   5.6597270
  30.5368170  63.7440840   6.6404060  24.8876680  62.5789230  12.9018150
  24.5546060  63.2058150  13.5439220  25.0643360  63.1051110  12.1219820
  33.4010590  56.3934310  10.3694490  32.6966160  56.6819200  10.9497600
  33.7622750  57.2034420  10.0094050  23.3189160  54.6504010  12.7315100
  23.6605970  55.4946060  12.4368970  22.3804970  54.7987750  12.8480440
  24.0995780  64.5470030  14.7167330  24.7169780  65.2221110  14.4351780
  23.2388900  64.9558010  14.6254830  19.3928120  63.7369890   3.5974180
  19.0156100  64.2256990   2.8659080  19.6501190  64.4095170   4.2280710
  35.0173370  66.0109440  12.6321970  34.3336890  66.6808550  12.6238640
  35.5567660  66.2090090  11.8666830  36.4697510  55.8389100  10.7603700
  35.5222420  55.8728080  10.8919130  36.7947500  56.6528050  11.1453060
  27.0017050  52.1386280   9.0559690  27.3092030  51.5833170   8.3395190
  26.0717750  52.2730740   8.8732680  32.5532110  67.8553570  11.3467150
  32.5659270  67.4515860  10.4789410  32.0007330  68.6300860  11.2428580
  33.8477530  64.5769790   6.4357320  33.7373860  63.6344120   6.5606740
  33.8445780  64.9385430   7.3220080  31.9517550  62.7583410  12.6749760
  32.3686340  62.5443520  11.8403220  32.6757370  63.0156200  13.2458380
  29.3897810  60.2035110   5.7919810  28.4627090  60.1372490   6.0208280
  29.5422630  61.1415240   5.6775050  29.3766890  56.4752110   2.7886970
  28.4370560  56.6366070   2.8739430  29.6950150  57.1937790   2.2422960
  35.8979650  61.1570630  12.7666000  35.0698280  61.2263720  12.2916130
  36.4930130  61.7424940  12.2981830  33.4195100  61.7655410   6.2955060
  32.8007520  61.4274960   5.6481360  33.4019550  61.1215170   7.0034250
  32.8621660  57.9439950  13.7120870  32.4492840  58.7693660  13.9660860
  32.1297610  57.3584990  13.5197230  24.9954450  60.7299850   8.5739540
  24.5911450  60.0177100   8.0785440  25.0817570  60.3853090   9.4627580
  25.4636150  64.4167410  10.7378750  25.1664440  63.8112880  10.0586530
  26.4135970  64.4544720  10.6268110  23.7083070  57.5043060  12.3538580
  24.2597660  57.6138400  11.5791830  24.2226580  57.8780660  13.0693810
  33.5521760  67.9899280  14.4001850  33.0752320  68.7971470  14.2074460
  32.8683550  67.3377610  14.5528060  24.5554580  64.1549100  17.3886550
  23.6583110  64.3789070  17.6359950  24.5807450  64.2784040  16.4397950
  31.5959800  61.0042220   3.3027810  32.0353080  60.1664650   3.1565630
  32.3088220  61.6371620   3.3891950  23.3825800  61.0262420  15.9643920
  23.2433570  61.8985220  16.3331320  22.5007160  60.6835230  15.8191860
  29.7055180  65.9438290   7.2709050  30.1451090  66.6862620   6.8564440
  29.6442070  66.1864860   8.1948010  25.1806150  66.9684120  18.1729070
  25.1521580  67.3727070  17.3057500  25.0171120  66.0394480  18.0100670
  21.6959080  59.6244830   6.0746190  21.5756680  60.3506920   5.4627460
  21.3859970  58.8547740   5.5974100  19.3344450  62.7959970  11.8814830
  19.4124870  62.9308740  10.9370550  19.9486130  62.0875860  12.0742950
  20.5792080  64.4960160   8.2921010  20.1720160  64.6374750   7.4374610
  21.4705090  64.2120320   8.0892220  36.5354220  64.9424070  16.6293250
  36.6617280  64.7035950  15.7110430  36.5775600  64.1108610  17.1015330
  30.3970960  68.6452070  15.1988060  30.9115630  68.5560080  16.0010490
  29.5540040  68.9911770  15.4915970  32.3725360  68.9307410   4.6272060
  32.2126500  68.6410350   5.5253890  32.2072070  68.1547540   4.0917290
  24.8513740  68.7105940   6.4043680  24.6756220  67.7941480   6.1911480
  23.9969480  69.0693230   6.6441480  32.0751490  66.4394970   3.1870060
  31.3816650  66.4372260   2.5272340  32.8174350  66.0154290   2.7564230
  31.6401420  68.0657680   7.2618550  32.0958370  67.2847060   7.5757170
  31.9793940  68.7764500   7.8059730  36.3878230  56.9956530  17.5942990
  35.7722500  57.5036200  17.0658450  36.0674650  56.0954860  17.5368930
  19.3903970  63.8374140  14.4209290  19.5535010  63.3679500  13.6028660
  19.8556420  63.3297700  15.0858130  24.1622740  52.9679900   9.4569860
  23.7190890  53.7489440   9.1254380  24.7207730  53.2909790  10.1640800
  28.4492550  55.8348420  15.0605180  27.9871920  56.0431440  15.8725120
  28.0470660  55.0207770  14.7575850  33.4497060  57.0557370  16.1901840
  32.5990650  56.7563120  16.5110910  33.2898850  57.2999380  15.2785660
  30.5446770  58.5559120  18.2900630  30.8700180  57.7222870  17.9502860
  31.3327100  59.0787640  18.4378960  27.2781560  52.5890600   4.3375690
  26.6535740  52.5850470   5.0629000  27.1911680  51.7221560   3.9411660
  26.1998640  53.5127230  11.3159460  26.4970970  54.4190060  11.2351480
  26.7484200  53.0246010  10.7019030  23.9536960  58.0913470   7.1851110
  23.7277880  57.8750640   8.0897730  23.1729490  58.5241930   6.8397080
  31.1834720  58.0976840   5.7841760  30.5843610  58.8212640   5.6005380
  31.7314330  58.0353620   5.0018210  26.3936170  58.9899050  17.8511380
  26.2979770  58.0493780  17.7011780  27.2368150  59.2114120  17.4559450
  29.7899590  56.7340380   7.8145040  30.1829160  57.0512580   7.0013730
  30.1516440  55.8552260   7.9289560  21.5246710  55.4012720  16.0045160
  21.1310100  56.2487930  16.2117940  20.8365110  54.7639090  16.1953800
  28.0991760  55.4847690  19.0741900  27.4090080  55.2919890  19.7087990
  28.8424060  55.7682330  19.6066200  18.8263760  53.3241180  10.0375240
  18.5376810  53.8944040  10.7500220  19.5709520  52.8445630  10.4006470
  30.3754730  59.3246130  11.9095820  29.6435850  59.8332940  12.2585920
  29.9779070  58.5076110  11.6084600  26.8132120  56.0000330  10.3148310
  26.8168180  55.5590280   9.4652850  27.7083240  56.3217660  10.4220130
  22.6634500  55.8826820   9.2742520  22.3234550  56.3602050  10.0309570
  21.9011820  55.4291940   8.9143620  26.8752270  57.0012410   3.3055070
  26.9965090  56.9598890   4.2540890  26.4900780  57.8636560   3.1501800
  30.8380640  54.7779810  11.3218760  30.8553380  55.2288460  12.1660610
  30.5896220  53.8785450  11.5352200  25.8873770  59.3113550   2.7038370
  25.3190670  58.8631800   2.0774280  26.5962770  59.6706330   2.1703520
  34.2651390  52.1911990  17.1605140  34.5897160  51.4601650  17.6863120
  34.3007900  51.8725630  16.2586130  20.9642950  63.2125570  16.5805100
  20.5797740  62.5719240  17.1788060  21.2755140  63.9161690  17.1499830
  27.1140090  60.0602110  12.0613720  27.4810220  59.5860680  12.8075060
  26.9245150  60.9343680  12.4022060  19.9780580  54.8045800   8.1907190
  19.6927500  54.4401470   9.0285810  19.9159440  54.0726260   7.5770330
  24.9039460  59.1010750  14.3797930  24.5996530  59.9802730  14.6048290
  25.8585920  59.1610540  14.4155370  23.4321250  63.3071740   4.9764780
  22.6583510  62.7669360   4.8163500  24.1615880  62.7878350   4.6382540
  34.1909230  62.3037100  10.7691170  34.9108350  62.7992390  10.3787280
  33.9891050  61.6254990  10.1245040  29.6519170  53.6975060   4.9120560
  28.8383780  53.1988230   4.8365870  29.4581120  54.5373310   4.4956910
  29.5728030  62.3746160  16.6560170  29.5065340  61.4541830  16.4017760
  28.9433170  62.4721600  17.3704810  32.3667560  58.0694710   3.2082720
  33.2547180  58.3811940   3.0334060  32.3372650  57.1966960   2.8163300
  23.4758650  62.9752120   8.6143590  23.9937320  62.1720380   8.5600480
  23.0242670  62.9131260   9.4560420  28.3628150  64.2418400   3.8870890
  28.7043850  64.9860630   3.3914210  27.5340860  64.5549520   4.2495720
  20.9603190  59.9413490  15.5269290  20.6018130  60.6067340  16.1142630
  20.6657750  59.1097040  15.8981910  24.1616310  60.3997730  18.4108840
  23.8616450  60.5454910  17.5136660  24.9327550  59.8403020  18.3182230
  29.5044760  65.1966730  16.4063970  29.5189300  64.2647690  16.1882880
  28.7969860  65.2826490  17.0453740  34.6381830  59.3806550   2.6762580
  34.5545550  59.8120770   1.8259020  35.3576020  59.8404900   3.1089400
  35.7155970  61.8374070  15.7532550  34.9904160  62.4302850  15.5561940
  36.2431430  61.8297610  14.9545920  35.6669080  66.2348810   5.4044710
  35.0245240  65.5804430   5.6788430  35.2799740  66.6403900   4.6285380
  31.2455560  63.5634240   9.2516400  31.5979380  62.9662370   8.5917770
  30.3617890  63.2378470   9.4224650  27.3318840  64.3231930   6.6586810
  28.0189970  64.8701140   7.0394400  26.5451260  64.8672660   6.6936420
  19.4711240  59.9404750   2.1503890  20.3406090  60.2229550   2.4339810
  18.9801560  60.7540620   2.0352700  26.6346050  61.3277960   6.2712170
  27.0908830  62.1383210   6.4972360  26.2834260  61.0101100   7.1030660
  28.9378660  66.8384300  13.5004470  29.5820880  67.0443680  14.1777890
  29.3008100  66.0772700  13.0475320  22.5357830  51.6715610   6.7434690
  22.4072460  51.6633510   7.6919610  21.7119850  52.0098700   6.3925700
  30.2110740  64.8416650  12.2181920  30.8532970  64.1409810  12.3314090
  30.7360090  65.6215090  12.0378810  31.9848360  65.6411550  15.4217980
  32.3204600  66.2278240  16.0995900  31.0648700  65.5104260  15.6515770
  19.8382490  69.1532130   2.7165520  20.1980130  69.7521470   2.0622790
  19.6974830  69.6992020   3.4900550  19.5351760  53.4306730  16.2041390
  18.8210280  53.6303650  16.8094000  19.9546800  52.6546300  16.5756190
  33.6382710  63.0437210   3.6035220  33.3504410  63.5049900   4.3913100
  34.4334880  62.5834980   3.8719440  19.8224350  67.4186990  17.1907920
  19.9315470  66.4781730  17.0503310  19.1704910  67.6841740  16.5421650
  25.8551110  66.5363330   3.5339190  25.8461210  67.2693020   2.9183700
  24.9349470  66.2894910   3.6266150  21.4557750  61.7578220   4.2785950
  20.8485700  62.4977120   4.2881250  21.9307100  61.8477580   3.4524150
  31.0290540  55.9229040  13.9542840  31.3971360  55.1024250  14.2822410
  30.1688740  55.9830930  14.3698490  34.3952570  54.8785980   4.7630400
  33.7665730  54.9831650   4.0488630  33.9004490  55.0982760   5.5524280
  26.3636600  57.1571930   6.1788280  25.6552750  57.6258270   6.6201890
  26.6481080  56.4993940   6.8133470  27.9892530  58.5768630  14.1780810
  28.4877780  59.0514450  14.8432660  28.1315480  57.6532150  14.3850840
  30.3952030  53.8822590   7.6184070  30.2719810  53.9008720   6.6693580
  31.3436590  53.9301530   7.7382470  27.4828820  69.1177890   6.8912050
  27.7370320  69.0799280   5.9691420  26.5341300  68.9911220   6.8840300
  24.5671620  55.4657010   3.5538990  25.4162150  55.9027160   3.4879180
  24.2002890  55.7777270   4.3811050  35.1959390  54.7936590  15.0209200
  34.6932990  55.5341990  15.3603010  36.0116050  55.1820590  14.7045990
  33.4881400  60.0369770   8.4670560  32.5471540  60.0520000   8.6418250
  33.8025470  59.2505730   8.9130860  22.1609800  59.1514440   2.7107410
  22.2413390  58.2041950   2.8224810  23.0529550  59.4821320   2.8168070
  35.4906980  67.2078620  10.1424820  35.6154400  68.0309790  10.6148630
  36.3572540  66.9969350   9.7948970  22.9624510  69.3009830   9.8141950
  23.6986990  68.7525290  10.0850520  23.3465430  70.1665840   9.6747940
  19.8469990  65.3683400   5.6883460  18.9209770  65.6104540   5.6788870
  20.3126420  66.1957660   5.5668210  21.9682790  68.4855900  19.0027530
  22.7695520  68.8067950  19.4162930  21.4534610  68.1251480  19.7247440
  35.1256990  67.7010270   3.0604260  34.8398500  67.2875410   2.2458440
  34.9276540  68.6297980   2.9404780  19.6880600  60.9729360  17.9463580
  20.1919620  60.3936640  18.5179810  18.9488020  61.2569590  18.4839950
  26.7418540  62.3800350  17.4799100  25.9764210  62.9485350  17.3953770
  26.9234500  62.0876560  16.5867330  29.8306950  62.7563580   2.1051860
  29.2817050  63.2032880   2.7494600  30.4526210  62.2512830   2.6289530
  33.8841890  64.1105680  18.0374120  34.6251360  64.4481440  17.5341580
  33.1214570  64.2797740  17.4843890  21.7203680  59.1158950  18.8413650
  21.7609020  58.8172820  19.7498880  22.5749180  59.5166560  18.6821170
  25.4982070  61.7154500   4.0017160  25.9198490  61.5494370   4.8448550
  25.6232910  60.9054730   3.5072300  23.6609490  57.6951050  16.8088140
  23.1305950  57.2042000  16.1811480  24.3297560  58.1235250  16.2746070
  32.5587550  62.1620510  16.5729330  32.9728570  62.3165590  17.4219750
  31.6238550  62.2875730  16.7355110  33.0309720  59.5016670  18.5768480
  33.6130490  58.7468990  18.4888960  33.2071490  60.0324110  17.7999960
  24.1481790  54.6613420  16.8885430  24.0538660  54.0434170  16.1636300
  23.5679180  55.3879710  16.6615340  26.9143230  53.2186660  13.9212820
  26.4660530  53.2410920  13.0758370  26.2808430  52.8205680  14.5183120
  27.3202780  62.1140990  14.5425260  27.7390890  62.9573720  14.3701500
  26.4011410  62.2513030  14.3132040  29.6566680  59.8457170  15.9263100
  29.7762890  59.2498310  16.6657940  30.5160680  59.8826860  15.5064400
  31.9954580  60.3994360  14.5025610  31.4689800  60.9236980  13.8990750
  32.3385920  61.0321750  15.1335340  25.1710200  68.4194000  15.6582990
  24.6331290  69.1440060  15.3391690  25.4244160  67.9424340  14.8680330
  26.4235450  56.3878520  17.1838920  27.0135140  56.0794370  17.8716740
  25.6055690  55.9158270  17.3398820  31.2428880  56.0044330  17.4171940
  30.5544400  55.3425870  17.3521930  31.9634900  55.5582600  17.8620400
  31.8729280  52.5995960   3.4762200  32.1531570  51.7563860   3.8321620
  31.0995010  52.8319070   3.9900950  28.0272410  69.6545210  15.9169640
  27.9531110  70.5580350  16.2242010  27.1251250  69.3357110  15.8891710
  28.5757740  68.8203720   3.5396000  29.4708530  69.1588690   3.5614760
  28.6075370  68.0983130   2.9120280  22.2153900  64.1930770   1.7683000
  22.6528770  64.7360440   2.4240580  22.7001630  63.3677720   1.7779340
  19.4299700  66.9819800   9.2203260  19.7602710  66.1140860   8.9881900
  19.8590700  67.1878320  10.0508220  24.0261620  65.3128810   6.8805230
  23.7257160  65.1893780   7.7809140  23.9199110  64.4537400   6.4720960
  19.9189910  67.8490390  11.9584890  19.4820900  68.0291190  12.7909040
  20.4867590  68.6065010  11.8166610  35.5552090  67.3507390  16.2462200
  34.9554080  67.4099950  15.5026120  35.6845990  66.4112370  16.3759050
  36.2510000  61.8372690   4.0866110  37.0128910  62.4069340   4.1925800
  36.2664370  61.2699890   4.8574420  19.7514340  60.3610620   8.3173770
  19.0963180  60.0922260   7.6733470  20.5892290  60.2515100   7.8675750
  37.2569970  62.6922790   8.9308040  37.6278800  61.9090110   8.5244010
  37.8971900  63.3811890   8.7525340  34.2403730  64.0759370  14.3438360
  33.4263570  64.5056530  14.6064150  34.6477930  64.6877780  13.7307410
  32.7004780  55.1551910   2.5392260  33.1189660  54.9682890   1.6988920
  32.3940840  54.3030960   2.8495190  36.1994510  60.0676050   6.2368060
  35.8238110  59.3003980   5.8049350  35.4697630  60.4498750   6.7242990
  20.7890270  60.7463190  12.8577110  21.1563310  60.6590590  13.7373130
  20.2201090  59.9829740  12.7583970  35.5894130  59.2147570  15.8707580
  35.3580220  58.9860320  14.9705530  35.8498680  60.1347120  15.8252470
  20.3406270  57.6572280  16.7635530  19.4462320  57.6239040  17.1029240
  20.8803820  57.8559070  17.5286780  34.0282200  54.4404000  18.6487280
  34.9052380  54.4487400  19.0321280  34.0403040  53.7034840  18.0379630
  18.9652420  57.5709550   4.2599100  18.0616500  57.8339750   4.0850760
  19.4493040  57.8420720   3.4799060  35.4745470  58.2933540   9.5375300
  35.9982950  57.7996190   8.9065470  36.0604890  58.4283900  10.2822870
  35.6535190  58.3773410  13.0594850  34.7037900  58.3436950  13.1739840
  35.8348200  59.2873520  12.8244620  34.9645440  57.5506890   5.4767710
  35.4604560  57.3177760   6.2616590  34.7661510  56.7118730   5.0605350
  20.8445980  51.9320610  11.1118750  21.4922170  51.3817990  10.6713910
  21.2647820  52.1863760  11.9334560  36.3932600  56.1867840   8.0105390
  36.2831880  56.0323880   8.9487660  37.1540190  55.6588780   7.7680800
  34.7398320  52.1261970  14.4688390  35.3770540  52.7396110  14.8347580
  34.8873210  52.1622630  13.5237620  37.3561360  54.7886420   3.8768240
  36.5612860  54.7231540   4.4061150  37.5604640  55.7237060   3.8653590
  34.2979780  68.8277970   7.8706630  34.8938850  68.5062540   7.1941050
  34.5557930  68.3549790   8.6619900  20.5977980  52.0876280  13.8544070
  20.2492800  52.5440100  14.6202250  20.2665680  51.1933410  13.9366500
  22.2042350  65.2595880  18.0197260  22.1611980  64.8888790  18.9011720
  22.3353360  66.1973450  18.1599080  25.9048380  66.8155470  13.6206980
  25.6639740  67.0830030  12.7337500  26.8451020  66.9861200  13.6757840
  28.1102800  53.2788160  17.3763490  28.0491690  53.8709990  18.1258900
  29.0503180  53.1714120  17.2313750  30.7477360  52.9358220  17.0155780
  31.3617770  53.2537510  16.3536860  31.2926920  52.4506810  17.6351640
  37.1652540  68.8349850  14.4217620  36.6710820  69.2318720  13.7044750
  36.5565830  68.2099060  14.8154900  21.2698620  51.6152480  17.1294840
  21.8181610  51.4340530  16.3660950  21.3353930  50.8246590  17.6651150
  22.0430380  68.2058130  15.1395040  21.4490700  68.0742830  15.8785080
  22.0354220  67.3696270  14.6737140  31.4885400  51.4990360  13.3425070
  30.6145240  51.8325470  13.1398000  31.3796150  51.0263540  14.1676940
  32.3957380  53.7061230  14.7266790  32.0670740  52.8912990  14.3468520
  33.3439680  53.6631040  14.6032480  34.8491990  69.4773270  11.7004360
  34.3894960  70.2289080  11.3262380  34.2204450  68.7579740  11.6419160
  21.6742610  65.5716510  14.0903080  20.9476670  64.9521800  14.0229030
  21.7351760  65.9657120  13.2201160  25.2787710  67.7861510  10.8752490
  25.7952730  67.1748870  10.3500750  25.9285090  68.2890290  11.3663500
  28.0183210  68.6770000  11.7021470  28.3061020  68.4224300  10.8254480
  28.5306430  68.1247360  12.2927040  29.2360220  52.4160200  12.2817980
  28.4532010  52.8905700  12.5614740  28.9423150  51.5115030  12.1731160
  33.7881290  53.1183300  10.3267070  34.2289380  53.0628400   9.4788670
  33.5188880  54.0341310  10.3977250  35.6519860  52.7498540   8.3375890
  35.5908260  51.8059760   8.1906910  36.4311890  52.8578630   8.8829350
  19.9572610  68.8890900   7.2999840  19.7894650  68.2561580   7.9981730
  19.0907120  69.0950300   6.9494030  20.5800630  52.7207680   4.8031700
  21.3379990  52.8336560   4.2295730  20.1177800  53.5576880   4.7575130
  27.1214440  54.8346950   7.7934010  26.3088950  54.4603840   7.4529890
  27.6256080  54.0792030   8.0955200  31.6239420  51.4989400   9.0317080
  32.2268790  52.0709610   9.5065600  30.8832410  52.0628840   8.8090980
  34.7674020  51.9010960   4.3057360  34.9624650  52.7994410   4.5724790
  33.9803890  51.6698040   4.7990310  21.5635310  67.5824130   4.7449980
  21.0382930  67.9632160   4.0411940  21.4879890  68.2074900   5.4659690
  22.9525780  53.2471730   3.3433670  23.4818540  52.4601530   3.2141620
  23.5854100  53.9262920   3.5769200  25.1463620  52.9846870   6.3979060
  24.5166360  52.2834180   6.5649190  24.6068760  53.7451000   6.1812220
  36.3200630  69.1411670   6.0663920  36.4952820  68.4549410   5.4224840
  35.6222200  69.6658720   5.6740590  25.2719180  52.2630850  18.8331550
  24.9903450  52.7664450  18.0692370  25.6538880  51.4652600  18.4673680
  24.1628280  69.5306510   3.6199230  24.8947100  69.2465790   3.0723120
  24.4221950  69.2919790   4.5098610  23.3243070  65.6471240   3.6245560
  22.6951950  66.1156340   4.1731390  23.4390900  64.8020460   4.0591750
  31.8734640  51.6784430  19.4112020  31.7600090  51.9979040  20.3063540
  32.6904380  52.0796940  19.1149300  30.7792790  40.9233410  64.8720720
  30.6986840  40.0088020  64.6012430  30.3657210  41.4200480  64.1660430
  28.9110830  42.7012430  66.7529990  28.1352930  42.2212870  67.0428560
  29.5623760  42.0218080  66.5786150  22.9276660  43.0132240  67.6305750
  22.0961540  42.7580950  68.0302260  23.5357640  43.0843010  68.3663670
  32.9318260  47.1072620  65.5329120  32.4699790  46.3359860  65.8616290
  33.7443810  47.1338690  66.0381570  22.9077920  47.0472330  67.8263770
  23.2105960  46.1570070  67.6473990  23.6521510  47.6042550  67.5986020
  21.3368610  37.9734130  61.4148140  20.4485310  38.3150100  61.3128020
  21.6209800  37.7734450  60.5228970  19.3001620  40.5739780  67.2987840
  19.8717730  39.8061980  67.2991480  19.3003160  40.8728540  66.3894450
  29.1581570  49.3930630  65.1533110  28.5393010  49.8488130  64.5827550
  30.0133350  49.5482090  64.7522810  28.3519820  45.3769620  66.7600150
  28.2828100  44.4359560  66.5989280  29.1139680  45.4671030  67.3322720
  20.5426490  35.9824140  69.0856770  20.3629330  35.0849890  69.3659530
  20.1406570  36.5296010  69.7603720  29.3824990  38.1840000  66.9869080
  29.7589810  37.3111880  66.8742750  29.2844500  38.5198700  66.0959520
  23.5130000  36.5565630  62.4486520  23.6196750  37.4569360  62.7555280
  22.6022360  36.5083600  62.1581170  33.1649110  35.6790440  63.9197420
  33.9858730  35.1887010  63.9622900  33.1983190  36.2688100  64.6729260
  21.1613160  38.4784640  67.6939110  21.8423270  38.7423010  68.3126510
  20.8461210  37.6385510  68.0277120  25.3537730  39.5252000  66.7811700
  25.8615950  40.0232970  67.4216720  25.8850970  38.7487200  66.6051060
  37.4548660  37.6957190  70.4841050  36.7500830  38.0838900  69.9656160
  37.7206580  38.3907480  71.0861980  23.6373830  34.1650560  71.0475120
  23.6392270  34.6822950  70.2421020  22.8078140  33.6880740  71.0245050
  30.0244920  44.2769870  62.5465020  29.4062190  44.7419320  61.9827740
  30.5368170  44.9697350  62.9634530  24.8876680  43.8045740  69.2248620
  24.5546060  44.4314660  69.8669690  25.0643360  44.3307620  68.4450290
  33.4010590  37.6190820  66.6924960  32.6966160  37.9075710  67.2728070
  33.7622750  38.4290930  66.3324520  23.3189160  35.8760520  69.0545570
  23.6605970  36.7202570  68.7599440  22.3804970  36.0244260  69.1710910
  24.0995780  45.7726540  71.0397800  24.7169780  46.4477620  70.7582250
  23.2388900  46.1814520  70.9485300  19.3928120  44.9626400  59.9204650
  19.0156100  45.4513500  59.1889550  19.6501190  45.6351680  60.5511180
  35.0173370  47.2365950  68.9552440  34.3336890  47.9065060  68.9469110
  35.5567660  47.4346600  68.1897300  36.4697510  37.0645610  67.0834170
  35.5222420  37.0984590  67.2149600  36.7947500  37.8784560  67.4683530
  27.0017050  33.3642790  65.3790160  27.3092030  32.8089680  64.6625660
  26.0717750  33.4987250  65.1963150  32.5532110  49.0810080  67.6697620
  32.5659270  48.6772370  66.8019880  32.0007330  49.8557370  67.5659050
  33.8477530  45.8026300  62.7587790  33.7373860  44.8600630  62.8837210
  33.8445780  46.1641940  63.6450550  31.9517550  43.9839920  68.9980230
  32.3686340  43.7700030  68.1633690  32.6757370  44.2412710  69.5688850
  29.3897810  41.4291620  62.1150280  28.4627090  41.3629000  62.3438750
  29.5422630  42.3671750  62.0005520  29.3766890  37.7008620  59.1117440
  28.4370560  37.8622580  59.1969900  29.6950150  38.4194300  58.5653430
  35.8979650  42.3827140  69.0896470  35.0698280  42.4520230  68.6146600
  36.4930130  42.9681450  68.6212300  33.4195100  42.9911920  62.6185530
  32.8007520  42.6531470  61.9711830  33.4019550  42.3471680  63.3264720
  32.8621660  39.1696460  70.0351340  32.4492840  39.9950170  70.2891330
  32.1297610  38.5841500  69.8427700  24.9954450  41.9556360  64.8970010
  24.5911450  41.2433610  64.4015910  25.0817570  41.6109600  65.7858050
  25.4636150  45.6423920  67.0609220  25.1664440  45.0369390  66.3817000
  26.4135970  45.6801230  66.9498580  23.7083070  38.7299570  68.6769050
  24.2597660  38.8394910  67.9022300  24.2226580  39.1037170  69.3924280
  33.5521760  49.2155790  70.7232320  33.0752320  50.0227980  70.5304930
  32.8683550  48.5634120  70.8758530  24.5554580  45.3805610  73.7117020
  23.6583110  45.6045580  73.9590420  24.5807450  45.5040550  72.7628420
  31.5959800  42.2298730  59.6258280  32.0353080  41.3921160  59.4796100
  32.3088220  42.8628130  59.7122420  23.3825800  42.2518930  72.2874390
  23.2433570  43.1241730  72.6561790  22.5007160  41.9091740  72.1422330
  29.7055180  47.1694800  63.5939520  30.1451090  47.9119130  63.1794910
  29.6442070  47.4121370  64.5178480  25.1806150  48.1940630  74.4959540
  25.1521580  48.5983580  73.6287970  25.0171120  47.2650990  74.3331140
  35.1776940  33.4841540  57.9399320  34.8649600  33.5768370  58.8398390
  35.9389410  34.0622570  57.8896750  21.6959080  40.8501340  62.3976660
  21.5756680  41.5763430  61.7857930  21.3859970  40.0804250  61.9204570
  19.3344450  44.0216480  68.2045300  19.4124870  44.1565250  67.2601020
  19.9486130  43.3132370  68.3973420  20.5792080  45.7216670  64.6151480
  20.1720160  45.8631260  63.7605080  21.4705090  45.4376830  64.4122690
  36.5354220  46.1680580  72.9523720  36.6617280  45.9292460  72.0340900
  36.5775600  45.3365120  73.4245800  30.3970960  49.8708580  71.5218530
  30.9115630  49.7816590  72.3240960  29.5540040  50.2168280  71.8146440
  24.8513740  49.9362450  62.7274150  24.6756220  49.0197990  62.5141950
  23.9969480  50.2949740  62.9671950  32.0751490  47.6651480  59.5100530
  31.3816650  47.6628770  58.8502810  32.8174350  47.2410800  59.0794700
  31.6401420  49.2914190  63.5849020  32.0958370  48.5103570  63.8987640
  31.9793940  50.0021010  64.1290200  36.3878230  38.2213040  73.9173460
  35.7722500  38.7292710  73.3888920  36.0674650  37.3211370  73.8599400
  19.3903970  45.0630650  70.7439760  19.5535010  44.5936010  69.9259130
  19.8556420  44.5554210  71.4088600  24.1622740  34.1936410  65.7800330
  23.7190890  34.9745950  65.4484850  24.7207730  34.5166300  66.4871270
  28.4492550  37.0604930  71.3835650  27.9871920  37.2687950  72.1955590
  28.0470660  36.2464280  71.0806320  33.4497060  38.2813880  72.5132310
  32.5990650  37.9819630  72.8341380  33.2898850  38.5255890  71.6016130
  30.5446770  39.7815630  74.6131100  30.8700180  38.9479380  74.2733330
  31.3327100  40.3044150  74.7609430  27.2781560  33.8147110  60.6606160
  26.6535740  33.8106980  61.3859470  27.1911680  32.9478070  60.2642130
  26.1998640  34.7383740  67.6389930  26.4970970  35.6446570  67.5581950
  26.7484200  34.2502520  67.0249500  23.9536960  39.3169980  63.5081580
  23.7277880  39.1007150  64.4128200  23.1729490  39.7498440  63.1627550
  31.1834720  39.3233350  62.1072230  30.5843610  40.0469150  61.9235850
  31.7314330  39.2610130  61.3248680  26.3936170  40.2155560  74.1741850
  26.2979770  39.2750290  74.0242250  27.2368150  40.4370630  73.7789920
  29.7899590  37.9596890  64.1375510  30.1829160  38.2769090  63.3244200
  30.1516440  37.0808770  64.2520030  21.5246710  36.6269230  72.3275630
  21.1310100  37.4744440  72.5348410  20.8365110  35.9895600  72.5184270
  18.8263760  34.5497690  66.3605710  18.5376810  35.1200550  67.0730690
  19.5709520  34.0702140  66.7236940  19.0133990  38.4917810  57.5708430
  18.9308660  39.4348570  57.7123420  18.6617050  38.3492720  56.6920780
  30.3754730  40.5502640  68.2326290  29.6435850  41.0589450  68.5816390
  29.9779070  39.7332620  67.9315070  26.8132120  37.2256840  66.6378780
  26.8168180  36.7846790  65.7883320  27.7083240  37.5474170  66.7450600
  22.6634500  37.1083330  65.5972990  22.3234550  37.5858560  66.3540040
  21.9011820  36.6548450  65.2374090  26.8752270  38.2268920  59.6285540
  26.9965090  38.1855400  60.5771360  26.4900780  39.0893070  59.4732270
  30.8380640  36.0036320  67.6449230  30.8553380  36.4544970  68.4891080
  30.5896220  35.1041960  67.8582670  25.8873770  40.5370060  59.0268840
  25.3190670  40.0888310  58.4004750  26.5962770  40.8962840  58.4933990
  34.2651390  33.4168500  73.4835610  34.5897160  32.6858160  74.0093590
  34.3007900  33.0982140  72.5816600  20.9642950  44.4382080  72.9035570
  20.5797740  43.7975750  73.5018530  21.2755140  45.1418200  73.4730300
  27.1140090  41.2858620  68.3844190  27.4810220  40.8117190  69.1305530
  26.9245150  42.1600190  68.7252530  19.9780580  36.0302310  64.5137660
  19.6927500  35.6657980  65.3516280  19.9159440  35.2982770  63.9000800
  24.9039460  40.3267260  70.7028400  24.5996530  41.2059240  70.9278760
  25.8585920  40.3867050  70.7385840  23.4321250  44.5328250  61.2995250
  22.6583510  43.9925870  61.1393970  24.1615880  44.0134860  60.9613010
  34.1909230  43.5293610  67.0921640  34.9108350  44.0248900  66.7017750
  33.9891050  42.8511500  66.4475510  29.6519170  34.9231570  61.2351030
  28.8383780  34.4244740  61.1596340  29.4581120  35.7629820  60.8187380
  29.5728030  43.6002670  72.9790640  29.5065340  42.6798340  72.7248230
  28.9433170  43.6978110  73.6935280  32.3667560  39.2951220  59.5313190
  33.2547180  39.6068450  59.3564530  32.3372650  38.4223470  59.1393770
  23.4758650  44.2008630  64.9374060  23.9937320  43.3976890  64.8830950
  23.0242670  44.1387770  65.7790890  28.3628150  45.4674910  60.2101360
  28.7043850  46.2117140  59.7144680  27.5340860  45.7806030  60.5726190
  20.9603190  41.1670000  71.8499760  20.6018130  41.8323850  72.4373100
  20.6657750  40.3353550  72.2212380  24.1616310  41.6254240  74.7339310
  23.8616450  41.7711420  73.8367130  24.9327550  41.0659530  74.6412700
  29.5044760  46.4223240  72.7294440  29.5189300  45.4904200  72.5113350
  28.7969860  46.5083000  73.3684210  34.6381830  40.6063060  58.9993050
  34.5545550  41.0377280  58.1489490  35.3576020  41.0661410  59.4319870
  35.7155970  43.0630580  72.0763020  34.9904160  43.6559360  71.8792410
  36.2431430  43.0554120  71.2776390  35.6669080  47.4605320  61.7275180
  35.0245240  46.8060940  62.0018900  35.2799740  47.8660410  60.9515850
  31.2455560  44.7890750  65.5746870  31.5979380  44.1918880  64.9148240
  30.3617890  44.4634980  65.7455120  27.3318840  45.5488440  62.9817280
  28.0189970  46.0957650  63.3624870  26.5451260  46.0929170  63.0166890
  19.4711240  41.1661260  58.4734360  20.3406090  41.4486060  58.7570280
  18.9801560  41.9797130  58.3583170  26.6346050  42.5534470  62.5942640
  27.0908830  43.3639720  62.8202830  26.2834260  42.2357610  63.4261130
  28.9378660  48.0640810  69.8234940  29.5820880  48.2700190  70.5008360
  29.3008100  47.3029210  69.3705790  22.5357830  32.8972120  63.0665160
  22.4072460  32.8890020  64.0150080  21.7119850  33.2355210  62.7156170
  30.2110740  46.0673160  68.5412390  30.8532970  45.3666320  68.6544560
  30.7360090  46.8471600  68.3609280  34.0566460  46.3521780  58.2651530
  33.8304040  45.6352220  58.8576170  33.6662660  46.1034220  57.4273280
  31.9848360  46.8668060  71.7448450  32.3204600  47.4534750  72.4226370
  31.0648700  46.7360770  71.9746240  19.8382490  50.3788640  59.0395990
  20.1980130  50.9777980  58.3853260  19.6974830  50.9248530  59.8131020
  19.5351760  34.6563240  72.5271860  18.8210280  34.8560160  73.1324470
  19.9546800  33.8802810  72.8986660  33.6382710  44.2693720  59.9265690
  33.3504410  44.7306410  60.7143570  34.4334880  43.8091490  60.1949910
  19.8224350  48.6443500  73.5138390  19.9315470  47.7038240  73.3733780
  19.1704910  48.9098250  72.8652120  25.8551110  47.7619840  59.8569660
  25.8461210  48.4949530  59.2414170  24.9349470  47.5151420  59.9496620
  21.4557750  42.9834730  60.6016420  20.8485700  43.7233630  60.6111720
  21.9307100  43.0734090  59.7754620  31.0290540  37.1485550  70.2773310
  31.3971360  36.3280760  70.6052880  30.1688740  37.2087440  70.6928960
  34.3952570  36.1042490  61.0860870  33.7665730  36.2088160  60.3719100
  33.9004490  36.3239270  61.8754750  26.3636600  38.3828440  62.5018750
  25.6552750  38.8514780  62.9432360  26.6481080  37.7250450  63.1363940
  27.9892530  39.8025140  70.5011280  28.4877780  40.2770960  71.1663130
  28.1315480  38.8788660  70.7081310  30.3952030  35.1079100  63.9414540
  30.2719810  35.1265230  62.9924050  31.3436590  35.1558040  64.0612940
  24.5671620  36.6913520  59.8769460  25.4162150  37.1283670  59.8109650
  24.2002890  37.0033780  60.7041520  35.1959390  36.0193100  71.3439670
  34.6932990  36.7598500  71.6833480  36.0116050  36.4077100  71.0276460
  33.4881400  41.2626280  64.7901030  32.5471540  41.2776510  64.9648720
  33.8025470  40.4762240  65.2361330  23.4663040  42.9445880  58.3504990
  24.2326310  42.8327240  58.9130420  23.5437730  42.2483850  57.6981760
  22.1609800  40.3770950  59.0337880  22.2413390  39.4298460  59.1455280
  23.0529550  40.7077830  59.1398540  35.4906980  48.4335130  66.4655290
  35.6154400  49.2566300  66.9379100  36.3572540  48.2225860  66.1179440
  22.9624510  50.5266340  66.1372420  23.6986990  49.9781800  66.4080990
  23.3465430  51.3922350  65.9978410  19.8469990  46.5939910  62.0113930
  18.9209770  46.8361050  62.0019340  20.3126420  47.4214170  61.8898680
  32.2347790  49.5472570  73.8842820  33.1869540  49.4630590  73.8343060
  32.0876010  50.2114280  74.5576610  35.1256990  48.9266780  59.3834730
  34.8398500  48.5131920  58.5688910  34.9276540  49.8554490  59.2635250
  19.6880600  42.1985870  74.2694050  20.1919620  41.6193150  74.8410280
  18.9488020  42.4826100  74.8070420  26.5904220  44.9200060  57.8240340
  26.4854860  44.3052410  58.5501720  26.4228440  44.3965950  57.0403350
  26.7418540  43.6056860  73.8029570  25.9764210  44.1741860  73.7184240
  26.9234500  43.3133070  72.9097800  29.8306950  43.9820090  58.4282330
  29.2817050  44.4289390  59.0725070  30.4526210  43.4769340  58.9520000
  33.8841890  45.3362190  74.3604590  34.6251360  45.6737950  73.8572050
  33.1214570  45.5054250  73.8074360  25.4982070  42.9411010  60.3247630
  25.9198490  42.7750880  61.1679020  25.6232910  42.1311240  59.8302770
  23.6609490  38.9207560  73.1318610  23.1305950  38.4298510  72.5041950
  24.3297560  39.3491760  72.5976540  28.0109710  41.9648620  57.5724730
  28.5315370  41.2497640  57.2065880  28.6578110  42.6034490  57.8725240
  32.5587550  43.3877020  72.8959800  32.9728570  43.5422100  73.7450220
  31.6238550  43.5132240  73.0585580  33.0309720  40.7273180  74.8998950
  33.6130490  39.9725500  74.8119430  33.2071490  41.2580620  74.1230430
  24.1481790  35.8869930  73.2115900  24.0538660  35.2690680  72.4866770
  23.5679180  36.6136220  72.9845810  26.9143230  34.4443170  70.2443290
  26.4660530  34.4667430  69.3988840  26.2808430  34.0462190  70.8413590
  27.3202780  43.3397500  70.8655730  27.7390890  44.1830230  70.6931970
  26.4011410  43.4769540  70.6362510  29.6566680  41.0713680  72.2493570
  29.7762890  40.4754820  72.9888410  30.5160680  41.1083370  71.8294870
  31.9954580  41.6250870  70.8256080  31.4689800  42.1493490  70.2221220
  32.3385920  42.2578260  71.4565810  24.3940970  39.0144240  57.2705790
  24.1930030  38.1511600  57.6319130  24.2233020  38.9277600  56.3327390
  25.1710200  49.6450510  71.9813460  24.6331290  50.3696570  71.6622160
  25.4244160  49.1680850  71.1910800  26.4235450  37.6135030  73.5069390
  27.0135140  37.3050880  74.1947210  25.6055690  37.1414780  73.6629290
  31.2428880  37.2300840  73.7402410  30.5544400  36.5682380  73.6752400
  31.9634900  36.7839110  74.1850870  31.8729280  33.8252470  59.7992670
  32.1531570  32.9820370  60.1552090  31.0995010  34.0575580  60.3131420
  23.1923770  36.1144860  57.2583670  23.4949670  36.1212290  56.3502820
  23.9318360  35.7642720  57.7551330  28.0272410  50.8801720  72.2400110
  27.9531110  51.7836860  72.5472480  27.1251250  50.5613620  72.2122180
  26.4108700  35.0579480  58.2439870  26.0630700  34.3803470  57.6642320
  26.6121470  34.5968990  59.0583260  22.2153900  45.4187280  58.0913470
  22.6528770  45.9616950  58.7471050  22.7001630  44.5934230  58.1009810
  19.4299700  48.2076310  65.5433730  19.7602710  47.3397370  65.3112370
  19.8590700  48.4134830  66.3738690  24.0261620  46.5385320  63.2035700
  23.7257160  46.4150290  64.1039610  23.9199110  45.6793910  62.7951430
  19.9189910  49.0746900  68.2815360  19.4820900  49.2547700  69.1139510
  20.4867590  49.8321520  68.1397080  35.5552090  48.5763900  72.5692670
  34.9554080  48.6356460  71.8256590  35.6845990  47.6368880  72.6989520
  36.7953540  46.3181720  57.9062380  35.9646500  46.3858370  58.3769610
  36.9725370  47.2085840  57.6029240  36.2510000  43.0629200  60.4096580
  37.0128910  43.6325850  60.5156270  36.2664370  42.4956400  61.1804890
  19.7514340  41.5867130  64.6404240  19.0963180  41.3178770  63.9963940
  20.5892290  41.4771610  64.1906220  37.2569970  43.9179300  65.2538510
  37.6278800  43.1346620  64.8474480  37.8971900  44.6068400  65.0755810
  34.2403730  45.3015880  70.6668830  33.4263570  45.7313040  70.9294620
  34.6477930  45.9134290  70.0537880  36.3029170  43.3563570  57.5669100
  36.5778010  44.2642450  57.4388320  36.1139910  43.2926100  58.5031090
  32.7004780  36.3808420  58.8622730  33.1189660  36.1939400  58.0219390
  32.3940840  35.5287470  59.1725660  36.1994510  41.2932560  62.5598530
  35.8238110  40.5260490  62.1279820  35.4697630  41.6755260  63.0473460
  20.7890270  41.9719700  69.1807580  21.1563310  41.8847100  70.0603600
  20.2201090  41.2086250  69.0814440  35.5894130  40.4404080  72.1938050
  35.3580220  40.2116830  71.2936000  35.8498680  41.3603630  72.1482940
  20.3406270  38.8828790  73.0866000  19.4462320  38.8495550  73.4259710
  20.8803820  39.0815580  73.8517250  18.9652420  38.7966060  60.5829570
  18.0616500  39.0596260  60.4081230  19.4493040  39.0677230  59.8029530
  35.4745470  39.5190050  65.8605770  35.9982950  39.0252700  65.2295940
  36.0604890  39.6540410  66.6053340  35.6535190  39.6029920  69.3825320
  34.7037900  39.5693460  69.4970310  35.8348200  40.5130030  69.1475090
  21.5079630  37.8531600  58.4923950  22.2171330  37.4314820  58.0071230
  20.7919570  37.9206830  57.8607300  21.1553790  33.9070930  57.5326600
  21.8781920  34.4479870  57.8507820  21.4278310  33.6334350  56.6568140
  34.9645440  38.7763400  61.7998180  35.4604560  38.5434270  62.5847060
  34.7661510  37.9375240  61.3835820  20.8445980  33.1577120  67.4349220
  21.4922170  32.6074500  66.9944380  21.2647820  33.4120270  68.2565030
  36.3932600  37.4124350  64.3335860  36.2831880  37.2580390  65.2718130
  37.1540190  36.8845290  64.0911270  34.7398320  33.3518480  70.7918860
  35.3770540  33.9652620  71.1578050  34.8873210  33.3879140  69.8468090
  37.2822870  35.2432270  57.5742000  38.2072180  35.1113450  57.3660290
  37.2598660  35.3225090  58.5278450  37.3561360  36.0142930  60.1998710
  36.5612860  35.9488050  60.7291620  37.5604640  36.9493570  60.1884060
  34.2979780  50.0534480  64.1937100  34.8938850  49.7319050  63.5171520
  34.5557930  49.5806300  64.9850370  20.5977980  33.3132790  70.1774540
  20.2492800  33.7696610  70.9432720  20.2665680  32.4189920  70.2596970
  25.9048380  48.0411980  69.9437450  25.6639740  48.3086540  69.0567970
  26.8451020  48.2117710  69.9988310  28.1102800  34.5044670  73.6993960
  28.0491690  35.0966500  74.4489370  29.0503180  34.3970630  73.5544220
  30.7477360  34.1614730  73.3386250  31.3617770  34.4794020  72.6767330
  31.2926920  33.6763320  73.9582110  37.1652540  50.0606360  70.7448090
  36.6710820  50.4575230  70.0275220  36.5565830  49.4355570  71.1385370
  21.2698620  32.8408990  73.4525310  21.8181610  32.6597040  72.6891420
  21.3353930  32.0503100  73.9881620  22.0430380  49.4314640  71.4625510
  21.4490700  49.2999340  72.2015550  22.0354220  48.5952780  70.9967610
  31.4885400  32.7246870  69.6655540  30.6145240  33.0581980  69.4628470
  31.3796150  32.2520050  70.4907410  32.3957380  34.9317740  71.0497260
  32.0670740  34.1169500  70.6698990  33.3439680  34.8887550  70.9262950
  34.8491990  50.7029780  68.0234830  34.3894960  51.4545590  67.6492850
  34.2204450  49.9836250  67.9649630  21.6742610  46.7973020  70.4133550
  20.9476670  46.1778310  70.3459500  21.7351760  47.1913630  69.5431630
  25.2787710  49.0118020  67.1982960  25.7952730  48.4005380  66.6731220
  25.9285090  49.5146800  67.6893970  28.0183210  49.9026510  68.0251940
  28.3061020  49.6480810  67.1484950  28.5306430  49.3503870  68.6157510
  29.2360220  33.6416710  68.6048450  28.4532010  34.1162210  68.8845210
  28.9423150  32.7371540  68.4961630  33.7881290  34.3439810  66.6497540
  34.2289380  34.2884910  65.8019140  33.5188880  35.2597820  66.7207720
  35.6519860  33.9755050  64.6606360  35.5908260  33.0316270  64.5137380
  36.4311890  34.0835140  65.2059820  19.9572610  50.1147410  63.6230310
  19.7894650  49.4818090  64.3212200  19.0907120  50.3206810  63.2724500
  20.5800630  33.9464190  61.1262170  21.3379990  34.0593070  60.5526200
  20.1177800  34.7833390  61.0805600  27.1214440  36.0603460  64.1164480
  26.3088950  35.6860350  63.7760360  27.6256080  35.3048540  64.4185670
  31.6239420  32.7245910  65.3547550  32.2268790  33.2966120  65.8296070
  30.8832410  33.2885350  65.1321450  34.7674020  33.1267470  60.6287830
  34.9624650  34.0250920  60.8955260  33.9803890  32.8954550  61.1220780
  21.5635310  48.8080640  61.0680450  21.0382930  49.1888670  60.3642410
  21.4879890  49.4331410  61.7890160  22.9525780  34.4728240  59.6664140
  23.4818540  33.6858040  59.5372090  23.5854100  35.1519430  59.8999670
  25.1463620  34.2103380  62.7209530  24.5166360  33.5090690  62.8879660
  24.6068760  34.9707510  62.5042690  36.3200630  50.3668180  62.3894390
  36.4952820  49.6805920  61.7455310  35.6222200  50.8915230  61.9971060
  24.1628280  50.7563020  59.9429700  24.8947100  50.4722300  59.3953590
  24.4221950  50.5176300  60.8329080  23.3243070  46.8727750  59.9476030
  22.6951950  47.3412850  60.4961860  23.4390900  46.0276970  60.3822220
  28.9110830  42.7012430  47.9786500  28.1352930  42.2212870  48.2685070
  29.5623760  42.0218080  47.8042660  22.9276660  43.0132240  48.8562260
  22.0961540  42.7580950  49.2558770  23.5357640  43.0843010  49.5920180
  22.9077920  47.0472330  49.0520280  23.2105960  46.1570070  48.8730500
  23.6521510  47.6042550  48.8242530  21.3368610  37.9734130  42.6404650
  20.4485310  38.3150100  42.5384530  21.6209800  37.7734450  41.7485480
  19.3001620  40.5739780  48.5244350  19.8717730  39.8061980  48.5247990
  19.3003160  40.8728540  47.6150960  28.3519820  45.3769620  47.9856660
  28.2828100  44.4359560  47.8245790  29.1139680  45.4671030  48.5579230
  20.5426490  35.9824140  50.3113280  20.3629330  35.0849890  50.5916040
  20.1406570  36.5296010  50.9860230  29.3824990  38.1840000  48.2125590
  29.7589810  37.3111880  48.0999260  29.2844500  38.5198700  47.3216030
  23.5130000  36.5565630  43.6743030  23.6196750  37.4569360  43.9811790
  22.6022360  36.5083600  43.3837680  33.1649110  35.6790440  45.1453930
  33.9858730  35.1887010  45.1879410  33.1983190  36.2688100  45.8985770
  21.1613160  38.4784640  48.9195620  21.8423270  38.7423010  49.5383020
  20.8461210  37.6385510  49.2533630  25.3537730  39.5252000  48.0068210
  25.8615950  40.0232970  48.6473230  25.8850970  38.7487200  47.8307570
  37.4548660  37.6957190  51.7097560  36.7500830  38.0838900  51.1912670
  37.7206580  38.3907480  52.3118490  23.6373830  34.1650560  52.2731630
  23.6392270  34.6822950  51.4677530  22.8078140  33.6880740  52.2501560
  30.0244920  44.2769870  43.7721530  29.4062190  44.7419320  43.2084250
  30.5368170  44.9697350  44.1891040  24.8876680  43.8045740  50.4505130
  24.5546060  44.4314660  51.0926200  25.0643360  44.3307620  49.6706800
  23.3189160  35.8760520  50.2802080  23.6605970  36.7202570  49.9855950
  22.3804970  36.0244260  50.3967420  24.0995780  45.7726540  52.2654310
  24.7169780  46.4477620  51.9838760  23.2388900  46.1814520  52.1741810
  19.3928120  44.9626400  41.1461160  19.0156100  45.4513500  40.4146060
  19.6501190  45.6351680  41.7767690  27.0017050  33.3642790  46.6046670
  27.3092030  32.8089680  45.8882170  26.0717750  33.4987250  46.4219660
  29.3897810  41.4291620  43.3406790  28.4627090  41.3629000  43.5695260
  29.5422630  42.3671750  43.2262030  29.3766890  37.7008620  40.3373950
  28.4370560  37.8622580  40.4226410  29.6950150  38.4194300  39.7909940
  24.9954450  41.9556360  46.1226520  24.5911450  41.2433610  45.6272420
  25.0817570  41.6109600  47.0114560  25.4636150  45.6423920  48.2865730
  25.1664440  45.0369390  47.6073510  26.4135970  45.6801230  48.1755090
  23.7083070  38.7299570  49.9025560  24.2597660  38.8394910  49.1278810
  24.2226580  39.1037170  50.6180790  24.5554580  45.3805610  54.9373530
  23.6583110  45.6045580  55.1846930  24.5807450  45.5040550  53.9884930
  31.5959800  42.2298730  40.8514790  32.0353080  41.3921160  40.7052610
  32.3088220  42.8628130  40.9378930  23.3825800  42.2518930  53.5130900
  23.2433570  43.1241730  53.8818300  22.5007160  41.9091740  53.3678840
  35.1776940  33.4841540  39.1655830  34.8649600  33.5768370  40.0654900
  35.9389410  34.0622570  39.1153260  21.6959080  40.8501340  43.6233170
  21.5756680  41.5763430  43.0114440  21.3859970  40.0804250  43.1461080
  19.3344450  44.0216480  49.4301810  19.4124870  44.1565250  48.4857530
  19.9486130  43.3132370  49.6229930  20.5792080  45.7216670  45.8407990
  20.1720160  45.8631260  44.9861590  21.4705090  45.4376830  45.6379200
  32.0751490  47.6651480  40.7357040  31.3816650  47.6628770  40.0759320
  32.8174350  47.2410800  40.3051210  36.3878230  38.2213040  55.1429970
  35.7722500  38.7292710  54.6145430  36.0674650  37.3211370  55.0855910
  19.3903970  45.0630650  51.9696270  19.5535010  44.5936010  51.1515640
  19.8556420  44.5554210  52.6345110  24.1622740  34.1936410  47.0056840
  23.7190890  34.9745950  46.6741360  24.7207730  34.5166300  47.7127780
  28.4492550  37.0604930  52.6092160  27.9871920  37.2687950  53.4212100
  28.0470660  36.2464280  52.3062830  33.4497060  38.2813880  53.7388820
  32.5990650  37.9819630  54.0597890  33.2898850  38.5255890  52.8272640
  30.5446770  39.7815630  55.8387610  30.8700180  38.9479380  55.4989840
  31.3327100  40.3044150  55.9865940  27.2781560  33.8147110  41.8862670
  26.6535740  33.8106980  42.6115980  27.1911680  32.9478070  41.4898640
  26.1998640  34.7383740  48.8646440  26.4970970  35.6446570  48.7838460
  26.7484200  34.2502520  48.2506010  23.9536960  39.3169980  44.7338090
  23.7277880  39.1007150  45.6384710  23.1729490  39.7498440  44.3884060
  31.1834720  39.3233350  43.3328740  30.5843610  40.0469150  43.1492360
  31.7314330  39.2610130  42.5505190  26.3936170  40.2155560  55.3998360
  26.2979770  39.2750290  55.2498760  27.2368150  40.4370630  55.0046430
  29.7899590  37.9596890  45.3632020  30.1829160  38.2769090  44.5500710
  30.1516440  37.0808770  45.4776540  21.5246710  36.6269230  53.5532140
  21.1310100  37.4744440  53.7604920  20.8365110  35.9895600  53.7440780
  28.0991760  36.7104200  56.6228880  27.4090080  36.5176400  57.2574970
  28.8424060  36.9938840  57.1553180  18.8263760  34.5497690  47.5862220
  18.5376810  35.1200550  48.2987200  19.5709520  34.0702140  47.9493450
  19.0133990  38.4917810  38.7964940  18.9308660  39.4348570  38.9379930
  18.6617050  38.3492720  37.9177290  26.8132120  37.2256840  47.8635290
  26.8168180  36.7846790  47.0139830  27.7083240  37.5474170  47.9707110
  22.6634500  37.1083330  46.8229500  22.3234550  37.5858560  47.5796550
  21.9011820  36.6548450  46.4630600  26.8752270  38.2268920  40.8542050
  26.9965090  38.1855400  41.8027870  26.4900780  39.0893070  40.6988780
  30.8380640  36.0036320  48.8705740  30.8553380  36.4544970  49.7147590
  30.5896220  35.1041960  49.0839180  25.8873770  40.5370060  40.2525350
  25.3190670  40.0888310  39.6261260  26.5962770  40.8962840  39.7190500
  34.2651390  33.4168500  54.7092120  34.5897160  32.6858160  55.2350100
  34.3007900  33.0982140  53.8073110  20.9642950  44.4382080  54.1292080
  20.5797740  43.7975750  54.7275040  21.2755140  45.1418200  54.6986810
  27.1140090  41.2858620  49.6100700  27.4810220  40.8117190  50.3562040
  26.9245150  42.1600190  49.9509040  19.9780580  36.0302310  45.7394170
  19.6927500  35.6657980  46.5772790  19.9159440  35.2982770  45.1257310
  24.9039460  40.3267260  51.9284910  24.5996530  41.2059240  52.1535270
  25.8585920  40.3867050  51.9642350  23.4321250  44.5328250  42.5251760
  22.6583510  43.9925870  42.3650480  24.1615880  44.0134860  42.1869520
  29.6519170  34.9231570  42.4607540  28.8383780  34.4244740  42.3852850
  29.4581120  35.7629820  42.0443890  29.5728030  43.6002670  54.2047150
  29.5065340  42.6798340  53.9504740  28.9433170  43.6978110  54.9191790
  23.4758650  44.2008630  46.1630570  23.9937320  43.3976890  46.1087460
  23.0242670  44.1387770  47.0047400  28.3628150  45.4674910  41.4357870
  28.7043850  46.2117140  40.9401190  27.5340860  45.7806030  41.7982700
  20.9603190  41.1670000  53.0756270  20.6018130  41.8323850  53.6629610
  20.6657750  40.3353550  53.4468890  24.1616310  41.6254240  55.9595820
  23.8616450  41.7711420  55.0623640  24.9327550  41.0659530  55.8669210
  27.3318840  45.5488440  44.2073790  28.0189970  46.0957650  44.5881380
  26.5451260  46.0929170  44.2423400  19.4711240  41.1661260  39.6990870
  20.3406090  41.4486060  39.9826790  18.9801560  41.9797130  39.5839680
  26.6346050  42.5534470  43.8199150  27.0908830  43.3639720  44.0459340
  26.2834260  42.2357610  44.6517640  22.5357830  32.8972120  44.2921670
  22.4072460  32.8890020  45.2406590  21.7119850  33.2355210  43.9412680
  34.0566460  46.3521780  39.4908040  33.8304040  45.6352220  40.0832680
  33.6662660  46.1034220  38.6529790  19.8382490  50.3788640  40.2652500
  20.1980130  50.9777980  39.6109770  19.6974830  50.9248530  41.0387530
  19.5351760  34.6563240  53.7528370  18.8210280  34.8560160  54.3580980
  19.9546800  33.8802810  54.1243170  19.8224350  48.6443500  54.7394900
  19.9315470  47.7038240  54.5990290  19.1704910  48.9098250  54.0908630
  21.4557750  42.9834730  41.8272930  20.8485700  43.7233630  41.8368230
  21.9307100  43.0734090  41.0011130  31.0290540  37.1485550  51.5029820
  31.3971360  36.3280760  51.8309390  30.1688740  37.2087440  51.9185470
  34.3952570  36.1042490  42.3117380  33.7665730  36.2088160  41.5975610
  33.9004490  36.3239270  43.1011260  26.3636600  38.3828440  43.7275260
  25.6552750  38.8514780  44.1688870  26.6481080  37.7250450  44.3620450
  27.9892530  39.8025140  51.7267790  28.4877780  40.2770960  52.3919640
  28.1315480  38.8788660  51.9337820  30.3952030  35.1079100  45.1671050
  30.2719810  35.1265230  44.2180560  31.3436590  35.1558040  45.2869450
  24.5671620  36.6913520  41.1025970  25.4162150  37.1283670  41.0366160
  24.2002890  37.0033780  41.9298030  35.1959390  36.0193100  52.5696180
  34.6932990  36.7598500  52.9089990  36.0116050  36.4077100  52.2532970
  23.4663040  42.9445880  39.5761500  24.2326310  42.8327240  40.1386930
  23.5437730  42.2483850  38.9238270  22.1609800  40.3770950  40.2594390
  22.2413390  39.4298460  40.3711790  23.0529550  40.7077830  40.3655050
  19.8469990  46.5939910  43.2370440  18.9209770  46.8361050  43.2275850
  20.3126420  47.4214170  43.1155190  21.9682790  49.7112410  56.5514510
  22.7695520  50.0324460  56.9649910  21.4534610  49.3507990  57.2734420
  30.8047420  45.8192280  56.4989920  30.1985580  45.8423880  55.7585670
  30.5001530  45.0875320  57.0357170  35.1256990  48.9266780  40.6091240
  34.8398500  48.5131920  39.7945420  34.9276540  49.8554490  40.4891760
  19.6880600  42.1985870  55.4950560  20.1919620  41.6193150  56.0666790
  18.9488020  42.4826100  56.0326930  26.5904220  44.9200060  39.0496850
  26.4854860  44.3052410  39.7758230  26.4228440  44.3965950  38.2659860
  26.7418540  43.6056860  55.0286080  25.9764210  44.1741860  54.9440750
  26.9234500  43.3133070  54.1354310  29.8306950  43.9820090  39.6538840
  29.2817050  44.4289390  40.2981580  30.4526210  43.4769340  40.1776510
  33.8841890  45.3362190  55.5861100  34.6251360  45.6737950  55.0828560
  33.1214570  45.5054250  55.0330870  21.7203680  40.3415460  56.3900630
  21.7609020  40.0429330  57.2985860  22.5749180  40.7423070  56.2308150
  25.4982070  42.9411010  41.5504140  25.9198490  42.7750880  42.3935530
  25.6232910  42.1311240  41.0559280  23.6609490  38.9207560  54.3575120
  23.1305950  38.4298510  53.7298460  24.3297560  39.3491760  53.8233050
  28.0109710  41.9648620  38.7981240  28.5315370  41.2497640  38.4322390
  28.6578110  42.6034490  39.0981750  32.5587550  43.3877020  54.1216310
  32.9728570  43.5422100  54.9706730  31.6238550  43.5132240  54.2842090
  33.0309720  40.7273180  56.1255460  33.6130490  39.9725500  56.0375940
  33.2071490  41.2580620  55.3486940  24.1481790  35.8869930  54.4372410
  24.0538660  35.2690680  53.7123280  23.5679180  36.6136220  54.2102320
  26.9143230  34.4443170  51.4699800  26.4660530  34.4667430  50.6245350
  26.2808430  34.0462190  52.0670100  27.3202780  43.3397500  52.0912240
  27.7390890  44.1830230  51.9188480  26.4011410  43.4769540  51.8619020
  29.6566680  41.0713680  53.4750080  29.7762890  40.4754820  54.2144920
  30.5160680  41.1083370  53.0551380  24.3940970  39.0144240  38.4962300
  24.1930030  38.1511600  38.8575640  24.2233020  38.9277600  37.5583900
  26.4235450  37.6135030  54.7325900  27.0135140  37.3050880  55.4203720
  25.6055690  37.1414780  54.8885800  31.2428880  37.2300840  54.9658920
  30.5544400  36.5682380  54.9008910  31.9634900  36.7839110  55.4107380
  31.8729280  33.8252470  41.0249180  32.1531570  32.9820370  41.3808600
  31.0995010  34.0575580  41.5387930  23.1923770  36.1144860  38.4840180
  23.4949670  36.1212290  37.5759330  23.9318360  35.7642720  38.9807840
  26.4108700  35.0579480  39.4696380  26.0630700  34.3803470  38.8898830
  26.6121470  34.5968990  40.2839770  22.2153900  45.4187280  39.3169980
  22.6528770  45.9616950  39.9727560  22.7001630  44.5934230  39.3266320
  19.4299700  48.2076310  46.7690240  19.7602710  47.3397370  46.5368880
  19.8590700  48.4134830  47.5995200  24.0261620  46.5385320  44.4292210
  23.7257160  46.4150290  45.3296120  23.9199110  45.6793910  44.0207940
  19.9189910  49.0746900  49.5071870  19.4820900  49.2547700  50.3396020
  20.4867590  49.8321520  49.3653590  36.7953540  46.3181720  39.1318890
  35.9646500  46.3858370  39.6026120  36.9725370  47.2085840  38.8285750
  19.7514340  41.5867130  45.8660750  19.0963180  41.3178770  45.2220450
  20.5892290  41.4771610  45.4162730  32.7004780  36.3808420  40.0879240
  33.1189660  36.1939400  39.2475900  32.3940840  35.5287470  40.3982170
  20.7890270  41.9719700  50.4064090  21.1563310  41.8847100  51.2860110
  20.2201090  41.2086250  50.3070950  35.5894130  40.4404080  53.4194560
  35.3580220  40.2116830  52.5192510  35.8498680  41.3603630  53.3739450
  20.3406270  38.8828790  54.3122510  19.4462320  38.8495550  54.6516220
  20.8803820  39.0815580  55.0773760  34.0282200  35.6660510  56.1974260
  34.9052380  35.6743910  56.5808260  34.0403040  34.9291350  55.5866610
  18.9652420  38.7966060  41.8086080  18.0616500  39.0596260  41.6337740
  19.4493040  39.0677230  41.0286040  21.5079630  37.8531600  39.7180460
  22.2171330  37.4314820  39.2327740  20.7919570  37.9206830  39.0863810
  21.1553790  33.9070930  38.7583110  21.8781920  34.4479870  39.0764330
  21.4278310  33.6334350  37.8824650  20.8445980  33.1577120  48.6605730
  21.4922170  32.6074500  48.2200890  21.2647820  33.4120270  49.4821540
  34.7398320  33.3518480  52.0175370  35.3770540  33.9652620  52.3834560
  34.8873210  33.3879140  51.0724600  37.2822870  35.2432270  38.7998510
  38.2072180  35.1113450  38.5916800  37.2598660  35.3225090  39.7534960
  37.3561360  36.0142930  41.4255220  36.5612860  35.9488050  41.9548130
  37.5604640  36.9493570  41.4140570  20.5977980  33.3132790  51.4031050
  20.2492800  33.7696610  52.1689230  20.2665680  32.4189920  51.4853480
  22.2042350  46.4852390  55.5684240  22.1611980  46.1145300  56.4498700
  22.3353360  47.4229960  55.7086060  28.1102800  34.5044670  54.9250470
  28.0491690  35.0966500  55.6745880  29.0503180  34.3970630  54.7800730
  30.7477360  34.1614730  54.5642760  31.3617770  34.4794020  53.9023840
  31.2926920  33.6763320  55.1838620  21.2698620  32.8408990  54.6781820
  21.8181610  32.6597040  53.9147930  21.3353930  32.0503100  55.2138130
  22.0430380  49.4314640  52.6882020  21.4490700  49.2999340  53.4272060
  22.0354220  48.5952780  52.2224120  31.4885400  32.7246870  50.8912050
  30.6145240  33.0581980  50.6884980  31.3796150  32.2520050  51.7163920
  32.3957380  34.9317740  52.2753770  32.0670740  34.1169500  51.8955500
  33.3439680  34.8887550  52.1519460  21.6742610  46.7973020  51.6390060
  20.9476670  46.1778310  51.5716010  21.7351760  47.1913630  50.7688140
  29.2360220  33.6416710  49.8304960  28.4532010  34.1162210  50.1101720
  28.9423150  32.7371540  49.7218140  33.7881290  34.3439810  47.8754050
  34.2289380  34.2884910  47.0275650  33.5188880  35.2597820  47.9464230
  35.6519860  33.9755050  45.8862870  35.5908260  33.0316270  45.7393890
  36.4311890  34.0835140  46.4316330  20.5800630  33.9464190  42.3518680
  21.3379990  34.0593070  41.7782710  20.1177800  34.7833390  42.3062110
  27.1214440  36.0603460  45.3420990  26.3088950  35.6860350  45.0016870
  27.6256080  35.3048540  45.6442180  31.6239420  32.7245910  46.5804060
  32.2268790  33.2966120  47.0552580  30.8832410  33.2885350  46.3577960
  34.7674020  33.1267470  41.8544340  34.9624650  34.0250920  42.1211770
  33.9803890  32.8954550  42.3477290  22.9525780  34.4728240  40.8920650
  23.4818540  33.6858040  40.7628600  23.5854100  35.1519430  41.1256180
  25.1463620  34.2103380  43.9466040  24.5166360  33.5090690  44.1136170
  24.6068760  34.9707510  43.7299200  25.2719180  33.4887360  56.3818530
  24.9903450  33.9920960  55.6179350  25.6538880  32.6909110  56.0160660
  23.3243070  46.8727750  41.1732540  22.6951950  47.3412850  41.7218370
  23.4390900  46.0276970  41.6078730  31.8734640  32.9040940  56.9599000
  31.7600090  33.2235550  57.8550520  32.6904380  33.3053450  56.6636280
  30.7792790  40.9233410  27.3233740  30.6986840  40.0088020  27.0525450
  30.3657210  41.4200480  26.6173450  28.9110830  42.7012430  29.2043010
  28.1352930  42.2212870  29.4941580  29.5623760  42.0218080  29.0299170
  22.9276660  43.0132240  30.0818770  22.0961540  42.7580950  30.4815280
  23.5357640  43.0843010  30.8176690  32.9318260  47.1072620  27.9842140
  32.4699790  46.3359860  28.3129310  33.7443810  47.1338690  28.4894590
  22.9077920  47.0472330  30.2776790  23.2105960  46.1570070  30.0987010
  23.6521510  47.6042550  30.0499040  21.3368610  37.9734130  23.8661160
  20.4485310  38.3150100  23.7641040  21.6209800  37.7734450  22.9741990
  19.3001620  40.5739780  29.7500860  19.8717730  39.8061980  29.7504500
  19.3003160  40.8728540  28.8407470  29.1581570  49.3930630  27.6046130
  28.5393010  49.8488130  27.0340570  30.0133350  49.5482090  27.2035830
  28.3519820  45.3769620  29.2113170  28.2828100  44.4359560  29.0502300
  29.1139680  45.4671030  29.7835740  20.5426490  35.9824140  31.5369790
  20.3629330  35.0849890  31.8172550  20.1406570  36.5296010  32.2116740
  29.3824990  38.1840000  29.4382100  29.7589810  37.3111880  29.3255770
  29.2844500  38.5198700  28.5472540  23.5130000  36.5565630  24.8999540
  23.6196750  37.4569360  25.2068300  22.6022360  36.5083600  24.6094190
  33.1649110  35.6790440  26.3710440  33.9858730  35.1887010  26.4135920
  33.1983190  36.2688100  27.1242280  21.1613160  38.4784640  30.1452130
  21.8423270  38.7423010  30.7639530  20.8461210  37.6385510  30.4790140
  25.3537730  39.5252000  29.2324720  25.8615950  40.0232970  29.8729740
  25.8850970  38.7487200  29.0564080  37.4548660  37.6957190  32.9354070
  36.7500830  38.0838900  32.4169180  37.7206580  38.3907480  33.5375000
  23.6373830  34.1650560  33.4988140  23.6392270  34.6822950  32.6934040
  22.8078140  33.6880740  33.4758070  30.0244920  44.2769870  24.9978040
  29.4062190  44.7419320  24.4340760  30.5368170  44.9697350  25.4147550
  24.8876680  43.8045740  31.6761640  24.5546060  44.4314660  32.3182710
  25.0643360  44.3307620  30.8963310  33.4010590  37.6190820  29.1437980
  32.6966160  37.9075710  29.7241090  33.7622750  38.4290930  28.7837540
  23.3189160  35.8760520  31.5058590  23.6605970  36.7202570  31.2112460
  22.3804970  36.0244260  31.6223930  24.0995780  45.7726540  33.4910820
  24.7169780  46.4477620  33.2095270  23.2388900  46.1814520  33.3998320
  19.3928120  44.9626400  22.3717670  19.0156100  45.4513500  21.6402570
  19.6501190  45.6351680  23.0024200  35.0173370  47.2365950  31.4065460
  34.3336890  47.9065060  31.3982130  35.5567660  47.4346600  30.6410320
  36.4697510  37.0645610  29.5347190  35.5222420  37.0984590  29.6662620
  36.7947500  37.8784560  29.9196550  27.0017050  33.3642790  27.8303180
  27.3092030  32.8089680  27.1138680  26.0717750  33.4987250  27.6476170
  32.5532110  49.0810080  30.1210640  32.5659270  48.6772370  29.2532900
  32.0007330  49.8557370  30.0172070  33.8477530  45.8026300  25.2100810
  33.7373860  44.8600630  25.3350230  33.8445780  46.1641940  26.0963570
  31.9517550  43.9839920  31.4493250  32.3686340  43.7700030  30.6146710
  32.6757370  44.2412710  32.0201870  29.3897810  41.4291620  24.5663300
  28.4627090  41.3629000  24.7951770  29.5422630  42.3671750  24.4518540
  29.3766890  37.7008620  21.5630460  28.4370560  37.8622580  21.6482920
  29.6950150  38.4194300  21.0166450  35.8979650  42.3827140  31.5409490
  35.0698280  42.4520230  31.0659620  36.4930130  42.9681450  31.0725320
  33.4195100  42.9911920  25.0698550  32.8007520  42.6531470  24.4224850
  33.4019550  42.3471680  25.7777740  32.8621660  39.1696460  32.4864360
  32.4492840  39.9950170  32.7404350  32.1297610  38.5841500  32.2940720
  24.9954450  41.9556360  27.3483030  24.5911450  41.2433610  26.8528930
  25.0817570  41.6109600  28.2371070  25.4636150  45.6423920  29.5122240
  25.1664440  45.0369390  28.8330020  26.4135970  45.6801230  29.4011600
  23.7083070  38.7299570  31.1282070  24.2597660  38.8394910  30.3535320
  24.2226580  39.1037170  31.8437300  33.5521760  49.2155790  33.1745340
  33.0752320  50.0227980  32.9817950  32.8683550  48.5634120  33.3271550
  24.5554580  45.3805610  36.1630040  23.6583110  45.6045580  36.4103440
  24.5807450  45.5040550  35.2141440  31.5959800  42.2298730  22.0771300
  32.0353080  41.3921160  21.9309120  32.3088220  42.8628130  22.1635440
  23.3825800  42.2518930  34.7387410  23.2433570  43.1241730  35.1074810
  22.5007160  41.9091740  34.5935350  29.7055180  47.1694800  26.0452540
  30.1451090  47.9119130  25.6307930  29.6442070  47.4121370  26.9691500
  35.1776940  33.4841540  20.3912340  34.8649600  33.5768370  21.2911410
  35.9389410  34.0622570  20.3409770  21.6959080  40.8501340  24.8489680
  21.5756680  41.5763430  24.2370950  21.3859970  40.0804250  24.3717590
  37.1320970  48.9767730  38.2436730  37.6080690  49.4550620  38.9225810
  37.7528130  48.9085220  37.5182230  19.3344450  44.0216480  30.6558320
  19.4124870  44.1565250  29.7114040  19.9486130  43.3132370  30.8486440
  20.5792080  45.7216670  27.0664500  20.1720160  45.8631260  26.2118100
  21.4705090  45.4376830  26.8635710  36.5354220  46.1680580  35.4036740
  36.6617280  45.9292460  34.4853920  36.5775600  45.3365120  35.8758820
  30.3970960  49.8708580  33.9731550  30.9115630  49.7816590  34.7753980
  29.5540040  50.2168280  34.2659460  32.3725360  50.1563920  23.4015550
  32.2126500  49.8666860  24.2997380  32.2072070  49.3804050  22.8660780
  24.8513740  49.9362450  25.1787170  24.6756220  49.0197990  24.9654970
  23.9969480  50.2949740  25.4184970  32.0751490  47.6651480  21.9613550
  31.3816650  47.6628770  21.3015830  32.8174350  47.2410800  21.5307720
  31.6401420  49.2914190  26.0362040  32.0958370  48.5103570  26.3500660
  31.9793940  50.0021010  26.5803220  36.3878230  38.2213040  36.3686480
  35.7722500  38.7292710  35.8401940  36.0674650  37.3211370  36.3112420
  19.3903970  45.0630650  33.1952780  19.5535010  44.5936010  32.3772150
  19.8556420  44.5554210  33.8601620  24.1622740  34.1936410  28.2313350
  23.7190890  34.9745950  27.8997870  24.7207730  34.5166300  28.9384290
  28.4492550  37.0604930  33.8348670  27.9871920  37.2687950  34.6468610
  28.0470660  36.2464280  33.5319340  33.4497060  38.2813880  34.9645330
  32.5990650  37.9819630  35.2854400  33.2898850  38.5255890  34.0529150
  30.5446770  39.7815630  37.0644120  30.8700180  38.9479380  36.7246350
  31.3327100  40.3044150  37.2122450  27.2781560  33.8147110  23.1119180
  26.6535740  33.8106980  23.8372490  27.1911680  32.9478070  22.7155150
  26.1998640  34.7383740  30.0902950  26.4970970  35.6446570  30.0094970
  26.7484200  34.2502520  29.4762520  23.9536960  39.3169980  25.9594600
  23.7277880  39.1007150  26.8641220  23.1729490  39.7498440  25.6140570
  31.1834720  39.3233350  24.5585250  30.5843610  40.0469150  24.3748870
  31.7314330  39.2610130  23.7761700  26.3936170  40.2155560  36.6254870
  26.2979770  39.2750290  36.4755270  27.2368150  40.4370630  36.2302940
  29.7899590  37.9596890  26.5888530  30.1829160  38.2769090  25.7757220
  30.1516440  37.0808770  26.7033050  21.5246710  36.6269230  34.7788650
  21.1310100  37.4744440  34.9861430  20.8365110  35.9895600  34.9697290
  28.0991760  36.7104200  37.8485390  27.4090080  36.5176400  38.4831480
  28.8424060  36.9938840  38.3809690  18.8263760  34.5497690  28.8118730
  18.5376810  35.1200550  29.5243710  19.5709520  34.0702140  29.1749960
  19.0133990  38.4917810  20.0221450  18.9308660  39.4348570  20.1636440
  18.6617050  38.3492720  19.1433800  30.3754730  40.5502640  30.6839310
  29.6435850  41.0589450  31.0329410  29.9779070  39.7332620  30.3828090
  26.8132120  37.2256840  29.0891800  26.8168180  36.7846790  28.2396340
  27.7083240  37.5474170  29.1963620  22.6634500  37.1083330  28.0486010
  22.3234550  37.5858560  28.8053060  21.9011820  36.6548450  27.6887110
  26.8752270  38.2268920  22.0798560  26.9965090  38.1855400  23.0284380
  26.4900780  39.0893070  21.9245290  30.8380640  36.0036320  30.0962250
  30.8553380  36.4544970  30.9404100  30.5896220  35.1041960  30.3095690
  25.8873770  40.5370060  21.4781860  25.3190670  40.0888310  20.8517770
  26.5962770  40.8962840  20.9447010  34.2651390  33.4168500  35.9348630
  34.5897160  32.6858160  36.4606610  34.3007900  33.0982140  35.0329620
  20.9642950  44.4382080  35.3548590  20.5797740  43.7975750  35.9531550
  21.2755140  45.1418200  35.9243320  27.1140090  41.2858620  30.8357210
  27.4810220  40.8117190  31.5818550  26.9245150  42.1600190  31.1765550
  19.9780580  36.0302310  26.9650680  19.6927500  35.6657980  27.8029300
  19.9159440  35.2982770  26.3513820  24.9039460  40.3267260  33.1541420
  24.5996530  41.2059240  33.3791780  25.8585920  40.3867050  33.1898860
  23.4321250  44.5328250  23.7508270  22.6583510  43.9925870  23.5906990
  24.1615880  44.0134860  23.4126030  34.1909230  43.5293610  29.5434660
  34.9108350  44.0248900  29.1530770  33.9891050  42.8511500  28.8988530
  29.6519170  34.9231570  23.6864050  28.8383780  34.4244740  23.6109360
  29.4581120  35.7629820  23.2700400  29.5728030  43.6002670  35.4303660
  29.5065340  42.6798340  35.1761250  28.9433170  43.6978110  36.1448300
  32.3667560  39.2951220  21.9826210  33.2547180  39.6068450  21.8077550
  32.3372650  38.4223470  21.5906790  23.4758650  44.2008630  27.3887080
  23.9937320  43.3976890  27.3343970  23.0242670  44.1387770  28.2303910
  28.3628150  45.4674910  22.6614380  28.7043850  46.2117140  22.1657700
  27.5340860  45.7806030  23.0239210  20.9603190  41.1670000  34.3012780
  20.6018130  41.8323850  34.8886120  20.6657750  40.3353550  34.6725400
  24.1616310  41.6254240  37.1852330  23.8616450  41.7711420  36.2880150
  24.9327550  41.0659530  37.0925720  29.5044760  46.4223240  35.1807460
  29.5189300  45.4904200  34.9626370  28.7969860  46.5083000  35.8197230
  34.6381830  40.6063060  21.4506070  34.5545550  41.0377280  20.6002510
  35.3576020  41.0661410  21.8832890  35.7155970  43.0630580  34.5276040
  34.9904160  43.6559360  34.3305430  36.2431430  43.0554120  33.7289410
  35.6669080  47.4605320  24.1788200  35.0245240  46.8060940  24.4531920
  35.2799740  47.8660410  23.4028870  31.2455560  44.7890750  28.0259890
  31.5979380  44.1918880  27.3661260  30.3617890  44.4634980  28.1968140
  27.3318840  45.5488440  25.4330300  28.0189970  46.0957650  25.8137890
  26.5451260  46.0929170  25.4679910  19.4711240  41.1661260  20.9247380
  20.3406090  41.4486060  21.2083300  18.9801560  41.9797130  20.8096190
  26.6346050  42.5534470  25.0455660  27.0908830  43.3639720  25.2715850
  26.2834260  42.2357610  25.8774150  28.9378660  48.0640810  32.2747960
  29.5820880  48.2700190  32.9521380  29.3008100  47.3029210  31.8218810
  22.5357830  32.8972120  25.5178180  22.4072460  32.8890020  26.4663100
  21.7119850  33.2355210  25.1669190  30.2110740  46.0673160  30.9925410
  30.8532970  45.3666320  31.1057580  30.7360090  46.8471600  30.8122300
  34.0566460  46.3521780  20.7164550  33.8304040  45.6352220  21.3089190
  33.6662660  46.1034220  19.8786300  31.9848360  46.8668060  34.1961470
  32.3204600  47.4534750  34.8739390  31.0648700  46.7360770  34.4259260
  19.8382490  50.3788640  21.4909010  20.1980130  50.9777980  20.8366280
  19.6974830  50.9248530  22.2644040  19.5351760  34.6563240  34.9784880
  18.8210280  34.8560160  35.5837490  19.9546800  33.8802810  35.3499680
  33.6382710  44.2693720  22.3778710  33.3504410  44.7306410  23.1656590
  34.4334880  43.8091490  22.6462930  19.8224350  48.6443500  35.9651410
  19.9315470  47.7038240  35.8246800  19.1704910  48.9098250  35.3165140
  27.8136940  46.9159390  37.3649530  27.4933810  46.1968630  37.9095220
  27.1395300  47.5914460  37.4385590  25.8551110  47.7619840  22.3082680
  25.8461210  48.4949530  21.6927190  24.9349470  47.5151420  22.4009640
  21.4557750  42.9834730  23.0529440  20.8485700  43.7233630  23.0624740
  21.9307100  43.0734090  22.2267640  31.0290540  37.1485550  32.7286330
  31.3971360  36.3280760  33.0565900  30.1688740  37.2087440  33.1441980
  34.3952570  36.1042490  23.5373890  33.7665730  36.2088160  22.8232120
  33.9004490  36.3239270  24.3267770  28.8410710  47.8248080  20.9707870
  28.9422690  47.6212070  20.0409850  27.9412450  47.5706360  21.1755650
  26.3636600  38.3828440  24.9531770  25.6552750  38.8514780  25.3945380
  26.6481080  37.7250450  25.5876960  27.9892530  39.8025140  32.9524300
  28.4877780  40.2770960  33.6176150  28.1315480  38.8788660  33.1594330
  30.3952030  35.1079100  26.3927560  30.2719810  35.1265230  25.4437070
  31.3436590  35.1558040  26.5125960  27.4828820  50.3434400  25.6655540
  27.7370320  50.3055790  24.7434910  26.5341300  50.2167730  25.6583790
  24.5671620  36.6913520  22.3282480  25.4162150  37.1283670  22.2622670
  24.2002890  37.0033780  23.1554540  35.1959390  36.0193100  33.7952690
  34.6932990  36.7598500  34.1346500  36.0116050  36.4077100  33.4789480
  33.4881400  41.2626280  27.2414050  32.5471540  41.2776510  27.4161740
  33.8025470  40.4762240  27.6874350  23.4663040  42.9445880  20.8018010
  24.2326310  42.8327240  21.3643440  23.5437730  42.2483850  20.1494780
  22.1609800  40.3770950  21.4850900  22.2413390  39.4298460  21.5968300
  23.0529550  40.7077830  21.5911560  35.4906980  48.4335130  28.9168310
  35.6154400  49.2566300  29.3892120  36.3572540  48.2225860  28.5692460
  22.9624510  50.5266340  28.5885440  23.6986990  49.9781800  28.8594010
  23.3465430  51.3922350  28.4491430  19.8469990  46.5939910  24.4626950
  18.9209770  46.8361050  24.4532360  20.3126420  47.4214170  24.3411700
  21.9682790  49.7112410  37.7771020  22.7695520  50.0324460  38.1906420
  21.4534610  49.3507990  38.4990930  26.0726820  49.6996650  20.4111010
  26.8655430  49.9885480  19.9592800  25.5531170  49.2688820  19.7323490
  30.8047420  45.8192280  37.7246430  30.1985580  45.8423880  36.9842180
  30.5001530  45.0875320  38.2613680  32.2347790  49.5472570  36.3355840
  33.1869540  49.4630590  36.2856080  32.0876010  50.2114280  37.0089630
  35.1256990  48.9266780  21.8347750  34.8398500  48.5131920  21.0201930
  34.9276540  49.8554490  21.7148270  19.6880600  42.1985870  36.7207070
  20.1919620  41.6193150  37.2923300  18.9488020  42.4826100  37.2583440
  26.5904220  44.9200060  20.2753360  26.4854860  44.3052410  21.0014740
  26.4228440  44.3965950  19.4916370  26.7418540  43.6056860  36.2542590
  25.9764210  44.1741860  36.1697260  26.9234500  43.3133070  35.3610820
  29.8306950  43.9820090  20.8795350  29.2817050  44.4289390  21.5238090
  30.4526210  43.4769340  21.4033020  33.8841890  45.3362190  36.8117610
  34.6251360  45.6737950  36.3085070  33.1214570  45.5054250  36.2587380
  21.7203680  40.3415460  37.6157140  21.7609020  40.0429330  38.5242370
  22.5749180  40.7423070  37.4564660  25.4982070  42.9411010  22.7760650
  25.9198490  42.7750880  23.6192040  25.6232910  42.1311240  22.2815790
  23.6609490  38.9207560  35.5831630  23.1305950  38.4298510  34.9554970
  24.3297560  39.3491760  35.0489560  28.0109710  41.9648620  20.0237750
  28.5315370  41.2497640  19.6578900  28.6578110  42.6034490  20.3238260
  32.5587550  43.3877020  35.3472820  32.9728570  43.5422100  36.1963240
  31.6238550  43.5132240  35.5098600  33.0309720  40.7273180  37.3511970
  33.6130490  39.9725500  37.2632450  33.2071490  41.2580620  36.5743450
  24.1481790  35.8869930  35.6628920  24.0538660  35.2690680  34.9379790
  23.5679180  36.6136220  35.4358830  26.9143230  34.4443170  32.6956310
  26.4660530  34.4667430  31.8501860  26.2808430  34.0462190  33.2926610
  27.3202780  43.3397500  33.3168750  27.7390890  44.1830230  33.1444990
  26.4011410  43.4769540  33.0875530  29.6566680  41.0713680  34.7006590
  29.7762890  40.4754820  35.4401430  30.5160680  41.1083370  34.2807890
  31.9954580  41.6250870  33.2769100  31.4689800  42.1493490  32.6734240
  32.3385920  42.2578260  33.9078830  24.3940970  39.0144240  19.7218810
  24.1930030  38.1511600  20.0832150  24.2233020  38.9277600  18.7840410
  26.4235450  37.6135030  35.9582410  27.0135140  37.3050880  36.6460230
  25.6055690  37.1414780  36.1142310  31.2428880  37.2300840  36.1915430
  30.5544400  36.5682380  36.1265420  31.9634900  36.7839110  36.6363890
  31.8729280  33.8252470  22.2505690  32.1531570  32.9820370  22.6065110
  31.0995010  34.0575580  22.7644440  23.1923770  36.1144860  19.7096690
  23.4949670  36.1212290  18.8015840  23.9318360  35.7642720  20.2064350
  26.4108700  35.0579480  20.6952890  26.0630700  34.3803470  20.1155340
  26.6121470  34.5968990  21.5096280  28.5757740  50.0460230  22.3139490
  29.4708530  50.3845200  22.3358250  28.6075370  49.3239640  21.6863770
  22.2153900  45.4187280  20.5426490  22.6528770  45.9616950  21.1984070
  22.7001630  44.5934230  20.5522830  19.4299700  48.2076310  27.9946750
  19.7602710  47.3397370  27.7625390  19.8590700  48.4134830  28.8251710
  24.0261620  46.5385320  25.6548720  23.7257160  46.4150290  26.5552630
  23.9199110  45.6793910  25.2464450  19.9189910  49.0746900  30.7328380
  19.4820900  49.2547700  31.5652530  20.4867590  49.8321520  30.5910100
  35.5552090  48.5763900  35.0205690  34.9554080  48.6356460  34.2769610
  35.6845990  47.6368880  35.1502540  36.7953540  46.3181720  20.3575400
  35.9646500  46.3858370  20.8282630  36.9725370  47.2085840  20.0542260
  36.2510000  43.0629200  22.8609600  37.0128910  43.6325850  22.9669290
  36.2664370  42.4956400  23.6317910  19.7514340  41.5867130  27.0917260
  19.0963180  41.3178770  26.4476960  20.5892290  41.4771610  26.6419240
  37.2569970  43.9179300  27.7051530  37.6278800  43.1346620  27.2987500
  37.8971900  44.6068400  27.5268830  34.2403730  45.3015880  33.1181850
  33.4263570  45.7313040  33.3807640  34.6477930  45.9134290  32.5050900
  36.3029170  43.3563570  20.0182120  36.5778010  44.2642450  19.8901340
  36.1139910  43.2926100  20.9544110  32.7004780  36.3808420  21.3135750
  33.1189660  36.1939400  20.4732410  32.3940840  35.5287470  21.6238680
  36.1994510  41.2932560  25.0111550  35.8238110  40.5260490  24.5792840
  35.4697630  41.6755260  25.4986480  20.7890270  41.9719700  31.6320600
  21.1563310  41.8847100  32.5116620  20.2201090  41.2086250  31.5327460
  35.5894130  40.4404080  34.6451070  35.3580220  40.2116830  33.7449020
  35.8498680  41.3603630  34.5995960  20.3406270  38.8828790  35.5379020
  19.4462320  38.8495550  35.8772730  20.8803820  39.0815580  36.3030270
  34.0282200  35.6660510  37.4230770  34.9052380  35.6743910  37.8064770
  34.0403040  34.9291350  36.8123120  18.9652420  38.7966060  23.0342590
  18.0616500  39.0596260  22.8594250  19.4493040  39.0677230  22.2542550
  35.4745470  39.5190050  28.3118790  35.9982950  39.0252700  27.6808960
  36.0604890  39.6540410  29.0566360  35.6535190  39.6029920  31.8338340
  34.7037900  39.5693460  31.9483330  35.8348200  40.5130030  31.5988110
  21.5079630  37.8531600  20.9436970  22.2171330  37.4314820  20.4584250
  20.7919570  37.9206830  20.3120320  21.1553790  33.9070930  19.9839620
  21.8781920  34.4479870  20.3020840  21.4278310  33.6334350  19.1081160
  34.9645440  38.7763400  24.2511200  35.4604560  38.5434270  25.0360080
  34.7661510  37.9375240  23.8348840  20.8445980  33.1577120  29.8862240
  21.4922170  32.6074500  29.4457400  21.2647820  33.4120270  30.7078050
  36.3932600  37.4124350  26.7848880  36.2831880  37.2580390  27.7231150
  37.1540190  36.8845290  26.5424290  34.7398320  33.3518480  33.2431880
  35.3770540  33.9652620  33.6091070  34.8873210  33.3879140  32.2981110
  37.2822870  35.2432270  20.0255020  38.2072180  35.1113450  19.8173310
  37.2598660  35.3225090  20.9791470  37.3561360  36.0142930  22.6511730
  36.5612860  35.9488050  23.1804640  37.5604640  36.9493570  22.6397080
  34.2979780  50.0534480  26.6450120  34.8938850  49.7319050  25.9684540
  34.5557930  49.5806300  27.4363390  20.5977980  33.3132790  32.6287560
  20.2492800  33.7696610  33.3945740  20.2665680  32.4189920  32.7109990
  22.2042350  46.4852390  36.7940750  22.1611980  46.1145300  37.6755210
  22.3353360  47.4229960  36.9342570  25.9048380  48.0411980  32.3950470
  25.6639740  48.3086540  31.5080990  26.8451020  48.2117710  32.4501330
  28.1102800  34.5044670  36.1506980  28.0491690  35.0966500  36.9002390
  29.0503180  34.3970630  36.0057240  30.7477360  34.1614730  35.7899270
  31.3617770  34.4794020  35.1280350  31.2926920  33.6763320  36.4095130
  37.1652540  50.0606360  33.1961110  36.6710820  50.4575230  32.4788240
  36.5565830  49.4355570  33.5898390  21.2698620  32.8408990  35.9038330
  21.8181610  32.6597040  35.1404440  21.3353930  32.0503100  36.4394640
  22.0430380  49.4314640  33.9138530  21.4490700  49.2999340  34.6528570
  22.0354220  48.5952780  33.4480630  31.4885400  32.7246870  32.1168560
  30.6145240  33.0581980  31.9141490  31.3796150  32.2520050  32.9420430
  32.3957380  34.9317740  33.5010280  32.0670740  34.1169500  33.1212010
  33.3439680  34.8887550  33.3775970  34.8491990  50.7029780  30.4747850
  34.3894960  51.4545590  30.1005870  34.2204450  49.9836250  30.4162650
  21.6742610  46.7973020  32.8646570  20.9476670  46.1778310  32.7972520
  21.7351760  47.1913630  31.9944650  25.2787710  49.0118020  29.6495980
  25.7952730  48.4005380  29.1244240  25.9285090  49.5146800  30.1406990
  28.0183210  49.9026510  30.4764960  28.3061020  49.6480810  29.5997970
  28.5306430  49.3503870  31.0670530  29.2360220  33.6416710  31.0561470
  28.4532010  34.1162210  31.3358230  28.9423150  32.7371540  30.9474650
  33.7881290  34.3439810  29.1010560  34.2289380  34.2884910  28.2532160
  33.5188880  35.2597820  29.1720740  35.6519860  33.9755050  27.1119380
  35.5908260  33.0316270  26.9650400  36.4311890  34.0835140  27.6572840
  19.9572610  50.1147410  26.0743330  19.7894650  49.4818090  26.7725220
  19.0907120  50.3206810  25.7237520  20.5800630  33.9464190  23.5775190
  21.3379990  34.0593070  23.0039220  20.1177800  34.7833390  23.5318620
  27.1214440  36.0603460  26.5677500  26.3088950  35.6860350  26.2273380
  27.6256080  35.3048540  26.8698690  31.6239420  32.7245910  27.8060570
  32.2268790  33.2966120  28.2809090  30.8832410  33.2885350  27.5834470
  34.7674020  33.1267470  23.0800850  34.9624650  34.0250920  23.3468280
  33.9803890  32.8954550  23.5733800  21.5635310  48.8080640  23.5193470
  21.0382930  49.1888670  22.8155430  21.4879890  49.4331410  24.2403180
  22.9525780  34.4728240  22.1177160  23.4818540  33.6858040  21.9885110
  23.5854100  35.1519430  22.3512690  25.1463620  34.2103380  25.1722550
  24.5166360  33.5090690  25.3392680  24.6068760  34.9707510  24.9555710
  36.3200630  50.3668180  24.8407410  36.4952820  49.6805920  24.1968330
  35.6222200  50.8915230  24.4484080  25.2719180  33.4887360  37.6075040
  24.9903450  33.9920960  36.8435860  25.6538880  32.6909110  37.2417170
  24.1628280  50.7563020  22.3942720  24.8947100  50.4722300  21.8466610
  24.4221950  50.5176300  23.2842100  23.3243070  46.8727750  22.3989050
  22.6951950  47.3412850  22.9474880  23.4390900  46.0276970  22.8335240
  31.8734640  32.9040940  38.1855510  31.7600090  33.2235550  39.0807030
  32.6904380  33.3053450  37.8892790  34.6533130  50.0512470  37.6674200
  35.4458450  49.5561700  37.4600160  34.9466280  50.7302610  38.2749810
  30.7792790  40.9233410   8.5490250  30.6986840  40.0088020   8.2781960
  30.3657210  41.4200480   7.8429960  28.9110830  42.7012430  10.4299520
  28.1352930  42.2212870  10.7198090  29.5623760  42.0218080  10.2555680
  22.9276660  43.0132240  11.3075280  22.0961540  42.7580950  11.7071790
  23.5357640  43.0843010  12.0433200  32.9318260  47.1072620   9.2098650
  32.4699790  46.3359860   9.5385820  33.7443810  47.1338690   9.7151100
  22.9077920  47.0472330  11.5033300  23.2105960  46.1570070  11.3243520
  23.6521510  47.6042550  11.2755550  21.3368610  37.9734130   5.0917670
  20.4485310  38.3150100   4.9897550  21.6209800  37.7734450   4.1998500
  19.3001620  40.5739780  10.9757370  19.8717730  39.8061980  10.9761010
  19.3003160  40.8728540  10.0663980  29.1581570  49.3930630   8.8302640
  28.5393010  49.8488130   8.2597080  30.0133350  49.5482090   8.4292340
  28.3519820  45.3769620  10.4369680  28.2828100  44.4359560  10.2758810
  29.1139680  45.4671030  11.0092250  20.5426490  35.9824140  12.7626300
  20.3629330  35.0849890  13.0429060  20.1406570  36.5296010  13.4373250
  29.3824990  38.1840000  10.6638610  29.7589810  37.3111880  10.5512280
  29.2844500  38.5198700   9.7729050  23.5130000  36.5565630   6.1256050
  23.6196750  37.4569360   6.4324810  22.6022360  36.5083600   5.8350700
  33.1649110  35.6790440   7.5966950  33.9858730  35.1887010   7.6392430
  33.1983190  36.2688100   8.3498790  21.1613160  38.4784640  11.3708640
  21.8423270  38.7423010  11.9896040  20.8461210  37.6385510  11.7046650
  25.3537730  39.5252000  10.4581230  25.8615950  40.0232970  11.0986250
  25.8850970  38.7487200  10.2820590  37.4548660  37.6957190  14.1610580
  36.7500830  38.0838900  13.6425690  37.7206580  38.3907480  14.7631510
  23.6373830  34.1650560  14.7244650  23.6392270  34.6822950  13.9190550
  22.8078140  33.6880740  14.7014580  30.0244920  44.2769870   6.2234550
  29.4062190  44.7419320   5.6597270  30.5368170  44.9697350   6.6404060
  24.8876680  43.8045740  12.9018150  24.5546060  44.4314660  13.5439220
  25.0643360  44.3307620  12.1219820  33.4010590  37.6190820  10.3694490
  32.6966160  37.9075710  10.9497600  33.7622750  38.4290930  10.0094050
  23.3189160  35.8760520  12.7315100  23.6605970  36.7202570  12.4368970
  22.3804970  36.0244260  12.8480440  24.0995780  45.7726540  14.7167330
  24.7169780  46.4477620  14.4351780  23.2388900  46.1814520  14.6254830
  19.3928120  44.9626400   3.5974180  19.0156100  45.4513500   2.8659080
  19.6501190  45.6351680   4.2280710  35.0173370  47.2365950  12.6321970
  34.3336890  47.9065060  12.6238640  35.5567660  47.4346600  11.8666830
  36.4697510  37.0645610  10.7603700  35.5222420  37.0984590  10.8919130
  36.7947500  37.8784560  11.1453060  27.0017050  33.3642790   9.0559690
  27.3092030  32.8089680   8.3395190  26.0717750  33.4987250   8.8732680
  32.5532110  49.0810080  11.3467150  32.5659270  48.6772370  10.4789410
  32.0007330  49.8557370  11.2428580  33.8477530  45.8026300   6.4357320
  33.7373860  44.8600630   6.5606740  33.8445780  46.1641940   7.3220080
  31.9517550  43.9839920  12.6749760  32.3686340  43.7700030  11.8403220
  32.6757370  44.2412710  13.2458380  29.3897810  41.4291620   5.7919810
  28.4627090  41.3629000   6.0208280  29.5422630  42.3671750   5.6775050
  29.3766890  37.7008620   2.7886970  28.4370560  37.8622580   2.8739430
  29.6950150  38.4194300   2.2422960  35.8979650  42.3827140  12.7666000
  35.0698280  42.4520230  12.2916130  36.4930130  42.9681450  12.2981830
  33.4195100  42.9911920   6.2955060  32.8007520  42.6531470   5.6481360
  33.4019550  42.3471680   7.0034250  32.8621660  39.1696460  13.7120870
  32.4492840  39.9950170  13.9660860  32.1297610  38.5841500  13.5197230
  24.9954450  41.9556360   8.5739540  24.5911450  41.2433610   8.0785440
  25.0817570  41.6109600   9.4627580  25.4636150  45.6423920  10.7378750
  25.1664440  45.0369390  10.0586530  26.4135970  45.6801230  10.6268110
  23.7083070  38.7299570  12.3538580  24.2597660  38.8394910  11.5791830
  24.2226580  39.1037170  13.0693810  33.5521760  49.2155790  14.4001850
  33.0752320  50.0227980  14.2074460  32.8683550  48.5634120  14.5528060
  24.5554580  45.3805610  17.3886550  23.6583110  45.6045580  17.6359950
  24.5807450  45.5040550  16.4397950  31.5959800  42.2298730   3.3027810
  32.0353080  41.3921160   3.1565630  32.3088220  42.8628130   3.3891950
  23.3825800  42.2518930  15.9643920  23.2433570  43.1241730  16.3331320
  22.5007160  41.9091740  15.8191860  29.7055180  47.1694800   7.2709050
  30.1451090  47.9119130   6.8564440  29.6442070  47.4121370   8.1948010
  25.1806150  48.1940630  18.1729070  25.1521580  48.5983580  17.3057500
  25.0171120  47.2650990  18.0100670  21.6959080  40.8501340   6.0746190
  21.5756680  41.5763430   5.4627460  21.3859970  40.0804250   5.5974100
  37.1320970  48.9767730  19.4693240  37.6080690  49.4550620  20.1482320
  37.7528130  48.9085220  18.7438740  19.3344450  44.0216480  11.8814830
  19.4124870  44.1565250  10.9370550  19.9486130  43.3132370  12.0742950
  20.5792080  45.7216670   8.2921010  20.1720160  45.8631260   7.4374610
  21.4705090  45.4376830   8.0892220  36.5354220  46.1680580  16.6293250
  36.6617280  45.9292460  15.7110430  36.5775600  45.3365120  17.1015330
  30.3970960  49.8708580  15.1988060  30.9115630  49.7816590  16.0010490
  29.5540040  50.2168280  15.4915970  32.3725360  50.1563920   4.6272060
  32.2126500  49.8666860   5.5253890  32.2072070  49.3804050   4.0917290
  24.8513740  49.9362450   6.4043680  24.6756220  49.0197990   6.1911480
  23.9969480  50.2949740   6.6441480  32.0751490  47.6651480   3.1870060
  31.3816650  47.6628770   2.5272340  32.8174350  47.2410800   2.7564230
  31.6401420  49.2914190   7.2618550  32.0958370  48.5103570   7.5757170
  31.9793940  50.0021010   7.8059730  36.3878230  38.2213040  17.5942990
  35.7722500  38.7292710  17.0658450  36.0674650  37.3211370  17.5368930
  19.3903970  45.0630650  14.4209290  19.5535010  44.5936010  13.6028660
  19.8556420  44.5554210  15.0858130  24.1622740  34.1936410   9.4569860
  23.7190890  34.9745950   9.1254380  24.7207730  34.5166300  10.1640800
  28.4492550  37.0604930  15.0605180  27.9871920  37.2687950  15.8725120
  28.0470660  36.2464280  14.7575850  33.4497060  38.2813880  16.1901840
  32.5990650  37.9819630  16.5110910  33.2898850  38.5255890  15.2785660
  30.5446770  39.7815630  18.2900630  30.8700180  38.9479380  17.9502860
  31.3327100  40.3044150  18.4378960  27.2781560  33.8147110   4.3375690
  26.6535740  33.8106980   5.0629000  27.1911680  32.9478070   3.9411660
  26.1998640  34.7383740  11.3159460  26.4970970  35.6446570  11.2351480
  26.7484200  34.2502520  10.7019030  23.9536960  39.3169980   7.1851110
  23.7277880  39.1007150   8.0897730  23.1729490  39.7498440   6.8397080
  31.1834720  39.3233350   5.7841760  30.5843610  40.0469150   5.6005380
  31.7314330  39.2610130   5.0018210  26.3936170  40.2155560  17.8511380
  26.2979770  39.2750290  17.7011780  27.2368150  40.4370630  17.4559450
  29.7899590  37.9596890   7.8145040  30.1829160  38.2769090   7.0013730
  30.1516440  37.0808770   7.9289560  21.5246710  36.6269230  16.0045160
  21.1310100  37.4744440  16.2117940  20.8365110  35.9895600  16.1953800
  28.0991760  36.7104200  19.0741900  27.4090080  36.5176400  19.7087990
  28.8424060  36.9938840  19.6066200  18.8263760  34.5497690  10.0375240
  18.5376810  35.1200550  10.7500220  19.5709520  34.0702140  10.4006470
  30.3754730  40.5502640  11.9095820  29.6435850  41.0589450  12.2585920
  29.9779070  39.7332620  11.6084600  26.8132120  37.2256840  10.3148310
  26.8168180  36.7846790   9.4652850  27.7083240  37.5474170  10.4220130
  22.6634500  37.1083330   9.2742520  22.3234550  37.5858560  10.0309570
  21.9011820  36.6548450   8.9143620  26.8752270  38.2268920   3.3055070
  26.9965090  38.1855400   4.2540890  26.4900780  39.0893070   3.1501800
  30.8380640  36.0036320  11.3218760  30.8553380  36.4544970  12.1660610
  30.5896220  35.1041960  11.5352200  25.8873770  40.5370060   2.7038370
  25.3190670  40.0888310   2.0774280  26.5962770  40.8962840   2.1703520
  34.2651390  33.4168500  17.1605140  34.5897160  32.6858160  17.6863120
  34.3007900  33.0982140  16.2586130  20.9642950  44.4382080  16.5805100
  20.5797740  43.7975750  17.1788060  21.2755140  45.1418200  17.1499830
  27.1140090  41.2858620  12.0613720  27.4810220  40.8117190  12.8075060
  26.9245150  42.1600190  12.4022060  19.9780580  36.0302310   8.1907190
  19.6927500  35.6657980   9.0285810  19.9159440  35.2982770   7.5770330
  24.9039460  40.3267260  14.3797930  24.5996530  41.2059240  14.6048290
  25.8585920  40.3867050  14.4155370  23.4321250  44.5328250   4.9764780
  22.6583510  43.9925870   4.8163500  24.1615880  44.0134860   4.6382540
  34.1909230  43.5293610  10.7691170  34.9108350  44.0248900  10.3787280
  33.9891050  42.8511500  10.1245040  29.6519170  34.9231570   4.9120560
  28.8383780  34.4244740   4.8365870  29.4581120  35.7629820   4.4956910
  29.5728030  43.6002670  16.6560170  29.5065340  42.6798340  16.4017760
  28.9433170  43.6978110  17.3704810  32.3667560  39.2951220   3.2082720
  33.2547180  39.6068450   3.0334060  32.3372650  38.4223470   2.8163300
  23.4758650  44.2008630   8.6143590  23.9937320  43.3976890   8.5600480
  23.0242670  44.1387770   9.4560420  28.3628150  45.4674910   3.8870890
  28.7043850  46.2117140   3.3914210  27.5340860  45.7806030   4.2495720
  20.9603190  41.1670000  15.5269290  20.6018130  41.8323850  16.1142630
  20.6657750  40.3353550  15.8981910  24.1616310  41.6254240  18.4108840
  23.8616450  41.7711420  17.5136660  24.9327550  41.0659530  18.3182230
  29.5044760  46.4223240  16.4063970  29.5189300  45.4904200  16.1882880
  28.7969860  46.5083000  17.0453740  34.6381830  40.6063060   2.6762580
  34.5545550  41.0377280   1.8259020  35.3576020  41.0661410   3.1089400
  35.7155970  43.0630580  15.7532550  34.9904160  43.6559360  15.5561940
  36.2431430  43.0554120  14.9545920  35.6669080  47.4605320   5.4044710
  35.0245240  46.8060940   5.6788430  35.2799740  47.8660410   4.6285380
  31.2455560  44.7890750   9.2516400  31.5979380  44.1918880   8.5917770
  30.3617890  44.4634980   9.4224650  27.3318840  45.5488440   6.6586810
  28.0189970  46.0957650   7.0394400  26.5451260  46.0929170   6.6936420
  19.4711240  41.1661260   2.1503890  20.3406090  41.4486060   2.4339810
  18.9801560  41.9797130   2.0352700  26.6346050  42.5534470   6.2712170
  27.0908830  43.3639720   6.4972360  26.2834260  42.2357610   7.1030660
  28.9378660  48.0640810  13.5004470  29.5820880  48.2700190  14.1777890
  29.3008100  47.3029210  13.0475320  22.5357830  32.8972120   6.7434690
  22.4072460  32.8890020   7.6919610  21.7119850  33.2355210   6.3925700
  30.2110740  46.0673160  12.2181920  30.8532970  45.3666320  12.3314090
  30.7360090  46.8471600  12.0378810  31.9848360  46.8668060  15.4217980
  32.3204600  47.4534750  16.0995900  31.0648700  46.7360770  15.6515770
  19.8382490  50.3788640   2.7165520  20.1980130  50.9777980   2.0622790
  19.6974830  50.9248530   3.4900550  19.5351760  34.6563240  16.2041390
  18.8210280  34.8560160  16.8094000  19.9546800  33.8802810  16.5756190
  33.6382710  44.2693720   3.6035220  33.3504410  44.7306410   4.3913100
  34.4334880  43.8091490   3.8719440  19.8224350  48.6443500  17.1907920
  19.9315470  47.7038240  17.0503310  19.1704910  48.9098250  16.5421650
  27.8136940  46.9159390  18.5906040  27.4933810  46.1968630  19.1351730
  27.1395300  47.5914460  18.6642100  25.8551110  47.7619840   3.5339190
  25.8461210  48.4949530   2.9183700  24.9349470  47.5151420   3.6266150
  21.4557750  42.9834730   4.2785950  20.8485700  43.7233630   4.2881250
  21.9307100  43.0734090   3.4524150  31.0290540  37.1485550  13.9542840
  31.3971360  36.3280760  14.2822410  30.1688740  37.2087440  14.3698490
  34.3952570  36.1042490   4.7630400  33.7665730  36.2088160   4.0488630
  33.9004490  36.3239270   5.5524280  26.3636600  38.3828440   6.1788280
  25.6552750  38.8514780   6.6201890  26.6481080  37.7250450   6.8133470
  27.9892530  39.8025140  14.1780810  28.4877780  40.2770960  14.8432660
  28.1315480  38.8788660  14.3850840  30.3952030  35.1079100   7.6184070
  30.2719810  35.1265230   6.6693580  31.3436590  35.1558040   7.7382470
  27.4828820  50.3434400   6.8912050  27.7370320  50.3055790   5.9691420
  26.5341300  50.2167730   6.8840300  24.5671620  36.6913520   3.5538990
  25.4162150  37.1283670   3.4879180  24.2002890  37.0033780   4.3811050
  35.1959390  36.0193100  15.0209200  34.6932990  36.7598500  15.3603010
  36.0116050  36.4077100  14.7045990  33.4881400  41.2626280   8.4670560
  32.5471540  41.2776510   8.6418250  33.8025470  40.4762240   8.9130860
  22.1609800  40.3770950   2.7107410  22.2413390  39.4298460   2.8224810
  23.0529550  40.7077830   2.8168070  35.4906980  48.4335130  10.1424820
  35.6154400  49.2566300  10.6148630  36.3572540  48.2225860   9.7948970
  22.9624510  50.5266340   9.8141950  23.6986990  49.9781800  10.0850520
  23.3465430  51.3922350   9.6747940  19.8469990  46.5939910   5.6883460
  18.9209770  46.8361050   5.6788870  20.3126420  47.4214170   5.5668210
  21.9682790  49.7112410  19.0027530  22.7695520  50.0324460  19.4162930
  21.4534610  49.3507990  19.7247440  30.8047420  45.8192280  18.9502940
  30.1985580  45.8423880  18.2098690  30.5001530  45.0875320  19.4870190
  32.2347790  49.5472570  17.5612350  33.1869540  49.4630590  17.5112590
  32.0876010  50.2114280  18.2346140  35.1256990  48.9266780   3.0604260
  34.8398500  48.5131920   2.2458440  34.9276540  49.8554490   2.9404780
  19.6880600  42.1985870  17.9463580  20.1919620  41.6193150  18.5179810
  18.9488020  42.4826100  18.4839950  26.7418540  43.6056860  17.4799100
  25.9764210  44.1741860  17.3953770  26.9234500  43.3133070  16.5867330
  29.8306950  43.9820090   2.1051860  29.2817050  44.4289390   2.7494600
  30.4526210  43.4769340   2.6289530  33.8841890  45.3362190  18.0374120
  34.6251360  45.6737950  17.5341580  33.1214570  45.5054250  17.4843890
  21.7203680  40.3415460  18.8413650  21.7609020  40.0429330  19.7498880
  22.5749180  40.7423070  18.6821170  25.4982070  42.9411010   4.0017160
  25.9198490  42.7750880   4.8448550  25.6232910  42.1311240   3.5072300
  23.6609490  38.9207560  16.8088140  23.1305950  38.4298510  16.1811480
  24.3297560  39.3491760  16.2746070  32.5587550  43.3877020  16.5729330
  32.9728570  43.5422100  17.4219750  31.6238550  43.5132240  16.7355110
  33.0309720  40.7273180  18.5768480  33.6130490  39.9725500  18.4888960
  33.2071490  41.2580620  17.7999960  24.1481790  35.8869930  16.8885430
  24.0538660  35.2690680  16.1636300  23.5679180  36.6136220  16.6615340
  26.9143230  34.4443170  13.9212820  26.4660530  34.4667430  13.0758370
  26.2808430  34.0462190  14.5183120  27.3202780  43.3397500  14.5425260
  27.7390890  44.1830230  14.3701500  26.4011410  43.4769540  14.3132040
  29.6566680  41.0713680  15.9263100  29.7762890  40.4754820  16.6657940
  30.5160680  41.1083370  15.5064400  31.9954580  41.6250870  14.5025610
  31.4689800  42.1493490  13.8990750  32.3385920  42.2578260  15.1335340
  25.1710200  49.6450510  15.6582990  24.6331290  50.3696570  15.3391690
  25.4244160  49.1680850  14.8680330  26.4235450  37.6135030  17.1838920
  27.0135140  37.3050880  17.8716740  25.6055690  37.1414780  17.3398820
  31.2428880  37.2300840  17.4171940  30.5544400  36.5682380  17.3521930
  31.9634900  36.7839110  17.8620400  31.8729280  33.8252470   3.4762200
  32.1531570  32.9820370   3.8321620  31.0995010  34.0575580   3.9900950
  28.0272410  50.8801720  15.9169640  27.9531110  51.7836860  16.2242010
  27.1251250  50.5613620  15.8891710  28.5757740  50.0460230   3.5396000
  29.4708530  50.3845200   3.5614760  28.6075370  49.3239640   2.9120280
  22.2153900  45.4187280   1.7683000  22.6528770  45.9616950   2.4240580
  22.7001630  44.5934230   1.7779340  19.4299700  48.2076310   9.2203260
  19.7602710  47.3397370   8.9881900  19.8590700  48.4134830  10.0508220
  24.0261620  46.5385320   6.8805230  23.7257160  46.4150290   7.7809140
  23.9199110  45.6793910   6.4720960  19.9189910  49.0746900  11.9584890
  19.4820900  49.2547700  12.7909040  20.4867590  49.8321520  11.8166610
  35.5552090  48.5763900  16.2462200  34.9554080  48.6356460  15.5026120
  35.6845990  47.6368880  16.3759050  36.2510000  43.0629200   4.0866110
  37.0128910  43.6325850   4.1925800  36.2664370  42.4956400   4.8574420
  19.7514340  41.5867130   8.3173770  19.0963180  41.3178770   7.6733470
  20.5892290  41.4771610   7.8675750  37.2569970  43.9179300   8.9308040
  37.6278800  43.1346620   8.5244010  37.8971900  44.6068400   8.7525340
  34.2403730  45.3015880  14.3438360  33.4263570  45.7313040  14.6064150
  34.6477930  45.9134290  13.7307410  32.7004780  36.3808420   2.5392260
  33.1189660  36.1939400   1.6988920  32.3940840  35.5287470   2.8495190
  36.1994510  41.2932560   6.2368060  35.8238110  40.5260490   5.8049350
  35.4697630  41.6755260   6.7242990  20.7890270  41.9719700  12.8577110
  21.1563310  41.8847100  13.7373130  20.2201090  41.2086250  12.7583970
  35.5894130  40.4404080  15.8707580  35.3580220  40.2116830  14.9705530
  35.8498680  41.3603630  15.8252470  20.3406270  38.8828790  16.7635530
  19.4462320  38.8495550  17.1029240  20.8803820  39.0815580  17.5286780
  34.0282200  35.6660510  18.6487280  34.9052380  35.6743910  19.0321280
  34.0403040  34.9291350  18.0379630  18.9652420  38.7966060   4.2599100
  18.0616500  39.0596260   4.0850760  19.4493040  39.0677230   3.4799060
  35.4745470  39.5190050   9.5375300  35.9982950  39.0252700   8.9065470
  36.0604890  39.6540410  10.2822870  35.6535190  39.6029920  13.0594850
  34.7037900  39.5693460  13.1739840  35.8348200  40.5130030  12.8244620
  34.9645440  38.7763400   5.4767710  35.4604560  38.5434270   6.2616590
  34.7661510  37.9375240   5.0605350  20.8445980  33.1577120  11.1118750
  21.4922170  32.6074500  10.6713910  21.2647820  33.4120270  11.9334560
  36.3932600  37.4124350   8.0105390  36.2831880  37.2580390   8.9487660
  37.1540190  36.8845290   7.7680800  34.7398320  33.3518480  14.4688390
  35.3770540  33.9652620  14.8347580  34.8873210  33.3879140  13.5237620
  37.3561360  36.0142930   3.8768240  36.5612860  35.9488050   4.4061150
  37.5604640  36.9493570   3.8653590  34.2979780  50.0534480   7.8706630
  34.8938850  49.7319050   7.1941050  34.5557930  49.5806300   8.6619900
  20.5977980  33.3132790  13.8544070  20.2492800  33.7696610  14.6202250
  20.2665680  32.4189920  13.9366500  22.2042350  46.4852390  18.0197260
  22.1611980  46.1145300  18.9011720  22.3353360  47.4229960  18.1599080
  25.9048380  48.0411980  13.6206980  25.6639740  48.3086540  12.7337500
  26.8451020  48.2117710  13.6757840  28.1102800  34.5044670  17.3763490
  28.0491690  35.0966500  18.1258900  29.0503180  34.3970630  17.2313750
  30.7477360  34.1614730  17.0155780  31.3617770  34.4794020  16.3536860
  31.2926920  33.6763320  17.6351640  37.1652540  50.0606360  14.4217620
  36.6710820  50.4575230  13.7044750  36.5565830  49.4355570  14.8154900
  21.2698620  32.8408990  17.1294840  21.8181610  32.6597040  16.3660950
  21.3353930  32.0503100  17.6651150  22.0430380  49.4314640  15.1395040
  21.4490700  49.2999340  15.8785080  22.0354220  48.5952780  14.6737140
  31.4885400  32.7246870  13.3425070  30.6145240  33.0581980  13.1398000
  31.3796150  32.2520050  14.1676940  32.3957380  34.9317740  14.7266790
  32.0670740  34.1169500  14.3468520  33.3439680  34.8887550  14.6032480
  34.8491990  50.7029780  11.7004360  34.3894960  51.4545590  11.3262380
  34.2204450  49.9836250  11.6419160  21.6742610  46.7973020  14.0903080
  20.9476670  46.1778310  14.0229030  21.7351760  47.1913630  13.2201160
  25.2787710  49.0118020  10.8752490  25.7952730  48.4005380  10.3500750
  25.9285090  49.5146800  11.3663500  28.0183210  49.9026510  11.7021470
  28.3061020  49.6480810  10.8254480  28.5306430  49.3503870  12.2927040
  29.2360220  33.6416710  12.2817980  28.4532010  34.1162210  12.5614740
  28.9423150  32.7371540  12.1731160  33.7881290  34.3439810  10.3267070
  34.2289380  34.2884910   9.4788670  33.5188880  35.2597820  10.3977250
  35.6519860  33.9755050   8.3375890  35.5908260  33.0316270   8.1906910
  36.4311890  34.0835140   8.8829350  19.9572610  50.1147410   7.2999840
  19.7894650  49.4818090   7.9981730  19.0907120  50.3206810   6.9494030
  20.5800630  33.9464190   4.8031700  21.3379990  34.0593070   4.2295730
  20.1177800  34.7833390   4.7575130  27.1214440  36.0603460   7.7934010
  26.3088950  35.6860350   7.4529890  27.6256080  35.3048540   8.0955200
  31.6239420  32.7245910   9.0317080  32.2268790  33.2966120   9.5065600
  30.8832410  33.2885350   8.8090980  34.7674020  33.1267470   4.3057360
  34.9624650  34.0250920   4.5724790  33.9803890  32.8954550   4.7990310
  21.5635310  48.8080640   4.7449980  21.0382930  49.1888670   4.0411940
  21.4879890  49.4331410   5.4659690  22.9525780  34.4728240   3.3433670
  23.4818540  33.6858040   3.2141620  23.5854100  35.1519430   3.5769200
  25.1463620  34.2103380   6.3979060  24.5166360  33.5090690   6.5649190
  24.6068760  34.9707510   6.1812220  28.0855570  50.8242610  19.0689670
  29.0122880  50.5886880  19.1125630  28.0706000  51.6514610  18.5875700
  36.3200630  50.3668180   6.0663920  36.4952820  49.6805920   5.4224840
  35.6222200  50.8915230   5.6740590  25.2719180  33.4887360  18.8331550
  24.9903450  33.9920960  18.0692370  25.6538880  32.6909110  18.4673680
  24.1628280  50.7563020   3.6199230  24.8947100  50.4722300   3.0723120
  24.4221950  50.5176300   4.5098610  23.3243070  46.8727750   3.6245560
  22.6951950  47.3412850   4.1731390  23.4390900  46.0276970   4.0591750
  31.8734640  32.9040940  19.4112020  31.7600090  33.2235550  20.3063540
  32.6904380  33.3053450  19.1149300  34.6533130  50.0512470  18.8930710
  35.4458450  49.5561700  18.6856670  34.9466280  50.7302610  19.5006320
  30.7792790  22.1489920  64.8720720  30.6986840  21.2344530  64.6012430
  30.3657210  22.6456990  64.1660430  28.9110830  23.9268940  66.7529990
  28.1352930  23.4469380  67.0428560  29.5623760  23.2474590  66.5786150
  22.9276660  24.2388750  67.6305750  22.0961540  23.9837460  68.0302260
  23.5357640  24.3099520  68.3663670  32.9318260  28.3329130  65.5329120
  32.4699790  27.5616370  65.8616290  33.7443810  28.3595200  66.0381570
  22.9077920  28.2728840  67.8263770  23.2105960  27.3826580  67.6473990
  23.6521510  28.8299060  67.5986020  21.3368610  19.1990640  61.4148140
  20.4485310  19.5406610  61.3128020  21.6209800  18.9990960  60.5228970
  19.3001620  21.7996290  67.2987840  19.8717730  21.0318490  67.2991480
  19.3003160  22.0985050  66.3894450  29.1581570  30.6187140  65.1533110
  28.5393010  31.0744640  64.5827550  30.0133350  30.7738600  64.7522810
  28.3519820  26.6026130  66.7600150  28.2828100  25.6616070  66.5989280
  29.1139680  26.6927540  67.3322720  20.5426490  17.2080650  69.0856770
  20.3629330  16.3106400  69.3659530  20.1406570  17.7552520  69.7603720
  29.3824990  19.4096510  66.9869080  29.7589810  18.5368390  66.8742750
  29.2844500  19.7455210  66.0959520  23.5130000  17.7822140  62.4486520
  23.6196750  18.6825870  62.7555280  22.6022360  17.7340110  62.1581170
  33.1649110  16.9046950  63.9197420  33.9858730  16.4143520  63.9622900
  33.1983190  17.4944610  64.6729260  21.1613160  19.7041150  67.6939110
  21.8423270  19.9679520  68.3126510  20.8461210  18.8642020  68.0277120
  25.3537730  20.7508510  66.7811700  25.8615950  21.2489480  67.4216720
  25.8850970  19.9743710  66.6051060  37.4548660  18.9213700  70.4841050
  36.7500830  19.3095410  69.9656160  37.7206580  19.6163990  71.0861980
  23.6373830  15.3907070  71.0475120  23.6392270  15.9079460  70.2421020
  22.8078140  14.9137250  71.0245050  30.0244920  25.5026380  62.5465020
  29.4062190  25.9675830  61.9827740  30.5368170  26.1953860  62.9634530
  24.8876680  25.0302250  69.2248620  24.5546060  25.6571170  69.8669690
  25.0643360  25.5564130  68.4450290  33.4010590  18.8447330  66.6924960
  32.6966160  19.1332220  67.2728070  33.7622750  19.6547440  66.3324520
  23.3189160  17.1017030  69.0545570  23.6605970  17.9459080  68.7599440
  22.3804970  17.2500770  69.1710910  24.0995780  26.9983050  71.0397800
  24.7169780  27.6734130  70.7582250  23.2388900  27.4071030  70.9485300
  19.3928120  26.1882910  59.9204650  19.0156100  26.6770010  59.1889550
  19.6501190  26.8608190  60.5511180  35.0173370  28.4622460  68.9552440
  34.3336890  29.1321570  68.9469110  35.5567660  28.6603110  68.1897300
  36.4697510  18.2902120  67.0834170  35.5222420  18.3241100  67.2149600
  36.7947500  19.1041070  67.4683530  27.0017050  14.5899300  65.3790160
  27.3092030  14.0346190  64.6625660  26.0717750  14.7243760  65.1963150
  32.5532110  30.3066590  67.6697620  32.5659270  29.9028880  66.8019880
  32.0007330  31.0813880  67.5659050  33.8477530  27.0282810  62.7587790
  33.7373860  26.0857140  62.8837210  33.8445780  27.3898450  63.6450550
  31.9517550  25.2096430  68.9980230  32.3686340  24.9956540  68.1633690
  32.6757370  25.4669220  69.5688850  29.3897810  22.6548130  62.1150280
  28.4627090  22.5885510  62.3438750  29.5422630  23.5928260  62.0005520
  29.3766890  18.9265130  59.1117440  28.4370560  19.0879090  59.1969900
  29.6950150  19.6450810  58.5653430  35.8979650  23.6083650  69.0896470
  35.0698280  23.6776740  68.6146600  36.4930130  24.1937960  68.6212300
  33.4195100  24.2168430  62.6185530  32.8007520  23.8787980  61.9711830
  33.4019550  23.5728190  63.3264720  32.8621660  20.3952970  70.0351340
  32.4492840  21.2206680  70.2891330  32.1297610  19.8098010  69.8427700
  24.9954450  23.1812870  64.8970010  24.5911450  22.4690120  64.4015910
  25.0817570  22.8366110  65.7858050  25.4636150  26.8680430  67.0609220
  25.1664440  26.2625900  66.3817000  26.4135970  26.9057740  66.9498580
  23.7083070  19.9556080  68.6769050  24.2597660  20.0651420  67.9022300
  24.2226580  20.3293680  69.3924280  33.5521760  30.4412300  70.7232320
  33.0752320  31.2484490  70.5304930  32.8683550  29.7890630  70.8758530
  24.5554580  26.6062120  73.7117020  23.6583110  26.8302090  73.9590420
  24.5807450  26.7297060  72.7628420  31.5959800  23.4555240  59.6258280
  32.0353080  22.6177670  59.4796100  32.3088220  24.0884640  59.7122420
  23.3825800  23.4775440  72.2874390  23.2433570  24.3498240  72.6561790
  22.5007160  23.1348250  72.1422330  29.7055180  28.3951310  63.5939520
  30.1451090  29.1375640  63.1794910  29.6442070  28.6377880  64.5178480
  25.1806150  29.4197140  74.4959540  25.1521580  29.8240090  73.6287970
  25.0171120  28.4907500  74.3331140  35.1776940  14.7098050  57.9399320
  34.8649600  14.8024880  58.8398390  35.9389410  15.2879080  57.8896750
  21.6959080  22.0757850  62.3976660  21.5756680  22.8019940  61.7857930
  21.3859970  21.3060760  61.9204570  19.3344450  25.2472990  68.2045300
  19.4124870  25.3821760  67.2601020  19.9486130  24.5388880  68.3973420
  20.5792080  26.9473180  64.6151480  20.1720160  27.0887770  63.7605080
  21.4705090  26.6633340  64.4122690  36.5354220  27.3937090  72.9523720
  36.6617280  27.1548970  72.0340900  36.5775600  26.5621630  73.4245800
  30.3970960  31.0965090  71.5218530  30.9115630  31.0073100  72.3240960
  29.5540040  31.4424790  71.8146440  32.3725360  31.3820430  60.9502530
  32.2126500  31.0923370  61.8484360  32.2072070  30.6060560  60.4147760
  24.8513740  31.1618960  62.7274150  24.6756220  30.2454500  62.5141950
  23.9969480  31.5206250  62.9671950  32.0751490  28.8907990  59.5100530
  31.3816650  28.8885280  58.8502810  32.8174350  28.4667310  59.0794700
  31.6401420  30.5170700  63.5849020  32.0958370  29.7360080  63.8987640
  31.9793940  31.2277520  64.1290200  36.3878230  19.4469550  73.9173460
  35.7722500  19.9549220  73.3888920  36.0674650  18.5467880  73.8599400
  19.3903970  26.2887160  70.7439760  19.5535010  25.8192520  69.9259130
  19.8556420  25.7810720  71.4088600  24.1622740  15.4192920  65.7800330
  23.7190890  16.2002460  65.4484850  24.7207730  15.7422810  66.4871270
  28.4492550  18.2861440  71.3835650  27.9871920  18.4944460  72.1955590
  28.0470660  17.4720790  71.0806320  33.4497060  19.5070390  72.5132310
  32.5990650  19.2076140  72.8341380  33.2898850  19.7512400  71.6016130
  30.5446770  21.0072140  74.6131100  30.8700180  20.1735890  74.2733330
  31.3327100  21.5300660  74.7609430  27.2781560  15.0403620  60.6606160
  26.6535740  15.0363490  61.3859470  27.1911680  14.1734580  60.2642130
  26.1998640  15.9640250  67.6389930  26.4970970  16.8703080  67.5581950
  26.7484200  15.4759030  67.0249500  23.9536960  20.5426490  63.5081580
  23.7277880  20.3263660  64.4128200  23.1729490  20.9754950  63.1627550
  31.1834720  20.5489860  62.1072230  30.5843610  21.2725660  61.9235850
  31.7314330  20.4866640  61.3248680  26.3936170  21.4412070  74.1741850
  26.2979770  20.5006800  74.0242250  27.2368150  21.6627140  73.7789920
  29.7899590  19.1853400  64.1375510  30.1829160  19.5025600  63.3244200
  30.1516440  18.3065280  64.2520030  21.5246710  17.8525740  72.3275630
  21.1310100  18.7000950  72.5348410  20.8365110  17.2152110  72.5184270
  18.8263760  15.7754200  66.3605710  18.5376810  16.3457060  67.0730690
  19.5709520  15.2958650  66.7236940  19.0133990  19.7174320  57.5708430
  18.9308660  20.6605080  57.7123420  18.6617050  19.5749230  56.6920780
  30.3754730  21.7759150  68.2326290  29.6435850  22.2845960  68.5816390
  29.9779070  20.9589130  67.9315070  26.8132120  18.4513350  66.6378780
  26.8168180  18.0103300  65.7883320  27.7083240  18.7730680  66.7450600
  22.6634500  18.3339840  65.5972990  22.3234550  18.8115070  66.3540040
  21.9011820  17.8804960  65.2374090  26.8752270  19.4525430  59.6285540
  26.9965090  19.4111910  60.5771360  26.4900780  20.3149580  59.4732270
  30.8380640  17.2292830  67.6449230  30.8553380  17.6801480  68.4891080
  30.5896220  16.3298470  67.8582670  25.8873770  21.7626570  59.0268840
  25.3190670  21.3144820  58.4004750  26.5962770  22.1219350  58.4933990
  34.2651390  14.6425010  73.4835610  34.5897160  13.9114670  74.0093590
  34.3007900  14.3238650  72.5816600  20.9642950  25.6638590  72.9035570
  20.5797740  25.0232260  73.5018530  21.2755140  26.3674710  73.4730300
  27.1140090  22.5115130  68.3844190  27.4810220  22.0373700  69.1305530
  26.9245150  23.3856700  68.7252530  19.9780580  17.2558820  64.5137660
  19.6927500  16.8914490  65.3516280  19.9159440  16.5239280  63.9000800
  24.9039460  21.5523770  70.7028400  24.5996530  22.4315750  70.9278760
  25.8585920  21.6123560  70.7385840  23.4321250  25.7584760  61.2995250
  22.6583510  25.2182380  61.1393970  24.1615880  25.2391370  60.9613010
  34.1909230  24.7550120  67.0921640  34.9108350  25.2505410  66.7017750
  33.9891050  24.0768010  66.4475510  29.6519170  16.1488080  61.2351030
  28.8383780  15.6501250  61.1596340  29.4581120  16.9886330  60.8187380
  29.5728030  24.8259180  72.9790640  29.5065340  23.9054850  72.7248230
  28.9433170  24.9234620  73.6935280  32.3667560  20.5207730  59.5313190
  33.2547180  20.8324960  59.3564530  32.3372650  19.6479980  59.1393770
  23.4758650  25.4265140  64.9374060  23.9937320  24.6233400  64.8830950
  23.0242670  25.3644280  65.7790890  28.3628150  26.6931420  60.2101360
  28.7043850  27.4373650  59.7144680  27.5340860  27.0062540  60.5726190
  20.9603190  22.3926510  71.8499760  20.6018130  23.0580360  72.4373100
  20.6657750  21.5610060  72.2212380  24.1616310  22.8510750  74.7339310
  23.8616450  22.9967930  73.8367130  24.9327550  22.2916040  74.6412700
  29.5044760  27.6479750  72.7294440  29.5189300  26.7160710  72.5113350
  28.7969860  27.7339510  73.3684210  34.6381830  21.8319570  58.9993050
  34.5545550  22.2633790  58.1489490  35.3576020  22.2917920  59.4319870
  35.7155970  24.2887090  72.0763020  34.9904160  24.8815870  71.8792410
  36.2431430  24.2810630  71.2776390  35.6669080  28.6861830  61.7275180
  35.0245240  28.0317450  62.0018900  35.2799740  29.0916920  60.9515850
  31.2455560  26.0147260  65.5746870  31.5979380  25.4175390  64.9148240
  30.3617890  25.6891490  65.7455120  27.3318840  26.7744950  62.9817280
  28.0189970  27.3214160  63.3624870  26.5451260  27.3185680  63.0166890
  19.4711240  22.3917770  58.4734360  20.3406090  22.6742570  58.7570280
  18.9801560  23.2053640  58.3583170  26.6346050  23.7790980  62.5942640
  27.0908830  24.5896230  62.8202830  26.2834260  23.4614120  63.4261130
  28.9378660  29.2897320  69.8234940  29.5820880  29.4956700  70.5008360
  29.3008100  28.5285720  69.3705790  22.5357830  14.1228630  63.0665160
  22.4072460  14.1146530  64.0150080  21.7119850  14.4611720  62.7156170
  30.2110740  27.2929670  68.5412390  30.8532970  26.5922830  68.6544560
  30.7360090  28.0728110  68.3609280  34.0566460  27.5778290  58.2651530
  33.8304040  26.8608730  58.8576170  33.6662660  27.3290730  57.4273280
  31.9848360  28.0924570  71.7448450  32.3204600  28.6791260  72.4226370
  31.0648700  27.9617280  71.9746240  19.8382490  31.6045150  59.0395990
  20.1980130  32.2034490  58.3853260  19.6974830  32.1505040  59.8131020
  19.5351760  15.8819750  72.5271860  18.8210280  16.0816670  73.1324470
  19.9546800  15.1059320  72.8986660  33.6382710  25.4950230  59.9265690
  33.3504410  25.9562920  60.7143570  34.4334880  25.0348000  60.1949910
  19.8224350  29.8700010  73.5138390  19.9315470  28.9294750  73.3733780
  19.1704910  30.1354760  72.8652120  25.8551110  28.9876350  59.8569660
  25.8461210  29.7206040  59.2414170  24.9349470  28.7407930  59.9496620
  21.4557750  24.2091240  60.6016420  20.8485700  24.9490140  60.6111720
  21.9307100  24.2990600  59.7754620  31.0290540  18.3742060  70.2773310
  31.3971360  17.5537270  70.6052880  30.1688740  18.4343950  70.6928960
  34.3952570  17.3299000  61.0860870  33.7665730  17.4344670  60.3719100
  33.9004490  17.5495780  61.8754750  28.8410710  29.0504590  58.5194850
  28.9422690  28.8468580  57.5896830  27.9412450  28.7962870  58.7242630
  26.3636600  19.6084950  62.5018750  25.6552750  20.0771290  62.9432360
  26.6481080  18.9506960  63.1363940  27.9892530  21.0281650  70.5011280
  28.4877780  21.5027470  71.1663130  28.1315480  20.1045170  70.7081310
  30.3952030  16.3335610  63.9414540  30.2719810  16.3521740  62.9924050
  31.3436590  16.3814550  64.0612940  27.4828820  31.5690910  63.2142520
  27.7370320  31.5312300  62.2921890  26.5341300  31.4424240  63.2070770
  24.5671620  17.9170030  59.8769460  25.4162150  18.3540180  59.8109650
  24.2002890  18.2290290  60.7041520  35.1959390  17.2449610  71.3439670
  34.6932990  17.9855010  71.6833480  36.0116050  17.6333610  71.0276460
  33.4881400  22.4882790  64.7901030  32.5471540  22.5033020  64.9648720
  33.8025470  21.7018750  65.2361330  23.4663040  24.1702390  58.3504990
  24.2326310  24.0583750  58.9130420  23.5437730  23.4740360  57.6981760
  22.1609800  21.6027460  59.0337880  22.2413390  20.6554970  59.1455280
  23.0529550  21.9334340  59.1398540  35.4906980  29.6591640  66.4655290
  35.6154400  30.4822810  66.9379100  36.3572540  29.4482370  66.1179440
  22.9624510  31.7522850  66.1372420  23.6986990  31.2038310  66.4080990
  23.3465430  32.6178860  65.9978410  19.8469990  27.8196420  62.0113930
  18.9209770  28.0617560  62.0019340  20.3126420  28.6470680  61.8898680
  26.0726820  30.9253160  57.9597990  26.8655430  31.2141990  57.5079780
  25.5531170  30.4945330  57.2810470  32.2347790  30.7729080  73.8842820
  33.1869540  30.6887100  73.8343060  32.0876010  31.4370790  74.5576610
  35.1256990  30.1523290  59.3834730  34.8398500  29.7388430  58.5688910
  34.9276540  31.0811000  59.2635250  19.6880600  23.4242380  74.2694050
  20.1919620  22.8449660  74.8410280  18.9488020  23.7082610  74.8070420
  26.5904220  26.1456570  57.8240340  26.4854860  25.5308920  58.5501720
  26.4228440  25.6222460  57.0403350  26.7418540  24.8313370  73.8029570
  25.9764210  25.3998370  73.7184240  26.9234500  24.5389580  72.9097800
  29.8306950  25.2076600  58.4282330  29.2817050  25.6545900  59.0725070
  30.4526210  24.7025850  58.9520000  33.8841890  26.5618700  74.3604590
  34.6251360  26.8994460  73.8572050  33.1214570  26.7310760  73.8074360
  25.4982070  24.1667520  60.3247630  25.9198490  24.0007390  61.1679020
  25.6232910  23.3567750  59.8302770  23.6609490  20.1464070  73.1318610
  23.1305950  19.6555020  72.5041950  24.3297560  20.5748270  72.5976540
  28.0109710  23.1905130  57.5724730  28.5315370  22.4754150  57.2065880
  28.6578110  23.8291000  57.8725240  32.5587550  24.6133530  72.8959800
  32.9728570  24.7678610  73.7450220  31.6238550  24.7388750  73.0585580
  33.0309720  21.9529690  74.8998950  33.6130490  21.1982010  74.8119430
  33.2071490  22.4837130  74.1230430  24.1481790  17.1126440  73.2115900
  24.0538660  16.4947190  72.4866770  23.5679180  17.8392730  72.9845810
  26.9143230  15.6699680  70.2443290  26.4660530  15.6923940  69.3988840
  26.2808430  15.2718700  70.8413590  27.3202780  24.5654010  70.8655730
  27.7390890  25.4086740  70.6931970  26.4011410  24.7026050  70.6362510
  29.6566680  22.2970190  72.2493570  29.7762890  21.7011330  72.9888410
  30.5160680  22.3339880  71.8294870  31.9954580  22.8507380  70.8256080
  31.4689800  23.3750000  70.2221220  32.3385920  23.4834770  71.4565810
  24.3940970  20.2400750  57.2705790  24.1930030  19.3768110  57.6319130
  24.2233020  20.1534110  56.3327390  25.1710200  30.8707020  71.9813460
  24.6331290  31.5953080  71.6622160  25.4244160  30.3937360  71.1910800
  26.4235450  18.8391540  73.5069390  27.0135140  18.5307390  74.1947210
  25.6055690  18.3671290  73.6629290  31.2428880  18.4557350  73.7402410
  30.5544400  17.7938890  73.6752400  31.9634900  18.0095620  74.1850870
  31.8729280  15.0508980  59.7992670  32.1531570  14.2076880  60.1552090
  31.0995010  15.2832090  60.3131420  23.1923770  17.3401370  57.2583670
  23.4949670  17.3468800  56.3502820  23.9318360  16.9899230  57.7551330
  28.0272410  32.1058230  72.2400110  27.9531110  33.0093370  72.5472480
  27.1251250  31.7870130  72.2122180  26.4108700  16.2835990  58.2439870
  26.0630700  15.6059980  57.6642320  26.6121470  15.8225500  59.0583260
  28.5757740  31.2716740  59.8626470  29.4708530  31.6101710  59.8845230
  28.6075370  30.5496150  59.2350750  22.2153900  26.6443790  58.0913470
  22.6528770  27.1873460  58.7471050  22.7001630  25.8190740  58.1009810
  19.4299700  29.4332820  65.5433730  19.7602710  28.5653880  65.3112370
  19.8590700  29.6391340  66.3738690  24.0261620  27.7641830  63.2035700
  23.7257160  27.6406800  64.1039610  23.9199110  26.9050420  62.7951430
  19.9189910  30.3003410  68.2815360  19.4820900  30.4804210  69.1139510
  20.4867590  31.0578030  68.1397080  35.5552090  29.8020410  72.5692670
  34.9554080  29.8612970  71.8256590  35.6845990  28.8625390  72.6989520
  36.7953540  27.5438230  57.9062380  35.9646500  27.6114880  58.3769610
  36.9725370  28.4342350  57.6029240  36.2510000  24.2885710  60.4096580
  37.0128910  24.8582360  60.5156270  36.2664370  23.7212910  61.1804890
  19.7514340  22.8123640  64.6404240  19.0963180  22.5435280  63.9963940
  20.5892290  22.7028120  64.1906220  37.2569970  25.1435810  65.2538510
  37.6278800  24.3603130  64.8474480  37.8971900  25.8324910  65.0755810
  34.2403730  26.5272390  70.6668830  33.4263570  26.9569550  70.9294620
  34.6477930  27.1390800  70.0537880  36.3029170  24.5820080  57.5669100
  36.5778010  25.4898960  57.4388320  36.1139910  24.5182610  58.5031090
  32.7004780  17.6064930  58.8622730  33.1189660  17.4195910  58.0219390
  32.3940840  16.7543980  59.1725660  36.1994510  22.5189070  62.5598530
  35.8238110  21.7517000  62.1279820  35.4697630  22.9011770  63.0473460
  20.7890270  23.1976210  69.1807580  21.1563310  23.1103610  70.0603600
  20.2201090  22.4342760  69.0814440  35.5894130  21.6660590  72.1938050
  35.3580220  21.4373340  71.2936000  35.8498680  22.5860140  72.1482940
  20.3406270  20.1085300  73.0866000  19.4462320  20.0752060  73.4259710
  20.8803820  20.3072090  73.8517250  18.9652420  20.0222570  60.5829570
  18.0616500  20.2852770  60.4081230  19.4493040  20.2933740  59.8029530
  35.4745470  20.7446560  65.8605770  35.9982950  20.2509210  65.2295940
  36.0604890  20.8796920  66.6053340  35.6535190  20.8286430  69.3825320
  34.7037900  20.7949970  69.4970310  35.8348200  21.7386540  69.1475090
  21.5079630  19.0788110  58.4923950  22.2171330  18.6571330  58.0071230
  20.7919570  19.1463340  57.8607300  21.1553790  15.1327440  57.5326600
  21.8781920  15.6736380  57.8507820  21.4278310  14.8590860  56.6568140
  34.9645440  20.0019910  61.7998180  35.4604560  19.7690780  62.5847060
  34.7661510  19.1631750  61.3835820  20.8445980  14.3833630  67.4349220
  21.4922170  13.8331010  66.9944380  21.2647820  14.6376780  68.2565030
  36.3932600  18.6380860  64.3335860  36.2831880  18.4836900  65.2718130
  37.1540190  18.1101800  64.0911270  34.7398320  14.5774990  70.7918860
  35.3770540  15.1909130  71.1578050  34.8873210  14.6135650  69.8468090
  37.2822870  16.4688780  57.5742000  38.2072180  16.3369960  57.3660290
  37.2598660  16.5481600  58.5278450  37.3561360  17.2399440  60.1998710
  36.5612860  17.1744560  60.7291620  37.5604640  18.1750080  60.1884060
  34.2979780  31.2790990  64.1937100  34.8938850  30.9575560  63.5171520
  34.5557930  30.8062810  64.9850370  20.5977980  14.5389300  70.1774540
  20.2492800  14.9953120  70.9432720  20.2665680  13.6446430  70.2596970
  25.9048380  29.2668490  69.9437450  25.6639740  29.5343050  69.0567970
  26.8451020  29.4374220  69.9988310  28.1102800  15.7301180  73.6993960
  28.0491690  16.3223010  74.4489370  29.0503180  15.6227140  73.5544220
  30.7477360  15.3871240  73.3386250  31.3617770  15.7050530  72.6767330
  31.2926920  14.9019830  73.9582110  37.1652540  31.2862870  70.7448090
  36.6710820  31.6831740  70.0275220  36.5565830  30.6612080  71.1385370
  21.2698620  14.0665500  73.4525310  21.8181610  13.8853550  72.6891420
  21.3353930  13.2759610  73.9881620  22.0430380  30.6571150  71.4625510
  21.4490700  30.5255850  72.2015550  22.0354220  29.8209290  70.9967610
  31.4885400  13.9503380  69.6655540  30.6145240  14.2838490  69.4628470
  31.3796150  13.4776560  70.4907410  32.3957380  16.1574250  71.0497260
  32.0670740  15.3426010  70.6698990  33.3439680  16.1144060  70.9262950
  34.8491990  31.9286290  68.0234830  34.3894960  32.6802100  67.6492850
  34.2204450  31.2092760  67.9649630  21.6742610  28.0229530  70.4133550
  20.9476670  27.4034820  70.3459500  21.7351760  28.4170140  69.5431630
  25.2787710  30.2374530  67.1982960  25.7952730  29.6261890  66.6731220
  25.9285090  30.7403310  67.6893970  28.0183210  31.1283020  68.0251940
  28.3061020  30.8737320  67.1484950  28.5306430  30.5760380  68.6157510
  29.2360220  14.8673220  68.6048450  28.4532010  15.3418720  68.8845210
  28.9423150  13.9628050  68.4961630  33.7881290  15.5696320  66.6497540
  34.2289380  15.5141420  65.8019140  33.5188880  16.4854330  66.7207720
  35.6519860  15.2011560  64.6606360  35.5908260  14.2572780  64.5137380
  36.4311890  15.3091650  65.2059820  19.9572610  31.3403920  63.6230310
  19.7894650  30.7074600  64.3212200  19.0907120  31.5463320  63.2724500
  20.5800630  15.1720700  61.1262170  21.3379990  15.2849580  60.5526200
  20.1177800  16.0089900  61.0805600  27.1214440  17.2859970  64.1164480
  26.3088950  16.9116860  63.7760360  27.6256080  16.5305050  64.4185670
  31.6239420  13.9502420  65.3547550  32.2268790  14.5222630  65.8296070
  30.8832410  14.5141860  65.1321450  34.7674020  14.3523980  60.6287830
  34.9624650  15.2507430  60.8955260  33.9803890  14.1211060  61.1220780
  21.5635310  30.0337150  61.0680450  21.0382930  30.4145180  60.3642410
  21.4879890  30.6587920  61.7890160  22.9525780  15.6984750  59.6664140
  23.4818540  14.9114550  59.5372090  23.5854100  16.3775940  59.8999670
  25.1463620  15.4359890  62.7209530  24.5166360  14.7347200  62.8879660
  24.6068760  16.1964020  62.5042690  36.3200630  31.5924690  62.3894390
  36.4952820  30.9062430  61.7455310  35.6222200  32.1171740  61.9971060
  24.1628280  31.9819530  59.9429700  24.8947100  31.6978810  59.3953590
  24.4221950  31.7432810  60.8329080  23.3243070  28.0984260  59.9476030
  22.6951950  28.5669360  60.4961860  23.4390900  27.2533480  60.3822220
  30.7792790  22.1489920  46.0977230  30.6986840  21.2344530  45.8268940
  30.3657210  22.6456990  45.3916940  28.9110830  23.9268940  47.9786500
  28.1352930  23.4469380  48.2685070  29.5623760  23.2474590  47.8042660
  22.9276660  24.2388750  48.8562260  22.0961540  23.9837460  49.2558770
  23.5357640  24.3099520  49.5920180  32.9318260  28.3329130  46.7585630
  32.4699790  27.5616370  47.0872800  33.7443810  28.3595200  47.2638080
  22.9077920  28.2728840  49.0520280  23.2105960  27.3826580  48.8730500
  23.6521510  28.8299060  48.8242530  21.3368610  19.1990640  42.6404650
  20.4485310  19.5406610  42.5384530  21.6209800  18.9990960  41.7485480
  19.3001620  21.7996290  48.5244350  19.8717730  21.0318490  48.5247990
  19.3003160  22.0985050  47.6150960  29.1581570  30.6187140  46.3789620
  28.5393010  31.0744640  45.8084060  30.0133350  30.7738600  45.9779320
  28.3519820  26.6026130  47.9856660  28.2828100  25.6616070  47.8245790
  29.1139680  26.6927540  48.5579230  20.5426490  17.2080650  50.3113280
  20.3629330  16.3106400  50.5916040  20.1406570  17.7552520  50.9860230
  29.3824990  19.4096510  48.2125590  29.7589810  18.5368390  48.0999260
  29.2844500  19.7455210  47.3216030  23.5130000  17.7822140  43.6743030
  23.6196750  18.6825870  43.9811790  22.6022360  17.7340110  43.3837680
  33.1649110  16.9046950  45.1453930  33.9858730  16.4143520  45.1879410
  33.1983190  17.4944610  45.8985770  21.1613160  19.7041150  48.9195620
  21.8423270  19.9679520  49.5383020  20.8461210  18.8642020  49.2533630
  25.3537730  20.7508510  48.0068210  25.8615950  21.2489480  48.6473230
  25.8850970  19.9743710  47.8307570  37.4548660  18.9213700  51.7097560
  36.7500830  19.3095410  51.1912670  37.7206580  19.6163990  52.3118490
  23.6373830  15.3907070  52.2731630  23.6392270  15.9079460  51.4677530
  22.8078140  14.9137250  52.2501560  30.0244920  25.5026380  43.7721530
  29.4062190  25.9675830  43.2084250  30.5368170  26.1953860  44.1891040
  24.8876680  25.0302250  50.4505130  24.5546060  25.6571170  51.0926200
  25.0643360  25.5564130  49.6706800  33.4010590  18.8447330  47.9181470
  32.6966160  19.1332220  48.4984580  33.7622750  19.6547440  47.5581030
  23.3189160  17.1017030  50.2802080  23.6605970  17.9459080  49.9855950
  22.3804970  17.2500770  50.3967420  24.0995780  26.9983050  52.2654310
  24.7169780  27.6734130  51.9838760  23.2388900  27.4071030  52.1741810
  19.3928120  26.1882910  41.1461160  19.0156100  26.6770010  40.4146060
  19.6501190  26.8608190  41.7767690  35.0173370  28.4622460  50.1808950
  34.3336890  29.1321570  50.1725620  35.5567660  28.6603110  49.4153810
  36.4697510  18.2902120  48.3090680  35.5222420  18.3241100  48.4406110
  36.7947500  19.1041070  48.6940040  27.0017050  14.5899300  46.6046670
  27.3092030  14.0346190  45.8882170  26.0717750  14.7243760  46.4219660
  32.5532110  30.3066590  48.8954130  32.5659270  29.9028880  48.0276390
  32.0007330  31.0813880  48.7915560  33.8477530  27.0282810  43.9844300
  33.7373860  26.0857140  44.1093720  33.8445780  27.3898450  44.8707060
  31.9517550  25.2096430  50.2236740  32.3686340  24.9956540  49.3890200
  32.6757370  25.4669220  50.7945360  29.3897810  22.6548130  43.3406790
  28.4627090  22.5885510  43.5695260  29.5422630  23.5928260  43.2262030
  29.3766890  18.9265130  40.3373950  28.4370560  19.0879090  40.4226410
  29.6950150  19.6450810  39.7909940  35.8979650  23.6083650  50.3152980
  35.0698280  23.6776740  49.8403110  36.4930130  24.1937960  49.8468810
  33.4195100  24.2168430  43.8442040  32.8007520  23.8787980  43.1968340
  33.4019550  23.5728190  44.5521230  32.8621660  20.3952970  51.2607850
  32.4492840  21.2206680  51.5147840  32.1297610  19.8098010  51.0684210
  24.9954450  23.1812870  46.1226520  24.5911450  22.4690120  45.6272420
  25.0817570  22.8366110  47.0114560  25.4636150  26.8680430  48.2865730
  25.1664440  26.2625900  47.6073510  26.4135970  26.9057740  48.1755090
  23.7083070  19.9556080  49.9025560  24.2597660  20.0651420  49.1278810
  24.2226580  20.3293680  50.6180790  33.5521760  30.4412300  51.9488830
  33.0752320  31.2484490  51.7561440  32.8683550  29.7890630  52.1015040
  24.5554580  26.6062120  54.9373530  23.6583110  26.8302090  55.1846930
  24.5807450  26.7297060  53.9884930  31.5959800  23.4555240  40.8514790
  32.0353080  22.6177670  40.7052610  32.3088220  24.0884640  40.9378930
  23.3825800  23.4775440  53.5130900  23.2433570  24.3498240  53.8818300
  22.5007160  23.1348250  53.3678840  29.7055180  28.3951310  44.8196030
  30.1451090  29.1375640  44.4051420  29.6442070  28.6377880  45.7434990
  25.1806150  29.4197140  55.7216050  25.1521580  29.8240090  54.8544480
  25.0171120  28.4907500  55.5587650  35.1776940  14.7098050  39.1655830
  34.8649600  14.8024880  40.0654900  35.9389410  15.2879080  39.1153260
  21.6959080  22.0757850  43.6233170  21.5756680  22.8019940  43.0114440
  21.3859970  21.3060760  43.1461080  37.1320970  30.2024240  57.0180220
  37.6080690  30.6807130  57.6969300  37.7528130  30.1341730  56.2925720
  19.3344450  25.2472990  49.4301810  19.4124870  25.3821760  48.4857530
  19.9486130  24.5388880  49.6229930  20.5792080  26.9473180  45.8407990
  20.1720160  27.0887770  44.9861590  21.4705090  26.6633340  45.6379200
  36.5354220  27.3937090  54.1780230  36.6617280  27.1548970  53.2597410
  36.5775600  26.5621630  54.6502310  30.3970960  31.0965090  52.7475040
  30.9115630  31.0073100  53.5497470  29.5540040  31.4424790  53.0402950
  32.3725360  31.3820430  42.1759040  32.2126500  31.0923370  43.0740870
  32.2072070  30.6060560  41.6404270  24.8513740  31.1618960  43.9530660
  24.6756220  30.2454500  43.7398460  23.9969480  31.5206250  44.1928460
  32.0751490  28.8907990  40.7357040  31.3816650  28.8885280  40.0759320
  32.8174350  28.4667310  40.3051210  31.6401420  30.5170700  44.8105530
  32.0958370  29.7360080  45.1244150  31.9793940  31.2277520  45.3546710
  36.3878230  19.4469550  55.1429970  35.7722500  19.9549220  54.6145430
  36.0674650  18.5467880  55.0855910  19.3903970  26.2887160  51.9696270
  19.5535010  25.8192520  51.1515640  19.8556420  25.7810720  52.6345110
  24.1622740  15.4192920  47.0056840  23.7190890  16.2002460  46.6741360
  24.7207730  15.7422810  47.7127780  28.4492550  18.2861440  52.6092160
  27.9871920  18.4944460  53.4212100  28.0470660  17.4720790  52.3062830
  33.4497060  19.5070390  53.7388820  32.5990650  19.2076140  54.0597890
  33.2898850  19.7512400  52.8272640  30.5446770  21.0072140  55.8387610
  30.8700180  20.1735890  55.4989840  31.3327100  21.5300660  55.9865940
  27.2781560  15.0403620  41.8862670  26.6535740  15.0363490  42.6115980
  27.1911680  14.1734580  41.4898640  26.1998640  15.9640250  48.8646440
  26.4970970  16.8703080  48.7838460  26.7484200  15.4759030  48.2506010
  23.9536960  20.5426490  44.7338090  23.7277880  20.3263660  45.6384710
  23.1729490  20.9754950  44.3884060  31.1834720  20.5489860  43.3328740
  30.5843610  21.2725660  43.1492360  31.7314330  20.4866640  42.5505190
  26.3936170  21.4412070  55.3998360  26.2979770  20.5006800  55.2498760
  27.2368150  21.6627140  55.0046430  29.7899590  19.1853400  45.3632020
  30.1829160  19.5025600  44.5500710  30.1516440  18.3065280  45.4776540
  21.5246710  17.8525740  53.5532140  21.1310100  18.7000950  53.7604920
  20.8365110  17.2152110  53.7440780  28.0991760  17.9360710  56.6228880
  27.4090080  17.7432910  57.2574970  28.8424060  18.2195350  57.1553180
  18.8263760  15.7754200  47.5862220  18.5376810  16.3457060  48.2987200
  19.5709520  15.2958650  47.9493450  19.0133990  19.7174320  38.7964940
  18.9308660  20.6605080  38.9379930  18.6617050  19.5749230  37.9177290
  30.3754730  21.7759150  49.4582800  29.6435850  22.2845960  49.8072900
  29.9779070  20.9589130  49.1571580  26.8132120  18.4513350  47.8635290
  26.8168180  18.0103300  47.0139830  27.7083240  18.7730680  47.9707110
  22.6634500  18.3339840  46.8229500  22.3234550  18.8115070  47.5796550
  21.9011820  17.8804960  46.4630600  26.8752270  19.4525430  40.8542050
  26.9965090  19.4111910  41.8027870  26.4900780  20.3149580  40.6988780
  30.8380640  17.2292830  48.8705740  30.8553380  17.6801480  49.7147590
  30.5896220  16.3298470  49.0839180  25.8873770  21.7626570  40.2525350
  25.3190670  21.3144820  39.6261260  26.5962770  22.1219350  39.7190500
  34.2651390  14.6425010  54.7092120  34.5897160  13.9114670  55.2350100
  34.3007900  14.3238650  53.8073110  20.9642950  25.6638590  54.1292080
  20.5797740  25.0232260  54.7275040  21.2755140  26.3674710  54.6986810
  27.1140090  22.5115130  49.6100700  27.4810220  22.0373700  50.3562040
  26.9245150  23.3856700  49.9509040  19.9780580  17.2558820  45.7394170
  19.6927500  16.8914490  46.5772790  19.9159440  16.5239280  45.1257310
  24.9039460  21.5523770  51.9284910  24.5996530  22.4315750  52.1535270
  25.8585920  21.6123560  51.9642350  23.4321250  25.7584760  42.5251760
  22.6583510  25.2182380  42.3650480  24.1615880  25.2391370  42.1869520
  34.1909230  24.7550120  48.3178150  34.9108350  25.2505410  47.9274260
  33.9891050  24.0768010  47.6732020  29.6519170  16.1488080  42.4607540
  28.8383780  15.6501250  42.3852850  29.4581120  16.9886330  42.0443890
  29.5728030  24.8259180  54.2047150  29.5065340  23.9054850  53.9504740
  28.9433170  24.9234620  54.9191790  32.3667560  20.5207730  40.7569700
  33.2547180  20.8324960  40.5821040  32.3372650  19.6479980  40.3650280
  23.4758650  25.4265140  46.1630570  23.9937320  24.6233400  46.1087460
  23.0242670  25.3644280  47.0047400  28.3628150  26.6931420  41.4357870
  28.7043850  27.4373650  40.9401190  27.5340860  27.0062540  41.7982700
  20.9603190  22.3926510  53.0756270  20.6018130  23.0580360  53.6629610
  20.6657750  21.5610060  53.4468890  24.1616310  22.8510750  55.9595820
  23.8616450  22.9967930  55.0623640  24.9327550  22.2916040  55.8669210
  29.5044760  27.6479750  53.9550950  29.5189300  26.7160710  53.7369860
  28.7969860  27.7339510  54.5940720  34.6381830  21.8319570  40.2249560
  34.5545550  22.2633790  39.3746000  35.3576020  22.2917920  40.6576380
  35.7155970  24.2887090  53.3019530  34.9904160  24.8815870  53.1048920
  36.2431430  24.2810630  52.5032900  35.6669080  28.6861830  42.9531690
  35.0245240  28.0317450  43.2275410  35.2799740  29.0916920  42.1772360
  31.2455560  26.0147260  46.8003380  31.5979380  25.4175390  46.1404750
  30.3617890  25.6891490  46.9711630  27.3318840  26.7744950  44.2073790
  28.0189970  27.3214160  44.5881380  26.5451260  27.3185680  44.2423400
  19.4711240  22.3917770  39.6990870  20.3406090  22.6742570  39.9826790
  18.9801560  23.2053640  39.5839680  26.6346050  23.7790980  43.8199150
  27.0908830  24.5896230  44.0459340  26.2834260  23.4614120  44.6517640
  28.9378660  29.2897320  51.0491450  29.5820880  29.4956700  51.7264870
  29.3008100  28.5285720  50.5962300  22.5357830  14.1228630  44.2921670
  22.4072460  14.1146530  45.2406590  21.7119850  14.4611720  43.9412680
  30.2110740  27.2929670  49.7668900  30.8532970  26.5922830  49.8801070
  30.7360090  28.0728110  49.5865790  34.0566460  27.5778290  39.4908040
  33.8304040  26.8608730  40.0832680  33.6662660  27.3290730  38.6529790
  31.9848360  28.0924570  52.9704960  32.3204600  28.6791260  53.6482880
  31.0648700  27.9617280  53.2002750  19.8382490  31.6045150  40.2652500
  20.1980130  32.2034490  39.6109770  19.6974830  32.1505040  41.0387530
  19.5351760  15.8819750  53.7528370  18.8210280  16.0816670  54.3580980
  19.9546800  15.1059320  54.1243170  33.6382710  25.4950230  41.1522200
  33.3504410  25.9562920  41.9400080  34.4334880  25.0348000  41.4206420
  19.8224350  29.8700010  54.7394900  19.9315470  28.9294750  54.5990290
  19.1704910  30.1354760  54.0908630  27.8136940  28.1415900  56.1393020
  27.4933810  27.4225140  56.6838710  27.1395300  28.8170970  56.2129080
  25.8551110  28.9876350  41.0826170  25.8461210  29.7206040  40.4670680
  24.9349470  28.7407930  41.1753130  21.4557750  24.2091240  41.8272930
  20.8485700  24.9490140  41.8368230  21.9307100  24.2990600  41.0011130
  31.0290540  18.3742060  51.5029820  31.3971360  17.5537270  51.8309390
  30.1688740  18.4343950  51.9185470  34.3952570  17.3299000  42.3117380
  33.7665730  17.4344670  41.5975610  33.9004490  17.5495780  43.1011260
  28.8410710  29.0504590  39.7451360  28.9422690  28.8468580  38.8153340
  27.9412450  28.7962870  39.9499140  26.3636600  19.6084950  43.7275260
  25.6552750  20.0771290  44.1688870  26.6481080  18.9506960  44.3620450
  27.9892530  21.0281650  51.7267790  28.4877780  21.5027470  52.3919640
  28.1315480  20.1045170  51.9337820  30.3952030  16.3335610  45.1671050
  30.2719810  16.3521740  44.2180560  31.3436590  16.3814550  45.2869450
  27.4828820  31.5690910  44.4399030  27.7370320  31.5312300  43.5178400
  26.5341300  31.4424240  44.4327280  24.5671620  17.9170030  41.1025970
  25.4162150  18.3540180  41.0366160  24.2002890  18.2290290  41.9298030
  35.1959390  17.2449610  52.5696180  34.6932990  17.9855010  52.9089990
  36.0116050  17.6333610  52.2532970  33.4881400  22.4882790  46.0157540
  32.5471540  22.5033020  46.1905230  33.8025470  21.7018750  46.4617840
  23.4663040  24.1702390  39.5761500  24.2326310  24.0583750  40.1386930
  23.5437730  23.4740360  38.9238270  22.1609800  21.6027460  40.2594390
  22.2413390  20.6554970  40.3711790  23.0529550  21.9334340  40.3655050
  35.4906980  29.6591640  47.6911800  35.6154400  30.4822810  48.1635610
  36.3572540  29.4482370  47.3435950  22.9624510  31.7522850  47.3628930
  23.6986990  31.2038310  47.6337500  23.3465430  32.6178860  47.2234920
  19.8469990  27.8196420  43.2370440  18.9209770  28.0617560  43.2275850
  20.3126420  28.6470680  43.1155190  21.9682790  30.9368920  56.5514510
  22.7695520  31.2580970  56.9649910  21.4534610  30.5764500  57.2734420
  26.0726820  30.9253160  39.1854500  26.8655430  31.2141990  38.7336290
  25.5531170  30.4945330  38.5066980  30.8047420  27.0448790  56.4989920
  30.1985580  27.0680390  55.7585670  30.5001530  26.3131830  57.0357170
  32.2347790  30.7729080  55.1099330  33.1869540  30.6887100  55.0599570
  32.0876010  31.4370790  55.7833120  35.1256990  30.1523290  40.6091240
  34.8398500  29.7388430  39.7945420  34.9276540  31.0811000  40.4891760
  19.6880600  23.4242380  55.4950560  20.1919620  22.8449660  56.0666790
  18.9488020  23.7082610  56.0326930  26.5904220  26.1456570  39.0496850
  26.4854860  25.5308920  39.7758230  26.4228440  25.6222460  38.2659860
  26.7418540  24.8313370  55.0286080  25.9764210  25.3998370  54.9440750
  26.9234500  24.5389580  54.1354310  29.8306950  25.2076600  39.6538840
  29.2817050  25.6545900  40.2981580  30.4526210  24.7025850  40.1776510
  33.8841890  26.5618700  55.5861100  34.6251360  26.8994460  55.0828560
  33.1214570  26.7310760  55.0330870  21.7203680  21.5671970  56.3900630
  21.7609020  21.2685840  57.2985860  22.5749180  21.9679580  56.2308150
  25.4982070  24.1667520  41.5504140  25.9198490  24.0007390  42.3935530
  25.6232910  23.3567750  41.0559280  23.6609490  20.1464070  54.3575120
  23.1305950  19.6555020  53.7298460  24.3297560  20.5748270  53.8233050
  28.0109710  23.1905130  38.7981240  28.5315370  22.4754150  38.4322390
  28.6578110  23.8291000  39.0981750  32.5587550  24.6133530  54.1216310
  32.9728570  24.7678610  54.9706730  31.6238550  24.7388750  54.2842090
  33.0309720  21.9529690  56.1255460  33.6130490  21.1982010  56.0375940
  33.2071490  22.4837130  55.3486940  24.1481790  17.1126440  54.4372410
  24.0538660  16.4947190  53.7123280  23.5679180  17.8392730  54.2102320
  26.9143230  15.6699680  51.4699800  26.4660530  15.6923940  50.6245350
  26.2808430  15.2718700  52.0670100  27.3202780  24.5654010  52.0912240
  27.7390890  25.4086740  51.9188480  26.4011410  24.7026050  51.8619020
  29.6566680  22.2970190  53.4750080  29.7762890  21.7011330  54.2144920
  30.5160680  22.3339880  53.0551380  31.9954580  22.8507380  52.0512590
  31.4689800  23.3750000  51.4477730  32.3385920  23.4834770  52.6822320
  24.3940970  20.2400750  38.4962300  24.1930030  19.3768110  38.8575640
  24.2233020  20.1534110  37.5583900  25.1710200  30.8707020  53.2069970
  24.6331290  31.5953080  52.8878670  25.4244160  30.3937360  52.4167310
  26.4235450  18.8391540  54.7325900  27.0135140  18.5307390  55.4203720
  25.6055690  18.3671290  54.8885800  31.2428880  18.4557350  54.9658920
  30.5544400  17.7938890  54.9008910  31.9634900  18.0095620  55.4107380
  31.8729280  15.0508980  41.0249180  32.1531570  14.2076880  41.3808600
  31.0995010  15.2832090  41.5387930  23.1923770  17.3401370  38.4840180
  23.4949670  17.3468800  37.5759330  23.9318360  16.9899230  38.9807840
  28.0272410  32.1058230  53.4656620  27.9531110  33.0093370  53.7728990
  27.1251250  31.7870130  53.4378690  26.4108700  16.2835990  39.4696380
  26.0630700  15.6059980  38.8898830  26.6121470  15.8225500  40.2839770
  28.5757740  31.2716740  41.0882980  29.4708530  31.6101710  41.1101740
  28.6075370  30.5496150  40.4607260  22.2153900  26.6443790  39.3169980
  22.6528770  27.1873460  39.9727560  22.7001630  25.8190740  39.3266320
  19.4299700  29.4332820  46.7690240  19.7602710  28.5653880  46.5368880
  19.8590700  29.6391340  47.5995200  24.0261620  27.7641830  44.4292210
  23.7257160  27.6406800  45.3296120  23.9199110  26.9050420  44.0207940
  19.9189910  30.3003410  49.5071870  19.4820900  30.4804210  50.3396020
  20.4867590  31.0578030  49.3653590  35.5552090  29.8020410  53.7949180
  34.9554080  29.8612970  53.0513100  35.6845990  28.8625390  53.9246030
  36.7953540  27.5438230  39.1318890  35.9646500  27.6114880  39.6026120
  36.9725370  28.4342350  38.8285750  36.2510000  24.2885710  41.6353090
  37.0128910  24.8582360  41.7412780  36.2664370  23.7212910  42.4061400
  19.7514340  22.8123640  45.8660750  19.0963180  22.5435280  45.2220450
  20.5892290  22.7028120  45.4162730  37.2569970  25.1435810  46.4795020
  37.6278800  24.3603130  46.0730990  37.8971900  25.8324910  46.3012320
  34.2403730  26.5272390  51.8925340  33.4263570  26.9569550  52.1551130
  34.6477930  27.1390800  51.2794390  36.3029170  24.5820080  38.7925610
  36.5778010  25.4898960  38.6644830  36.1139910  24.5182610  39.7287600
  32.7004780  17.6064930  40.0879240  33.1189660  17.4195910  39.2475900
  32.3940840  16.7543980  40.3982170  36.1994510  22.5189070  43.7855040
  35.8238110  21.7517000  43.3536330  35.4697630  22.9011770  44.2729970
  20.7890270  23.1976210  50.4064090  21.1563310  23.1103610  51.2860110
  20.2201090  22.4342760  50.3070950  35.5894130  21.6660590  53.4194560
  35.3580220  21.4373340  52.5192510  35.8498680  22.5860140  53.3739450
  20.3406270  20.1085300  54.3122510  19.4462320  20.0752060  54.6516220
  20.8803820  20.3072090  55.0773760  34.0282200  16.8917020  56.1974260
  34.9052380  16.9000420  56.5808260  34.0403040  16.1547860  55.5866610
  18.9652420  20.0222570  41.8086080  18.0616500  20.2852770  41.6337740
  19.4493040  20.2933740  41.0286040  35.4745470  20.7446560  47.0862280
  35.9982950  20.2509210  46.4552450  36.0604890  20.8796920  47.8309850
  35.6535190  20.8286430  50.6081830  34.7037900  20.7949970  50.7226820
  35.8348200  21.7386540  50.3731600  21.5079630  19.0788110  39.7180460
  22.2171330  18.6571330  39.2327740  20.7919570  19.1463340  39.0863810
  21.1553790  15.1327440  38.7583110  21.8781920  15.6736380  39.0764330
  21.4278310  14.8590860  37.8824650  34.9645440  20.0019910  43.0254690
  35.4604560  19.7690780  43.8103570  34.7661510  19.1631750  42.6092330
  20.8445980  14.3833630  48.6605730  21.4922170  13.8331010  48.2200890
  21.2647820  14.6376780  49.4821540  36.3932600  18.6380860  45.5592370
  36.2831880  18.4836900  46.4974640  37.1540190  18.1101800  45.3167780
  34.7398320  14.5774990  52.0175370  35.3770540  15.1909130  52.3834560
  34.8873210  14.6135650  51.0724600  37.2822870  16.4688780  38.7998510
  38.2072180  16.3369960  38.5916800  37.2598660  16.5481600  39.7534960
  37.3561360  17.2399440  41.4255220  36.5612860  17.1744560  41.9548130
  37.5604640  18.1750080  41.4140570  34.2979780  31.2790990  45.4193610
  34.8938850  30.9575560  44.7428030  34.5557930  30.8062810  46.2106880
  20.5977980  14.5389300  51.4031050  20.2492800  14.9953120  52.1689230
  20.2665680  13.6446430  51.4853480  22.2042350  27.7108900  55.5684240
  22.1611980  27.3401810  56.4498700  22.3353360  28.6486470  55.7086060
  25.9048380  29.2668490  51.1693960  25.6639740  29.5343050  50.2824480
  26.8451020  29.4374220  51.2244820  28.1102800  15.7301180  54.9250470
  28.0491690  16.3223010  55.6745880  29.0503180  15.6227140  54.7800730
  30.7477360  15.3871240  54.5642760  31.3617770  15.7050530  53.9023840
  31.2926920  14.9019830  55.1838620  37.1652540  31.2862870  51.9704600
  36.6710820  31.6831740  51.2531730  36.5565830  30.6612080  52.3641880
  21.2698620  14.0665500  54.6781820  21.8181610  13.8853550  53.9147930
  21.3353930  13.2759610  55.2138130  22.0430380  30.6571150  52.6882020
  21.4490700  30.5255850  53.4272060  22.0354220  29.8209290  52.2224120
  31.4885400  13.9503380  50.8912050  30.6145240  14.2838490  50.6884980
  31.3796150  13.4776560  51.7163920  32.3957380  16.1574250  52.2753770
  32.0670740  15.3426010  51.8955500  33.3439680  16.1144060  52.1519460
  34.8491990  31.9286290  49.2491340  34.3894960  32.6802100  48.8749360
  34.2204450  31.2092760  49.1906140  21.6742610  28.0229530  51.6390060
  20.9476670  27.4034820  51.5716010  21.7351760  28.4170140  50.7688140
  25.2787710  30.2374530  48.4239470  25.7952730  29.6261890  47.8987730
  25.9285090  30.7403310  48.9150480  28.0183210  31.1283020  49.2508450
  28.3061020  30.8737320  48.3741460  28.5306430  30.5760380  49.8414020
  29.2360220  14.8673220  49.8304960  28.4532010  15.3418720  50.1101720
  28.9423150  13.9628050  49.7218140  33.7881290  15.5696320  47.8754050
  34.2289380  15.5141420  47.0275650  33.5188880  16.4854330  47.9464230
  35.6519860  15.2011560  45.8862870  35.5908260  14.2572780  45.7393890
  36.4311890  15.3091650  46.4316330  19.9572610  31.3403920  44.8486820
  19.7894650  30.7074600  45.5468710  19.0907120  31.5463320  44.4981010
  20.5800630  15.1720700  42.3518680  21.3379990  15.2849580  41.7782710
  20.1177800  16.0089900  42.3062110  27.1214440  17.2859970  45.3420990
  26.3088950  16.9116860  45.0016870  27.6256080  16.5305050  45.6442180
  31.6239420  13.9502420  46.5804060  32.2268790  14.5222630  47.0552580
  30.8832410  14.5141860  46.3577960  34.7674020  14.3523980  41.8544340
  34.9624650  15.2507430  42.1211770  33.9803890  14.1211060  42.3477290
  21.5635310  30.0337150  42.2936960  21.0382930  30.4145180  41.5898920
  21.4879890  30.6587920  43.0146670  22.9525780  15.6984750  40.8920650
  23.4818540  14.9114550  40.7628600  23.5854100  16.3775940  41.1256180
  25.1463620  15.4359890  43.9466040  24.5166360  14.7347200  44.1136170
  24.6068760  16.1964020  43.7299200  28.0855570  32.0499120  56.6176650
  29.0122880  31.8143390  56.6612610  28.0706000  32.8771120  56.1362680
  36.3200630  31.5924690  43.6150900  36.4952820  30.9062430  42.9711820
  35.6222200  32.1171740  43.2227570  25.2719180  14.7143870  56.3818530
  24.9903450  15.2177470  55.6179350  25.6538880  13.9165620  56.0160660
  24.1628280  31.9819530  41.1686210  24.8947100  31.6978810  40.6210100
  24.4221950  31.7432810  42.0585590  23.3243070  28.0984260  41.1732540
  22.6951950  28.5669360  41.7218370  23.4390900  27.2533480  41.6078730
  31.8734640  14.1297450  56.9599000  31.7600090  14.4492060  57.8550520
  32.6904380  14.5309960  56.6636280  34.6533130  31.2768980  56.4417690
  35.4458450  30.7818210  56.2343650  34.9466280  31.9559120  57.0493300
  30.7792790  22.1489920  27.3233740  30.6986840  21.2344530  27.0525450
  30.3657210  22.6456990  26.6173450  28.9110830  23.9268940  29.2043010
  28.1352930  23.4469380  29.4941580  29.5623760  23.2474590  29.0299170
  22.9276660  24.2388750  30.0818770  22.0961540  23.9837460  30.4815280
  23.5357640  24.3099520  30.8176690  32.9318260  28.3329130  27.9842140
  32.4699790  27.5616370  28.3129310  33.7443810  28.3595200  28.4894590
  22.9077920  28.2728840  30.2776790  23.2105960  27.3826580  30.0987010
  23.6521510  28.8299060  30.0499040  21.3368610  19.1990640  23.8661160
  20.4485310  19.5406610  23.7641040  21.6209800  18.9990960  22.9741990
  19.3001620  21.7996290  29.7500860  19.8717730  21.0318490  29.7504500
  19.3003160  22.0985050  28.8407470  29.1581570  30.6187140  27.6046130
  28.5393010  31.0744640  27.0340570  30.0133350  30.7738600  27.2035830
  28.3519820  26.6026130  29.2113170  28.2828100  25.6616070  29.0502300
  29.1139680  26.6927540  29.7835740  20.5426490  17.2080650  31.5369790
  20.3629330  16.3106400  31.8172550  20.1406570  17.7552520  32.2116740
  29.3824990  19.4096510  29.4382100  29.7589810  18.5368390  29.3255770
  29.2844500  19.7455210  28.5472540  23.5130000  17.7822140  24.8999540
  23.6196750  18.6825870  25.2068300  22.6022360  17.7340110  24.6094190
  33.1649110  16.9046950  26.3710440  33.9858730  16.4143520  26.4135920
  33.1983190  17.4944610  27.1242280  21.1613160  19.7041150  30.1452130
  21.8423270  19.9679520  30.7639530  20.8461210  18.8642020  30.4790140
  25.3537730  20.7508510  29.2324720  25.8615950  21.2489480  29.8729740
  25.8850970  19.9743710  29.0564080  37.4548660  18.9213700  32.9354070
  36.7500830  19.3095410  32.4169180  37.7206580  19.6163990  33.5375000
  23.6373830  15.3907070  33.4988140  23.6392270  15.9079460  32.6934040
  22.8078140  14.9137250  33.4758070  30.0244920  25.5026380  24.9978040
  29.4062190  25.9675830  24.4340760  30.5368170  26.1953860  25.4147550
  24.8876680  25.0302250  31.6761640  24.5546060  25.6571170  32.3182710
  25.0643360  25.5564130  30.8963310  33.4010590  18.8447330  29.1437980
  32.6966160  19.1332220  29.7241090  33.7622750  19.6547440  28.7837540
  23.3189160  17.1017030  31.5058590  23.6605970  17.9459080  31.2112460
  22.3804970  17.2500770  31.6223930  24.0995780  26.9983050  33.4910820
  24.7169780  27.6734130  33.2095270  23.2388900  27.4071030  33.3998320
  19.3928120  26.1882910  22.3717670  19.0156100  26.6770010  21.6402570
  19.6501190  26.8608190  23.0024200  35.0173370  28.4622460  31.4065460
  34.3336890  29.1321570  31.3982130  35.5567660  28.6603110  30.6410320
  36.4697510  18.2902120  29.5347190  35.5222420  18.3241100  29.6662620
  36.7947500  19.1041070  29.9196550  27.0017050  14.5899300  27.8303180
  27.3092030  14.0346190  27.1138680  26.0717750  14.7243760  27.6476170
  32.5532110  30.3066590  30.1210640  32.5659270  29.9028880  29.2532900
  32.0007330  31.0813880  30.0172070  33.8477530  27.0282810  25.2100810
  33.7373860  26.0857140  25.3350230  33.8445780  27.3898450  26.0963570
  31.9517550  25.2096430  31.4493250  32.3686340  24.9956540  30.6146710
  32.6757370  25.4669220  32.0201870  29.3897810  22.6548130  24.5663300
  28.4627090  22.5885510  24.7951770  29.5422630  23.5928260  24.4518540
  29.3766890  18.9265130  21.5630460  28.4370560  19.0879090  21.6482920
  29.6950150  19.6450810  21.0166450  35.8979650  23.6083650  31.5409490
  35.0698280  23.6776740  31.0659620  36.4930130  24.1937960  31.0725320
  33.4195100  24.2168430  25.0698550  32.8007520  23.8787980  24.4224850
  33.4019550  23.5728190  25.7777740  32.8621660  20.3952970  32.4864360
  32.4492840  21.2206680  32.7404350  32.1297610  19.8098010  32.2940720
  24.9954450  23.1812870  27.3483030  24.5911450  22.4690120  26.8528930
  25.0817570  22.8366110  28.2371070  25.4636150  26.8680430  29.5122240
  25.1664440  26.2625900  28.8330020  26.4135970  26.9057740  29.4011600
  23.7083070  19.9556080  31.1282070  24.2597660  20.0651420  30.3535320
  24.2226580  20.3293680  31.8437300  33.5521760  30.4412300  33.1745340
  33.0752320  31.2484490  32.9817950  32.8683550  29.7890630  33.3271550
  24.5554580  26.6062120  36.1630040  23.6583110  26.8302090  36.4103440
  24.5807450  26.7297060  35.2141440  31.5959800  23.4555240  22.0771300
  32.0353080  22.6177670  21.9309120  32.3088220  24.0884640  22.1635440
  23.3825800  23.4775440  34.7387410  23.2433570  24.3498240  35.1074810
  22.5007160  23.1348250  34.5935350  29.7055180  28.3951310  26.0452540
  30.1451090  29.1375640  25.6307930  29.6442070  28.6377880  26.9691500
  25.1806150  29.4197140  36.9472560  25.1521580  29.8240090  36.0800990
  25.0171120  28.4907500  36.7844160  35.1776940  14.7098050  20.3912340
  34.8649600  14.8024880  21.2911410  35.9389410  15.2879080  20.3409770
  21.6959080  22.0757850  24.8489680  21.5756680  22.8019940  24.2370950
  21.3859970  21.3060760  24.3717590  37.1320970  30.2024240  38.2436730
  37.6080690  30.6807130  38.9225810  37.7528130  30.1341730  37.5182230
  19.3344450  25.2472990  30.6558320  19.4124870  25.3821760  29.7114040
  19.9486130  24.5388880  30.8486440  20.5792080  26.9473180  27.0664500
  20.1720160  27.0887770  26.2118100  21.4705090  26.6633340  26.8635710
  36.5354220  27.3937090  35.4036740  36.6617280  27.1548970  34.4853920
  36.5775600  26.5621630  35.8758820  30.3970960  31.0965090  33.9731550
  30.9115630  31.0073100  34.7753980  29.5540040  31.4424790  34.2659460
  32.3725360  31.3820430  23.4015550  32.2126500  31.0923370  24.2997380
  32.2072070  30.6060560  22.8660780  24.8513740  31.1618960  25.1787170
  24.6756220  30.2454500  24.9654970  23.9969480  31.5206250  25.4184970
  32.0751490  28.8907990  21.9613550  31.3816650  28.8885280  21.3015830
  32.8174350  28.4667310  21.5307720  31.6401420  30.5170700  26.0362040
  32.0958370  29.7360080  26.3500660  31.9793940  31.2277520  26.5803220
  36.3878230  19.4469550  36.3686480  35.7722500  19.9549220  35.8401940
  36.0674650  18.5467880  36.3112420  19.3903970  26.2887160  33.1952780
  19.5535010  25.8192520  32.3772150  19.8556420  25.7810720  33.8601620
  24.1622740  15.4192920  28.2313350  23.7190890  16.2002460  27.8997870
  24.7207730  15.7422810  28.9384290  28.4492550  18.2861440  33.8348670
  27.9871920  18.4944460  34.6468610  28.0470660  17.4720790  33.5319340
  33.4497060  19.5070390  34.9645330  32.5990650  19.2076140  35.2854400
  33.2898850  19.7512400  34.0529150  30.5446770  21.0072140  37.0644120
  30.8700180  20.1735890  36.7246350  31.3327100  21.5300660  37.2122450
  27.2781560  15.0403620  23.1119180  26.6535740  15.0363490  23.8372490
  27.1911680  14.1734580  22.7155150  26.1998640  15.9640250  30.0902950
  26.4970970  16.8703080  30.0094970  26.7484200  15.4759030  29.4762520
  23.9536960  20.5426490  25.9594600  23.7277880  20.3263660  26.8641220
  23.1729490  20.9754950  25.6140570  31.1834720  20.5489860  24.5585250
  30.5843610  21.2725660  24.3748870  31.7314330  20.4866640  23.7761700
  26.3936170  21.4412070  36.6254870  26.2979770  20.5006800  36.4755270
  27.2368150  21.6627140  36.2302940  29.7899590  19.1853400  26.5888530
  30.1829160  19.5025600  25.7757220  30.1516440  18.3065280  26.7033050
  21.5246710  17.8525740  34.7788650  21.1310100  18.7000950  34.9861430
  20.8365110  17.2152110  34.9697290  28.0991760  17.9360710  37.8485390
  27.4090080  17.7432910  38.4831480  28.8424060  18.2195350  38.3809690
  18.8263760  15.7754200  28.8118730  18.5376810  16.3457060  29.5243710
  19.5709520  15.2958650  29.1749960  19.0133990  19.7174320  20.0221450
  18.9308660  20.6605080  20.1636440  18.6617050  19.5749230  19.1433800
  30.3754730  21.7759150  30.6839310  29.6435850  22.2845960  31.0329410
  29.9779070  20.9589130  30.3828090  26.8132120  18.4513350  29.0891800
  26.8168180  18.0103300  28.2396340  27.7083240  18.7730680  29.1963620
  22.6634500  18.3339840  28.0486010  22.3234550  18.8115070  28.8053060
  21.9011820  17.8804960  27.6887110  26.8752270  19.4525430  22.0798560
  26.9965090  19.4111910  23.0284380  26.4900780  20.3149580  21.9245290
  30.8380640  17.2292830  30.0962250  30.8553380  17.6801480  30.9404100
  30.5896220  16.3298470  30.3095690  25.8873770  21.7626570  21.4781860
  25.3190670  21.3144820  20.8517770  26.5962770  22.1219350  20.9447010
  34.2651390  14.6425010  35.9348630  34.5897160  13.9114670  36.4606610
  34.3007900  14.3238650  35.0329620  20.9642950  25.6638590  35.3548590
  20.5797740  25.0232260  35.9531550  21.2755140  26.3674710  35.9243320
  27.1140090  22.5115130  30.8357210  27.4810220  22.0373700  31.5818550
  26.9245150  23.3856700  31.1765550  19.9780580  17.2558820  26.9650680
  19.6927500  16.8914490  27.8029300  19.9159440  16.5239280  26.3513820
  24.9039460  21.5523770  33.1541420  24.5996530  22.4315750  33.3791780
  25.8585920  21.6123560  33.1898860  23.4321250  25.7584760  23.7508270
  22.6583510  25.2182380  23.5906990  24.1615880  25.2391370  23.4126030
  34.1909230  24.7550120  29.5434660  34.9108350  25.2505410  29.1530770
  33.9891050  24.0768010  28.8988530  29.6519170  16.1488080  23.6864050
  28.8383780  15.6501250  23.6109360  29.4581120  16.9886330  23.2700400
  29.5728030  24.8259180  35.4303660  29.5065340  23.9054850  35.1761250
  28.9433170  24.9234620  36.1448300  32.3667560  20.5207730  21.9826210
  33.2547180  20.8324960  21.8077550  32.3372650  19.6479980  21.5906790
  23.4758650  25.4265140  27.3887080  23.9937320  24.6233400  27.3343970
  23.0242670  25.3644280  28.2303910  28.3628150  26.6931420  22.6614380
  28.7043850  27.4373650  22.1657700  27.5340860  27.0062540  23.0239210
  20.9603190  22.3926510  34.3012780  20.6018130  23.0580360  34.8886120
  20.6657750  21.5610060  34.6725400  24.1616310  22.8510750  37.1852330
  23.8616450  22.9967930  36.2880150  24.9327550  22.2916040  37.0925720
  29.5044760  27.6479750  35.1807460  29.5189300  26.7160710  34.9626370
  28.7969860  27.7339510  35.8197230  34.6381830  21.8319570  21.4506070
  34.5545550  22.2633790  20.6002510  35.3576020  22.2917920  21.8832890
  35.7155970  24.2887090  34.5276040  34.9904160  24.8815870  34.3305430
  36.2431430  24.2810630  33.7289410  35.6669080  28.6861830  24.1788200
  35.0245240  28.0317450  24.4531920  35.2799740  29.0916920  23.4028870
  31.2455560  26.0147260  28.0259890  31.5979380  25.4175390  27.3661260
  30.3617890  25.6891490  28.1968140  27.3318840  26.7744950  25.4330300
  28.0189970  27.3214160  25.8137890  26.5451260  27.3185680  25.4679910
  19.4711240  22.3917770  20.9247380  20.3406090  22.6742570  21.2083300
  18.9801560  23.2053640  20.8096190  26.6346050  23.7790980  25.0455660
  27.0908830  24.5896230  25.2715850  26.2834260  23.4614120  25.8774150
  28.9378660  29.2897320  32.2747960  29.5820880  29.4956700  32.9521380
  29.3008100  28.5285720  31.8218810  22.5357830  14.1228630  25.5178180
  22.4072460  14.1146530  26.4663100  21.7119850  14.4611720  25.1669190
  30.2110740  27.2929670  30.9925410  30.8532970  26.5922830  31.1057580
  30.7360090  28.0728110  30.8122300  34.0566460  27.5778290  20.7164550
  33.8304040  26.8608730  21.3089190  33.6662660  27.3290730  19.8786300
  31.9848360  28.0924570  34.1961470  32.3204600  28.6791260  34.8739390
  31.0648700  27.9617280  34.4259260  19.8382490  31.6045150  21.4909010
  20.1980130  32.2034490  20.8366280  19.6974830  32.1505040  22.2644040
  19.5351760  15.8819750  34.9784880  18.8210280  16.0816670  35.5837490
  19.9546800  15.1059320  35.3499680  33.6382710  25.4950230  22.3778710
  33.3504410  25.9562920  23.1656590  34.4334880  25.0348000  22.6462930
  19.8224350  29.8700010  35.9651410  19.9315470  28.9294750  35.8246800
  19.1704910  30.1354760  35.3165140  27.8136940  28.1415900  37.3649530
  27.4933810  27.4225140  37.9095220  27.1395300  28.8170970  37.4385590
  25.8551110  28.9876350  22.3082680  25.8461210  29.7206040  21.6927190
  24.9349470  28.7407930  22.4009640  21.4557750  24.2091240  23.0529440
  20.8485700  24.9490140  23.0624740  21.9307100  24.2990600  22.2267640
  31.0290540  18.3742060  32.7286330  31.3971360  17.5537270  33.0565900
  30.1688740  18.4343950  33.1441980  34.3952570  17.3299000  23.5373890
  33.7665730  17.4344670  22.8232120  33.9004490  17.5495780  24.3267770
  28.8410710  29.0504590  20.9707870  28.9422690  28.8468580  20.0409850
  27.9412450  28.7962870  21.1755650  26.3636600  19.6084950  24.9531770
  25.6552750  20.0771290  25.3945380  26.6481080  18.9506960  25.5876960
  27.9892530  21.0281650  32.9524300  28.4877780  21.5027470  33.6176150
  28.1315480  20.1045170  33.1594330  30.3952030  16.3335610  26.3927560
  30.2719810  16.3521740  25.4437070  31.3436590  16.3814550  26.5125960
  27.4828820  31.5690910  25.6655540  27.7370320  31.5312300  24.7434910
  26.5341300  31.4424240  25.6583790  24.5671620  17.9170030  22.3282480
  25.4162150  18.3540180  22.2622670  24.2002890  18.2290290  23.1554540
  35.1959390  17.2449610  33.7952690  34.6932990  17.9855010  34.1346500
  36.0116050  17.6333610  33.4789480  33.4881400  22.4882790  27.2414050
  32.5471540  22.5033020  27.4161740  33.8025470  21.7018750  27.6874350
  23.4663040  24.1702390  20.8018010  24.2326310  24.0583750  21.3643440
  23.5437730  23.4740360  20.1494780  22.1609800  21.6027460  21.4850900
  22.2413390  20.6554970  21.5968300  23.0529550  21.9334340  21.5911560
  35.4906980  29.6591640  28.9168310  35.6154400  30.4822810  29.3892120
  36.3572540  29.4482370  28.5692460  22.9624510  31.7522850  28.5885440
  23.6986990  31.2038310  28.8594010  23.3465430  32.6178860  28.4491430
  19.8469990  27.8196420  24.4626950  18.9209770  28.0617560  24.4532360
  20.3126420  28.6470680  24.3411700  21.9682790  30.9368920  37.7771020
  22.7695520  31.2580970  38.1906420  21.4534610  30.5764500  38.4990930
  26.0726820  30.9253160  20.4111010  26.8655430  31.2141990  19.9592800
  25.5531170  30.4945330  19.7323490  30.8047420  27.0448790  37.7246430
  30.1985580  27.0680390  36.9842180  30.5001530  26.3131830  38.2613680
  32.2347790  30.7729080  36.3355840  33.1869540  30.6887100  36.2856080
  32.0876010  31.4370790  37.0089630  35.1256990  30.1523290  21.8347750
  34.8398500  29.7388430  21.0201930  34.9276540  31.0811000  21.7148270
  19.6880600  23.4242380  36.7207070  20.1919620  22.8449660  37.2923300
  18.9488020  23.7082610  37.2583440  26.5904220  26.1456570  20.2753360
  26.4854860  25.5308920  21.0014740  26.4228440  25.6222460  19.4916370
  26.7418540  24.8313370  36.2542590  25.9764210  25.3998370  36.1697260
  26.9234500  24.5389580  35.3610820  29.8306950  25.2076600  20.8795350
  29.2817050  25.6545900  21.5238090  30.4526210  24.7025850  21.4033020
  33.8841890  26.5618700  36.8117610  34.6251360  26.8994460  36.3085070
  33.1214570  26.7310760  36.2587380  21.7203680  21.5671970  37.6157140
  21.7609020  21.2685840  38.5242370  22.5749180  21.9679580  37.4564660
  25.4982070  24.1667520  22.7760650  25.9198490  24.0007390  23.6192040
  25.6232910  23.3567750  22.2815790  23.6609490  20.1464070  35.5831630
  23.1305950  19.6555020  34.9554970  24.3297560  20.5748270  35.0489560
  28.0109710  23.1905130  20.0237750  28.5315370  22.4754150  19.6578900
  28.6578110  23.8291000  20.3238260  32.5587550  24.6133530  35.3472820
  32.9728570  24.7678610  36.1963240  31.6238550  24.7388750  35.5098600
  33.0309720  21.9529690  37.3511970  33.6130490  21.1982010  37.2632450
  33.2071490  22.4837130  36.5743450  24.1481790  17.1126440  35.6628920
  24.0538660  16.4947190  34.9379790  23.5679180  17.8392730  35.4358830
  26.9143230  15.6699680  32.6956310  26.4660530  15.6923940  31.8501860
  26.2808430  15.2718700  33.2926610  27.3202780  24.5654010  33.3168750
  27.7390890  25.4086740  33.1444990  26.4011410  24.7026050  33.0875530
  29.6566680  22.2970190  34.7006590  29.7762890  21.7011330  35.4401430
  30.5160680  22.3339880  34.2807890  31.9954580  22.8507380  33.2769100
  31.4689800  23.3750000  32.6734240  32.3385920  23.4834770  33.9078830
  24.3940970  20.2400750  19.7218810  24.1930030  19.3768110  20.0832150
  24.2233020  20.1534110  18.7840410  25.1710200  30.8707020  34.4326480
  24.6331290  31.5953080  34.1135180  25.4244160  30.3937360  33.6423820
  26.4235450  18.8391540  35.9582410  27.0135140  18.5307390  36.6460230
  25.6055690  18.3671290  36.1142310  31.2428880  18.4557350  36.1915430
  30.5544400  17.7938890  36.1265420  31.9634900  18.0095620  36.6363890
  31.8729280  15.0508980  22.2505690  32.1531570  14.2076880  22.6065110
  31.0995010  15.2832090  22.7644440  23.1923770  17.3401370  19.7096690
  23.4949670  17.3468800  18.8015840  23.9318360  16.9899230  20.2064350
  28.0272410  32.1058230  34.6913130  27.9531110  33.0093370  34.9985500
  27.1251250  31.7870130  34.6635200  26.4108700  16.2835990  20.6952890
  26.0630700  15.6059980  20.1155340  26.6121470  15.8225500  21.5096280
  28.5757740  31.2716740  22.3139490  29.4708530  31.6101710  22.3358250
  28.6075370  30.5496150  21.6863770  22.2153900  26.6443790  20.5426490
  22.6528770  27.1873460  21.1984070  22.7001630  25.8190740  20.5522830
  19.4299700  29.4332820  27.9946750  19.7602710  28.5653880  27.7625390
  19.8590700  29.6391340  28.8251710  24.0261620  27.7641830  25.6548720
  23.7257160  27.6406800  26.5552630  23.9199110  26.9050420  25.2464450
  19.9189910  30.3003410  30.7328380  19.4820900  30.4804210  31.5652530
  20.4867590  31.0578030  30.5910100  35.5552090  29.8020410  35.0205690
  34.9554080  29.8612970  34.2769610  35.6845990  28.8625390  35.1502540
  36.7953540  27.5438230  20.3575400  35.9646500  27.6114880  20.8282630
  36.9725370  28.4342350  20.0542260  36.2510000  24.2885710  22.8609600
  37.0128910  24.8582360  22.9669290  36.2664370  23.7212910  23.6317910
  19.7514340  22.8123640  27.0917260  19.0963180  22.5435280  26.4476960
  20.5892290  22.7028120  26.6419240  37.2569970  25.1435810  27.7051530
  37.6278800  24.3603130  27.2987500  37.8971900  25.8324910  27.5268830
  34.2403730  26.5272390  33.1181850  33.4263570  26.9569550  33.3807640
  34.6477930  27.1390800  32.5050900  36.3029170  24.5820080  20.0182120
  36.5778010  25.4898960  19.8901340  36.1139910  24.5182610  20.9544110
  32.7004780  17.6064930  21.3135750  33.1189660  17.4195910  20.4732410
  32.3940840  16.7543980  21.6238680  36.1994510  22.5189070  25.0111550
  35.8238110  21.7517000  24.5792840  35.4697630  22.9011770  25.4986480
  20.7890270  23.1976210  31.6320600  21.1563310  23.1103610  32.5116620
  20.2201090  22.4342760  31.5327460  35.5894130  21.6660590  34.6451070
  35.3580220  21.4373340  33.7449020  35.8498680  22.5860140  34.5995960
  20.3406270  20.1085300  35.5379020  19.4462320  20.0752060  35.8772730
  20.8803820  20.3072090  36.3030270  34.0282200  16.8917020  37.4230770
  34.9052380  16.9000420  37.8064770  34.0403040  16.1547860  36.8123120
  18.9652420  20.0222570  23.0342590  18.0616500  20.2852770  22.8594250
  19.4493040  20.2933740  22.2542550  35.4745470  20.7446560  28.3118790
  35.9982950  20.2509210  27.6808960  36.0604890  20.8796920  29.0566360
  35.6535190  20.8286430  31.8338340  34.7037900  20.7949970  31.9483330
  35.8348200  21.7386540  31.5988110  21.5079630  19.0788110  20.9436970
  22.2171330  18.6571330  20.4584250  20.7919570  19.1463340  20.3120320
  21.1553790  15.1327440  19.9839620  21.8781920  15.6736380  20.3020840
  21.4278310  14.8590860  19.1081160  34.9645440  20.0019910  24.2511200
  35.4604560  19.7690780  25.0360080  34.7661510  19.1631750  23.8348840
  20.8445980  14.3833630  29.8862240  21.4922170  13.8331010  29.4457400
  21.2647820  14.6376780  30.7078050  36.3932600  18.6380860  26.7848880
  36.2831880  18.4836900  27.7231150  37.1540190  18.1101800  26.5424290
  34.7398320  14.5774990  33.2431880  35.3770540  15.1909130  33.6091070
  34.8873210  14.6135650  32.2981110  37.2822870  16.4688780  20.0255020
  38.2072180  16.3369960  19.8173310  37.2598660  16.5481600  20.9791470
  37.3561360  17.2399440  22.6511730  36.5612860  17.1744560  23.1804640
  37.5604640  18.1750080  22.6397080  34.2979780  31.2790990  26.6450120
  34.8938850  30.9575560  25.9684540  34.5557930  30.8062810  27.4363390
  20.5977980  14.5389300  32.6287560  20.2492800  14.9953120  33.3945740
  20.2665680  13.6446430  32.7109990  22.2042350  27.7108900  36.7940750
  22.1611980  27.3401810  37.6755210  22.3353360  28.6486470  36.9342570
  25.9048380  29.2668490  32.3950470  25.6639740  29.5343050  31.5080990
  26.8451020  29.4374220  32.4501330  28.1102800  15.7301180  36.1506980
  28.0491690  16.3223010  36.9002390  29.0503180  15.6227140  36.0057240
  30.7477360  15.3871240  35.7899270  31.3617770  15.7050530  35.1280350
  31.2926920  14.9019830  36.4095130  37.1652540  31.2862870  33.1961110
  36.6710820  31.6831740  32.4788240  36.5565830  30.6612080  33.5898390
  21.2698620  14.0665500  35.9038330  21.8181610  13.8853550  35.1404440
  21.3353930  13.2759610  36.4394640  22.0430380  30.6571150  33.9138530
  21.4490700  30.5255850  34.6528570  22.0354220  29.8209290  33.4480630
  31.4885400  13.9503380  32.1168560  30.6145240  14.2838490  31.9141490
  31.3796150  13.4776560  32.9420430  32.3957380  16.1574250  33.5010280
  32.0670740  15.3426010  33.1212010  33.3439680  16.1144060  33.3775970
  34.8491990  31.9286290  30.4747850  34.3894960  32.6802100  30.1005870
  34.2204450  31.2092760  30.4162650  21.6742610  28.0229530  32.8646570
  20.9476670  27.4034820  32.7972520  21.7351760  28.4170140  31.9944650
  25.2787710  30.2374530  29.6495980  25.7952730  29.6261890  29.1244240
  25.9285090  30.7403310  30.1406990  28.0183210  31.1283020  30.4764960
  28.3061020  30.8737320  29.5997970  28.5306430  30.5760380  31.0670530
  29.2360220  14.8673220  31.0561470  28.4532010  15.3418720  31.3358230
  28.9423150  13.9628050  30.9474650  33.7881290  15.5696320  29.1010560
  34.2289380  15.5141420  28.2532160  33.5188880  16.4854330  29.1720740
  35.6519860  15.2011560  27.1119380  35.5908260  14.2572780  26.9650400
  36.4311890  15.3091650  27.6572840  19.9572610  31.3403920  26.0743330
  19.7894650  30.7074600  26.7725220  19.0907120  31.5463320  25.7237520
  20.5800630  15.1720700  23.5775190  21.3379990  15.2849580  23.0039220
  20.1177800  16.0089900  23.5318620  27.1214440  17.2859970  26.5677500
  26.3088950  16.9116860  26.2273380  27.6256080  16.5305050  26.8698690
  31.6239420  13.9502420  27.8060570  32.2268790  14.5222630  28.2809090
  30.8832410  14.5141860  27.5834470  34.7674020  14.3523980  23.0800850
  34.9624650  15.2507430  23.3468280  33.9803890  14.1211060  23.5733800
  21.5635310  30.0337150  23.5193470  21.0382930  30.4145180  22.8155430
  21.4879890  30.6587920  24.2403180  22.9525780  15.6984750  22.1177160
  23.4818540  14.9114550  21.9885110  23.5854100  16.3775940  22.3512690
  25.1463620  15.4359890  25.1722550  24.5166360  14.7347200  25.3392680
  24.6068760  16.1964020  24.9555710  28.0855570  32.0499120  37.8433160
  29.0122880  31.8143390  37.8869120  28.0706000  32.8771120  37.3619190
  36.3200630  31.5924690  24.8407410  36.4952820  30.9062430  24.1968330
  35.6222200  32.1171740  24.4484080  25.2719180  14.7143870  37.6075040
  24.9903450  15.2177470  36.8435860  25.6538880  13.9165620  37.2417170
  24.1628280  31.9819530  22.3942720  24.8947100  31.6978810  21.8466610
  24.4221950  31.7432810  23.2842100  23.3243070  28.0984260  22.3989050
  22.6951950  28.5669360  22.9474880  23.4390900  27.2533480  22.8335240
  31.8734640  14.1297450  38.1855510  31.7600090  14.4492060  39.0807030
  32.6904380  14.5309960  37.8892790  34.6533130  31.2768980  37.6674200
  35.4458450  30.7818210  37.4600160  34.9466280  31.9559120  38.2749810
  30.7792790  22.1489920   8.5490250  30.6986840  21.2344530   8.2781960
  30.3657210  22.6456990   7.8429960  28.9110830  23.9268940  10.4299520
  28.1352930  23.4469380  10.7198090  29.5623760  23.2474590  10.2555680
  22.9276660  24.2388750  11.3075280  22.0961540  23.9837460  11.7071790
  23.5357640  24.3099520  12.0433200  32.9318260  28.3329130   9.2098650
  32.4699790  27.5616370   9.5385820  33.7443810  28.3595200   9.7151100
  22.9077920  28.2728840  11.5033300  23.2105960  27.3826580  11.3243520
  23.6521510  28.8299060  11.2755550  21.3368610  19.1990640   5.0917670
  20.4485310  19.5406610   4.9897550  21.6209800  18.9990960   4.1998500
  19.3001620  21.7996290  10.9757370  19.8717730  21.0318490  10.9761010
  19.3003160  22.0985050  10.0663980  29.1581570  30.6187140   8.8302640
  28.5393010  31.0744640   8.2597080  30.0133350  30.7738600   8.4292340
  28.3519820  26.6026130  10.4369680  28.2828100  25.6616070  10.2758810
  29.1139680  26.6927540  11.0092250  20.5426490  17.2080650  12.7626300
  20.3629330  16.3106400  13.0429060  20.1406570  17.7552520  13.4373250
  29.3824990  19.4096510  10.6638610  29.7589810  18.5368390  10.5512280
  29.2844500  19.7455210   9.7729050  23.5130000  17.7822140   6.1256050
  23.6196750  18.6825870   6.4324810  22.6022360  17.7340110   5.8350700
  33.1649110  16.9046950   7.5966950  33.9858730  16.4143520   7.6392430
  33.1983190  17.4944610   8.3498790  21.1613160  19.7041150  11.3708640
  21.8423270  19.9679520  11.9896040  20.8461210  18.8642020  11.7046650
  25.3537730  20.7508510  10.4581230  25.8615950  21.2489480  11.0986250
  25.8850970  19.9743710  10.2820590  37.4548660  18.9213700  14.1610580
  36.7500830  19.3095410  13.6425690  37.7206580  19.6163990  14.7631510
  23.6373830  15.3907070  14.7244650  23.6392270  15.9079460  13.9190550
  22.8078140  14.9137250  14.7014580  30.0244920  25.5026380   6.2234550
  29.4062190  25.9675830   5.6597270  30.5368170  26.1953860   6.6404060
  24.8876680  25.0302250  12.9018150  24.5546060  25.6571170  13.5439220
  25.0643360  25.5564130  12.1219820  33.4010590  18.8447330  10.3694490
  32.6966160  19.1332220  10.9497600  33.7622750  19.6547440  10.0094050
  23.3189160  17.1017030  12.7315100  23.6605970  17.9459080  12.4368970
  22.3804970  17.2500770  12.8480440  24.0995780  26.9983050  14.7167330
  24.7169780  27.6734130  14.4351780  23.2388900  27.4071030  14.6254830
  19.3928120  26.1882910   3.5974180  19.0156100  26.6770010   2.8659080
  19.6501190  26.8608190   4.2280710  35.0173370  28.4622460  12.6321970
  34.3336890  29.1321570  12.6238640  35.5567660  28.6603110  11.8666830
  36.4697510  18.2902120  10.7603700  35.5222420  18.3241100  10.8919130
  36.7947500  19.1041070  11.1453060  27.0017050  14.5899300   9.0559690
  27.3092030  14.0346190   8.3395190  26.0717750  14.7243760   8.8732680
  32.5532110  30.3066590  11.3467150  32.5659270  29.9028880  10.4789410
  32.0007330  31.0813880  11.2428580  33.8477530  27.0282810   6.4357320
  33.7373860  26.0857140   6.5606740  33.8445780  27.3898450   7.3220080
  31.9517550  25.2096430  12.6749760  32.3686340  24.9956540  11.8403220
  32.6757370  25.4669220  13.2458380  29.3897810  22.6548130   5.7919810
  28.4627090  22.5885510   6.0208280  29.5422630  23.5928260   5.6775050
  29.3766890  18.9265130   2.7886970  28.4370560  19.0879090   2.8739430
  29.6950150  19.6450810   2.2422960  35.8979650  23.6083650  12.7666000
  35.0698280  23.6776740  12.2916130  36.4930130  24.1937960  12.2981830
  33.4195100  24.2168430   6.2955060  32.8007520  23.8787980   5.6481360
  33.4019550  23.5728190   7.0034250  32.8621660  20.3952970  13.7120870
  32.4492840  21.2206680  13.9660860  32.1297610  19.8098010  13.5197230
  24.9954450  23.1812870   8.5739540  24.5911450  22.4690120   8.0785440
  25.0817570  22.8366110   9.4627580  25.4636150  26.8680430  10.7378750
  25.1664440  26.2625900  10.0586530  26.4135970  26.9057740  10.6268110
  23.7083070  19.9556080  12.3538580  24.2597660  20.0651420  11.5791830
  24.2226580  20.3293680  13.0693810  33.5521760  30.4412300  14.4001850
  33.0752320  31.2484490  14.2074460  32.8683550  29.7890630  14.5528060
  24.5554580  26.6062120  17.3886550  23.6583110  26.8302090  17.6359950
  24.5807450  26.7297060  16.4397950  31.5959800  23.4555240   3.3027810
  32.0353080  22.6177670   3.1565630  32.3088220  24.0884640   3.3891950
  23.3825800  23.4775440  15.9643920  23.2433570  24.3498240  16.3331320
  22.5007160  23.1348250  15.8191860  29.7055180  28.3951310   7.2709050
  30.1451090  29.1375640   6.8564440  29.6442070  28.6377880   8.1948010
  25.1806150  29.4197140  18.1729070  25.1521580  29.8240090  17.3057500
  25.0171120  28.4907500  18.0100670  21.6959080  22.0757850   6.0746190
  21.5756680  22.8019940   5.4627460  21.3859970  21.3060760   5.5974100
  37.1320970  30.2024240  19.4693240  37.6080690  30.6807130  20.1482320
  37.7528130  30.1341730  18.7438740  19.3344450  25.2472990  11.8814830
  19.4124870  25.3821760  10.9370550  19.9486130  24.5388880  12.0742950
  20.5792080  26.9473180   8.2921010  20.1720160  27.0887770   7.4374610
  21.4705090  26.6633340   8.0892220  36.5354220  27.3937090  16.6293250
  36.6617280  27.1548970  15.7110430  36.5775600  26.5621630  17.1015330
  30.3970960  31.0965090  15.1988060  30.9115630  31.0073100  16.0010490
  29.5540040  31.4424790  15.4915970  32.3725360  31.3820430   4.6272060
  32.2126500  31.0923370   5.5253890  32.2072070  30.6060560   4.0917290
  24.8513740  31.1618960   6.4043680  24.6756220  30.2454500   6.1911480
  23.9969480  31.5206250   6.6441480  32.0751490  28.8907990   3.1870060
  31.3816650  28.8885280   2.5272340  32.8174350  28.4667310   2.7564230
  31.6401420  30.5170700   7.2618550  32.0958370  29.7360080   7.5757170
  31.9793940  31.2277520   7.8059730  36.3878230  19.4469550  17.5942990
  35.7722500  19.9549220  17.0658450  36.0674650  18.5467880  17.5368930
  19.3903970  26.2887160  14.4209290  19.5535010  25.8192520  13.6028660
  19.8556420  25.7810720  15.0858130  24.1622740  15.4192920   9.4569860
  23.7190890  16.2002460   9.1254380  24.7207730  15.7422810  10.1640800
  28.4492550  18.2861440  15.0605180  27.9871920  18.4944460  15.8725120
  28.0470660  17.4720790  14.7575850  33.4497060  19.5070390  16.1901840
  32.5990650  19.2076140  16.5110910  33.2898850  19.7512400  15.2785660
  30.5446770  21.0072140  18.2900630  30.8700180  20.1735890  17.9502860
  31.3327100  21.5300660  18.4378960  27.2781560  15.0403620   4.3375690
  26.6535740  15.0363490   5.0629000  27.1911680  14.1734580   3.9411660
  26.1998640  15.9640250  11.3159460  26.4970970  16.8703080  11.2351480
  26.7484200  15.4759030  10.7019030  23.9536960  20.5426490   7.1851110
  23.7277880  20.3263660   8.0897730  23.1729490  20.9754950   6.8397080
  31.1834720  20.5489860   5.7841760  30.5843610  21.2725660   5.6005380
  31.7314330  20.4866640   5.0018210  26.3936170  21.4412070  17.8511380
  26.2979770  20.5006800  17.7011780  27.2368150  21.6627140  17.4559450
  29.7899590  19.1853400   7.8145040  30.1829160  19.5025600   7.0013730
  30.1516440  18.3065280   7.9289560  21.5246710  17.8525740  16.0045160
  21.1310100  18.7000950  16.2117940  20.8365110  17.2152110  16.1953800
  28.0991760  17.9360710  19.0741900  27.4090080  17.7432910  19.7087990
  28.8424060  18.2195350  19.6066200  18.8263760  15.7754200  10.0375240
  18.5376810  16.3457060  10.7500220  19.5709520  15.2958650  10.4006470
  30.3754730  21.7759150  11.9095820  29.6435850  22.2845960  12.2585920
  29.9779070  20.9589130  11.6084600  26.8132120  18.4513350  10.3148310
  26.8168180  18.0103300   9.4652850  27.7083240  18.7730680  10.4220130
  22.6634500  18.3339840   9.2742520  22.3234550  18.8115070  10.0309570
  21.9011820  17.8804960   8.9143620  26.8752270  19.4525430   3.3055070
  26.9965090  19.4111910   4.2540890  26.4900780  20.3149580   3.1501800
  30.8380640  17.2292830  11.3218760  30.8553380  17.6801480  12.1660610
  30.5896220  16.3298470  11.5352200  25.8873770  21.7626570   2.7038370
  25.3190670  21.3144820   2.0774280  26.5962770  22.1219350   2.1703520
  34.2651390  14.6425010  17.1605140  34.5897160  13.9114670  17.6863120
  34.3007900  14.3238650  16.2586130  20.9642950  25.6638590  16.5805100
  20.5797740  25.0232260  17.1788060  21.2755140  26.3674710  17.1499830
  27.1140090  22.5115130  12.0613720  27.4810220  22.0373700  12.8075060
  26.9245150  23.3856700  12.4022060  19.9780580  17.2558820   8.1907190
  19.6927500  16.8914490   9.0285810  19.9159440  16.5239280   7.5770330
  24.9039460  21.5523770  14.3797930  24.5996530  22.4315750  14.6048290
  25.8585920  21.6123560  14.4155370  23.4321250  25.7584760   4.9764780
  22.6583510  25.2182380   4.8163500  24.1615880  25.2391370   4.6382540
  34.1909230  24.7550120  10.7691170  34.9108350  25.2505410  10.3787280
  33.9891050  24.0768010  10.1245040  29.6519170  16.1488080   4.9120560
  28.8383780  15.6501250   4.8365870  29.4581120  16.9886330   4.4956910
  29.5728030  24.8259180  16.6560170  29.5065340  23.9054850  16.4017760
  28.9433170  24.9234620  17.3704810  32.3667560  20.5207730   3.2082720
  33.2547180  20.8324960   3.0334060  32.3372650  19.6479980   2.8163300
  23.4758650  25.4265140   8.6143590  23.9937320  24.6233400   8.5600480
  23.0242670  25.3644280   9.4560420  28.3628150  26.6931420   3.8870890
  28.7043850  27.4373650   3.3914210  27.5340860  27.0062540   4.2495720
  20.9603190  22.3926510  15.5269290  20.6018130  23.0580360  16.1142630
  20.6657750  21.5610060  15.8981910  24.1616310  22.8510750  18.4108840
  23.8616450  22.9967930  17.5136660  24.9327550  22.2916040  18.3182230
  29.5044760  27.6479750  16.4063970  29.5189300  26.7160710  16.1882880
  28.7969860  27.7339510  17.0453740  34.6381830  21.8319570   2.6762580
  34.5545550  22.2633790   1.8259020  35.3576020  22.2917920   3.1089400
  35.7155970  24.2887090  15.7532550  34.9904160  24.8815870  15.5561940
  36.2431430  24.2810630  14.9545920  35.6669080  28.6861830   5.4044710
  35.0245240  28.0317450   5.6788430  35.2799740  29.0916920   4.6285380
  31.2455560  26.0147260   9.2516400  31.5979380  25.4175390   8.5917770
  30.3617890  25.6891490   9.4224650  27.3318840  26.7744950   6.6586810
  28.0189970  27.3214160   7.0394400  26.5451260  27.3185680   6.6936420
  19.4711240  22.3917770   2.1503890  20.3406090  22.6742570   2.4339810
  18.9801560  23.2053640   2.0352700  26.6346050  23.7790980   6.2712170
  27.0908830  24.5896230   6.4972360  26.2834260  23.4614120   7.1030660
  28.9378660  29.2897320  13.5004470  29.5820880  29.4956700  14.1777890
  29.3008100  28.5285720  13.0475320  22.5357830  14.1228630   6.7434690
  22.4072460  14.1146530   7.6919610  21.7119850  14.4611720   6.3925700
  30.2110740  27.2929670  12.2181920  30.8532970  26.5922830  12.3314090
  30.7360090  28.0728110  12.0378810  31.9848360  28.0924570  15.4217980
  32.3204600  28.6791260  16.0995900  31.0648700  27.9617280  15.6515770
  19.8382490  31.6045150   2.7165520  20.1980130  32.2034490   2.0622790
  19.6974830  32.1505040   3.4900550  19.5351760  15.8819750  16.2041390
  18.8210280  16.0816670  16.8094000  19.9546800  15.1059320  16.5756190
  33.6382710  25.4950230   3.6035220  33.3504410  25.9562920   4.3913100
  34.4334880  25.0348000   3.8719440  19.8224350  29.8700010  17.1907920
  19.9315470  28.9294750  17.0503310  19.1704910  30.1354760  16.5421650
  27.8136940  28.1415900  18.5906040  27.4933810  27.4225140  19.1351730
  27.1395300  28.8170970  18.6642100  25.8551110  28.9876350   3.5339190
  25.8461210  29.7206040   2.9183700  24.9349470  28.7407930   3.6266150
  21.4557750  24.2091240   4.2785950  20.8485700  24.9490140   4.2881250
  21.9307100  24.2990600   3.4524150  31.0290540  18.3742060  13.9542840
  31.3971360  17.5537270  14.2822410  30.1688740  18.4343950  14.3698490
  34.3952570  17.3299000   4.7630400  33.7665730  17.4344670   4.0488630
  33.9004490  17.5495780   5.5524280  26.3636600  19.6084950   6.1788280
  25.6552750  20.0771290   6.6201890  26.6481080  18.9506960   6.8133470
  27.9892530  21.0281650  14.1780810  28.4877780  21.5027470  14.8432660
  28.1315480  20.1045170  14.3850840  30.3952030  16.3335610   7.6184070
  30.2719810  16.3521740   6.6693580  31.3436590  16.3814550   7.7382470
  27.4828820  31.5690910   6.8912050  27.7370320  31.5312300   5.9691420
  26.5341300  31.4424240   6.8840300  24.5671620  17.9170030   3.5538990
  25.4162150  18.3540180   3.4879180  24.2002890  18.2290290   4.3811050
  35.1959390  17.2449610  15.0209200  34.6932990  17.9855010  15.3603010
  36.0116050  17.6333610  14.7045990  33.4881400  22.4882790   8.4670560
  32.5471540  22.5033020   8.6418250  33.8025470  21.7018750   8.9130860
  22.1609800  21.6027460   2.7107410  22.2413390  20.6554970   2.8224810
  23.0529550  21.9334340   2.8168070  35.4906980  29.6591640  10.1424820
  35.6154400  30.4822810  10.6148630  36.3572540  29.4482370   9.7948970
  22.9624510  31.7522850   9.8141950  23.6986990  31.2038310  10.0850520
  23.3465430  32.6178860   9.6747940  19.8469990  27.8196420   5.6883460
  18.9209770  28.0617560   5.6788870  20.3126420  28.6470680   5.5668210
  21.9682790  30.9368920  19.0027530  22.7695520  31.2580970  19.4162930
  21.4534610  30.5764500  19.7247440  30.8047420  27.0448790  18.9502940
  30.1985580  27.0680390  18.2098690  30.5001530  26.3131830  19.4870190
  32.2347790  30.7729080  17.5612350  33.1869540  30.6887100  17.5112590
  32.0876010  31.4370790  18.2346140  35.1256990  30.1523290   3.0604260
  34.8398500  29.7388430   2.2458440  34.9276540  31.0811000   2.9404780
  19.6880600  23.4242380  17.9463580  20.1919620  22.8449660  18.5179810
  18.9488020  23.7082610  18.4839950  26.7418540  24.8313370  17.4799100
  25.9764210  25.3998370  17.3953770  26.9234500  24.5389580  16.5867330
  29.8306950  25.2076600   2.1051860  29.2817050  25.6545900   2.7494600
  30.4526210  24.7025850   2.6289530  33.8841890  26.5618700  18.0374120
  34.6251360  26.8994460  17.5341580  33.1214570  26.7310760  17.4843890
  21.7203680  21.5671970  18.8413650  21.7609020  21.2685840  19.7498880
  22.5749180  21.9679580  18.6821170  25.4982070  24.1667520   4.0017160
  25.9198490  24.0007390   4.8448550  25.6232910  23.3567750   3.5072300
  23.6609490  20.1464070  16.8088140  23.1305950  19.6555020  16.1811480
  24.3297560  20.5748270  16.2746070  32.5587550  24.6133530  16.5729330
  32.9728570  24.7678610  17.4219750  31.6238550  24.7388750  16.7355110
  33.0309720  21.9529690  18.5768480  33.6130490  21.1982010  18.4888960
  33.2071490  22.4837130  17.7999960  24.1481790  17.1126440  16.8885430
  24.0538660  16.4947190  16.1636300  23.5679180  17.8392730  16.6615340
  26.9143230  15.6699680  13.9212820  26.4660530  15.6923940  13.0758370
  26.2808430  15.2718700  14.5183120  27.3202780  24.5654010  14.5425260
  27.7390890  25.4086740  14.3701500  26.4011410  24.7026050  14.3132040
  29.6566680  22.2970190  15.9263100  29.7762890  21.7011330  16.6657940
  30.5160680  22.3339880  15.5064400  31.9954580  22.8507380  14.5025610
  31.4689800  23.3750000  13.8990750  32.3385920  23.4834770  15.1335340
  25.1710200  30.8707020  15.6582990  24.6331290  31.5953080  15.3391690
  25.4244160  30.3937360  14.8680330  26.4235450  18.8391540  17.1838920
  27.0135140  18.5307390  17.8716740  25.6055690  18.3671290  17.3398820
  31.2428880  18.4557350  17.4171940  30.5544400  17.7938890  17.3521930
  31.9634900  18.0095620  17.8620400  31.8729280  15.0508980   3.4762200
  32.1531570  14.2076880   3.8321620  31.0995010  15.2832090   3.9900950
  28.0272410  32.1058230  15.9169640  27.9531110  33.0093370  16.2242010
  27.1251250  31.7870130  15.8891710  28.5757740  31.2716740   3.5396000
  29.4708530  31.6101710   3.5614760  28.6075370  30.5496150   2.9120280
  22.2153900  26.6443790   1.7683000  22.6528770  27.1873460   2.4240580
  22.7001630  25.8190740   1.7779340  19.4299700  29.4332820   9.2203260
  19.7602710  28.5653880   8.9881900  19.8590700  29.6391340  10.0508220
  24.0261620  27.7641830   6.8805230  23.7257160  27.6406800   7.7809140
  23.9199110  26.9050420   6.4720960  19.9189910  30.3003410  11.9584890
  19.4820900  30.4804210  12.7909040  20.4867590  31.0578030  11.8166610
  35.5552090  29.8020410  16.2462200  34.9554080  29.8612970  15.5026120
  35.6845990  28.8625390  16.3759050  36.2510000  24.2885710   4.0866110
  37.0128910  24.8582360   4.1925800  36.2664370  23.7212910   4.8574420
  19.7514340  22.8123640   8.3173770  19.0963180  22.5435280   7.6733470
  20.5892290  22.7028120   7.8675750  37.2569970  25.1435810   8.9308040
  37.6278800  24.3603130   8.5244010  37.8971900  25.8324910   8.7525340
  34.2403730  26.5272390  14.3438360  33.4263570  26.9569550  14.6064150
  34.6477930  27.1390800  13.7307410  32.7004780  17.6064930   2.5392260
  33.1189660  17.4195910   1.6988920  32.3940840  16.7543980   2.8495190
  36.1994510  22.5189070   6.2368060  35.8238110  21.7517000   5.8049350
  35.4697630  22.9011770   6.7242990  20.7890270  23.1976210  12.8577110
  21.1563310  23.1103610  13.7373130  20.2201090  22.4342760  12.7583970
  35.5894130  21.6660590  15.8707580  35.3580220  21.4373340  14.9705530
  35.8498680  22.5860140  15.8252470  20.3406270  20.1085300  16.7635530
  19.4462320  20.0752060  17.1029240  20.8803820  20.3072090  17.5286780
  34.0282200  16.8917020  18.6487280  34.9052380  16.9000420  19.0321280
  34.0403040  16.1547860  18.0379630  18.9652420  20.0222570   4.2599100
  18.0616500  20.2852770   4.0850760  19.4493040  20.2933740   3.4799060
  35.4745470  20.7446560   9.5375300  35.9982950  20.2509210   8.9065470
  36.0604890  20.8796920  10.2822870  35.6535190  20.8286430  13.0594850
  34.7037900  20.7949970  13.1739840  35.8348200  21.7386540  12.8244620
  34.9645440  20.0019910   5.4767710  35.4604560  19.7690780   6.2616590
  34.7661510  19.1631750   5.0605350  20.8445980  14.3833630  11.1118750
  21.4922170  13.8331010  10.6713910  21.2647820  14.6376780  11.9334560
  36.3932600  18.6380860   8.0105390  36.2831880  18.4836900   8.9487660
  37.1540190  18.1101800   7.7680800  34.7398320  14.5774990  14.4688390
  35.3770540  15.1909130  14.8347580  34.8873210  14.6135650  13.5237620
  37.3561360  17.2399440   3.8768240  36.5612860  17.1744560   4.4061150
  37.5604640  18.1750080   3.8653590  34.2979780  31.2790990   7.8706630
  34.8938850  30.9575560   7.1941050  34.5557930  30.8062810   8.6619900
  20.5977980  14.5389300  13.8544070  20.2492800  14.9953120  14.6202250
  20.2665680  13.6446430  13.9366500  22.2042350  27.7108900  18.0197260
  22.1611980  27.3401810  18.9011720  22.3353360  28.6486470  18.1599080
  25.9048380  29.2668490  13.6206980  25.6639740  29.5343050  12.7337500
  26.8451020  29.4374220  13.6757840  28.1102800  15.7301180  17.3763490
  28.0491690  16.3223010  18.1258900  29.0503180  15.6227140  17.2313750
  30.7477360  15.3871240  17.0155780  31.3617770  15.7050530  16.3536860
  31.2926920  14.9019830  17.6351640  37.1652540  31.2862870  14.4217620
  36.6710820  31.6831740  13.7044750  36.5565830  30.6612080  14.8154900
  21.2698620  14.0665500  17.1294840  21.8181610  13.8853550  16.3660950
  21.3353930  13.2759610  17.6651150  22.0430380  30.6571150  15.1395040
  21.4490700  30.5255850  15.8785080  22.0354220  29.8209290  14.6737140
  31.4885400  13.9503380  13.3425070  30.6145240  14.2838490  13.1398000
  31.3796150  13.4776560  14.1676940  32.3957380  16.1574250  14.7266790
  32.0670740  15.3426010  14.3468520  33.3439680  16.1144060  14.6032480
  34.8491990  31.9286290  11.7004360  34.3894960  32.6802100  11.3262380
  34.2204450  31.2092760  11.6419160  21.6742610  28.0229530  14.0903080
  20.9476670  27.4034820  14.0229030  21.7351760  28.4170140  13.2201160
  25.2787710  30.2374530  10.8752490  25.7952730  29.6261890  10.3500750
  25.9285090  30.7403310  11.3663500  28.0183210  31.1283020  11.7021470
  28.3061020  30.8737320  10.8254480  28.5306430  30.5760380  12.2927040
  29.2360220  14.8673220  12.2817980  28.4532010  15.3418720  12.5614740
  28.9423150  13.9628050  12.1731160  33.7881290  15.5696320  10.3267070
  34.2289380  15.5141420   9.4788670  33.5188880  16.4854330  10.3977250
  35.6519860  15.2011560   8.3375890  35.5908260  14.2572780   8.1906910
  36.4311890  15.3091650   8.8829350  19.9572610  31.3403920   7.2999840
  19.7894650  30.7074600   7.9981730  19.0907120  31.5463320   6.9494030
  20.5800630  15.1720700   4.8031700  21.3379990  15.2849580   4.2295730
  20.1177800  16.0089900   4.7575130  27.1214440  17.2859970   7.7934010
  26.3088950  16.9116860   7.4529890  27.6256080  16.5305050   8.0955200
  31.6239420  13.9502420   9.0317080  32.2268790  14.5222630   9.5065600
  30.8832410  14.5141860   8.8090980  34.7674020  14.3523980   4.3057360
  34.9624650  15.2507430   4.5724790  33.9803890  14.1211060   4.7990310
  21.5635310  30.0337150   4.7449980  21.0382930  30.4145180   4.0411940
  21.4879890  30.6587920   5.4659690  22.9525780  15.6984750   3.3433670
  23.4818540  14.9114550   3.2141620  23.5854100  16.3775940   3.5769200
  25.1463620  15.4359890   6.3979060  24.5166360  14.7347200   6.5649190
  24.6068760  16.1964020   6.1812220  28.0855570  32.0499120  19.0689670
  29.0122880  31.8143390  19.1125630  28.0706000  32.8771120  18.5875700
  36.3200630  31.5924690   6.0663920  36.4952820  30.9062430   5.4224840
  35.6222200  32.1171740   5.6740590  25.2719180  14.7143870  18.8331550
  24.9903450  15.2177470  18.0692370  25.6538880  13.9165620  18.4673680
  24.1628280  31.9819530   3.6199230  24.8947100  31.6978810   3.0723120
  24.4221950  31.7432810   4.5098610  23.3243070  28.0984260   3.6245560
  22.6951950  28.5669360   4.1731390  23.4390900  27.2533480   4.0591750
  31.8734640  14.1297450  19.4112020  31.7600090  14.4492060  20.3063540
  32.6904380  14.5309960  19.1149300  34.6533130  31.2768980  18.8930710
  35.4458450  30.7818210  18.6856670  34.9466280  31.9559120  19.5006320
  30.7792790   3.3746430  64.8720720  30.6986840   2.4601040  64.6012430
  30.3657210   3.8713500  64.1660430  28.9110830   5.1525450  66.7529990
  28.1352930   4.6725890  67.0428560  29.5623760   4.4731100  66.5786150
  22.9276660   5.4645260  67.6305750  22.0961540   5.2093970  68.0302260
  23.5357640   5.5356030  68.3663670  32.9318260   9.5585640  65.5329120
  32.4699790   8.7872880  65.8616290  33.7443810   9.5851710  66.0381570
  22.9077920   9.4985350  67.8263770  23.2105960   8.6083090  67.6473990
  23.6521510  10.0555570  67.5986020  19.3001620   3.0252800  67.2987840
  19.8717730   2.2575000  67.2991480  19.3003160   3.3241560  66.3894450
  29.1581570  11.8443650  65.1533110  28.5393010  12.3001150  64.5827550
  30.0133350  11.9995110  64.7522810  28.3519820   7.8282640  66.7600150
  28.2828100   6.8872580  66.5989280  29.1139680   7.9184050  67.3322720
  30.0244920   6.7282890  62.5465020  29.4062190   7.1932340  61.9827740
  30.5368170   7.4210370  62.9634530  24.8876680   6.2558760  69.2248620
  24.5546060   6.8827680  69.8669690  25.0643360   6.7820640  68.4450290
  24.0995780   8.2239560  71.0397800  24.7169780   8.8990640  70.7582250
  23.2388900   8.6327540  70.9485300  19.3928120   7.4139420  59.9204650
  19.0156100   7.9026520  59.1889550  19.6501190   8.0864700  60.5511180
  35.0173370   9.6878970  68.9552440  34.3336890  10.3578080  68.9469110
  35.5567660   9.8859620  68.1897300  32.5532110  11.5323100  67.6697620
  32.5659270  11.1285390  66.8019880  32.0007330  12.3070390  67.5659050
  33.8477530   8.2539320  62.7587790  33.7373860   7.3113650  62.8837210
  33.8445780   8.6154960  63.6450550  31.9517550   6.4352940  68.9980230
  32.3686340   6.2213050  68.1633690  32.6757370   6.6925730  69.5688850
  29.3897810   3.8804640  62.1150280  28.4627090   3.8142020  62.3438750
  29.5422630   4.8184770  62.0005520  35.8979650   4.8340160  69.0896470
  35.0698280   4.9033250  68.6146600  36.4930130   5.4194470  68.6212300
  33.4195100   5.4424940  62.6185530  32.8007520   5.1044490  61.9711830
  33.4019550   4.7984700  63.3264720  24.9954450   4.4069380  64.8970010
  24.5911450   3.6946630  64.4015910  25.0817570   4.0622620  65.7858050
  25.4636150   8.0936940  67.0609220  25.1664440   7.4882410  66.3817000
  26.4135970   8.1314250  66.9498580  33.5521760  11.6668810  70.7232320
  33.0752320  12.4741000  70.5304930  32.8683550  11.0147140  70.8758530
  24.5554580   7.8318630  73.7117020  23.6583110   8.0558600  73.9590420
  24.5807450   7.9553570  72.7628420  31.5959800   4.6811750  59.6258280
  32.0353080   3.8434180  59.4796100  32.3088220   5.3141150  59.7122420
  23.3825800   4.7031950  72.2874390  23.2433570   5.5754750  72.6561790
  22.5007160   4.3604760  72.1422330  29.7055180   9.6207820  63.5939520
  30.1451090  10.3632150  63.1794910  29.6442070   9.8634390  64.5178480
  25.1806150  10.6453650  74.4959540  25.1521580  11.0496600  73.6287970
  25.0171120   9.7164010  74.3331140  21.6959080   3.3014360  62.3976660
  21.5756680   4.0276450  61.7857930  21.3859970   2.5317270  61.9204570
  19.3344450   6.4729500  68.2045300  19.4124870   6.6078270  67.2601020
  19.9486130   5.7645390  68.3973420  20.5792080   8.1729690  64.6151480
  20.1720160   8.3144280  63.7605080  21.4705090   7.8889850  64.4122690
  36.5354220   8.6193600  72.9523720  36.6617280   8.3805480  72.0340900
  36.5775600   7.7878140  73.4245800  30.3970960  12.3221600  71.5218530
  30.9115630  12.2329610  72.3240960  29.5540040  12.6681300  71.8146440
  32.3725360  12.6076940  60.9502530  32.2126500  12.3179880  61.8484360
  32.2072070  11.8317070  60.4147760  24.8513740  12.3875470  62.7274150
  24.6756220  11.4711010  62.5141950  23.9969480  12.7462760  62.9671950
  32.0751490  10.1164500  59.5100530  31.3816650  10.1141790  58.8502810
  32.8174350   9.6923820  59.0794700  31.6401420  11.7427210  63.5849020
  32.0958370  10.9616590  63.8987640  31.9793940  12.4534030  64.1290200
  19.3903970   7.5143670  70.7439760  19.5535010   7.0449030  69.9259130
  19.8556420   7.0067230  71.4088600  30.5446770   2.2328650  74.6131100
  30.8700180   1.3992400  74.2733330  31.3327100   2.7557170  74.7609430
  23.9536960   1.7683000  63.5081580  23.7277880   1.5520170  64.4128200
  23.1729490   2.2011460  63.1627550  31.1834720   1.7746370  62.1072230
  30.5843610   2.4982170  61.9235850  31.7314330   1.7123150  61.3248680
  26.3936170   2.6668580  74.1741850  26.2979770   1.7263310  74.0242250
  27.2368150   2.8883650  73.7789920  30.3754730   3.0015660  68.2326290
  29.6435850   3.5102470  68.5816390  29.9779070   2.1845640  67.9315070
  25.8873770   2.9883080  59.0268840  25.3190670   2.5401330  58.4004750
  26.5962770   3.3475860  58.4933990  20.9642950   6.8895100  72.9035570
  20.5797740   6.2488770  73.5018530  21.2755140   7.5931220  73.4730300
  27.1140090   3.7371640  68.3844190  27.4810220   3.2630210  69.1305530
  26.9245150   4.6113210  68.7252530  24.9039460   2.7780280  70.7028400
  24.5996530   3.6572260  70.9278760  25.8585920   2.8380070  70.7385840
  23.4321250   6.9841270  61.2995250  22.6583510   6.4438890  61.1393970
  24.1615880   6.4647880  60.9613010  34.1909230   5.9806630  67.0921640
  34.9108350   6.4761920  66.7017750  33.9891050   5.3024520  66.4475510
  29.5728030   6.0515690  72.9790640  29.5065340   5.1311360  72.7248230
  28.9433170   6.1491130  73.6935280  23.4758650   6.6521650  64.9374060
  23.9937320   5.8489910  64.8830950  23.0242670   6.5900790  65.7790890
  28.3628150   7.9187930  60.2101360  28.7043850   8.6630160  59.7144680
  27.5340860   8.2319050  60.5726190  20.9603190   3.6183020  71.8499760
  20.6018130   4.2836870  72.4373100  20.6657750   2.7866570  72.2212380
  24.1616310   4.0767260  74.7339310  23.8616450   4.2224440  73.8367130
  24.9327550   3.5172550  74.6412700  29.5044760   8.8736260  72.7294440
  29.5189300   7.9417220  72.5113350  28.7969860   8.9596020  73.3684210
  34.6381830   3.0576080  58.9993050  34.5545550   3.4890300  58.1489490
  35.3576020   3.5174430  59.4319870  35.7155970   5.5143600  72.0763020
  34.9904160   6.1072380  71.8792410  36.2431430   5.5067140  71.2776390
  35.6669080   9.9118340  61.7275180  35.0245240   9.2573960  62.0018900
  35.2799740  10.3173430  60.9515850  31.2455560   7.2403770  65.5746870
  31.5979380   6.6431900  64.9148240  30.3617890   6.9148000  65.7455120
  27.3318840   8.0001460  62.9817280  28.0189970   8.5470670  63.3624870
  26.5451260   8.5442190  63.0166890  19.4711240   3.6174280  58.4734360
  20.3406090   3.8999080  58.7570280  18.9801560   4.4310150  58.3583170
  26.6346050   5.0047490  62.5942640  27.0908830   5.8152740  62.8202830
  26.2834260   4.6870630  63.4261130  28.9378660  10.5153830  69.8234940
  29.5820880  10.7213210  70.5008360  29.3008100   9.7542230  69.3705790
  30.2110740   8.5186180  68.5412390  30.8532970   7.8179340  68.6544560
  30.7360090   9.2984620  68.3609280  34.0566460   8.8034800  58.2651530
  33.8304040   8.0865240  58.8576170  33.6662660   8.5547240  57.4273280
  31.9848360   9.3181080  71.7448450  32.3204600   9.9047770  72.4226370
  31.0648700   9.1873790  71.9746240  19.8382490  12.8301660  59.0395990
  20.1980130  13.4291000  58.3853260  19.6974830  13.3761550  59.8131020
  33.6382710   6.7206740  59.9265690  33.3504410   7.1819430  60.7143570
  34.4334880   6.2604510  60.1949910  19.8224350  11.0956520  73.5138390
  19.9315470  10.1551260  73.3733780  19.1704910  11.3611270  72.8652120
  25.8551110  10.2132860  59.8569660  25.8461210  10.9462550  59.2414170
  24.9349470   9.9664440  59.9496620  21.4557750   5.4347750  60.6016420
  20.8485700   6.1746650  60.6111720  21.9307100   5.5247110  59.7754620
  28.8410710  10.2761100  58.5194850  28.9422690  10.0725090  57.5896830
  27.9412450  10.0219380  58.7242630  27.9892530   2.2538160  70.5011280
  28.4877780   2.7283980  71.1663130  28.1315480   1.3301680  70.7081310
  27.4828820  12.7947420  63.2142520  27.7370320  12.7568810  62.2921890
  26.5341300  12.6680750  63.2070770  33.4881400   3.7139300  64.7901030
  32.5471540   3.7289530  64.9648720  33.8025470   2.9275260  65.2361330
  23.4663040   5.3958900  58.3504990  24.2326310   5.2840260  58.9130420
  23.5437730   4.6996870  57.6981760  22.1609800   2.8283970  59.0337880
  22.2413390   1.8811480  59.1455280  23.0529550   3.1590850  59.1398540
  35.4906980  10.8848150  66.4655290  35.6154400  11.7079320  66.9379100
  36.3572540  10.6738880  66.1179440  22.9624510  12.9779360  66.1372420
  23.6986990  12.4294820  66.4080990  23.3465430  13.8435370  65.9978410
  19.8469990   9.0452930  62.0113930  18.9209770   9.2874070  62.0019340
  20.3126420   9.8727190  61.8898680  26.0726820  12.1509670  57.9597990
  26.8655430  12.4398500  57.5079780  25.5531170  11.7201840  57.2810470
  32.2347790  11.9985590  73.8842820  33.1869540  11.9143610  73.8343060
  32.0876010  12.6627300  74.5576610  35.1256990  11.3779800  59.3834730
  34.8398500  10.9644940  58.5688910  34.9276540  12.3067510  59.2635250
  19.6880600   4.6498890  74.2694050  20.1919620   4.0706170  74.8410280
  18.9488020   4.9339120  74.8070420  26.5904220   7.3713080  57.8240340
  26.4854860   6.7565430  58.5501720  26.4228440   6.8478970  57.0403350
  26.7418540   6.0569880  73.8029570  25.9764210   6.6254880  73.7184240
  26.9234500   5.7646090  72.9097800  29.8306950   6.4333110  58.4282330
  29.2817050   6.8802410  59.0725070  30.4526210   5.9282360  58.9520000
  33.8841890   7.7875210  74.3604590  34.6251360   8.1250970  73.8572050
  33.1214570   7.9567270  73.8074360  25.4982070   5.3924030  60.3247630
  25.9198490   5.2263900  61.1679020  25.6232910   4.5824260  59.8302770
  28.0109710   4.4161640  57.5724730  28.5315370   3.7010660  57.2065880
  28.6578110   5.0547510  57.8725240  32.5587550   5.8390040  72.8959800
  32.9728570   5.9935120  73.7450220  31.6238550   5.9645260  73.0585580
  33.0309720   3.1786200  74.8998950  33.6130490   2.4238520  74.8119430
  33.2071490   3.7093640  74.1230430  27.3202780   5.7910520  70.8655730
  27.7390890   6.6343250  70.6931970  26.4011410   5.9282560  70.6362510
  29.6566680   3.5226700  72.2493570  29.7762890   2.9267840  72.9888410
  30.5160680   3.5596390  71.8294870  31.9954580   4.0763890  70.8256080
  31.4689800   4.6006510  70.2221220  32.3385920   4.7091280  71.4565810
  25.1710200  12.0963530  71.9813460  24.6331290  12.8209590  71.6622160
  25.4244160  11.6193870  71.1910800  28.0272410  13.3314740  72.2400110
  27.9531110  14.2349880  72.5472480  27.1251250  13.0126640  72.2122180
  28.5757740  12.4973250  59.8626470  29.4708530  12.8358220  59.8845230
  28.6075370  11.7752660  59.2350750  22.2153900   7.8700300  58.0913470
  22.6528770   8.4129970  58.7471050  22.7001630   7.0447250  58.1009810
  19.4299700  10.6589330  65.5433730  19.7602710   9.7910390  65.3112370
  19.8590700  10.8647850  66.3738690  24.0261620   8.9898340  63.2035700
  23.7257160   8.8663310  64.1039610  23.9199110   8.1306930  62.7951430
  19.9189910  11.5259920  68.2815360  19.4820900  11.7060720  69.1139510
  20.4867590  12.2834540  68.1397080  35.5552090  11.0276920  72.5692670
  34.9554080  11.0869480  71.8256590  35.6845990  10.0881900  72.6989520
  36.7953540   8.7694740  57.9062380  35.9646500   8.8371390  58.3769610
  36.9725370   9.6598860  57.6029240  36.2510000   5.5142220  60.4096580
  37.0128910   6.0838870  60.5156270  36.2664370   4.9469420  61.1804890
  19.7514340   4.0380150  64.6404240  19.0963180   3.7691790  63.9963940
  20.5892290   3.9284630  64.1906220  37.2569970   6.3692320  65.2538510
  37.6278800   5.5859640  64.8474480  37.8971900   7.0581420  65.0755810
  34.2403730   7.7528900  70.6668830  33.4263570   8.1826060  70.9294620
  34.6477930   8.3647310  70.0537880  36.3029170   5.8076590  57.5669100
  36.5778010   6.7155470  57.4388320  36.1139910   5.7439120  58.5031090
  36.1994510   3.7445580  62.5598530  35.8238110   2.9773510  62.1279820
  35.4697630   4.1268280  63.0473460  20.7890270   4.4232720  69.1807580
  21.1563310   4.3360120  70.0603600  20.2201090   3.6599270  69.0814440
  35.5894130   2.8917100  72.1938050  35.3580220   2.6629850  71.2936000
  35.8498680   3.8116650  72.1482940  35.4745470   1.9703070  65.8605770
  35.9982950   1.4765720  65.2295940  36.0604890   2.1053430  66.6053340
  35.6535190   2.0542940  69.3825320  34.7037900   2.0206480  69.4970310
  35.8348200   2.9643050  69.1475090  34.2979780  12.5047500  64.1937100
  34.8938850  12.1832070  63.5171520  34.5557930  12.0319320  64.9850370
  25.9048380  10.4925000  69.9437450  25.6639740  10.7599560  69.0567970
  26.8451020  10.6630730  69.9988310  37.1652540  12.5119380  70.7448090
  36.6710820  12.9088250  70.0275220  36.5565830  11.8868590  71.1385370
  22.0430380  11.8827660  71.4625510  21.4490700  11.7512360  72.2015550
  22.0354220  11.0465800  70.9967610  34.8491990  13.1542800  68.0234830
  34.3894960  13.9058610  67.6492850  34.2204450  12.4349270  67.9649630
  21.6742610   9.2486040  70.4133550  20.9476670   8.6291330  70.3459500
  21.7351760   9.6426650  69.5431630  25.2787710  11.4631040  67.1982960
  25.7952730  10.8518400  66.6731220  25.9285090  11.9659820  67.6893970
  28.0183210  12.3539530  68.0251940  28.3061020  12.0993830  67.1484950
  28.5306430  11.8016890  68.6157510  19.9572610  12.5660430  63.6230310
  19.7894650  11.9331110  64.3212200  19.0907120  12.7719830  63.2724500
  21.5635310  11.2593660  61.0680450  21.0382930  11.6401690  60.3642410
  21.4879890  11.8844430  61.7890160  36.3200630  12.8181200  62.3894390
  36.4952820  12.1318940  61.7455310  35.6222200  13.3428250  61.9971060
  24.1628280  13.2076040  59.9429700  24.8947100  12.9235320  59.3953590
  24.4221950  12.9689320  60.8329080  23.3243070   9.3240770  59.9476030
  22.6951950   9.7925870  60.4961860  23.4390900   8.4789990  60.3822220
  30.7792790   3.3746430  46.0977230  30.6986840   2.4601040  45.8268940
  30.3657210   3.8713500  45.3916940  28.9110830   5.1525450  47.9786500
  28.1352930   4.6725890  48.2685070  29.5623760   4.4731100  47.8042660
  22.9276660   5.4645260  48.8562260  22.0961540   5.2093970  49.2558770
  23.5357640   5.5356030  49.5920180  32.9318260   9.5585640  46.7585630
  32.4699790   8.7872880  47.0872800  33.7443810   9.5851710  47.2638080
  22.9077920   9.4985350  49.0520280  23.2105960   8.6083090  48.8730500
  23.6521510  10.0555570  48.8242530  19.3001620   3.0252800  48.5244350
  19.8717730   2.2575000  48.5247990  19.3003160   3.3241560  47.6150960
  29.1581570  11.8443650  46.3789620  28.5393010  12.3001150  45.8084060
  30.0133350  11.9995110  45.9779320  28.3519820   7.8282640  47.9856660
  28.2828100   6.8872580  47.8245790  29.1139680   7.9184050  48.5579230
  30.0244920   6.7282890  43.7721530  29.4062190   7.1932340  43.2084250
  30.5368170   7.4210370  44.1891040  24.8876680   6.2558760  50.4505130
  24.5546060   6.8827680  51.0926200  25.0643360   6.7820640  49.6706800
  24.0995780   8.2239560  52.2654310  24.7169780   8.8990640  51.9838760
  23.2388900   8.6327540  52.1741810  19.3928120   7.4139420  41.1461160
  19.0156100   7.9026520  40.4146060  19.6501190   8.0864700  41.7767690
  35.0173370   9.6878970  50.1808950  34.3336890  10.3578080  50.1725620
  35.5567660   9.8859620  49.4153810  32.5532110  11.5323100  48.8954130
  32.5659270  11.1285390  48.0276390  32.0007330  12.3070390  48.7915560
  33.8477530   8.2539320  43.9844300  33.7373860   7.3113650  44.1093720
  33.8445780   8.6154960  44.8707060  31.9517550   6.4352940  50.2236740
  32.3686340   6.2213050  49.3890200  32.6757370   6.6925730  50.7945360
  29.3897810   3.8804640  43.3406790  28.4627090   3.8142020  43.5695260
  29.5422630   4.8184770  43.2262030  35.8979650   4.8340160  50.3152980
  35.0698280   4.9033250  49.8403110  36.4930130   5.4194470  49.8468810
  33.4195100   5.4424940  43.8442040  32.8007520   5.1044490  43.1968340
  33.4019550   4.7984700  44.5521230  24.9954450   4.4069380  46.1226520
  24.5911450   3.6946630  45.6272420  25.0817570   4.0622620  47.0114560
  25.4636150   8.0936940  48.2865730  25.1664440   7.4882410  47.6073510
  26.4135970   8.1314250  48.1755090  33.5521760  11.6668810  51.9488830
  33.0752320  12.4741000  51.7561440  32.8683550  11.0147140  52.1015040
  24.5554580   7.8318630  54.9373530  23.6583110   8.0558600  55.1846930
  24.5807450   7.9553570  53.9884930  31.5959800   4.6811750  40.8514790
  32.0353080   3.8434180  40.7052610  32.3088220   5.3141150  40.9378930
  23.3825800   4.7031950  53.5130900  23.2433570   5.5754750  53.8818300
  22.5007160   4.3604760  53.3678840  29.7055180   9.6207820  44.8196030
  30.1451090  10.3632150  44.4051420  29.6442070   9.8634390  45.7434990
  25.1806150  10.6453650  55.7216050  25.1521580  11.0496600  54.8544480
  25.0171120   9.7164010  55.5587650  21.6959080   3.3014360  43.6233170
  21.5756680   4.0276450  43.0114440  21.3859970   2.5317270  43.1461080
  37.1320970  11.4280750  57.0180220  37.6080690  11.9063640  57.6969300
  37.7528130  11.3598240  56.2925720  19.3344450   6.4729500  49.4301810
  19.4124870   6.6078270  48.4857530  19.9486130   5.7645390  49.6229930
  20.5792080   8.1729690  45.8407990  20.1720160   8.3144280  44.9861590
  21.4705090   7.8889850  45.6379200  36.5354220   8.6193600  54.1780230
  36.6617280   8.3805480  53.2597410  36.5775600   7.7878140  54.6502310
  30.3970960  12.3221600  52.7475040  30.9115630  12.2329610  53.5497470
  29.5540040  12.6681300  53.0402950  32.3725360  12.6076940  42.1759040
  32.2126500  12.3179880  43.0740870  32.2072070  11.8317070  41.6404270
  24.8513740  12.3875470  43.9530660  24.6756220  11.4711010  43.7398460
  23.9969480  12.7462760  44.1928460  32.0751490  10.1164500  40.7357040
  31.3816650  10.1141790  40.0759320  32.8174350   9.6923820  40.3051210
  31.6401420  11.7427210  44.8105530  32.0958370  10.9616590  45.1244150
  31.9793940  12.4534030  45.3546710  19.3903970   7.5143670  51.9696270
  19.5535010   7.0449030  51.1515640  19.8556420   7.0067230  52.6345110
  30.5446770   2.2328650  55.8387610  30.8700180   1.3992400  55.4989840
  31.3327100   2.7557170  55.9865940  23.9536960   1.7683000  44.7338090
  23.7277880   1.5520170  45.6384710  23.1729490   2.2011460  44.3884060
  31.1834720   1.7746370  43.3328740  30.5843610   2.4982170  43.1492360
  31.7314330   1.7123150  42.5505190  26.3936170   2.6668580  55.3998360
  26.2979770   1.7263310  55.2498760  27.2368150   2.8883650  55.0046430
  30.3754730   3.0015660  49.4582800  29.6435850   3.5102470  49.8072900
  29.9779070   2.1845640  49.1571580  25.8873770   2.9883080  40.2525350
  25.3190670   2.5401330  39.6261260  26.5962770   3.3475860  39.7190500
  20.9642950   6.8895100  54.1292080  20.5797740   6.2488770  54.7275040
  21.2755140   7.5931220  54.6986810  27.1140090   3.7371640  49.6100700
  27.4810220   3.2630210  50.3562040  26.9245150   4.6113210  49.9509040
  24.9039460   2.7780280  51.9284910  24.5996530   3.6572260  52.1535270
  25.8585920   2.8380070  51.9642350  23.4321250   6.9841270  42.5251760
  22.6583510   6.4438890  42.3650480  24.1615880   6.4647880  42.1869520
  34.1909230   5.9806630  48.3178150  34.9108350   6.4761920  47.9274260
  33.9891050   5.3024520  47.6732020  29.5728030   6.0515690  54.2047150
  29.5065340   5.1311360  53.9504740  28.9433170   6.1491130  54.9191790
  23.4758650   6.6521650  46.1630570  23.9937320   5.8489910  46.1087460
  23.0242670   6.5900790  47.0047400  28.3628150   7.9187930  41.4357870
  28.7043850   8.6630160  40.9401190  27.5340860   8.2319050  41.7982700
  20.9603190   3.6183020  53.0756270  20.6018130   4.2836870  53.6629610
  20.6657750   2.7866570  53.4468890  24.1616310   4.0767260  55.9595820
  23.8616450   4.2224440  55.0623640  24.9327550   3.5172550  55.8669210
  29.5044760   8.8736260  53.9550950  29.5189300   7.9417220  53.7369860
  28.7969860   8.9596020  54.5940720  34.6381830   3.0576080  40.2249560
  34.5545550   3.4890300  39.3746000  35.3576020   3.5174430  40.6576380
  35.7155970   5.5143600  53.3019530  34.9904160   6.1072380  53.1048920
  36.2431430   5.5067140  52.5032900  35.6669080   9.9118340  42.9531690
  35.0245240   9.2573960  43.2275410  35.2799740  10.3173430  42.1772360
  31.2455560   7.2403770  46.8003380  31.5979380   6.6431900  46.1404750
  30.3617890   6.9148000  46.9711630  27.3318840   8.0001460  44.2073790
  28.0189970   8.5470670  44.5881380  26.5451260   8.5442190  44.2423400
  19.4711240   3.6174280  39.6990870  20.3406090   3.8999080  39.9826790
  18.9801560   4.4310150  39.5839680  26.6346050   5.0047490  43.8199150
  27.0908830   5.8152740  44.0459340  26.2834260   4.6870630  44.6517640
  28.9378660  10.5153830  51.0491450  29.5820880  10.7213210  51.7264870
  29.3008100   9.7542230  50.5962300  30.2110740   8.5186180  49.7668900
  30.8532970   7.8179340  49.8801070  30.7360090   9.2984620  49.5865790
  34.0566460   8.8034800  39.4908040  33.8304040   8.0865240  40.0832680
  33.6662660   8.5547240  38.6529790  31.9848360   9.3181080  52.9704960
  32.3204600   9.9047770  53.6482880  31.0648700   9.1873790  53.2002750
  19.8382490  12.8301660  40.2652500  20.1980130  13.4291000  39.6109770
  19.6974830  13.3761550  41.0387530  33.6382710   6.7206740  41.1522200
  33.3504410   7.1819430  41.9400080  34.4334880   6.2604510  41.4206420
  19.8224350  11.0956520  54.7394900  19.9315470  10.1551260  54.5990290
  19.1704910  11.3611270  54.0908630  27.8136940   9.3672410  56.1393020
  27.4933810   8.6481650  56.6838710  27.1395300  10.0427480  56.2129080
  25.8551110  10.2132860  41.0826170  25.8461210  10.9462550  40.4670680
  24.9349470   9.9664440  41.1753130  21.4557750   5.4347750  41.8272930
  20.8485700   6.1746650  41.8368230  21.9307100   5.5247110  41.0011130
  28.8410710  10.2761100  39.7451360  28.9422690  10.0725090  38.8153340
  27.9412450  10.0219380  39.9499140  27.9892530   2.2538160  51.7267790
  28.4877780   2.7283980  52.3919640  28.1315480   1.3301680  51.9337820
  27.4828820  12.7947420  44.4399030  27.7370320  12.7568810  43.5178400
  26.5341300  12.6680750  44.4327280  33.4881400   3.7139300  46.0157540
  32.5471540   3.7289530  46.1905230  33.8025470   2.9275260  46.4617840
  23.4663040   5.3958900  39.5761500  24.2326310   5.2840260  40.1386930
  23.5437730   4.6996870  38.9238270  22.1609800   2.8283970  40.2594390
  22.2413390   1.8811480  40.3711790  23.0529550   3.1590850  40.3655050
  35.4906980  10.8848150  47.6911800  35.6154400  11.7079320  48.1635610
  36.3572540  10.6738880  47.3435950  22.9624510  12.9779360  47.3628930
  23.6986990  12.4294820  47.6337500  23.3465430  13.8435370  47.2234920
  19.8469990   9.0452930  43.2370440  18.9209770   9.2874070  43.2275850
  20.3126420   9.8727190  43.1155190  21.9682790  12.1625430  56.5514510
  22.7695520  12.4837480  56.9649910  21.4534610  11.8021010  57.2734420
  26.0726820  12.1509670  39.1854500  26.8655430  12.4398500  38.7336290
  25.5531170  11.7201840  38.5066980  30.8047420   8.2705300  56.4989920
  30.1985580   8.2936900  55.7585670  30.5001530   7.5388340  57.0357170
  32.2347790  11.9985590  55.1099330  33.1869540  11.9143610  55.0599570
  32.0876010  12.6627300  55.7833120  35.1256990  11.3779800  40.6091240
  34.8398500  10.9644940  39.7945420  34.9276540  12.3067510  40.4891760
  19.6880600   4.6498890  55.4950560  20.1919620   4.0706170  56.0666790
  18.9488020   4.9339120  56.0326930  26.5904220   7.3713080  39.0496850
  26.4854860   6.7565430  39.7758230  26.4228440   6.8478970  38.2659860
  26.7418540   6.0569880  55.0286080  25.9764210   6.6254880  54.9440750
  26.9234500   5.7646090  54.1354310  29.8306950   6.4333110  39.6538840
  29.2817050   6.8802410  40.2981580  30.4526210   5.9282360  40.1776510
  33.8841890   7.7875210  55.5861100  34.6251360   8.1250970  55.0828560
  33.1214570   7.9567270  55.0330870  21.7203680   2.7928480  56.3900630
  21.7609020   2.4942350  57.2985860  22.5749180   3.1936090  56.2308150
  25.4982070   5.3924030  41.5504140  25.9198490   5.2263900  42.3935530
  25.6232910   4.5824260  41.0559280  28.0109710   4.4161640  38.7981240
  28.5315370   3.7010660  38.4322390  28.6578110   5.0547510  39.0981750
  32.5587550   5.8390040  54.1216310  32.9728570   5.9935120  54.9706730
  31.6238550   5.9645260  54.2842090  33.0309720   3.1786200  56.1255460
  33.6130490   2.4238520  56.0375940  33.2071490   3.7093640  55.3486940
  27.3202780   5.7910520  52.0912240  27.7390890   6.6343250  51.9188480
  26.4011410   5.9282560  51.8619020  29.6566680   3.5226700  53.4750080
  29.7762890   2.9267840  54.2144920  30.5160680   3.5596390  53.0551380
  31.9954580   4.0763890  52.0512590  31.4689800   4.6006510  51.4477730
  32.3385920   4.7091280  52.6822320  25.1710200  12.0963530  53.2069970
  24.6331290  12.8209590  52.8878670  25.4244160  11.6193870  52.4167310
  28.0272410  13.3314740  53.4656620  27.9531110  14.2349880  53.7728990
  27.1251250  13.0126640  53.4378690  28.5757740  12.4973250  41.0882980
  29.4708530  12.8358220  41.1101740  28.6075370  11.7752660  40.4607260
  22.2153900   7.8700300  39.3169980  22.6528770   8.4129970  39.9727560
  22.7001630   7.0447250  39.3266320  19.4299700  10.6589330  46.7690240
  19.7602710   9.7910390  46.5368880  19.8590700  10.8647850  47.5995200
  24.0261620   8.9898340  44.4292210  23.7257160   8.8663310  45.3296120
  23.9199110   8.1306930  44.0207940  19.9189910  11.5259920  49.5071870
  19.4820900  11.7060720  50.3396020  20.4867590  12.2834540  49.3653590
  35.5552090  11.0276920  53.7949180  34.9554080  11.0869480  53.0513100
  35.6845990  10.0881900  53.9246030  36.7953540   8.7694740  39.1318890
  35.9646500   8.8371390  39.6026120  36.9725370   9.6598860  38.8285750
  36.2510000   5.5142220  41.6353090  37.0128910   6.0838870  41.7412780
  36.2664370   4.9469420  42.4061400  19.7514340   4.0380150  45.8660750
  19.0963180   3.7691790  45.2220450  20.5892290   3.9284630  45.4162730
  37.2569970   6.3692320  46.4795020  37.6278800   5.5859640  46.0730990
  37.8971900   7.0581420  46.3012320  34.2403730   7.7528900  51.8925340
  33.4263570   8.1826060  52.1551130  34.6477930   8.3647310  51.2794390
  36.3029170   5.8076590  38.7925610  36.5778010   6.7155470  38.6644830
  36.1139910   5.7439120  39.7287600  36.1994510   3.7445580  43.7855040
  35.8238110   2.9773510  43.3536330  35.4697630   4.1268280  44.2729970
  20.7890270   4.4232720  50.4064090  21.1563310   4.3360120  51.2860110
  20.2201090   3.6599270  50.3070950  35.5894130   2.8917100  53.4194560
  35.3580220   2.6629850  52.5192510  35.8498680   3.8116650  53.3739450
  35.4745470   1.9703070  47.0862280  35.9982950   1.4765720  46.4552450
  36.0604890   2.1053430  47.8309850  35.6535190   2.0542940  50.6081830
  34.7037900   2.0206480  50.7226820  35.8348200   2.9643050  50.3731600
  34.2979780  12.5047500  45.4193610  34.8938850  12.1832070  44.7428030
  34.5557930  12.0319320  46.2106880  22.2042350   8.9365410  55.5684240
  22.1611980   8.5658320  56.4498700  22.3353360   9.8742980  55.7086060
  25.9048380  10.4925000  51.1693960  25.6639740  10.7599560  50.2824480
  26.8451020  10.6630730  51.2244820  37.1652540  12.5119380  51.9704600
  36.6710820  12.9088250  51.2531730  36.5565830  11.8868590  52.3641880
  22.0430380  11.8827660  52.6882020  21.4490700  11.7512360  53.4272060
  22.0354220  11.0465800  52.2224120  34.8491990  13.1542800  49.2491340
  34.3894960  13.9058610  48.8749360  34.2204450  12.4349270  49.1906140
  21.6742610   9.2486040  51.6390060  20.9476670   8.6291330  51.5716010
  21.7351760   9.6426650  50.7688140  25.2787710  11.4631040  48.4239470
  25.7952730  10.8518400  47.8987730  25.9285090  11.9659820  48.9150480
  28.0183210  12.3539530  49.2508450  28.3061020  12.0993830  48.3741460
  28.5306430  11.8016890  49.8414020  19.9572610  12.5660430  44.8486820
  19.7894650  11.9331110  45.5468710  19.0907120  12.7719830  44.4981010
  21.5635310  11.2593660  42.2936960  21.0382930  11.6401690  41.5898920
  21.4879890  11.8844430  43.0146670  28.0855570  13.2755630  56.6176650
  29.0122880  13.0399900  56.6612610  28.0706000  14.1027630  56.1362680
  36.3200630  12.8181200  43.6150900  36.4952820  12.1318940  42.9711820
  35.6222200  13.3428250  43.2227570  24.1628280  13.2076040  41.1686210
  24.8947100  12.9235320  40.6210100  24.4221950  12.9689320  42.0585590
  23.3243070   9.3240770  41.1732540  22.6951950   9.7925870  41.7218370
  23.4390900   8.4789990  41.6078730  34.6533130  12.5025490  56.4417690
  35.4458450  12.0074720  56.2343650  34.9466280  13.1815630  57.0493300
  30.7792790   3.3746430  27.3233740  30.6986840   2.4601040  27.0525450
  30.3657210   3.8713500  26.6173450  28.9110830   5.1525450  29.2043010
  28.1352930   4.6725890  29.4941580  29.5623760   4.4731100  29.0299170
  22.9276660   5.4645260  30.0818770  22.0961540   5.2093970  30.4815280
  23.5357640   5.5356030  30.8176690  32.9318260   9.5585640  27.9842140
  32.4699790   8.7872880  28.3129310  33.7443810   9.5851710  28.4894590
  22.9077920   9.4985350  30.2776790  23.2105960   8.6083090  30.0987010
  23.6521510  10.0555570  30.0499040  19.3001620   3.0252800  29.7500860
  19.8717730   2.2575000  29.7504500  19.3003160   3.3241560  28.8407470
  29.1581570  11.8443650  27.6046130  28.5393010  12.3001150  27.0340570
  30.0133350  11.9995110  27.2035830  28.3519820   7.8282640  29.2113170
  28.2828100   6.8872580  29.0502300  29.1139680   7.9184050  29.7835740
  30.0244920   6.7282890  24.9978040  29.4062190   7.1932340  24.4340760
  30.5368170   7.4210370  25.4147550  24.8876680   6.2558760  31.6761640
  24.5546060   6.8827680  32.3182710  25.0643360   6.7820640  30.8963310
  24.0995780   8.2239560  33.4910820  24.7169780   8.8990640  33.2095270
  23.2388900   8.6327540  33.3998320  19.3928120   7.4139420  22.3717670
  19.0156100   7.9026520  21.6402570  19.6501190   8.0864700  23.0024200
  35.0173370   9.6878970  31.4065460  34.3336890  10.3578080  31.3982130
  35.5567660   9.8859620  30.6410320  32.5532110  11.5323100  30.1210640
  32.5659270  11.1285390  29.2532900  32.0007330  12.3070390  30.0172070
  33.8477530   8.2539320  25.2100810  33.7373860   7.3113650  25.3350230
  33.8445780   8.6154960  26.0963570  31.9517550   6.4352940  31.4493250
  32.3686340   6.2213050  30.6146710  32.6757370   6.6925730  32.0201870
  29.3897810   3.8804640  24.5663300  28.4627090   3.8142020  24.7951770
  29.5422630   4.8184770  24.4518540  35.8979650   4.8340160  31.5409490
  35.0698280   4.9033250  31.0659620  36.4930130   5.4194470  31.0725320
  33.4195100   5.4424940  25.0698550  32.8007520   5.1044490  24.4224850
  33.4019550   4.7984700  25.7777740  24.9954450   4.4069380  27.3483030
  24.5911450   3.6946630  26.8528930  25.0817570   4.0622620  28.2371070
  25.4636150   8.0936940  29.5122240  25.1664440   7.4882410  28.8330020
  26.4135970   8.1314250  29.4011600  33.5521760  11.6668810  33.1745340
  33.0752320  12.4741000  32.9817950  32.8683550  11.0147140  33.3271550
  24.5554580   7.8318630  36.1630040  23.6583110   8.0558600  36.4103440
  24.5807450   7.9553570  35.2141440  31.5959800   4.6811750  22.0771300
  32.0353080   3.8434180  21.9309120  32.3088220   5.3141150  22.1635440
  23.3825800   4.7031950  34.7387410  23.2433570   5.5754750  35.1074810
  22.5007160   4.3604760  34.5935350  29.7055180   9.6207820  26.0452540
  30.1451090  10.3632150  25.6307930  29.6442070   9.8634390  26.9691500
  25.1806150  10.6453650  36.9472560  25.1521580  11.0496600  36.0800990
  25.0171120   9.7164010  36.7844160  21.6959080   3.3014360  24.8489680
  21.5756680   4.0276450  24.2370950  21.3859970   2.5317270  24.3717590
  37.1320970  11.4280750  38.2436730  37.6080690  11.9063640  38.9225810
  37.7528130  11.3598240  37.5182230  19.3344450   6.4729500  30.6558320
  19.4124870   6.6078270  29.7114040  19.9486130   5.7645390  30.8486440
  20.5792080   8.1729690  27.0664500  20.1720160   8.3144280  26.2118100
  21.4705090   7.8889850  26.8635710  36.5354220   8.6193600  35.4036740
  36.6617280   8.3805480  34.4853920  36.5775600   7.7878140  35.8758820
  30.3970960  12.3221600  33.9731550  30.9115630  12.2329610  34.7753980
  29.5540040  12.6681300  34.2659460  32.3725360  12.6076940  23.4015550
  32.2126500  12.3179880  24.2997380  32.2072070  11.8317070  22.8660780
  24.8513740  12.3875470  25.1787170  24.6756220  11.4711010  24.9654970
  23.9969480  12.7462760  25.4184970  32.0751490  10.1164500  21.9613550
  31.3816650  10.1141790  21.3015830  32.8174350   9.6923820  21.5307720
  31.6401420  11.7427210  26.0362040  32.0958370  10.9616590  26.3500660
  31.9793940  12.4534030  26.5803220  19.3903970   7.5143670  33.1952780
  19.5535010   7.0449030  32.3772150  19.8556420   7.0067230  33.8601620
  30.5446770   2.2328650  37.0644120  30.8700180   1.3992400  36.7246350
  31.3327100   2.7557170  37.2122450  23.9536960   1.7683000  25.9594600
  23.7277880   1.5520170  26.8641220  23.1729490   2.2011460  25.6140570
  31.1834720   1.7746370  24.5585250  30.5843610   2.4982170  24.3748870
  31.7314330   1.7123150  23.7761700  26.3936170   2.6668580  36.6254870
  26.2979770   1.7263310  36.4755270  27.2368150   2.8883650  36.2302940
  30.3754730   3.0015660  30.6839310  29.6435850   3.5102470  31.0329410
  29.9779070   2.1845640  30.3828090  25.8873770   2.9883080  21.4781860
  25.3190670   2.5401330  20.8517770  26.5962770   3.3475860  20.9447010
  20.9642950   6.8895100  35.3548590  20.5797740   6.2488770  35.9531550
  21.2755140   7.5931220  35.9243320  27.1140090   3.7371640  30.8357210
  27.4810220   3.2630210  31.5818550  26.9245150   4.6113210  31.1765550
  24.9039460   2.7780280  33.1541420  24.5996530   3.6572260  33.3791780
  25.8585920   2.8380070  33.1898860  23.4321250   6.9841270  23.7508270
  22.6583510   6.4438890  23.5906990  24.1615880   6.4647880  23.4126030
  34.1909230   5.9806630  29.5434660  34.9108350   6.4761920  29.1530770
  33.9891050   5.3024520  28.8988530  29.5728030   6.0515690  35.4303660
  29.5065340   5.1311360  35.1761250  28.9433170   6.1491130  36.1448300
  23.4758650   6.6521650  27.3887080  23.9937320   5.8489910  27.3343970
  23.0242670   6.5900790  28.2303910  28.3628150   7.9187930  22.6614380
  28.7043850   8.6630160  22.1657700  27.5340860   8.2319050  23.0239210
  20.9603190   3.6183020  34.3012780  20.6018130   4.2836870  34.8886120
  20.6657750   2.7866570  34.6725400  24.1616310   4.0767260  37.1852330
  23.8616450   4.2224440  36.2880150  24.9327550   3.5172550  37.0925720
  29.5044760   8.8736260  35.1807460  29.5189300   7.9417220  34.9626370
  28.7969860   8.9596020  35.8197230  34.6381830   3.0576080  21.4506070
  34.5545550   3.4890300  20.6002510  35.3576020   3.5174430  21.8832890
  35.7155970   5.5143600  34.5276040  34.9904160   6.1072380  34.3305430
  36.2431430   5.5067140  33.7289410  35.6669080   9.9118340  24.1788200
  35.0245240   9.2573960  24.4531920  35.2799740  10.3173430  23.4028870
  31.2455560   7.2403770  28.0259890  31.5979380   6.6431900  27.3661260
  30.3617890   6.9148000  28.1968140  27.3318840   8.0001460  25.4330300
  28.0189970   8.5470670  25.8137890  26.5451260   8.5442190  25.4679910
  19.4711240   3.6174280  20.9247380  20.3406090   3.8999080  21.2083300
  18.9801560   4.4310150  20.8096190  26.6346050   5.0047490  25.0455660
  27.0908830   5.8152740  25.2715850  26.2834260   4.6870630  25.8774150
  28.9378660  10.5153830  32.2747960  29.5820880  10.7213210  32.9521380
  29.3008100   9.7542230  31.8218810  30.2110740   8.5186180  30.9925410
  30.8532970   7.8179340  31.1057580  30.7360090   9.2984620  30.8122300
  34.0566460   8.8034800  20.7164550  33.8304040   8.0865240  21.3089190
  33.6662660   8.5547240  19.8786300  31.9848360   9.3181080  34.1961470
  32.3204600   9.9047770  34.8739390  31.0648700   9.1873790  34.4259260
  19.8382490  12.8301660  21.4909010  20.1980130  13.4291000  20.8366280
  19.6974830  13.3761550  22.2644040  33.6382710   6.7206740  22.3778710
  33.3504410   7.1819430  23.1656590  34.4334880   6.2604510  22.6462930
  19.8224350  11.0956520  35.9651410  19.9315470  10.1551260  35.8246800
  19.1704910  11.3611270  35.3165140  27.8136940   9.3672410  37.3649530
  27.4933810   8.6481650  37.9095220  27.1395300  10.0427480  37.4385590
  25.8551110  10.2132860  22.3082680  25.8461210  10.9462550  21.6927190
  24.9349470   9.9664440  22.4009640  21.4557750   5.4347750  23.0529440
  20.8485700   6.1746650  23.0624740  21.9307100   5.5247110  22.2267640
  28.8410710  10.2761100  20.9707870  28.9422690  10.0725090  20.0409850
  27.9412450  10.0219380  21.1755650  27.9892530   2.2538160  32.9524300
  28.4877780   2.7283980  33.6176150  28.1315480   1.3301680  33.1594330
  27.4828820  12.7947420  25.6655540  27.7370320  12.7568810  24.7434910
  26.5341300  12.6680750  25.6583790  33.4881400   3.7139300  27.2414050
  32.5471540   3.7289530  27.4161740  33.8025470   2.9275260  27.6874350
  23.4663040   5.3958900  20.8018010  24.2326310   5.2840260  21.3643440
  23.5437730   4.6996870  20.1494780  22.1609800   2.8283970  21.4850900
  22.2413390   1.8811480  21.5968300  23.0529550   3.1590850  21.5911560
  35.4906980  10.8848150  28.9168310  35.6154400  11.7079320  29.3892120
  36.3572540  10.6738880  28.5692460  22.9624510  12.9779360  28.5885440
  23.6986990  12.4294820  28.8594010  23.3465430  13.8435370  28.4491430
  19.8469990   9.0452930  24.4626950  18.9209770   9.2874070  24.4532360
  20.3126420   9.8727190  24.3411700  21.9682790  12.1625430  37.7771020
  22.7695520  12.4837480  38.1906420  21.4534610  11.8021010  38.4990930
  26.0726820  12.1509670  20.4111010  26.8655430  12.4398500  19.9592800
  25.5531170  11.7201840  19.7323490  30.8047420   8.2705300  37.7246430
  30.1985580   8.2936900  36.9842180  30.5001530   7.5388340  38.2613680
  32.2347790  11.9985590  36.3355840  33.1869540  11.9143610  36.2856080
  32.0876010  12.6627300  37.0089630  35.1256990  11.3779800  21.8347750
  34.8398500  10.9644940  21.0201930  34.9276540  12.3067510  21.7148270
  19.6880600   4.6498890  36.7207070  20.1919620   4.0706170  37.2923300
  18.9488020   4.9339120  37.2583440  26.5904220   7.3713080  20.2753360
  26.4854860   6.7565430  21.0014740  26.4228440   6.8478970  19.4916370
  26.7418540   6.0569880  36.2542590  25.9764210   6.6254880  36.1697260
  26.9234500   5.7646090  35.3610820  29.8306950   6.4333110  20.8795350
  29.2817050   6.8802410  21.5238090  30.4526210   5.9282360  21.4033020
  33.8841890   7.7875210  36.8117610  34.6251360   8.1250970  36.3085070
  33.1214570   7.9567270  36.2587380  21.7203680   2.7928480  37.6157140
  21.7609020   2.4942350  38.5242370  22.5749180   3.1936090  37.4564660
  25.4982070   5.3924030  22.7760650  25.9198490   5.2263900  23.6192040
  25.6232910   4.5824260  22.2815790  28.0109710   4.4161640  20.0237750
  28.5315370   3.7010660  19.6578900  28.6578110   5.0547510  20.3238260
  32.5587550   5.8390040  35.3472820  32.9728570   5.9935120  36.1963240
  31.6238550   5.9645260  35.5098600  33.0309720   3.1786200  37.3511970
  33.6130490   2.4238520  37.2632450  33.2071490   3.7093640  36.5743450
  27.3202780   5.7910520  33.3168750  27.7390890   6.6343250  33.1444990
  26.4011410   5.9282560  33.0875530  29.6566680   3.5226700  34.7006590
  29.7762890   2.9267840  35.4401430  30.5160680   3.5596390  34.2807890
  31.9954580   4.0763890  33.2769100  31.4689800   4.6006510  32.6734240
  32.3385920   4.7091280  33.9078830  25.1710200  12.0963530  34.4326480
  24.6331290  12.8209590  34.1135180  25.4244160  11.6193870  33.6423820
  28.0272410  13.3314740  34.6913130  27.9531110  14.2349880  34.9985500
  27.1251250  13.0126640  34.6635200  28.5757740  12.4973250  22.3139490
  29.4708530  12.8358220  22.3358250  28.6075370  11.7752660  21.6863770
  22.2153900   7.8700300  20.5426490  22.6528770   8.4129970  21.1984070
  22.7001630   7.0447250  20.5522830  19.4299700  10.6589330  27.9946750
  19.7602710   9.7910390  27.7625390  19.8590700  10.8647850  28.8251710
  24.0261620   8.9898340  25.6548720  23.7257160   8.8663310  26.5552630
  23.9199110   8.1306930  25.2464450  19.9189910  11.5259920  30.7328380
  19.4820900  11.7060720  31.5652530  20.4867590  12.2834540  30.5910100
  35.5552090  11.0276920  35.0205690  34.9554080  11.0869480  34.2769610
  35.6845990  10.0881900  35.1502540  36.7953540   8.7694740  20.3575400
  35.9646500   8.8371390  20.8282630  36.9725370   9.6598860  20.0542260
  36.2510000   5.5142220  22.8609600  37.0128910   6.0838870  22.9669290
  36.2664370   4.9469420  23.6317910  19.7514340   4.0380150  27.0917260
  19.0963180   3.7691790  26.4476960  20.5892290   3.9284630  26.6419240
  37.2569970   6.3692320  27.7051530  37.6278800   5.5859640  27.2987500
  37.8971900   7.0581420  27.5268830  34.2403730   7.7528900  33.1181850
  33.4263570   8.1826060  33.3807640  34.6477930   8.3647310  32.5050900
  36.3029170   5.8076590  20.0182120  36.5778010   6.7155470  19.8901340
  36.1139910   5.7439120  20.9544110  36.1994510   3.7445580  25.0111550
  35.8238110   2.9773510  24.5792840  35.4697630   4.1268280  25.4986480
  20.7890270   4.4232720  31.6320600  21.1563310   4.3360120  32.5116620
  20.2201090   3.6599270  31.5327460  35.5894130   2.8917100  34.6451070
  35.3580220   2.6629850  33.7449020  35.8498680   3.8116650  34.5995960
  35.4745470   1.9703070  28.3118790  35.9982950   1.4765720  27.6808960
  36.0604890   2.1053430  29.0566360  35.6535190   2.0542940  31.8338340
  34.7037900   2.0206480  31.9483330  35.8348200   2.9643050  31.5988110
  34.2979780  12.5047500  26.6450120  34.8938850  12.1832070  25.9684540
  34.5557930  12.0319320  27.4363390  22.2042350   8.9365410  36.7940750
  22.1611980   8.5658320  37.6755210  22.3353360   9.8742980  36.9342570
  25.9048380  10.4925000  32.3950470  25.6639740  10.7599560  31.5080990
  26.8451020  10.6630730  32.4501330  37.1652540  12.5119380  33.1961110
  36.6710820  12.9088250  32.4788240  36.5565830  11.8868590  33.5898390
  22.0430380  11.8827660  33.9138530  21.4490700  11.7512360  34.6528570
  22.0354220  11.0465800  33.4480630  34.8491990  13.1542800  30.4747850
  34.3894960  13.9058610  30.1005870  34.2204450  12.4349270  30.4162650
  21.6742610   9.2486040  32.8646570  20.9476670   8.6291330  32.7972520
  21.7351760   9.6426650  31.9944650  25.2787710  11.4631040  29.6495980
  25.7952730  10.8518400  29.1244240  25.9285090  11.9659820  30.1406990
  28.0183210  12.3539530  30.4764960  28.3061020  12.0993830  29.5997970
  28.5306430  11.8016890  31.0670530  19.9572610  12.5660430  26.0743330
  19.7894650  11.9331110  26.7725220  19.0907120  12.7719830  25.7237520
  21.5635310  11.2593660  23.5193470  21.0382930  11.6401690  22.8155430
  21.4879890  11.8844430  24.2403180  28.0855570  13.2755630  37.8433160
  29.0122880  13.0399900  37.8869120  28.0706000  14.1027630  37.3619190
  36.3200630  12.8181200  24.8407410  36.4952820  12.1318940  24.1968330
  35.6222200  13.3428250  24.4484080  24.1628280  13.2076040  22.3942720
  24.8947100  12.9235320  21.8466610  24.4221950  12.9689320  23.2842100
  23.3243070   9.3240770  22.3989050  22.6951950   9.7925870  22.9474880
  23.4390900   8.4789990  22.8335240  34.6533130  12.5025490  37.6674200
  35.4458450  12.0074720  37.4600160  34.9466280  13.1815630  38.2749810
  30.7792790   3.3746430   8.5490250  30.6986840   2.4601040   8.2781960
  30.3657210   3.8713500   7.8429960  28.9110830   5.1525450  10.4299520
  28.1352930   4.6725890  10.7198090  29.5623760   4.4731100  10.2555680
  22.9276660   5.4645260  11.3075280  22.0961540   5.2093970  11.7071790
  23.5357640   5.5356030  12.0433200  32.9318260   9.5585640   9.2098650
  32.4699790   8.7872880   9.5385820  33.7443810   9.5851710   9.7151100
  22.9077920   9.4985350  11.5033300  23.2105960   8.6083090  11.3243520
  23.6521510  10.0555570  11.2755550  19.3001620   3.0252800  10.9757370
  19.8717730   2.2575000  10.9761010  19.3003160   3.3241560  10.0663980
  29.1581570  11.8443650   8.8302640  28.5393010  12.3001150   8.2597080
  30.0133350  11.9995110   8.4292340  28.3519820   7.8282640  10.4369680
  28.2828100   6.8872580  10.2758810  29.1139680   7.9184050  11.0092250
  30.0244920   6.7282890   6.2234550  29.4062190   7.1932340   5.6597270
  30.5368170   7.4210370   6.6404060  24.8876680   6.2558760  12.9018150
  24.5546060   6.8827680  13.5439220  25.0643360   6.7820640  12.1219820
  24.0995780   8.2239560  14.7167330  24.7169780   8.8990640  14.4351780
  23.2388900   8.6327540  14.6254830  19.3928120   7.4139420   3.5974180
  19.0156100   7.9026520   2.8659080  19.6501190   8.0864700   4.2280710
  35.0173370   9.6878970  12.6321970  34.3336890  10.3578080  12.6238640
  35.5567660   9.8859620  11.8666830  32.5532110  11.5323100  11.3467150
  32.5659270  11.1285390  10.4789410  32.0007330  12.3070390  11.2428580
  33.8477530   8.2539320   6.4357320  33.7373860   7.3113650   6.5606740
  33.8445780   8.6154960   7.3220080  31.9517550   6.4352940  12.6749760
  32.3686340   6.2213050  11.8403220  32.6757370   6.6925730  13.2458380
  29.3897810   3.8804640   5.7919810  28.4627090   3.8142020   6.0208280
  29.5422630   4.8184770   5.6775050  35.8979650   4.8340160  12.7666000
  35.0698280   4.9033250  12.2916130  36.4930130   5.4194470  12.2981830
  33.4195100   5.4424940   6.2955060  32.8007520   5.1044490   5.6481360
  33.4019550   4.7984700   7.0034250  24.9954450   4.4069380   8.5739540
  24.5911450   3.6946630   8.0785440  25.0817570   4.0622620   9.4627580
  25.4636150   8.0936940  10.7378750  25.1664440   7.4882410  10.0586530
  26.4135970   8.1314250  10.6268110  33.5521760  11.6668810  14.4001850
  33.0752320  12.4741000  14.2074460  32.8683550  11.0147140  14.5528060
  24.5554580   7.8318630  17.3886550  23.6583110   8.0558600  17.6359950
  24.5807450   7.9553570  16.4397950  31.5959800   4.6811750   3.3027810
  32.0353080   3.8434180   3.1565630  32.3088220   5.3141150   3.3891950
  23.3825800   4.7031950  15.9643920  23.2433570   5.5754750  16.3331320
  22.5007160   4.3604760  15.8191860  29.7055180   9.6207820   7.2709050
  30.1451090  10.3632150   6.8564440  29.6442070   9.8634390   8.1948010
  25.1806150  10.6453650  18.1729070  25.1521580  11.0496600  17.3057500
  25.0171120   9.7164010  18.0100670  21.6959080   3.3014360   6.0746190
  21.5756680   4.0276450   5.4627460  21.3859970   2.5317270   5.5974100
  37.1320970  11.4280750  19.4693240  37.6080690  11.9063640  20.1482320
  37.7528130  11.3598240  18.7438740  19.3344450   6.4729500  11.8814830
  19.4124870   6.6078270  10.9370550  19.9486130   5.7645390  12.0742950
  20.5792080   8.1729690   8.2921010  20.1720160   8.3144280   7.4374610
  21.4705090   7.8889850   8.0892220  36.5354220   8.6193600  16.6293250
  36.6617280   8.3805480  15.7110430  36.5775600   7.7878140  17.1015330
  30.3970960  12.3221600  15.1988060  30.9115630  12.2329610  16.0010490
  29.5540040  12.6681300  15.4915970  32.3725360  12.6076940   4.6272060
  32.2126500  12.3179880   5.5253890  32.2072070  11.8317070   4.0917290
  24.8513740  12.3875470   6.4043680  24.6756220  11.4711010   6.1911480
  23.9969480  12.7462760   6.6441480  32.0751490  10.1164500   3.1870060
  31.3816650  10.1141790   2.5272340  32.8174350   9.6923820   2.7564230
  31.6401420  11.7427210   7.2618550  32.0958370  10.9616590   7.5757170
  31.9793940  12.4534030   7.8059730  19.3903970   7.5143670  14.4209290
  19.5535010   7.0449030  13.6028660  19.8556420   7.0067230  15.0858130
  30.5446770   2.2328650  18.2900630  30.8700180   1.3992400  17.9502860
  31.3327100   2.7557170  18.4378960  23.9536960   1.7683000   7.1851110
  23.7277880   1.5520170   8.0897730  23.1729490   2.2011460   6.8397080
  31.1834720   1.7746370   5.7841760  30.5843610   2.4982170   5.6005380
  31.7314330   1.7123150   5.0018210  26.3936170   2.6668580  17.8511380
  26.2979770   1.7263310  17.7011780  27.2368150   2.8883650  17.4559450
  30.3754730   3.0015660  11.9095820  29.6435850   3.5102470  12.2585920
  29.9779070   2.1845640  11.6084600  25.8873770   2.9883080   2.7038370
  25.3190670   2.5401330   2.0774280  26.5962770   3.3475860   2.1703520
  20.9642950   6.8895100  16.5805100  20.5797740   6.2488770  17.1788060
  21.2755140   7.5931220  17.1499830  27.1140090   3.7371640  12.0613720
  27.4810220   3.2630210  12.8075060  26.9245150   4.6113210  12.4022060
  24.9039460   2.7780280  14.3797930  24.5996530   3.6572260  14.6048290
  25.8585920   2.8380070  14.4155370  23.4321250   6.9841270   4.9764780
  22.6583510   6.4438890   4.8163500  24.1615880   6.4647880   4.6382540
  34.1909230   5.9806630  10.7691170  34.9108350   6.4761920  10.3787280
  33.9891050   5.3024520  10.1245040  29.5728030   6.0515690  16.6560170
  29.5065340   5.1311360  16.4017760  28.9433170   6.1491130  17.3704810
  23.4758650   6.6521650   8.6143590  23.9937320   5.8489910   8.5600480
  23.0242670   6.5900790   9.4560420  28.3628150   7.9187930   3.8870890
  28.7043850   8.6630160   3.3914210  27.5340860   8.2319050   4.2495720
  20.9603190   3.6183020  15.5269290  20.6018130   4.2836870  16.1142630
  20.6657750   2.7866570  15.8981910  24.1616310   4.0767260  18.4108840
  23.8616450   4.2224440  17.5136660  24.9327550   3.5172550  18.3182230
  29.5044760   8.8736260  16.4063970  29.5189300   7.9417220  16.1882880
  28.7969860   8.9596020  17.0453740  34.6381830   3.0576080   2.6762580
  34.5545550   3.4890300   1.8259020  35.3576020   3.5174430   3.1089400
  35.7155970   5.5143600  15.7532550  34.9904160   6.1072380  15.5561940
  36.2431430   5.5067140  14.9545920  35.6669080   9.9118340   5.4044710
  35.0245240   9.2573960   5.6788430  35.2799740  10.3173430   4.6285380
  31.2455560   7.2403770   9.2516400  31.5979380   6.6431900   8.5917770
  30.3617890   6.9148000   9.4224650  27.3318840   8.0001460   6.6586810
  28.0189970   8.5470670   7.0394400  26.5451260   8.5442190   6.6936420
  19.4711240   3.6174280   2.1503890  20.3406090   3.8999080   2.4339810
  18.9801560   4.4310150   2.0352700  26.6346050   5.0047490   6.2712170
  27.0908830   5.8152740   6.4972360  26.2834260   4.6870630   7.1030660
  28.9378660  10.5153830  13.5004470  29.5820880  10.7213210  14.1777890
  29.3008100   9.7542230  13.0475320  30.2110740   8.5186180  12.2181920
  30.8532970   7.8179340  12.3314090  30.7360090   9.2984620  12.0378810
  31.9848360   9.3181080  15.4217980  32.3204600   9.9047770  16.0995900
  31.0648700   9.1873790  15.6515770  19.8382490  12.8301660   2.7165520
  20.1980130  13.4291000   2.0622790  19.6974830  13.3761550   3.4900550
  33.6382710   6.7206740   3.6035220  33.3504410   7.1819430   4.3913100
  34.4334880   6.2604510   3.8719440  19.8224350  11.0956520  17.1907920
  19.9315470  10.1551260  17.0503310  19.1704910  11.3611270  16.5421650
  27.8136940   9.3672410  18.5906040  27.4933810   8.6481650  19.1351730
  27.1395300  10.0427480  18.6642100  25.8551110  10.2132860   3.5339190
  25.8461210  10.9462550   2.9183700  24.9349470   9.9664440   3.6266150
  21.4557750   5.4347750   4.2785950  20.8485700   6.1746650   4.2881250
  21.9307100   5.5247110   3.4524150  27.9892530   2.2538160  14.1780810
  28.4877780   2.7283980  14.8432660  28.1315480   1.3301680  14.3850840
  27.4828820  12.7947420   6.8912050  27.7370320  12.7568810   5.9691420
  26.5341300  12.6680750   6.8840300  33.4881400   3.7139300   8.4670560
  32.5471540   3.7289530   8.6418250  33.8025470   2.9275260   8.9130860
  22.1609800   2.8283970   2.7107410  22.2413390   1.8811480   2.8224810
  23.0529550   3.1590850   2.8168070  35.4906980  10.8848150  10.1424820
  35.6154400  11.7079320  10.6148630  36.3572540  10.6738880   9.7948970
  22.9624510  12.9779360   9.8141950  23.6986990  12.4294820  10.0850520
  23.3465430  13.8435370   9.6747940  19.8469990   9.0452930   5.6883460
  18.9209770   9.2874070   5.6788870  20.3126420   9.8727190   5.5668210
  21.9682790  12.1625430  19.0027530  22.7695520  12.4837480  19.4162930
  21.4534610  11.8021010  19.7247440  30.8047420   8.2705300  18.9502940
  30.1985580   8.2936900  18.2098690  30.5001530   7.5388340  19.4870190
  32.2347790  11.9985590  17.5612350  33.1869540  11.9143610  17.5112590
  32.0876010  12.6627300  18.2346140  35.1256990  11.3779800   3.0604260
  34.8398500  10.9644940   2.2458440  34.9276540  12.3067510   2.9404780
  19.6880600   4.6498890  17.9463580  20.1919620   4.0706170  18.5179810
  18.9488020   4.9339120  18.4839950  26.7418540   6.0569880  17.4799100
  25.9764210   6.6254880  17.3953770  26.9234500   5.7646090  16.5867330
  29.8306950   6.4333110   2.1051860  29.2817050   6.8802410   2.7494600
  30.4526210   5.9282360   2.6289530  33.8841890   7.7875210  18.0374120
  34.6251360   8.1250970  17.5341580  33.1214570   7.9567270  17.4843890
  21.7203680   2.7928480  18.8413650  21.7609020   2.4942350  19.7498880
  22.5749180   3.1936090  18.6821170  25.4982070   5.3924030   4.0017160
  25.9198490   5.2263900   4.8448550  25.6232910   4.5824260   3.5072300
  32.5587550   5.8390040  16.5729330  32.9728570   5.9935120  17.4219750
  31.6238550   5.9645260  16.7355110  33.0309720   3.1786200  18.5768480
  33.6130490   2.4238520  18.4888960  33.2071490   3.7093640  17.7999960
  27.3202780   5.7910520  14.5425260  27.7390890   6.6343250  14.3701500
  26.4011410   5.9282560  14.3132040  29.6566680   3.5226700  15.9263100
  29.7762890   2.9267840  16.6657940  30.5160680   3.5596390  15.5064400
  31.9954580   4.0763890  14.5025610  31.4689800   4.6006510  13.8990750
  32.3385920   4.7091280  15.1335340  25.1710200  12.0963530  15.6582990
  24.6331290  12.8209590  15.3391690  25.4244160  11.6193870  14.8680330
  28.0272410  13.3314740  15.9169640  27.9531110  14.2349880  16.2242010
  27.1251250  13.0126640  15.8891710  28.5757740  12.4973250   3.5396000
  29.4708530  12.8358220   3.5614760  28.6075370  11.7752660   2.9120280
  22.2153900   7.8700300   1.7683000  22.6528770   8.4129970   2.4240580
  22.7001630   7.0447250   1.7779340  19.4299700  10.6589330   9.2203260
  19.7602710   9.7910390   8.9881900  19.8590700  10.8647850  10.0508220
  24.0261620   8.9898340   6.8805230  23.7257160   8.8663310   7.7809140
  23.9199110   8.1306930   6.4720960  19.9189910  11.5259920  11.9584890
  19.4820900  11.7060720  12.7909040  20.4867590  12.2834540  11.8166610
  35.5552090  11.0276920  16.2462200  34.9554080  11.0869480  15.5026120
  35.6845990  10.0881900  16.3759050  36.2510000   5.5142220   4.0866110
  37.0128910   6.0838870   4.1925800  36.2664370   4.9469420   4.8574420
  19.7514340   4.0380150   8.3173770  19.0963180   3.7691790   7.6733470
  20.5892290   3.9284630   7.8675750  37.2569970   6.3692320   8.9308040
  37.6278800   5.5859640   8.5244010  37.8971900   7.0581420   8.7525340
  34.2403730   7.7528900  14.3438360  33.4263570   8.1826060  14.6064150
  34.6477930   8.3647310  13.7307410  36.1994510   3.7445580   6.2368060
  35.8238110   2.9773510   5.8049350  35.4697630   4.1268280   6.7242990
  20.7890270   4.4232720  12.8577110  21.1563310   4.3360120  13.7373130
  20.2201090   3.6599270  12.7583970  35.5894130   2.8917100  15.8707580
  35.3580220   2.6629850  14.9705530  35.8498680   3.8116650  15.8252470
  35.4745470   1.9703070   9.5375300  35.9982950   1.4765720   8.9065470
  36.0604890   2.1053430  10.2822870  35.6535190   2.0542940  13.0594850
  34.7037900   2.0206480  13.1739840  35.8348200   2.9643050  12.8244620
  34.2979780  12.5047500   7.8706630  34.8938850  12.1832070   7.1941050
  34.5557930  12.0319320   8.6619900  22.2042350   8.9365410  18.0197260
  22.1611980   8.5658320  18.9011720  22.3353360   9.8742980  18.1599080
  25.9048380  10.4925000  13.6206980  25.6639740  10.7599560  12.7337500
  26.8451020  10.6630730  13.6757840  37.1652540  12.5119380  14.4217620
  36.6710820  12.9088250  13.7044750  36.5565830  11.8868590  14.8154900
  22.0430380  11.8827660  15.1395040  21.4490700  11.7512360  15.8785080
  22.0354220  11.0465800  14.6737140  34.8491990  13.1542800  11.7004360
  34.3894960  13.9058610  11.3262380  34.2204450  12.4349270  11.6419160
  21.6742610   9.2486040  14.0903080  20.9476670   8.6291330  14.0229030
  21.7351760   9.6426650  13.2201160  25.2787710  11.4631040  10.8752490
  25.7952730  10.8518400  10.3500750  25.9285090  11.9659820  11.3663500
  28.0183210  12.3539530  11.7021470  28.3061020  12.0993830  10.8254480
  28.5306430  11.8016890  12.2927040  19.9572610  12.5660430   7.2999840
  19.7894650  11.9331110   7.9981730  19.0907120  12.7719830   6.9494030
  21.5635310  11.2593660   4.7449980  21.0382930  11.6401690   4.0411940
  21.4879890  11.8844430   5.4659690  28.0855570  13.2755630  19.0689670
  29.0122880  13.0399900  19.1125630  28.0706000  14.1027630  18.5875700
  36.3200630  12.8181200   6.0663920  36.4952820  12.1318940   5.4224840
  35.6222200  13.3428250   5.6740590  24.1628280  13.2076040   3.6199230
  24.8947100  12.9235320   3.0723120  24.4221950  12.9689320   4.5098610
  23.3243070   9.3240770   3.6245560  22.6951950   9.7925870   4.1731390
  23.4390900   8.4789990   4.0591750  34.6533130  12.5025490  18.8930710
  35.4458450  12.0074720  18.6856670  34.9466280  13.1815630  19.5006320
  12.0049300  97.2463880  64.8720720  11.9243350  96.3318490  64.6012430
  11.5913720  97.7430950  64.1660430  10.1367340  99.0242900  66.7529990
   9.3609440  98.5443340  67.0428560  10.7880270  98.3448550  66.5786150
   4.1533170  99.3362710  67.6305750   3.3218050  99.0811420  68.0302260
   4.7614150  99.4073480  68.3663670   2.5625120  94.2964600  61.4148140
   1.6741820  94.6380570  61.3128020   2.8466310  94.0964920  60.5228970
   1.7683000  92.3054610  69.0856770   1.5885840  91.4080360  69.3659530
   1.3663080  92.8526480  69.7603720  10.6081500  94.5070470  66.9869080
  10.9846320  93.6342350  66.8742750  10.5101010  94.8429170  66.0959520
   4.7386510  92.8796100  62.4486520   4.8453260  93.7799830  62.7555280
   3.8278870  92.8314070  62.1581170  14.3905620  92.0020910  63.9197420
  15.2115240  91.5117480  63.9622900  14.4239700  92.5918570  64.6729260
   2.3869670  94.8015110  67.6939110   3.0679780  95.0653480  68.3126510
   2.0717720  93.9615980  68.0277120   6.5794240  95.8482470  66.7811700
   7.0872460  96.3463440  67.4216720   7.1107480  95.0717670  66.6051060
  18.6805170  94.0187660  70.4841050  17.9757340  94.4069370  69.9656160
  18.9463090  94.7137950  71.0861980   4.8630340  90.4881030  71.0475120
   4.8648780  91.0053420  70.2421020   4.0334650  90.0111210  71.0245050
   6.1133190 100.1276210  69.2248620   5.7802570 100.7545130  69.8669690
   6.2899870 100.6538090  68.4450290  14.6267100  93.9421290  66.6924960
  13.9222670  94.2306180  67.2728070  14.9879260  94.7521400  66.3324520
   4.5445670  92.1990990  69.0545570   4.8862480  93.0433040  68.7599440
   3.6061480  92.3474730  69.1710910  17.6954020  93.3876080  67.0834170
  16.7478930  93.4215060  67.2149600  18.0204010  94.2015030  67.4683530
   8.2273560  89.6873260  65.3790160   8.5348540  89.1320150  64.6625660
   7.2974260  89.8217720  65.1963150  13.1774060 100.3070390  68.9980230
  13.5942850 100.0930500  68.1633690  13.9013880 100.5643180  69.5688850
  10.6154320  97.7522090  62.1150280   9.6883600  97.6859470  62.3438750
  10.7679140  98.6902220  62.0005520  10.6023400  94.0239090  59.1117440
   9.6627070  94.1853050  59.1969900  10.9206660  94.7424770  58.5653430
  17.1236160  98.7057610  69.0896470  16.2954790  98.7750700  68.6146600
  17.7186640  99.2911920  68.6212300  14.6451610  99.3142390  62.6185530
  14.0264030  98.9761940  61.9711830  14.6276060  98.6702150  63.3264720
  14.0878170  95.4926930  70.0351340  13.6749350  96.3180640  70.2891330
  13.3554120  94.9071970  69.8427700   6.2210960  98.2786830  64.8970010
   5.8167960  97.5664080  64.4015910   6.3074080  97.9340070  65.7858050
   4.9339580  95.0530040  68.6769050   5.4854170  95.1625380  67.9022300
   5.4483090  95.4267640  69.3924280  12.8216310  98.5529200  59.6258280
  13.2609590  97.7151630  59.4796100  13.5344730  99.1858600  59.7122420
   4.6082310  98.5749400  72.2874390   4.4690080  99.4472200  72.6561790
   3.7263670  98.2322210  72.1422330  16.4033450  89.8072010  57.9399320
  16.0906110  89.8998840  58.8398390  17.1645920  90.3853040  57.8896750
   2.9215590  97.1731810  62.3976660   2.8013190  97.8993900  61.7857930
   2.6116480  96.4034720  61.9204570  17.6134740  94.5443510  73.9173460
  16.9979010  95.0523180  73.3888920  17.2931160  93.6441840  73.8599400
   5.3879250  90.5166880  65.7800330   4.9447400  91.2976420  65.4484850
   5.9464240  90.8396770  66.4871270   9.6749060  93.3835400  71.3835650
   9.2128430  93.5918420  72.1955590   9.2727170  92.5694750  71.0806320
  14.6753570  94.6044350  72.5132310  13.8247160  94.3050100  72.8341380
  14.5155360  94.8486360  71.6016130  11.7703280  96.1046100  74.6131100
  12.0956690  95.2709850  74.2733330  12.5583610  96.6274620  74.7609430
   8.5038070  90.1377580  60.6606160   7.8792250  90.1337450  61.3859470
   8.4168190  89.2708540  60.2642130   7.4255150  91.0614210  67.6389930
   7.7227480  91.9677040  67.5581950   7.9740710  90.5732990  67.0249500
   5.1793470  95.6400450  63.5081580   4.9534390  95.4237620  64.4128200
   4.3986000  96.0728910  63.1627550  12.4091230  95.6463820  62.1072230
  11.8100120  96.3699620  61.9235850  12.9570840  95.5840600  61.3248680
   7.6192680  96.5386030  74.1741850   7.5236280  95.5980760  74.0242250
   8.4624660  96.7601100  73.7789920  11.0156100  94.2827360  64.1375510
  11.4085670  94.5999560  63.3244200  11.3772950  93.4039240  64.2520030
   2.7503220  92.9499700  72.3275630   2.3566610  93.7974910  72.5348410
   2.0621620  92.3126070  72.5184270  11.6011240  96.8733110  68.2326290
  10.8692360  97.3819920  68.5816390  11.2035580  96.0563090  67.9315070
   8.0388630  93.5487310  66.6378780   8.0424690  93.1077260  65.7883320
   8.9339750  93.8704640  66.7450600   3.8891010  93.4313800  65.5972990
   3.5491060  93.9089030  66.3540040   3.1268330  92.9778920  65.2374090
   8.1008780  94.5499390  59.6285540   8.2221600  94.5085870  60.5771360
   7.7157290  95.4123540  59.4732270  12.0637150  92.3266790  67.6449230
  12.0809890  92.7775440  68.4891080  11.8152730  91.4272430  67.8582670
   7.1130280  96.8600530  59.0268840   6.5447180  96.4118780  58.4004750
   7.8219280  97.2193310  58.4933990  15.4907900  89.7398970  73.4835610
  15.8153670  89.0088630  74.0093590  15.5264410  89.4212610  72.5816600
   8.3396600  97.6089090  68.3844190   8.7066730  97.1347660  69.1305530
   8.1501660  98.4830660  68.7252530   6.1295970  96.6497730  70.7028400
   5.8253040  97.5289710  70.9278760   7.0842430  96.7097520  70.7385840
   4.6577760 100.8558720  61.2995250   3.8840020 100.3156340  61.1393970
   5.3872390 100.3365330  60.9613010  15.4165740  99.8524080  67.0921640
  16.1364860 100.3479370  66.7017750  15.2147560  99.1741970  66.4475510
  10.8775680  91.2462040  61.2351030  10.0640290  90.7475210  61.1596340
  10.6837630  92.0860290  60.8187380  10.7984540  99.9233140  72.9790640
  10.7321850  99.0028810  72.7248230  10.1689680 100.0208580  73.6935280
  13.5924070  95.6181690  59.5313190  14.4803690  95.9298920  59.3564530
  13.5629160  94.7453940  59.1393770   4.7015160 100.5239100  64.9374060
   5.2193830  99.7207360  64.8830950   4.2499180 100.4618240  65.7790890
   2.1859700  97.4900470  71.8499760   1.8274640  98.1554320  72.4373100
   1.8914260  96.6584020  72.2212380   5.3872820  97.9484710  74.7339310
   5.0872960  98.0941890  73.8367130   6.1584060  97.3890000  74.6412700
  15.8638340  96.9293530  58.9993050  15.7802060  97.3607750  58.1489490
  16.5832530  97.3891880  59.4319870  16.9412480  99.3861050  72.0763020
  16.2160670  99.9789830  71.8792410  17.4687940  99.3784590  71.2776390
   7.8602560  98.8764940  62.5942640   8.3165340  99.6870190  62.8202830
   7.5090770  98.5588080  63.4261130   3.7614340  89.2202590  63.0665160
   3.6328970  89.2120490  64.0150080   2.9376360  89.5585680  62.7156170
   2.6814260  99.3065200  60.6016420   2.0742210 100.0464100  60.6111720
   3.1563610  99.3964560  59.7754620  12.2547050  93.4716020  70.2773310
  12.6227870  92.6511230  70.6052880  11.3945250  93.5317910  70.6928960
  15.6209080  92.4272960  61.0860870  14.9922240  92.5318630  60.3719100
  15.1261000  92.6469740  61.8754750   7.5893110  94.7058910  62.5018750
   6.8809260  95.1745250  62.9432360   7.8737590  94.0480920  63.1363940
   9.2149040  96.1255610  70.5011280   9.7134290  96.6001430  71.1663130
   9.3571990  95.2019130  70.7081310  11.6208540  91.4309570  63.9414540
  11.4976320  91.4495700  62.9924050  12.5693100  91.4788510  64.0612940
   5.7928130  93.0143990  59.8769460   6.6418660  93.4514140  59.8109650
   5.4259400  93.3264250  60.7041520  16.4215900  92.3423570  71.3439670
  15.9189500  93.0828970  71.6833480  17.2372560  92.7307570  71.0276460
  14.7137910  97.5856750  64.7901030  13.7728050  97.6006980  64.9648720
  15.0281980  96.7992710  65.2361330   4.6919550  99.2676350  58.3504990
   5.4582820  99.1557710  58.9130420   4.7694240  98.5714320  57.6981760
   3.3866310  96.7001420  59.0337880   3.4669900  95.7528930  59.1455280
   4.2786060  97.0308300  59.1398540   7.9675050  99.9287330  73.8029570
   7.2020720 100.4972330  73.7184240   8.1491010  99.6363540  72.9097800
  11.0563460 100.3050560  58.4282330  10.5073560 100.7519860  59.0725070
  11.6782720  99.7999810  58.9520000   6.7238580  99.2641480  60.3247630
   7.1455000  99.0981350  61.1679020   6.8489420  98.4541710  59.8302770
   4.8866000  95.2438030  73.1318610   4.3562460  94.7528980  72.5041950
   5.5554070  95.6722230  72.5976540   9.2366220  98.2879090  57.5724730
   9.7571880  97.5728110  57.2065880   9.8834620  98.9264960  57.8725240
  13.7844060  99.7107490  72.8959800  14.1985080  99.8652570  73.7450220
  12.8495060  99.8362710  73.0585580  14.2566230  97.0503650  74.8998950
  14.8387000  96.2955970  74.8119430  14.4328000  97.5811090  74.1230430
   5.3738300  92.2100400  73.2115900   5.2795170  91.5921150  72.4866770
   4.7935690  92.9366690  72.9845810   8.1399740  90.7673640  70.2443290
   7.6917040  90.7897900  69.3988840   7.5064940  90.3692660  70.8413590
   8.5459290  99.6627970  70.8655730   8.9647400 100.5060700  70.6931970
   7.6267920  99.8000010  70.6362510  10.8823190  97.3944150  72.2493570
  11.0019400  96.7985290  72.9888410  11.7417190  97.4313840  71.8294870
  13.2211090  97.9481340  70.8256080  12.6946310  98.4723960  70.2221220
  13.5642430  98.5808730  71.4565810   5.6197480  95.3374710  57.2705790
   5.4186540  94.4742070  57.6319130   5.4489530  95.2508070  56.3327390
   7.6491960  93.9365500  73.5069390   8.2391650  93.6281350  74.1947210
   6.8312200  93.4645250  73.6629290  12.4685390  93.5531310  73.7402410
  11.7800910  92.8912850  73.6752400  13.1891410  93.1069580  74.1850870
  13.0985790  90.1482940  59.7992670  13.3788080  89.3050840  60.1552090
  12.3251520  90.3806050  60.3131420   4.4180280  92.4375330  57.2583670
   4.7206180  92.4442760  56.3502820   5.1574870  92.0873190  57.7551330
   7.6365210  91.3809950  58.2439870   7.2887210  90.7033940  57.6642320
   7.8377980  90.9199460  59.0583260  17.4766510  99.3859670  60.4096580
  18.2385420  99.9556320  60.5156270  17.4920880  98.8186870  61.1804890
  17.5285680  99.6794040  57.5669100  17.8034520 100.5872920  57.4388320
  17.3396420  99.6156570  58.5031090  13.9261290  92.7038890  58.8622730
  14.3446170  92.5169870  58.0219390  13.6197350  91.8517940  59.1725660
  17.4251020  97.6163030  62.5598530  17.0494620  96.8490960  62.1279820
  16.6954140  97.9985730  63.0473460   2.0146780  98.2950170  69.1807580
   2.3819820  98.2077570  70.0603600   1.4457600  97.5316720  69.0814440
  16.8150640  96.7634550  72.1938050  16.5836730  96.5347300  71.2936000
  17.0755190  97.6834100  72.1482940  16.7001980  95.8420520  65.8605770
  17.2239460  95.3483170  65.2295940  17.2861400  95.9770880  66.6053340
  16.8791700  95.9260390  69.3825320  15.9294410  95.8923930  69.4970310
  17.0604710  96.8360500  69.1475090   2.7336140  94.1762070  58.4923950
   3.4427840  93.7545290  58.0071230   2.0176080  94.2437300  57.8607300
   2.3810300  90.2301400  57.5326600   3.1038430  90.7710340  57.8507820
   2.6534820  89.9564820  56.6568140  16.1901950  95.0993870  61.7998180
  16.6861070  94.8664740  62.5847060  15.9918020  94.2605710  61.3835820
   2.0702490  89.4807590  67.4349220   2.7178680  88.9304970  66.9944380
   2.4904330  89.7350740  68.2565030  17.6189110  93.7354820  64.3335860
  17.5088390  93.5810860  65.2718130  18.3796700  93.2075760  64.0911270
  15.9654830  89.6748950  70.7918860  16.6027050  90.2883090  71.1578050
  16.1129720  89.7109610  69.8468090  18.5079380  91.5662740  57.5742000
  19.4328690  91.4343920  57.3660290  18.4855170  91.6455560  58.5278450
  18.5817870  92.3373400  60.1998710  17.7869370  92.2718520  60.7291620
  18.7861150  93.2724040  60.1884060   1.8234490  89.6363260  70.1774540
   1.4749310  90.0927080  70.9432720   1.4922190  88.7420390  70.2596970
   9.3359310  90.8275140  73.6993960   9.2748200  91.4196970  74.4489370
  10.2759690  90.7201100  73.5544220  11.9733870  90.4845200  73.3386250
  12.5874280  90.8024490  72.6767330  12.5183430  89.9993790  73.9582110
   2.4955130  89.1639460  73.4525310   3.0438120  88.9827510  72.6891420
   2.5610440  88.3733570  73.9881620  12.7141910  89.0477340  69.6655540
  11.8401750  89.3812450  69.4628470  12.6052660  88.5750520  70.4907410
  13.6213890  91.2548210  71.0497260  13.2927250  90.4399970  70.6698990
  14.5696190  91.2118020  70.9262950  10.4616730  89.9647180  68.6048450
   9.6788520  90.4392680  68.8845210  10.1679660  89.0602010  68.4961630
  15.0137800  90.6670280  66.6497540  15.4545890  90.6115380  65.8019140
  14.7445390  91.5828290  66.7207720  16.8776370  90.2985520  64.6606360
  16.8164770  89.3546740  64.5137380  17.6568400  90.4065610  65.2059820
   1.8057140  90.2694660  61.1262170   2.5636500  90.3823540  60.5526200
   1.3434310  91.1063860  61.0805600   8.3470950  92.3833930  64.1164480
   7.5345460  92.0090820  63.7760360   8.8512590  91.6279010  64.4185670
  12.8495930  89.0476380  65.3547550  13.4525300  89.6196590  65.8296070
  12.1088920  89.6115820  65.1321450  15.9930530  89.4497940  60.6287830
  16.1881160  90.3481390  60.8955260  15.2060400  89.2185020  61.1220780
   4.1782290  90.7958710  59.6664140   4.7075050  90.0088510  59.5372090
   4.8110610  91.4749900  59.8999670   6.3720130  90.5333850  62.7209530
   5.7422870  89.8321160  62.8879660   5.8325270  91.2937980  62.5042690
  12.0049300  97.2463880  46.0977230  11.9243350  96.3318490  45.8268940
  11.5913720  97.7430950  45.3916940  10.1367340  99.0242900  47.9786500
   9.3609440  98.5443340  48.2685070  10.7880270  98.3448550  47.8042660
   4.1533170  99.3362710  48.8562260   3.3218050  99.0811420  49.2558770
   4.7614150  99.4073480  49.5920180   2.5625120  94.2964600  42.6404650
   1.6741820  94.6380570  42.5384530   2.8466310  94.0964920  41.7485480
   1.7683000  92.3054610  50.3113280   1.5885840  91.4080360  50.5916040
   1.3663080  92.8526480  50.9860230  10.6081500  94.5070470  48.2125590
  10.9846320  93.6342350  48.0999260  10.5101010  94.8429170  47.3216030
   4.7386510  92.8796100  43.6743030   4.8453260  93.7799830  43.9811790
   3.8278870  92.8314070  43.3837680  14.3905620  92.0020910  45.1453930
  15.2115240  91.5117480  45.1879410  14.4239700  92.5918570  45.8985770
   2.3869670  94.8015110  48.9195620   3.0679780  95.0653480  49.5383020
   2.0717720  93.9615980  49.2533630   6.5794240  95.8482470  48.0068210
   7.0872460  96.3463440  48.6473230   7.1107480  95.0717670  47.8307570
  18.6805170  94.0187660  51.7097560  17.9757340  94.4069370  51.1912670
  18.9463090  94.7137950  52.3118490   4.8630340  90.4881030  52.2731630
   4.8648780  91.0053420  51.4677530   4.0334650  90.0111210  52.2501560
   6.1133190 100.1276210  50.4505130   5.7802570 100.7545130  51.0926200
   6.2899870 100.6538090  49.6706800  14.6267100  93.9421290  47.9181470
  13.9222670  94.2306180  48.4984580  14.9879260  94.7521400  47.5581030
   4.5445670  92.1990990  50.2802080   4.8862480  93.0433040  49.9855950
   3.6061480  92.3474730  50.3967420  17.6954020  93.3876080  48.3090680
  16.7478930  93.4215060  48.4406110  18.0204010  94.2015030  48.6940040
   8.2273560  89.6873260  46.6046670   8.5348540  89.1320150  45.8882170
   7.2974260  89.8217720  46.4219660  13.1774060 100.3070390  50.2236740
  13.5942850 100.0930500  49.3890200  13.9013880 100.5643180  50.7945360
  10.6154320  97.7522090  43.3406790   9.6883600  97.6859470  43.5695260
  10.7679140  98.6902220  43.2262030  10.6023400  94.0239090  40.3373950
   9.6627070  94.1853050  40.4226410  10.9206660  94.7424770  39.7909940
  17.1236160  98.7057610  50.3152980  16.2954790  98.7750700  49.8403110
  17.7186640  99.2911920  49.8468810  14.6451610  99.3142390  43.8442040
  14.0264030  98.9761940  43.1968340  14.6276060  98.6702150  44.5521230
  14.0878170  95.4926930  51.2607850  13.6749350  96.3180640  51.5147840
  13.3554120  94.9071970  51.0684210   6.2210960  98.2786830  46.1226520
   5.8167960  97.5664080  45.6272420   6.3074080  97.9340070  47.0114560
   4.9339580  95.0530040  49.9025560   5.4854170  95.1625380  49.1278810
   5.4483090  95.4267640  50.6180790  12.8216310  98.5529200  40.8514790
  13.2609590  97.7151630  40.7052610  13.5344730  99.1858600  40.9378930
   4.6082310  98.5749400  53.5130900   4.4690080  99.4472200  53.8818300
   3.7263670  98.2322210  53.3678840  16.4033450  89.8072010  39.1655830
  16.0906110  89.8998840  40.0654900  17.1645920  90.3853040  39.1153260
   2.9215590  97.1731810  43.6233170   2.8013190  97.8993900  43.0114440
   2.6116480  96.4034720  43.1461080  17.6134740  94.5443510  55.1429970
  16.9979010  95.0523180  54.6145430  17.2931160  93.6441840  55.0855910
   5.3879250  90.5166880  47.0056840   4.9447400  91.2976420  46.6741360
   5.9464240  90.8396770  47.7127780   9.6749060  93.3835400  52.6092160
   9.2128430  93.5918420  53.4212100   9.2727170  92.5694750  52.3062830
  14.6753570  94.6044350  53.7388820  13.8247160  94.3050100  54.0597890
  14.5155360  94.8486360  52.8272640  11.7703280  96.1046100  55.8387610
  12.0956690  95.2709850  55.4989840  12.5583610  96.6274620  55.9865940
   8.5038070  90.1377580  41.8862670   7.8792250  90.1337450  42.6115980
   8.4168190  89.2708540  41.4898640   7.4255150  91.0614210  48.8646440
   7.7227480  91.9677040  48.7838460   7.9740710  90.5732990  48.2506010
   5.1793470  95.6400450  44.7338090   4.9534390  95.4237620  45.6384710
   4.3986000  96.0728910  44.3884060  12.4091230  95.6463820  43.3328740
  11.8100120  96.3699620  43.1492360  12.9570840  95.5840600  42.5505190
   7.6192680  96.5386030  55.3998360   7.5236280  95.5980760  55.2498760
   8.4624660  96.7601100  55.0046430  11.0156100  94.2827360  45.3632020
  11.4085670  94.5999560  44.5500710  11.3772950  93.4039240  45.4776540
   2.7503220  92.9499700  53.5532140   2.3566610  93.7974910  53.7604920
   2.0621620  92.3126070  53.7440780   9.3248270  93.0334670  56.6228880
   8.6346590  92.8406870  57.2574970  10.0680570  93.3169310  57.1553180
  11.6011240  96.8733110  49.4582800  10.8692360  97.3819920  49.8072900
  11.2035580  96.0563090  49.1571580   8.0388630  93.5487310  47.8635290
   8.0424690  93.1077260  47.0139830   8.9339750  93.8704640  47.9707110
   3.8891010  93.4313800  46.8229500   3.5491060  93.9089030  47.5796550
   3.1268330  92.9778920  46.4630600   8.1008780  94.5499390  40.8542050
   8.2221600  94.5085870  41.8027870   7.7157290  95.4123540  40.6988780
  12.0637150  92.3266790  48.8705740  12.0809890  92.7775440  49.7147590
  11.8152730  91.4272430  49.0839180   7.1130280  96.8600530  40.2525350
   6.5447180  96.4118780  39.6261260   7.8219280  97.2193310  39.7190500
  15.4907900  89.7398970  54.7092120  15.8153670  89.0088630  55.2350100
  15.5264410  89.4212610  53.8073110   8.3396600  97.6089090  49.6100700
   8.7066730  97.1347660  50.3562040   8.1501660  98.4830660  49.9509040
   6.1295970  96.6497730  51.9284910   5.8253040  97.5289710  52.1535270
   7.0842430  96.7097520  51.9642350   4.6577760 100.8558720  42.5251760
   3.8840020 100.3156340  42.3650480   5.3872390 100.3365330  42.1869520
  15.4165740  99.8524080  48.3178150  16.1364860 100.3479370  47.9274260
  15.2147560  99.1741970  47.6732020  10.8775680  91.2462040  42.4607540
  10.0640290  90.7475210  42.3852850  10.6837630  92.0860290  42.0443890
  10.7984540  99.9233140  54.2047150  10.7321850  99.0028810  53.9504740
  10.1689680 100.0208580  54.9191790  13.5924070  95.6181690  40.7569700
  14.4803690  95.9298920  40.5821040  13.5629160  94.7453940  40.3650280
   4.7015160 100.5239100  46.1630570   5.2193830  99.7207360  46.1087460
   4.2499180 100.4618240  47.0047400   2.1859700  97.4900470  53.0756270
   1.8274640  98.1554320  53.6629610   1.8914260  96.6584020  53.4468890
   5.3872820  97.9484710  55.9595820   5.0872960  98.0941890  55.0623640
   6.1584060  97.3890000  55.8669210  15.8638340  96.9293530  40.2249560
  15.7802060  97.3607750  39.3746000  16.5832530  97.3891880  40.6576380
  16.9412480  99.3861050  53.3019530  16.2160670  99.9789830  53.1048920
  17.4687940  99.3784590  52.5032900   7.8602560  98.8764940  43.8199150
   8.3165340  99.6870190  44.0459340   7.5090770  98.5588080  44.6517640
   3.7614340  89.2202590  44.2921670   3.6328970  89.2120490  45.2406590
   2.9376360  89.5585680  43.9412680   2.6814260  99.3065200  41.8272930
   2.0742210 100.0464100  41.8368230   3.1563610  99.3964560  41.0011130
  12.2547050  93.4716020  51.5029820  12.6227870  92.6511230  51.8309390
  11.3945250  93.5317910  51.9185470  15.6209080  92.4272960  42.3117380
  14.9922240  92.5318630  41.5975610  15.1261000  92.6469740  43.1011260
   7.5893110  94.7058910  43.7275260   6.8809260  95.1745250  44.1688870
   7.8737590  94.0480920  44.3620450   9.2149040  96.1255610  51.7267790
   9.7134290  96.6001430  52.3919640   9.3571990  95.2019130  51.9337820
  11.6208540  91.4309570  45.1671050  11.4976320  91.4495700  44.2180560
  12.5693100  91.4788510  45.2869450   5.7928130  93.0143990  41.1025970
   6.6418660  93.4514140  41.0366160   5.4259400  93.3264250  41.9298030
  16.4215900  92.3423570  52.5696180  15.9189500  93.0828970  52.9089990
  17.2372560  92.7307570  52.2532970  14.7137910  97.5856750  46.0157540
  13.7728050  97.6006980  46.1905230  15.0281980  96.7992710  46.4617840
   4.6919550  99.2676350  39.5761500   5.4582820  99.1557710  40.1386930
   4.7694240  98.5714320  38.9238270   3.3866310  96.7001420  40.2594390
   3.4669900  95.7528930  40.3711790   4.2786060  97.0308300  40.3655050
   7.9675050  99.9287330  55.0286080   7.2020720 100.4972330  54.9440750
   8.1491010  99.6363540  54.1354310  11.0563460 100.3050560  39.6538840
  10.5073560 100.7519860  40.2981580  11.6782720  99.7999810  40.1776510
   2.9460190  96.6645930  56.3900630   2.9865530  96.3659800  57.2985860
   3.8005690  97.0653540  56.2308150   6.7238580  99.2641480  41.5504140
   7.1455000  99.0981350  42.3935530   6.8489420  98.4541710  41.0559280
   4.8866000  95.2438030  54.3575120   4.3562460  94.7528980  53.7298460
   5.5554070  95.6722230  53.8233050   9.2366220  98.2879090  38.7981240
   9.7571880  97.5728110  38.4322390   9.8834620  98.9264960  39.0981750
  13.7844060  99.7107490  54.1216310  14.1985080  99.8652570  54.9706730
  12.8495060  99.8362710  54.2842090  14.2566230  97.0503650  56.1255460
  14.8387000  96.2955970  56.0375940  14.4328000  97.5811090  55.3486940
   5.3738300  92.2100400  54.4372410   5.2795170  91.5921150  53.7123280
   4.7935690  92.9366690  54.2102320   8.1399740  90.7673640  51.4699800
   7.6917040  90.7897900  50.6245350   7.5064940  90.3692660  52.0670100
   8.5459290  99.6627970  52.0912240   8.9647400 100.5060700  51.9188480
   7.6267920  99.8000010  51.8619020  10.8823190  97.3944150  53.4750080
  11.0019400  96.7985290  54.2144920  11.7417190  97.4313840  53.0551380
  13.2211090  97.9481340  52.0512590  12.6946310  98.4723960  51.4477730
  13.5642430  98.5808730  52.6822320   5.6197480  95.3374710  38.4962300
   5.4186540  94.4742070  38.8575640   5.4489530  95.2508070  37.5583900
   7.6491960  93.9365500  54.7325900   8.2391650  93.6281350  55.4203720
   6.8312200  93.4645250  54.8885800  12.4685390  93.5531310  54.9658920
  11.7800910  92.8912850  54.9008910  13.1891410  93.1069580  55.4107380
  13.0985790  90.1482940  41.0249180  13.3788080  89.3050840  41.3808600
  12.3251520  90.3806050  41.5387930   4.4180280  92.4375330  38.4840180
   4.7206180  92.4442760  37.5759330   5.1574870  92.0873190  38.9807840
   7.6365210  91.3809950  39.4696380   7.2887210  90.7033940  38.8898830
   7.8377980  90.9199460  40.2839770  17.4766510  99.3859670  41.6353090
  18.2385420  99.9556320  41.7412780  17.4920880  98.8186870  42.4061400
  17.5285680  99.6794040  38.7925610  17.8034520 100.5872920  38.6644830
  17.3396420  99.6156570  39.7287600  13.9261290  92.7038890  40.0879240
  14.3446170  92.5169870  39.2475900  13.6197350  91.8517940  40.3982170
  17.4251020  97.6163030  43.7855040  17.0494620  96.8490960  43.3536330
  16.6954140  97.9985730  44.2729970   2.0146780  98.2950170  50.4064090
   2.3819820  98.2077570  51.2860110   1.4457600  97.5316720  50.3070950
  16.8150640  96.7634550  53.4194560  16.5836730  96.5347300  52.5192510
  17.0755190  97.6834100  53.3739450  15.2538710  91.9890980  56.1974260
  16.1308890  91.9974380  56.5808260  15.2659550  91.2521820  55.5866610
  16.7001980  95.8420520  47.0862280  17.2239460  95.3483170  46.4552450
  17.2861400  95.9770880  47.8309850  16.8791700  95.9260390  50.6081830
  15.9294410  95.8923930  50.7226820  17.0604710  96.8360500  50.3731600
   2.7336140  94.1762070  39.7180460   3.4427840  93.7545290  39.2327740
   2.0176080  94.2437300  39.0863810   2.3810300  90.2301400  38.7583110
   3.1038430  90.7710340  39.0764330   2.6534820  89.9564820  37.8824650
  16.1901950  95.0993870  43.0254690  16.6861070  94.8664740  43.8103570
  15.9918020  94.2605710  42.6092330   2.0702490  89.4807590  48.6605730
   2.7178680  88.9304970  48.2200890   2.4904330  89.7350740  49.4821540
  17.6189110  93.7354820  45.5592370  17.5088390  93.5810860  46.4974640
  18.3796700  93.2075760  45.3167780  15.9654830  89.6748950  52.0175370
  16.6027050  90.2883090  52.3834560  16.1129720  89.7109610  51.0724600
  18.5079380  91.5662740  38.7998510  19.4328690  91.4343920  38.5916800
  18.4855170  91.6455560  39.7534960  18.5817870  92.3373400  41.4255220
  17.7869370  92.2718520  41.9548130  18.7861150  93.2724040  41.4140570
   1.8234490  89.6363260  51.4031050   1.4749310  90.0927080  52.1689230
   1.4922190  88.7420390  51.4853480   9.3359310  90.8275140  54.9250470
   9.2748200  91.4196970  55.6745880  10.2759690  90.7201100  54.7800730
  11.9733870  90.4845200  54.5642760  12.5874280  90.8024490  53.9023840
  12.5183430  89.9993790  55.1838620   2.4955130  89.1639460  54.6781820
   3.0438120  88.9827510  53.9147930   2.5610440  88.3733570  55.2138130
  12.7141910  89.0477340  50.8912050  11.8401750  89.3812450  50.6884980
  12.6052660  88.5750520  51.7163920  13.6213890  91.2548210  52.2753770
  13.2927250  90.4399970  51.8955500  14.5696190  91.2118020  52.1519460
  10.4616730  89.9647180  49.8304960   9.6788520  90.4392680  50.1101720
  10.1679660  89.0602010  49.7218140  15.0137800  90.6670280  47.8754050
  15.4545890  90.6115380  47.0275650  14.7445390  91.5828290  47.9464230
  16.8776370  90.2985520  45.8862870  16.8164770  89.3546740  45.7393890
  17.6568400  90.4065610  46.4316330   1.8057140  90.2694660  42.3518680
   2.5636500  90.3823540  41.7782710   1.3434310  91.1063860  42.3062110
   8.3470950  92.3833930  45.3420990   7.5345460  92.0090820  45.0016870
   8.8512590  91.6279010  45.6442180  12.8495930  89.0476380  46.5804060
  13.4525300  89.6196590  47.0552580  12.1088920  89.6115820  46.3577960
  15.9930530  89.4497940  41.8544340  16.1881160  90.3481390  42.1211770
  15.2060400  89.2185020  42.3477290   4.1782290  90.7958710  40.8920650
   4.7075050  90.0088510  40.7628600   4.8110610  91.4749900  41.1256180
   6.3720130  90.5333850  43.9466040   5.7422870  89.8321160  44.1136170
   5.8325270  91.2937980  43.7299200   6.4975690  89.8117830  56.3818530
   6.2159960  90.3151430  55.6179350   6.8795390  89.0139580  56.0160660
  13.0991150  89.2271410  56.9599000  12.9856600  89.5466020  57.8550520
  13.9160890  89.6283920  56.6636280  12.0049300  97.2463880  27.3233740
  11.9243350  96.3318490  27.0525450  11.5913720  97.7430950  26.6173450
  10.1367340  99.0242900  29.2043010   9.3609440  98.5443340  29.4941580
  10.7880270  98.3448550  29.0299170   4.1533170  99.3362710  30.0818770
   3.3218050  99.0811420  30.4815280   4.7614150  99.4073480  30.8176690
   2.5625120  94.2964600  23.8661160   1.6741820  94.6380570  23.7641040
   2.8466310  94.0964920  22.9741990   1.7683000  92.3054610  31.5369790
   1.5885840  91.4080360  31.8172550   1.3663080  92.8526480  32.2116740
  10.6081500  94.5070470  29.4382100  10.9846320  93.6342350  29.3255770
  10.5101010  94.8429170  28.5472540   4.7386510  92.8796100  24.8999540
   4.8453260  93.7799830  25.2068300   3.8278870  92.8314070  24.6094190
  14.3905620  92.0020910  26.3710440  15.2115240  91.5117480  26.4135920
  14.4239700  92.5918570  27.1242280   2.3869670  94.8015110  30.1452130
   3.0679780  95.0653480  30.7639530   2.0717720  93.9615980  30.4790140
   6.5794240  95.8482470  29.2324720   7.0872460  96.3463440  29.8729740
   7.1107480  95.0717670  29.0564080  18.6805170  94.0187660  32.9354070
  17.9757340  94.4069370  32.4169180  18.9463090  94.7137950  33.5375000
   4.8630340  90.4881030  33.4988140   4.8648780  91.0053420  32.6934040
   4.0334650  90.0111210  33.4758070   6.1133190 100.1276210  31.6761640
   5.7802570 100.7545130  32.3182710   6.2899870 100.6538090  30.8963310
  14.6267100  93.9421290  29.1437980  13.9222670  94.2306180  29.7241090
  14.9879260  94.7521400  28.7837540   4.5445670  92.1990990  31.5058590
   4.8862480  93.0433040  31.2112460   3.6061480  92.3474730  31.6223930
  17.6954020  93.3876080  29.5347190  16.7478930  93.4215060  29.6662620
  18.0204010  94.2015030  29.9196550   8.2273560  89.6873260  27.8303180
   8.5348540  89.1320150  27.1138680   7.2974260  89.8217720  27.6476170
  13.1774060 100.3070390  31.4493250  13.5942850 100.0930500  30.6146710
  13.9013880 100.5643180  32.0201870  10.6154320  97.7522090  24.5663300
   9.6883600  97.6859470  24.7951770  10.7679140  98.6902220  24.4518540
  10.6023400  94.0239090  21.5630460   9.6627070  94.1853050  21.6482920
  10.9206660  94.7424770  21.0166450  17.1236160  98.7057610  31.5409490
  16.2954790  98.7750700  31.0659620  17.7186640  99.2911920  31.0725320
  14.6451610  99.3142390  25.0698550  14.0264030  98.9761940  24.4224850
  14.6276060  98.6702150  25.7777740  14.0878170  95.4926930  32.4864360
  13.6749350  96.3180640  32.7404350  13.3554120  94.9071970  32.2940720
   6.2210960  98.2786830  27.3483030   5.8167960  97.5664080  26.8528930
   6.3074080  97.9340070  28.2371070   4.9339580  95.0530040  31.1282070
   5.4854170  95.1625380  30.3535320   5.4483090  95.4267640  31.8437300
  12.8216310  98.5529200  22.0771300  13.2609590  97.7151630  21.9309120
  13.5344730  99.1858600  22.1635440   4.6082310  98.5749400  34.7387410
   4.4690080  99.4472200  35.1074810   3.7263670  98.2322210  34.5935350
  16.4033450  89.8072010  20.3912340  16.0906110  89.8998840  21.2911410
  17.1645920  90.3853040  20.3409770   2.9215590  97.1731810  24.8489680
   2.8013190  97.8993900  24.2370950   2.6116480  96.4034720  24.3717590
  17.6134740  94.5443510  36.3686480  16.9979010  95.0523180  35.8401940
  17.2931160  93.6441840  36.3112420   5.3879250  90.5166880  28.2313350
   4.9447400  91.2976420  27.8997870   5.9464240  90.8396770  28.9384290
   9.6749060  93.3835400  33.8348670   9.2128430  93.5918420  34.6468610
   9.2727170  92.5694750  33.5319340  14.6753570  94.6044350  34.9645330
  13.8247160  94.3050100  35.2854400  14.5155360  94.8486360  34.0529150
  11.7703280  96.1046100  37.0644120  12.0956690  95.2709850  36.7246350
  12.5583610  96.6274620  37.2122450   8.5038070  90.1377580  23.1119180
   7.8792250  90.1337450  23.8372490   8.4168190  89.2708540  22.7155150
   7.4255150  91.0614210  30.0902950   7.7227480  91.9677040  30.0094970
   7.9740710  90.5732990  29.4762520   5.1793470  95.6400450  25.9594600
   4.9534390  95.4237620  26.8641220   4.3986000  96.0728910  25.6140570
  12.4091230  95.6463820  24.5585250  11.8100120  96.3699620  24.3748870
  12.9570840  95.5840600  23.7761700   7.6192680  96.5386030  36.6254870
   7.5236280  95.5980760  36.4755270   8.4624660  96.7601100  36.2302940
  11.0156100  94.2827360  26.5888530  11.4085670  94.5999560  25.7757220
  11.3772950  93.4039240  26.7033050   2.7503220  92.9499700  34.7788650
   2.3566610  93.7974910  34.9861430   2.0621620  92.3126070  34.9697290
   9.3248270  93.0334670  37.8485390   8.6346590  92.8406870  38.4831480
  10.0680570  93.3169310  38.3809690  11.6011240  96.8733110  30.6839310
  10.8692360  97.3819920  31.0329410  11.2035580  96.0563090  30.3828090
   8.0388630  93.5487310  29.0891800   8.0424690  93.1077260  28.2396340
   8.9339750  93.8704640  29.1963620   3.8891010  93.4313800  28.0486010
   3.5491060  93.9089030  28.8053060   3.1268330  92.9778920  27.6887110
   8.1008780  94.5499390  22.0798560   8.2221600  94.5085870  23.0284380
   7.7157290  95.4123540  21.9245290  12.0637150  92.3266790  30.0962250
  12.0809890  92.7775440  30.9404100  11.8152730  91.4272430  30.3095690
   7.1130280  96.8600530  21.4781860   6.5447180  96.4118780  20.8517770
   7.8219280  97.2193310  20.9447010  15.4907900  89.7398970  35.9348630
  15.8153670  89.0088630  36.4606610  15.5264410  89.4212610  35.0329620
   8.3396600  97.6089090  30.8357210   8.7066730  97.1347660  31.5818550
   8.1501660  98.4830660  31.1765550   6.1295970  96.6497730  33.1541420
   5.8253040  97.5289710  33.3791780   7.0842430  96.7097520  33.1898860
   4.6577760 100.8558720  23.7508270   3.8840020 100.3156340  23.5906990
   5.3872390 100.3365330  23.4126030  15.4165740  99.8524080  29.5434660
  16.1364860 100.3479370  29.1530770  15.2147560  99.1741970  28.8988530
  10.8775680  91.2462040  23.6864050  10.0640290  90.7475210  23.6109360
  10.6837630  92.0860290  23.2700400  10.7984540  99.9233140  35.4303660
  10.7321850  99.0028810  35.1761250  10.1689680 100.0208580  36.1448300
  13.5924070  95.6181690  21.9826210  14.4803690  95.9298920  21.8077550
  13.5629160  94.7453940  21.5906790   4.7015160 100.5239100  27.3887080
   5.2193830  99.7207360  27.3343970   4.2499180 100.4618240  28.2303910
   2.1859700  97.4900470  34.3012780   1.8274640  98.1554320  34.8886120
   1.8914260  96.6584020  34.6725400   5.3872820  97.9484710  37.1852330
   5.0872960  98.0941890  36.2880150   6.1584060  97.3890000  37.0925720
  15.8638340  96.9293530  21.4506070  15.7802060  97.3607750  20.6002510
  16.5832530  97.3891880  21.8832890  16.9412480  99.3861050  34.5276040
  16.2160670  99.9789830  34.3305430  17.4687940  99.3784590  33.7289410
   7.8602560  98.8764940  25.0455660   8.3165340  99.6870190  25.2715850
   7.5090770  98.5588080  25.8774150   3.7614340  89.2202590  25.5178180
   3.6328970  89.2120490  26.4663100   2.9376360  89.5585680  25.1669190
   2.6814260  99.3065200  23.0529440   2.0742210 100.0464100  23.0624740
   3.1563610  99.3964560  22.2267640  12.2547050  93.4716020  32.7286330
  12.6227870  92.6511230  33.0565900  11.3945250  93.5317910  33.1441980
  15.6209080  92.4272960  23.5373890  14.9922240  92.5318630  22.8232120
  15.1261000  92.6469740  24.3267770   7.5893110  94.7058910  24.9531770
   6.8809260  95.1745250  25.3945380   7.8737590  94.0480920  25.5876960
   9.2149040  96.1255610  32.9524300   9.7134290  96.6001430  33.6176150
   9.3571990  95.2019130  33.1594330  11.6208540  91.4309570  26.3927560
  11.4976320  91.4495700  25.4437070  12.5693100  91.4788510  26.5125960
   5.7928130  93.0143990  22.3282480   6.6418660  93.4514140  22.2622670
   5.4259400  93.3264250  23.1554540  16.4215900  92.3423570  33.7952690
  15.9189500  93.0828970  34.1346500  17.2372560  92.7307570  33.4789480
  14.7137910  97.5856750  27.2414050  13.7728050  97.6006980  27.4161740
  15.0281980  96.7992710  27.6874350   4.6919550  99.2676350  20.8018010
   5.4582820  99.1557710  21.3643440   4.7694240  98.5714320  20.1494780
   3.3866310  96.7001420  21.4850900   3.4669900  95.7528930  21.5968300
   4.2786060  97.0308300  21.5911560   7.9675050  99.9287330  36.2542590
   7.2020720 100.4972330  36.1697260   8.1491010  99.6363540  35.3610820
  11.0563460 100.3050560  20.8795350  10.5073560 100.7519860  21.5238090
  11.6782720  99.7999810  21.4033020   2.9460190  96.6645930  37.6157140
   2.9865530  96.3659800  38.5242370   3.8005690  97.0653540  37.4564660
   6.7238580  99.2641480  22.7760650   7.1455000  99.0981350  23.6192040
   6.8489420  98.4541710  22.2815790   4.8866000  95.2438030  35.5831630
   4.3562460  94.7528980  34.9554970   5.5554070  95.6722230  35.0489560
   9.2366220  98.2879090  20.0237750   9.7571880  97.5728110  19.6578900
   9.8834620  98.9264960  20.3238260  13.7844060  99.7107490  35.3472820
  14.1985080  99.8652570  36.1963240  12.8495060  99.8362710  35.5098600
  14.2566230  97.0503650  37.3511970  14.8387000  96.2955970  37.2632450
  14.4328000  97.5811090  36.5743450   5.3738300  92.2100400  35.6628920
   5.2795170  91.5921150  34.9379790   4.7935690  92.9366690  35.4358830
   8.1399740  90.7673640  32.6956310   7.6917040  90.7897900  31.8501860
   7.5064940  90.3692660  33.2926610   8.5459290  99.6627970  33.3168750
   8.9647400 100.5060700  33.1444990   7.6267920  99.8000010  33.0875530
  10.8823190  97.3944150  34.7006590  11.0019400  96.7985290  35.4401430
  11.7417190  97.4313840  34.2807890  13.2211090  97.9481340  33.2769100
  12.6946310  98.4723960  32.6734240  13.5642430  98.5808730  33.9078830
   5.6197480  95.3374710  19.7218810   5.4186540  94.4742070  20.0832150
   5.4489530  95.2508070  18.7840410   7.6491960  93.9365500  35.9582410
   8.2391650  93.6281350  36.6460230   6.8312200  93.4645250  36.1142310
  12.4685390  93.5531310  36.1915430  11.7800910  92.8912850  36.1265420
  13.1891410  93.1069580  36.6363890  13.0985790  90.1482940  22.2505690
  13.3788080  89.3050840  22.6065110  12.3251520  90.3806050  22.7644440
   4.4180280  92.4375330  19.7096690   4.7206180  92.4442760  18.8015840
   5.1574870  92.0873190  20.2064350   7.6365210  91.3809950  20.6952890
   7.2887210  90.7033940  20.1155340   7.8377980  90.9199460  21.5096280
  17.4766510  99.3859670  22.8609600  18.2385420  99.9556320  22.9669290
  17.4920880  98.8186870  23.6317910  17.5285680  99.6794040  20.0182120
  17.8034520 100.5872920  19.8901340  17.3396420  99.6156570  20.9544110
  13.9261290  92.7038890  21.3135750  14.3446170  92.5169870  20.4732410
  13.6197350  91.8517940  21.6238680  17.4251020  97.6163030  25.0111550
  17.0494620  96.8490960  24.5792840  16.6954140  97.9985730  25.4986480
   2.0146780  98.2950170  31.6320600   2.3819820  98.2077570  32.5116620
   1.4457600  97.5316720  31.5327460  16.8150640  96.7634550  34.6451070
  16.5836730  96.5347300  33.7449020  17.0755190  97.6834100  34.5995960
  15.2538710  91.9890980  37.4230770  16.1308890  91.9974380  37.8064770
  15.2659550  91.2521820  36.8123120  16.7001980  95.8420520  28.3118790
  17.2239460  95.3483170  27.6808960  17.2861400  95.9770880  29.0566360
  16.8791700  95.9260390  31.8338340  15.9294410  95.8923930  31.9483330
  17.0604710  96.8360500  31.5988110   2.7336140  94.1762070  20.9436970
   3.4427840  93.7545290  20.4584250   2.0176080  94.2437300  20.3120320
   2.3810300  90.2301400  19.9839620   3.1038430  90.7710340  20.3020840
   2.6534820  89.9564820  19.1081160  16.1901950  95.0993870  24.2511200
  16.6861070  94.8664740  25.0360080  15.9918020  94.2605710  23.8348840
   2.0702490  89.4807590  29.8862240   2.7178680  88.9304970  29.4457400
   2.4904330  89.7350740  30.7078050  17.6189110  93.7354820  26.7848880
  17.5088390  93.5810860  27.7231150  18.3796700  93.2075760  26.5424290
  15.9654830  89.6748950  33.2431880  16.6027050  90.2883090  33.6091070
  16.1129720  89.7109610  32.2981110  18.5079380  91.5662740  20.0255020
  19.4328690  91.4343920  19.8173310  18.4855170  91.6455560  20.9791470
  18.5817870  92.3373400  22.6511730  17.7869370  92.2718520  23.1804640
  18.7861150  93.2724040  22.6397080   1.8234490  89.6363260  32.6287560
   1.4749310  90.0927080  33.3945740   1.4922190  88.7420390  32.7109990
   9.3359310  90.8275140  36.1506980   9.2748200  91.4196970  36.9002390
  10.2759690  90.7201100  36.0057240  11.9733870  90.4845200  35.7899270
  12.5874280  90.8024490  35.1280350  12.5183430  89.9993790  36.4095130
   2.4955130  89.1639460  35.9038330   3.0438120  88.9827510  35.1404440
   2.5610440  88.3733570  36.4394640  12.7141910  89.0477340  32.1168560
  11.8401750  89.3812450  31.9141490  12.6052660  88.5750520  32.9420430
  13.6213890  91.2548210  33.5010280  13.2927250  90.4399970  33.1212010
  14.5696190  91.2118020  33.3775970  10.4616730  89.9647180  31.0561470
   9.6788520  90.4392680  31.3358230  10.1679660  89.0602010  30.9474650
  15.0137800  90.6670280  29.1010560  15.4545890  90.6115380  28.2532160
  14.7445390  91.5828290  29.1720740   1.8057140  90.2694660  23.5775190
   2.5636500  90.3823540  23.0039220   1.3434310  91.1063860  23.5318620
   8.3470950  92.3833930  26.5677500   7.5345460  92.0090820  26.2273380
   8.8512590  91.6279010  26.8698690  12.8495930  89.0476380  27.8060570
  13.4525300  89.6196590  28.2809090  12.1088920  89.6115820  27.5834470
  15.9930530  89.4497940  23.0800850  16.1881160  90.3481390  23.3468280
  15.2060400  89.2185020  23.5733800   4.1782290  90.7958710  22.1177160
   4.7075050  90.0088510  21.9885110   4.8110610  91.4749900  22.3512690
   6.3720130  90.5333850  25.1722550   5.7422870  89.8321160  25.3392680
   5.8325270  91.2937980  24.9555710   6.4975690  89.8117830  37.6075040
   6.2159960  90.3151430  36.8435860   6.8795390  89.0139580  37.2417170
  13.0991150  89.2271410  38.1855510  12.9856600  89.5466020  39.0807030
  13.9160890  89.6283920  37.8892790  12.0049300  97.2463880   8.5490250
  11.9243350  96.3318490   8.2781960  11.5913720  97.7430950   7.8429960
  10.1367340  99.0242900  10.4299520   9.3609440  98.5443340  10.7198090
  10.7880270  98.3448550  10.2555680   4.1533170  99.3362710  11.3075280
   3.3218050  99.0811420  11.7071790   4.7614150  99.4073480  12.0433200
   2.5625120  94.2964600   5.0917670   1.6741820  94.6380570   4.9897550
   2.8466310  94.0964920   4.1998500   1.7683000  92.3054610  12.7626300
   1.5885840  91.4080360  13.0429060   1.3663080  92.8526480  13.4373250
  10.6081500  94.5070470  10.6638610  10.9846320  93.6342350  10.5512280
  10.5101010  94.8429170   9.7729050   4.7386510  92.8796100   6.1256050
   4.8453260  93.7799830   6.4324810   3.8278870  92.8314070   5.8350700
  14.3905620  92.0020910   7.5966950  15.2115240  91.5117480   7.6392430
  14.4239700  92.5918570   8.3498790   2.3869670  94.8015110  11.3708640
   3.0679780  95.0653480  11.9896040   2.0717720  93.9615980  11.7046650
   6.5794240  95.8482470  10.4581230   7.0872460  96.3463440  11.0986250
   7.1107480  95.0717670  10.2820590  18.6805170  94.0187660  14.1610580
  17.9757340  94.4069370  13.6425690  18.9463090  94.7137950  14.7631510
   4.8630340  90.4881030  14.7244650   4.8648780  91.0053420  13.9190550
   4.0334650  90.0111210  14.7014580   6.1133190 100.1276210  12.9018150
   5.7802570 100.7545130  13.5439220   6.2899870 100.6538090  12.1219820
  14.6267100  93.9421290  10.3694490  13.9222670  94.2306180  10.9497600
  14.9879260  94.7521400  10.0094050   4.5445670  92.1990990  12.7315100
   4.8862480  93.0433040  12.4368970   3.6061480  92.3474730  12.8480440
  17.6954020  93.3876080  10.7603700  16.7478930  93.4215060  10.8919130
  18.0204010  94.2015030  11.1453060   8.2273560  89.6873260   9.0559690
   8.5348540  89.1320150   8.3395190   7.2974260  89.8217720   8.8732680
  13.1774060 100.3070390  12.6749760  13.5942850 100.0930500  11.8403220
  13.9013880 100.5643180  13.2458380  10.6154320  97.7522090   5.7919810
   9.6883600  97.6859470   6.0208280  10.7679140  98.6902220   5.6775050
  10.6023400  94.0239090   2.7886970   9.6627070  94.1853050   2.8739430
  10.9206660  94.7424770   2.2422960  17.1236160  98.7057610  12.7666000
  16.2954790  98.7750700  12.2916130  17.7186640  99.2911920  12.2981830
  14.6451610  99.3142390   6.2955060  14.0264030  98.9761940   5.6481360
  14.6276060  98.6702150   7.0034250  14.0878170  95.4926930  13.7120870
  13.6749350  96.3180640  13.9660860  13.3554120  94.9071970  13.5197230
   6.2210960  98.2786830   8.5739540   5.8167960  97.5664080   8.0785440
   6.3074080  97.9340070   9.4627580   4.9339580  95.0530040  12.3538580
   5.4854170  95.1625380  11.5791830   5.4483090  95.4267640  13.0693810
  12.8216310  98.5529200   3.3027810  13.2609590  97.7151630   3.1565630
  13.5344730  99.1858600   3.3891950   4.6082310  98.5749400  15.9643920
   4.4690080  99.4472200  16.3331320   3.7263670  98.2322210  15.8191860
   2.9215590  97.1731810   6.0746190   2.8013190  97.8993900   5.4627460
   2.6116480  96.4034720   5.5974100  17.6134740  94.5443510  17.5942990
  16.9979010  95.0523180  17.0658450  17.2931160  93.6441840  17.5368930
   5.3879250  90.5166880   9.4569860   4.9447400  91.2976420   9.1254380
   5.9464240  90.8396770  10.1640800   9.6749060  93.3835400  15.0605180
   9.2128430  93.5918420  15.8725120   9.2727170  92.5694750  14.7575850
  14.6753570  94.6044350  16.1901840  13.8247160  94.3050100  16.5110910
  14.5155360  94.8486360  15.2785660  11.7703280  96.1046100  18.2900630
  12.0956690  95.2709850  17.9502860  12.5583610  96.6274620  18.4378960
   8.5038070  90.1377580   4.3375690   7.8792250  90.1337450   5.0629000
   8.4168190  89.2708540   3.9411660   7.4255150  91.0614210  11.3159460
   7.7227480  91.9677040  11.2351480   7.9740710  90.5732990  10.7019030
   5.1793470  95.6400450   7.1851110   4.9534390  95.4237620   8.0897730
   4.3986000  96.0728910   6.8397080  12.4091230  95.6463820   5.7841760
  11.8100120  96.3699620   5.6005380  12.9570840  95.5840600   5.0018210
   7.6192680  96.5386030  17.8511380   7.5236280  95.5980760  17.7011780
   8.4624660  96.7601100  17.4559450  11.0156100  94.2827360   7.8145040
  11.4085670  94.5999560   7.0013730  11.3772950  93.4039240   7.9289560
   2.7503220  92.9499700  16.0045160   2.3566610  93.7974910  16.2117940
   2.0621620  92.3126070  16.1953800   9.3248270  93.0334670  19.0741900
   8.6346590  92.8406870  19.7087990  10.0680570  93.3169310  19.6066200
  11.6011240  96.8733110  11.9095820  10.8692360  97.3819920  12.2585920
  11.2035580  96.0563090  11.6084600   8.0388630  93.5487310  10.3148310
   8.0424690  93.1077260   9.4652850   8.9339750  93.8704640  10.4220130
   3.8891010  93.4313800   9.2742520   3.5491060  93.9089030  10.0309570
   3.1268330  92.9778920   8.9143620   8.1008780  94.5499390   3.3055070
   8.2221600  94.5085870   4.2540890   7.7157290  95.4123540   3.1501800
  12.0637150  92.3266790  11.3218760  12.0809890  92.7775440  12.1660610
  11.8152730  91.4272430  11.5352200   7.1130280  96.8600530   2.7038370
   6.5447180  96.4118780   2.0774280   7.8219280  97.2193310   2.1703520
  15.4907900  89.7398970  17.1605140  15.8153670  89.0088630  17.6863120
  15.5264410  89.4212610  16.2586130   8.3396600  97.6089090  12.0613720
   8.7066730  97.1347660  12.8075060   8.1501660  98.4830660  12.4022060
   6.1295970  96.6497730  14.3797930   5.8253040  97.5289710  14.6048290
   7.0842430  96.7097520  14.4155370   4.6577760 100.8558720   4.9764780
   3.8840020 100.3156340   4.8163500   5.3872390 100.3365330   4.6382540
  15.4165740  99.8524080  10.7691170  16.1364860 100.3479370  10.3787280
  15.2147560  99.1741970  10.1245040  10.8775680  91.2462040   4.9120560
  10.0640290  90.7475210   4.8365870  10.6837630  92.0860290   4.4956910
  10.7984540  99.9233140  16.6560170  10.7321850  99.0028810  16.4017760
  10.1689680 100.0208580  17.3704810  13.5924070  95.6181690   3.2082720
  14.4803690  95.9298920   3.0334060  13.5629160  94.7453940   2.8163300
   4.7015160 100.5239100   8.6143590   5.2193830  99.7207360   8.5600480
   4.2499180 100.4618240   9.4560420   2.1859700  97.4900470  15.5269290
   1.8274640  98.1554320  16.1142630   1.8914260  96.6584020  15.8981910
   5.3872820  97.9484710  18.4108840   5.0872960  98.0941890  17.5136660
   6.1584060  97.3890000  18.3182230  15.8638340  96.9293530   2.6762580
  15.7802060  97.3607750   1.8259020  16.5832530  97.3891880   3.1089400
  16.9412480  99.3861050  15.7532550  16.2160670  99.9789830  15.5561940
  17.4687940  99.3784590  14.9545920   7.8602560  98.8764940   6.2712170
   8.3165340  99.6870190   6.4972360   7.5090770  98.5588080   7.1030660
   3.7614340  89.2202590   6.7434690   3.6328970  89.2120490   7.6919610
   2.9376360  89.5585680   6.3925700   2.6814260  99.3065200   4.2785950
   2.0742210 100.0464100   4.2881250   3.1563610  99.3964560   3.4524150
  12.2547050  93.4716020  13.9542840  12.6227870  92.6511230  14.2822410
  11.3945250  93.5317910  14.3698490  15.6209080  92.4272960   4.7630400
  14.9922240  92.5318630   4.0488630  15.1261000  92.6469740   5.5524280
   7.5893110  94.7058910   6.1788280   6.8809260  95.1745250   6.6201890
   7.8737590  94.0480920   6.8133470   9.2149040  96.1255610  14.1780810
   9.7134290  96.6001430  14.8432660   9.3571990  95.2019130  14.3850840
  11.6208540  91.4309570   7.6184070  11.4976320  91.4495700   6.6693580
  12.5693100  91.4788510   7.7382470   5.7928130  93.0143990   3.5538990
   6.6418660  93.4514140   3.4879180   5.4259400  93.3264250   4.3811050
  16.4215900  92.3423570  15.0209200  15.9189500  93.0828970  15.3603010
  17.2372560  92.7307570  14.7045990  14.7137910  97.5856750   8.4670560
  13.7728050  97.6006980   8.6418250  15.0281980  96.7992710   8.9130860
   3.3866310  96.7001420   2.7107410   3.4669900  95.7528930   2.8224810
   4.2786060  97.0308300   2.8168070   7.9675050  99.9287330  17.4799100
   7.2020720 100.4972330  17.3953770   8.1491010  99.6363540  16.5867330
  11.0563460 100.3050560   2.1051860  10.5073560 100.7519860   2.7494600
  11.6782720  99.7999810   2.6289530   2.9460190  96.6645930  18.8413650
   2.9865530  96.3659800  19.7498880   3.8005690  97.0653540  18.6821170
   6.7238580  99.2641480   4.0017160   7.1455000  99.0981350   4.8448550
   6.8489420  98.4541710   3.5072300   4.8866000  95.2438030  16.8088140
   4.3562460  94.7528980  16.1811480   5.5554070  95.6722230  16.2746070
  13.7844060  99.7107490  16.5729330  14.1985080  99.8652570  17.4219750
  12.8495060  99.8362710  16.7355110  14.2566230  97.0503650  18.5768480
  14.8387000  96.2955970  18.4888960  14.4328000  97.5811090  17.7999960
   5.3738300  92.2100400  16.8885430   5.2795170  91.5921150  16.1636300
   4.7935690  92.9366690  16.6615340   8.1399740  90.7673640  13.9212820
   7.6917040  90.7897900  13.0758370   7.5064940  90.3692660  14.5183120
   8.5459290  99.6627970  14.5425260   8.9647400 100.5060700  14.3701500
   7.6267920  99.8000010  14.3132040  10.8823190  97.3944150  15.9263100
  11.0019400  96.7985290  16.6657940  11.7417190  97.4313840  15.5064400
  13.2211090  97.9481340  14.5025610  12.6946310  98.4723960  13.8990750
  13.5642430  98.5808730  15.1335340   7.6491960  93.9365500  17.1838920
   8.2391650  93.6281350  17.8716740   6.8312200  93.4645250  17.3398820
  12.4685390  93.5531310  17.4171940  11.7800910  92.8912850  17.3521930
  13.1891410  93.1069580  17.8620400  13.0985790  90.1482940   3.4762200
  13.3788080  89.3050840   3.8321620  12.3251520  90.3806050   3.9900950
  17.4766510  99.3859670   4.0866110  18.2385420  99.9556320   4.1925800
  17.4920880  98.8186870   4.8574420  13.9261290  92.7038890   2.5392260
  14.3446170  92.5169870   1.6988920  13.6197350  91.8517940   2.8495190
  17.4251020  97.6163030   6.2368060  17.0494620  96.8490960   5.8049350
  16.6954140  97.9985730   6.7242990   2.0146780  98.2950170  12.8577110
   2.3819820  98.2077570  13.7373130   1.4457600  97.5316720  12.7583970
  16.8150640  96.7634550  15.8707580  16.5836730  96.5347300  14.9705530
  17.0755190  97.6834100  15.8252470  15.2538710  91.9890980  18.6487280
  16.1308890  91.9974380  19.0321280  15.2659550  91.2521820  18.0379630
  16.7001980  95.8420520   9.5375300  17.2239460  95.3483170   8.9065470
  17.2861400  95.9770880  10.2822870  16.8791700  95.9260390  13.0594850
  15.9294410  95.8923930  13.1739840  17.0604710  96.8360500  12.8244620
  16.1901950  95.0993870   5.4767710  16.6861070  94.8664740   6.2616590
  15.9918020  94.2605710   5.0605350   2.0702490  89.4807590  11.1118750
   2.7178680  88.9304970  10.6713910   2.4904330  89.7350740  11.9334560
  17.6189110  93.7354820   8.0105390  17.5088390  93.5810860   8.9487660
  18.3796700  93.2075760   7.7680800  15.9654830  89.6748950  14.4688390
  16.6027050  90.2883090  14.8347580  16.1129720  89.7109610  13.5237620
  18.5817870  92.3373400   3.8768240  17.7869370  92.2718520   4.4061150
  18.7861150  93.2724040   3.8653590   1.8234490  89.6363260  13.8544070
   1.4749310  90.0927080  14.6202250   1.4922190  88.7420390  13.9366500
   9.3359310  90.8275140  17.3763490   9.2748200  91.4196970  18.1258900
  10.2759690  90.7201100  17.2313750  11.9733870  90.4845200  17.0155780
  12.5874280  90.8024490  16.3536860  12.5183430  89.9993790  17.6351640
   2.4955130  89.1639460  17.1294840   3.0438120  88.9827510  16.3660950
   2.5610440  88.3733570  17.6651150  12.7141910  89.0477340  13.3425070
  11.8401750  89.3812450  13.1398000  12.6052660  88.5750520  14.1676940
  13.6213890  91.2548210  14.7266790  13.2927250  90.4399970  14.3468520
  14.5696190  91.2118020  14.6032480  10.4616730  89.9647180  12.2817980
   9.6788520  90.4392680  12.5614740  10.1679660  89.0602010  12.1731160
  15.0137800  90.6670280  10.3267070  15.4545890  90.6115380   9.4788670
  14.7445390  91.5828290  10.3977250  16.8776370  90.2985520   8.3375890
  16.8164770  89.3546740   8.1906910  17.6568400  90.4065610   8.8829350
   1.8057140  90.2694660   4.8031700   2.5636500  90.3823540   4.2295730
   1.3434310  91.1063860   4.7575130   8.3470950  92.3833930   7.7934010
   7.5345460  92.0090820   7.4529890   8.8512590  91.6279010   8.0955200
  12.8495930  89.0476380   9.0317080  13.4525300  89.6196590   9.5065600
  12.1088920  89.6115820   8.8090980  15.9930530  89.4497940   4.3057360
  16.1881160  90.3481390   4.5724790  15.2060400  89.2185020   4.7990310
   4.1782290  90.7958710   3.3433670   4.7075050  90.0088510   3.2141620
   4.8110610  91.4749900   3.5769200   6.3720130  90.5333850   6.3979060
   5.7422870  89.8321160   6.5649190   5.8325270  91.2937980   6.1812220
   6.4975690  89.8117830  18.8331550   6.2159960  90.3151430  18.0692370
   6.8795390  89.0139580  18.4673680  13.0991150  89.2271410  19.4112020
  12.9856600  89.5466020  20.3063540  13.9160890  89.6283920  19.1149300
  12.0049300  78.4720390  64.8720720  11.9243350  77.5575000  64.6012430
  11.5913720  78.9687460  64.1660430  10.1367340  80.2499410  66.7529990
   9.3609440  79.7699850  67.0428560  10.7880270  79.5705060  66.5786150
   4.1533170  80.5619220  67.6305750   3.3218050  80.3067930  68.0302260
   4.7614150  80.6329990  68.3663670  14.1574770  84.6559600  65.5329120
  13.6956300  83.8846840  65.8616290  14.9700320  84.6825670  66.0381570
   4.1334430  84.5959310  67.8263770   4.4362470  83.7057050  67.6473990
   4.8778020  85.1529530  67.5986020   2.5625120  75.5221110  61.4148140
   1.6741820  75.8637080  61.3128020   2.8466310  75.3221430  60.5228970
  10.3838080  86.9417610  65.1533110   9.7649520  87.3975110  64.5827550
  11.2389860  87.0969070  64.7522810   9.5776330  82.9256600  66.7600150
   9.5084610  81.9846540  66.5989280  10.3396190  83.0158010  67.3322720
   1.7683000  73.5311120  69.0856770   1.5885840  72.6336870  69.3659530
   1.3663080  74.0782990  69.7603720  10.6081500  75.7326980  66.9869080
  10.9846320  74.8598860  66.8742750  10.5101010  76.0685680  66.0959520
   4.7386510  74.1052610  62.4486520   4.8453260  75.0056340  62.7555280
   3.8278870  74.0570580  62.1581170  14.3905620  73.2277420  63.9197420
  15.2115240  72.7373990  63.9622900  14.4239700  73.8175080  64.6729260
   2.3869670  76.0271620  67.6939110   3.0679780  76.2909990  68.3126510
   2.0717720  75.1872490  68.0277120   6.5794240  77.0738980  66.7811700
   7.0872460  77.5719950  67.4216720   7.1107480  76.2974180  66.6051060
  18.6805170  75.2444170  70.4841050  17.9757340  75.6325880  69.9656160
  18.9463090  75.9394460  71.0861980   4.8630340  71.7137540  71.0475120
   4.8648780  72.2309930  70.2421020   4.0334650  71.2367720  71.0245050
  11.2501430  81.8256850  62.5465020  10.6318700  82.2906300  61.9827740
  11.7624680  82.5184330  62.9634530   6.1133190  81.3532720  69.2248620
   5.7802570  81.9801640  69.8669690   6.2899870  81.8794600  68.4450290
  14.6267100  75.1677800  66.6924960  13.9222670  75.4562690  67.2728070
  14.9879260  75.9777910  66.3324520   4.5445670  73.4247500  69.0545570
   4.8862480  74.2689550  68.7599440   3.6061480  73.5731240  69.1710910
   5.3252290  83.3213520  71.0397800   5.9426290  83.9964600  70.7582250
   4.4645410  83.7301500  70.9485300  16.2429880  84.7852930  68.9552440
  15.5593400  85.4552040  68.9469110  16.7824170  84.9833580  68.1897300
  17.6954020  74.6132590  67.0834170  16.7478930  74.6471570  67.2149600
  18.0204010  75.4271540  67.4683530   8.2273560  70.9129770  65.3790160
   8.5348540  70.3576660  64.6625660   7.2974260  71.0474230  65.1963150
  13.7788620  86.6297060  67.6697620  13.7915780  86.2259350  66.8019880
  13.2263840  87.4044350  67.5659050  15.0734040  83.3513280  62.7587790
  14.9630370  82.4087610  62.8837210  15.0702290  83.7128920  63.6450550
  13.1774060  81.5326900  68.9980230  13.5942850  81.3187010  68.1633690
  13.9013880  81.7899690  69.5688850  10.6154320  78.9778600  62.1150280
   9.6883600  78.9115980  62.3438750  10.7679140  79.9158730  62.0005520
  10.6023400  75.2495600  59.1117440   9.6627070  75.4109560  59.1969900
  10.9206660  75.9681280  58.5653430  17.1236160  79.9314120  69.0896470
  16.2954790  80.0007210  68.6146600  17.7186640  80.5168430  68.6212300
  14.6451610  80.5398900  62.6185530  14.0264030  80.2018450  61.9711830
  14.6276060  79.8958660  63.3264720  14.0878170  76.7183440  70.0351340
  13.6749350  77.5437150  70.2891330  13.3554120  76.1328480  69.8427700
   6.2210960  79.5043340  64.8970010   5.8167960  78.7920590  64.4015910
   6.3074080  79.1596580  65.7858050   6.6892660  83.1910900  67.0609220
   6.3920950  82.5856370  66.3817000   7.6392480  83.2288210  66.9498580
   4.9339580  76.2786550  68.6769050   5.4854170  76.3881890  67.9022300
   5.4483090  76.6524150  69.3924280  14.7778270  86.7642770  70.7232320
  14.3008830  87.5714960  70.5304930  14.0940060  86.1121100  70.8758530
   5.7811090  82.9292590  73.7117020   4.8839620  83.1532560  73.9590420
   5.8063960  83.0527530  72.7628420  12.8216310  79.7785710  59.6258280
  13.2609590  78.9408140  59.4796100  13.5344730  80.4115110  59.7122420
   4.6082310  79.8005910  72.2874390   4.4690080  80.6728710  72.6561790
   3.7263670  79.4578720  72.1422330  10.9311690  84.7181780  63.5939520
  11.3707600  85.4606110  63.1794910  10.8698580  84.9608350  64.5178480
   6.4062660  85.7427610  74.4959540   6.3778090  86.1470560  73.6287970
   6.2427630  84.8137970  74.3331140  16.4033450  71.0328520  57.9399320
  16.0906110  71.1255350  58.8398390  17.1645920  71.6109550  57.8896750
   2.9215590  78.3988320  62.3976660   2.8013190  79.1250410  61.7857930
   2.6116480  77.6291230  61.9204570   1.8048590  83.2703650  64.6151480
   1.3976670  83.4118240  63.7605080   2.6961600  82.9863810  64.4122690
  17.7610730  83.7167560  72.9523720  17.8873790  83.4779440  72.0340900
  17.8032110  82.8852100  73.4245800  11.6227470  87.4195560  71.5218530
  12.1372140  87.3303570  72.3240960  10.7796550  87.7655260  71.8146440
  13.5981870  87.7050900  60.9502530  13.4383010  87.4153840  61.8484360
  13.4328580  86.9291030  60.4147760   6.0770250  87.4849430  62.7274150
   5.9012730  86.5684970  62.5141950   5.2225990  87.8436720  62.9671950
  13.3008000  85.2138460  59.5100530  12.6073160  85.2115750  58.8502810
  14.0430860  84.7897780  59.0794700  12.8657930  86.8401170  63.5849020
  13.3214880  86.0590550  63.8987640  13.2050450  87.5507990  64.1290200
  17.6134740  75.7700020  73.9173460  16.9979010  76.2779690  73.3888920
  17.2931160  74.8698350  73.8599400   5.3879250  71.7423390  65.7800330
   4.9447400  72.5232930  65.4484850   5.9464240  72.0653280  66.4871270
   9.6749060  74.6091910  71.3835650   9.2128430  74.8174930  72.1955590
   9.2727170  73.7951260  71.0806320  14.6753570  75.8300860  72.5132310
  13.8247160  75.5306610  72.8341380  14.5155360  76.0742870  71.6016130
  11.7703280  77.3302610  74.6131100  12.0956690  76.4966360  74.2733330
  12.5583610  77.8531130  74.7609430   8.5038070  71.3634090  60.6606160
   7.8792250  71.3593960  61.3859470   8.4168190  70.4965050  60.2642130
   7.4255150  72.2870720  67.6389930   7.7227480  73.1933550  67.5581950
   7.9740710  71.7989500  67.0249500   5.1793470  76.8656960  63.5081580
   4.9534390  76.6494130  64.4128200   4.3986000  77.2985420  63.1627550
  12.4091230  76.8720330  62.1072230  11.8100120  77.5956130  61.9235850
  12.9570840  76.8097110  61.3248680   7.6192680  77.7642540  74.1741850
   7.5236280  76.8237270  74.0242250   8.4624660  77.9857610  73.7789920
  11.0156100  75.5083870  64.1375510  11.4085670  75.8256070  63.3244200
  11.3772950  74.6295750  64.2520030   2.7503220  74.1756210  72.3275630
   2.3566610  75.0231420  72.5348410   2.0621620  73.5382580  72.5184270
  11.6011240  78.0989620  68.2326290  10.8692360  78.6076430  68.5816390
  11.2035580  77.2819600  67.9315070   8.0388630  74.7743820  66.6378780
   8.0424690  74.3333770  65.7883320   8.9339750  75.0961150  66.7450600
   3.8891010  74.6570310  65.5972990   3.5491060  75.1345540  66.3540040
   3.1268330  74.2035430  65.2374090   8.1008780  75.7755900  59.6285540
   8.2221600  75.7342380  60.5771360   7.7157290  76.6380050  59.4732270
  12.0637150  73.5523300  67.6449230  12.0809890  74.0031950  68.4891080
  11.8152730  72.6528940  67.8582670   7.1130280  78.0857040  59.0268840
   6.5447180  77.6375290  58.4004750   7.8219280  78.4449820  58.4933990
  15.4907900  70.9655480  73.4835610  15.8153670  70.2345140  74.0093590
  15.5264410  70.6469120  72.5816600   2.1899460  81.9869060  72.9035570
   1.8054250  81.3462730  73.5018530   2.5011650  82.6905180  73.4730300
   8.3396600  78.8345600  68.3844190   8.7066730  78.3604170  69.1305530
   8.1501660  79.7087170  68.7252530   6.1295970  77.8754240  70.7028400
   5.8253040  78.7546220  70.9278760   7.0842430  77.9354030  70.7385840
   4.6577760  82.0815230  61.2995250   3.8840020  81.5412850  61.1393970
   5.3872390  81.5621840  60.9613010  15.4165740  81.0780590  67.0921640
  16.1364860  81.5735880  66.7017750  15.2147560  80.3998480  66.4475510
  10.8775680  72.4718550  61.2351030  10.0640290  71.9731720  61.1596340
  10.6837630  73.3116800  60.8187380  10.7984540  81.1489650  72.9790640
  10.7321850  80.2285320  72.7248230  10.1689680  81.2465090  73.6935280
  13.5924070  76.8438200  59.5313190  14.4803690  77.1555430  59.3564530
  13.5629160  75.9710450  59.1393770   4.7015160  81.7495610  64.9374060
   5.2193830  80.9463870  64.8830950   4.2499180  81.6874750  65.7790890
   9.5884660  83.0161890  60.2101360   9.9300360  83.7604120  59.7144680
   8.7597370  83.3293010  60.5726190   2.1859700  78.7156980  71.8499760
   1.8274640  79.3810830  72.4373100   1.8914260  77.8840530  72.2212380
   5.3872820  79.1741220  74.7339310   5.0872960  79.3198400  73.8367130
   6.1584060  78.6146510  74.6412700  10.7301270  83.9710220  72.7294440
  10.7445810  83.0391180  72.5113350  10.0226370  84.0569980  73.3684210
  15.8638340  78.1550040  58.9993050  15.7802060  78.5864260  58.1489490
  16.5832530  78.6148390  59.4319870  16.9412480  80.6117560  72.0763020
  16.2160670  81.2046340  71.8792410  17.4687940  80.6041100  71.2776390
  16.8925590  85.0092300  61.7275180  16.2501750  84.3547920  62.0018900
  16.5056250  85.4147390  60.9515850  12.4712070  82.3377730  65.5746870
  12.8235890  81.7405860  64.9148240  11.5874400  82.0121960  65.7455120
   8.5575350  83.0975420  62.9817280   9.2446480  83.6444630  63.3624870
   7.7707770  83.6416150  63.0166890   7.8602560  80.1021450  62.5942640
   8.3165340  80.9126700  62.8202830   7.5090770  79.7844590  63.4261130
  10.1635170  85.6127790  69.8234940  10.8077390  85.8187170  70.5008360
  10.5264610  84.8516190  69.3705790   3.7614340  70.4459100  63.0665160
   3.6328970  70.4377000  64.0150080   2.9376360  70.7842190  62.7156170
  11.4367250  83.6160140  68.5412390  12.0789480  82.9153300  68.6544560
  11.9616600  84.3958580  68.3609280  15.2822970  83.9008760  58.2651530
  15.0560550  83.1839200  58.8576170  14.8919170  83.6521200  57.4273280
  13.2104870  84.4155040  71.7448450  13.5461110  85.0021730  72.4226370
  12.2905210  84.2847750  71.9746240  14.8639220  81.8180700  59.9265690
  14.5760920  82.2793390  60.7143570  15.6591390  81.3578470  60.1949910
   7.0807620  85.3106820  59.8569660   7.0717720  86.0436510  59.2414170
   6.1605980  85.0638400  59.9496620   2.6814260  80.5321710  60.6016420
   2.0742210  81.2720610  60.6111720   3.1563610  80.6221070  59.7754620
  12.2547050  74.6972530  70.2773310  12.6227870  73.8767740  70.6052880
  11.3945250  74.7574420  70.6928960  15.6209080  73.6529470  61.0860870
  14.9922240  73.7575140  60.3719100  15.1261000  73.8726250  61.8754750
  10.0667220  85.3735060  58.5194850  10.1679200  85.1699050  57.5896830
   9.1668960  85.1193340  58.7242630   7.5893110  75.9315420  62.5018750
   6.8809260  76.4001760  62.9432360   7.8737590  75.2737430  63.1363940
   9.2149040  77.3512120  70.5011280   9.7134290  77.8257940  71.1663130
   9.3571990  76.4275640  70.7081310  11.6208540  72.6566080  63.9414540
  11.4976320  72.6752210  62.9924050  12.5693100  72.7045020  64.0612940
   8.7085330  87.8921380  63.2142520   8.9626830  87.8542770  62.2921890
   7.7597810  87.7654710  63.2070770   5.7928130  74.2400500  59.8769460
   6.6418660  74.6770650  59.8109650   5.4259400  74.5520760  60.7041520
  16.4215900  73.5680080  71.3439670  15.9189500  74.3085480  71.6833480
  17.2372560  73.9564080  71.0276460  14.7137910  78.8113260  64.7901030
  13.7728050  78.8263490  64.9648720  15.0281980  78.0249220  65.2361330
   4.6919550  80.4932860  58.3504990   5.4582820  80.3814220  58.9130420
   4.7694240  79.7970830  57.6981760   3.3866310  77.9257930  59.0337880
   3.4669900  76.9785440  59.1455280   4.2786060  78.2564810  59.1398540
  16.7163490  85.9822110  66.4655290  16.8410910  86.8053280  66.9379100
  17.5829050  85.7712840  66.1179440   4.1881020  88.0753320  66.1372420
   4.9243500  87.5268780  66.4080990   4.5721940  88.9409330  65.9978410
   7.2983330  87.2483630  57.9597990   8.0911940  87.5372460  57.5079780
   6.7787680  86.8175800  57.2810470  13.4604300  87.0959550  73.8842820
  14.4126050  87.0117570  73.8343060  13.3132520  87.7601260  74.5576610
  16.3513500  86.4753760  59.3834730  16.0655010  86.0618900  58.5688910
  16.1533050  87.4041470  59.2635250   7.8160730  82.4687040  57.8240340
   7.7111370  81.8539390  58.5501720   7.6484950  81.9452930  57.0403350
   7.9675050  81.1543840  73.8029570   7.2020720  81.7228840  73.7184240
   8.1491010  80.8620050  72.9097800  11.0563460  81.5307070  58.4282330
  10.5073560  81.9776370  59.0725070  11.6782720  81.0256320  58.9520000
  15.1098400  82.8849170  74.3604590  15.8507870  83.2224930  73.8572050
  14.3471080  83.0541230  73.8074360   6.7238580  80.4897990  60.3247630
   7.1455000  80.3237860  61.1679020   6.8489420  79.6798220  59.8302770
   4.8866000  76.4694540  73.1318610   4.3562460  75.9785490  72.5041950
   5.5554070  76.8978740  72.5976540   9.2366220  79.5135600  57.5724730
   9.7571880  78.7984620  57.2065880   9.8834620  80.1521470  57.8725240
  13.7844060  80.9364000  72.8959800  14.1985080  81.0909080  73.7450220
  12.8495060  81.0619220  73.0585580  14.2566230  78.2760160  74.8998950
  14.8387000  77.5212480  74.8119430  14.4328000  78.8067600  74.1230430
   5.3738300  73.4356910  73.2115900   5.2795170  72.8177660  72.4866770
   4.7935690  74.1623200  72.9845810   8.1399740  71.9930150  70.2443290
   7.6917040  72.0154410  69.3988840   7.5064940  71.5949170  70.8413590
   8.5459290  80.8884480  70.8655730   8.9647400  81.7317210  70.6931970
   7.6267920  81.0256520  70.6362510  10.8823190  78.6200660  72.2493570
  11.0019400  78.0241800  72.9888410  11.7417190  78.6570350  71.8294870
  13.2211090  79.1737850  70.8256080  12.6946310  79.6980470  70.2221220
  13.5642430  79.8065240  71.4565810   5.6197480  76.5631220  57.2705790
   5.4186540  75.6998580  57.6319130   5.4489530  76.4764580  56.3327390
   6.3966710  87.1937490  71.9813460   5.8587800  87.9183550  71.6622160
   6.6500670  86.7167830  71.1910800   7.6491960  75.1622010  73.5069390
   8.2391650  74.8537860  74.1947210   6.8312200  74.6901760  73.6629290
  12.4685390  74.7787820  73.7402410  11.7800910  74.1169360  73.6752400
  13.1891410  74.3326090  74.1850870  13.0985790  71.3739450  59.7992670
  13.3788080  70.5307350  60.1552090  12.3251520  71.6062560  60.3131420
   4.4180280  73.6631840  57.2583670   4.7206180  73.6699270  56.3502820
   5.1574870  73.3129700  57.7551330   9.2528920  88.4288700  72.2400110
   9.1787620  89.3323840  72.5472480   8.3507760  88.1100600  72.2122180
   7.6365210  72.6066460  58.2439870   7.2887210  71.9290450  57.6642320
   7.8377980  72.1455970  59.0583260   9.8014250  87.5947210  59.8626470
  10.6965040  87.9332180  59.8845230   9.8331880  86.8726620  59.2350750
   3.4410410  82.9674260  58.0913470   3.8785280  83.5103930  58.7471050
   3.9258140  82.1421210  58.1009810   5.2518130  84.0872300  63.2035700
   4.9513670  83.9637270  64.1039610   5.1455620  83.2280890  62.7951430
  16.7808600  86.1250880  72.5692670  16.1810590  86.1843440  71.8256590
  16.9102500  85.1855860  72.6989520  18.0210050  83.8668700  57.9062380
  17.1903010  83.9345350  58.3769610  18.1981880  84.7572820  57.6029240
  17.4766510  80.6116180  60.4096580  18.2385420  81.1812830  60.5156270
  17.4920880  80.0443380  61.1804890  18.4826480  81.4666280  65.2538510
  18.8535310  80.6833600  64.8474480  19.1228410  82.1555380  65.0755810
  15.4660240  82.8502860  70.6668830  14.6520080  83.2800020  70.9294620
  15.8734440  83.4621270  70.0537880  17.5285680  80.9050550  57.5669100
  17.8034520  81.8129430  57.4388320  17.3396420  80.8413080  58.5031090
  13.9261290  73.9295400  58.8622730  14.3446170  73.7426380  58.0219390
  13.6197350  73.0774450  59.1725660  17.4251020  78.8419540  62.5598530
  17.0494620  78.0747470  62.1279820  16.6954140  79.2242240  63.0473460
   2.0146780  79.5206680  69.1807580   2.3819820  79.4334080  70.0603600
   1.4457600  78.7573230  69.0814440  16.8150640  77.9891060  72.1938050
  16.5836730  77.7603810  71.2936000  17.0755190  78.9090610  72.1482940
  16.7001980  77.0677030  65.8605770  17.2239460  76.5739680  65.2295940
  17.2861400  77.2027390  66.6053340  16.8791700  77.1516900  69.3825320
  15.9294410  77.1180440  69.4970310  17.0604710  78.0617010  69.1475090
   2.7336140  75.4018580  58.4923950   3.4427840  74.9801800  58.0071230
   2.0176080  75.4693810  57.8607300   2.3810300  71.4557910  57.5326600
   3.1038430  71.9966850  57.8507820   2.6534820  71.1821330  56.6568140
  16.1901950  76.3250380  61.7998180  16.6861070  76.0921250  62.5847060
  15.9918020  75.4862220  61.3835820   2.0702490  70.7064100  67.4349220
   2.7178680  70.1561480  66.9944380   2.4904330  70.9607250  68.2565030
  17.6189110  74.9611330  64.3335860  17.5088390  74.8067370  65.2718130
  18.3796700  74.4332270  64.0911270  15.9654830  70.9005460  70.7918860
  16.6027050  71.5139600  71.1578050  16.1129720  70.9366120  69.8468090
  18.5079380  72.7919250  57.5742000  19.4328690  72.6600430  57.3660290
  18.4855170  72.8712070  58.5278450  18.5817870  73.5629910  60.1998710
  17.7869370  73.4975030  60.7291620  18.7861150  74.4980550  60.1884060
  15.5236290  87.6021460  64.1937100  16.1195360  87.2806030  63.5171520
  15.7814440  87.1293280  64.9850370   1.8234490  70.8619770  70.1774540
   1.4749310  71.3183590  70.9432720   1.4922190  69.9676900  70.2596970
   7.1304890  85.5898960  69.9437450   6.8896250  85.8573520  69.0567970
   8.0707530  85.7604690  69.9988310   9.3359310  72.0531650  73.6993960
   9.2748200  72.6453480  74.4489370  10.2759690  71.9457610  73.5544220
  11.9733870  71.7101710  73.3386250  12.5874280  72.0281000  72.6767330
  12.5183430  71.2250300  73.9582110  18.3909050  87.6093340  70.7448090
  17.8967330  88.0062210  70.0275220  17.7822340  86.9842550  71.1385370
   2.4955130  70.3895970  73.4525310   3.0438120  70.2084020  72.6891420
   2.5610440  69.5990080  73.9881620   3.2686890  86.9801620  71.4625510
   2.6747210  86.8486320  72.2015550   3.2610730  86.1439760  70.9967610
  12.7141910  70.2733850  69.6655540  11.8401750  70.6068960  69.4628470
  12.6052660  69.8007030  70.4907410  13.6213890  72.4804720  71.0497260
  13.2927250  71.6656480  70.6698990  14.5696190  72.4374530  70.9262950
  16.0748500  88.2516760  68.0234830  15.6151470  89.0032570  67.6492850
  15.4460960  87.5323230  67.9649630   2.8999120  84.3460000  70.4133550
   2.1733180  83.7265290  70.3459500   2.9608270  84.7400610  69.5431630
   6.5044220  86.5605000  67.1982960   7.0209240  85.9492360  66.6731220
   7.1541600  87.0633780  67.6893970   9.2439720  87.4513490  68.0251940
   9.5317530  87.1967790  67.1484950   9.7562940  86.8990850  68.6157510
  10.4616730  71.1903690  68.6048450   9.6788520  71.6649190  68.8845210
  10.1679660  70.2858520  68.4961630  15.0137800  71.8926790  66.6497540
  15.4545890  71.8371890  65.8019140  14.7445390  72.8084800  66.7207720
  16.8776370  71.5242030  64.6606360  16.8164770  70.5803250  64.5137380
  17.6568400  71.6322120  65.2059820   1.8057140  71.4951170  61.1262170
   2.5636500  71.6080050  60.5526200   1.3434310  72.3320370  61.0805600
   8.3470950  73.6090440  64.1164480   7.5345460  73.2347330  63.7760360
   8.8512590  72.8535520  64.4185670  12.8495930  70.2732890  65.3547550
  13.4525300  70.8453100  65.8296070  12.1088920  70.8372330  65.1321450
  15.9930530  70.6754450  60.6287830  16.1881160  71.5737900  60.8955260
  15.2060400  70.4441530  61.1220780   2.7891820  86.3567620  61.0680450
   2.2639440  86.7375650  60.3642410   2.7136400  86.9818390  61.7890160
   4.1782290  72.0215220  59.6664140   4.7075050  71.2345020  59.5372090
   4.8110610  72.7006410  59.8999670   6.3720130  71.7590360  62.7209530
   5.7422870  71.0577670  62.8879660   5.8325270  72.5194490  62.5042690
  17.5457140  87.9155160  62.3894390  17.7209330  87.2292900  61.7455310
  16.8478710  88.4402210  61.9971060   5.3884790  88.3050000  59.9429700
   6.1203610  88.0209280  59.3953590   5.6478460  88.0663280  60.8329080
   4.5499580  84.4214730  59.9476030   3.9208460  84.8899830  60.4961860
   4.6647410  83.5763950  60.3822220  12.0049300  78.4720390  46.0977230
  11.9243350  77.5575000  45.8268940  11.5913720  78.9687460  45.3916940
  10.1367340  80.2499410  47.9786500   9.3609440  79.7699850  48.2685070
  10.7880270  79.5705060  47.8042660   4.1533170  80.5619220  48.8562260
   3.3218050  80.3067930  49.2558770   4.7614150  80.6329990  49.5920180
  14.1574770  84.6559600  46.7585630  13.6956300  83.8846840  47.0872800
  14.9700320  84.6825670  47.2638080   4.1334430  84.5959310  49.0520280
   4.4362470  83.7057050  48.8730500   4.8778020  85.1529530  48.8242530
   2.5625120  75.5221110  42.6404650   1.6741820  75.8637080  42.5384530
   2.8466310  75.3221430  41.7485480  10.3838080  86.9417610  46.3789620
   9.7649520  87.3975110  45.8084060  11.2389860  87.0969070  45.9779320
   9.5776330  82.9256600  47.9856660   9.5084610  81.9846540  47.8245790
  10.3396190  83.0158010  48.5579230   1.7683000  73.5311120  50.3113280
   1.5885840  72.6336870  50.5916040   1.3663080  74.0782990  50.9860230
  10.6081500  75.7326980  48.2125590  10.9846320  74.8598860  48.0999260
  10.5101010  76.0685680  47.3216030   4.7386510  74.1052610  43.6743030
   4.8453260  75.0056340  43.9811790   3.8278870  74.0570580  43.3837680
  14.3905620  73.2277420  45.1453930  15.2115240  72.7373990  45.1879410
  14.4239700  73.8175080  45.8985770   2.3869670  76.0271620  48.9195620
   3.0679780  76.2909990  49.5383020   2.0717720  75.1872490  49.2533630
   6.5794240  77.0738980  48.0068210   7.0872460  77.5719950  48.6473230
   7.1107480  76.2974180  47.8307570  18.6805170  75.2444170  51.7097560
  17.9757340  75.6325880  51.1912670  18.9463090  75.9394460  52.3118490
   4.8630340  71.7137540  52.2731630   4.8648780  72.2309930  51.4677530
   4.0334650  71.2367720  52.2501560  11.2501430  81.8256850  43.7721530
  10.6318700  82.2906300  43.2084250  11.7624680  82.5184330  44.1891040
   6.1133190  81.3532720  50.4505130   5.7802570  81.9801640  51.0926200
   6.2899870  81.8794600  49.6706800  14.6267100  75.1677800  47.9181470
  13.9222670  75.4562690  48.4984580  14.9879260  75.9777910  47.5581030
   4.5445670  73.4247500  50.2802080   4.8862480  74.2689550  49.9855950
   3.6061480  73.5731240  50.3967420   5.3252290  83.3213520  52.2654310
   5.9426290  83.9964600  51.9838760   4.4645410  83.7301500  52.1741810
  16.2429880  84.7852930  50.1808950  15.5593400  85.4552040  50.1725620
  16.7824170  84.9833580  49.4153810  17.6954020  74.6132590  48.3090680
  16.7478930  74.6471570  48.4406110  18.0204010  75.4271540  48.6940040
   8.2273560  70.9129770  46.6046670   8.5348540  70.3576660  45.8882170
   7.2974260  71.0474230  46.4219660  13.7788620  86.6297060  48.8954130
  13.7915780  86.2259350  48.0276390  13.2263840  87.4044350  48.7915560
  15.0734040  83.3513280  43.9844300  14.9630370  82.4087610  44.1093720
  15.0702290  83.7128920  44.8707060  13.1774060  81.5326900  50.2236740
  13.5942850  81.3187010  49.3890200  13.9013880  81.7899690  50.7945360
  10.6154320  78.9778600  43.3406790   9.6883600  78.9115980  43.5695260
  10.7679140  79.9158730  43.2262030  10.6023400  75.2495600  40.3373950
   9.6627070  75.4109560  40.4226410  10.9206660  75.9681280  39.7909940
  17.1236160  79.9314120  50.3152980  16.2954790  80.0007210  49.8403110
  17.7186640  80.5168430  49.8468810  14.6451610  80.5398900  43.8442040
  14.0264030  80.2018450  43.1968340  14.6276060  79.8958660  44.5521230
  14.0878170  76.7183440  51.2607850  13.6749350  77.5437150  51.5147840
  13.3554120  76.1328480  51.0684210   6.2210960  79.5043340  46.1226520
   5.8167960  78.7920590  45.6272420   6.3074080  79.1596580  47.0114560
   6.6892660  83.1910900  48.2865730   6.3920950  82.5856370  47.6073510
   7.6392480  83.2288210  48.1755090   4.9339580  76.2786550  49.9025560
   5.4854170  76.3881890  49.1278810   5.4483090  76.6524150  50.6180790
  14.7778270  86.7642770  51.9488830  14.3008830  87.5714960  51.7561440
  14.0940060  86.1121100  52.1015040   5.7811090  82.9292590  54.9373530
   4.8839620  83.1532560  55.1846930   5.8063960  83.0527530  53.9884930
  12.8216310  79.7785710  40.8514790  13.2609590  78.9408140  40.7052610
  13.5344730  80.4115110  40.9378930   4.6082310  79.8005910  53.5130900
   4.4690080  80.6728710  53.8818300   3.7263670  79.4578720  53.3678840
  10.9311690  84.7181780  44.8196030  11.3707600  85.4606110  44.4051420
  10.8698580  84.9608350  45.7434990   6.4062660  85.7427610  55.7216050
   6.3778090  86.1470560  54.8544480   6.2427630  84.8137970  55.5587650
  16.4033450  71.0328520  39.1655830  16.0906110  71.1255350  40.0654900
  17.1645920  71.6109550  39.1153260   2.9215590  78.3988320  43.6233170
   2.8013190  79.1250410  43.0114440   2.6116480  77.6291230  43.1461080
  18.3577480  86.5254710  57.0180220  18.8337200  87.0037600  57.6969300
  18.9784640  86.4572200  56.2925720   1.8048590  83.2703650  45.8407990
   1.3976670  83.4118240  44.9861590   2.6961600  82.9863810  45.6379200
  17.7610730  83.7167560  54.1780230  17.8873790  83.4779440  53.2597410
  17.8032110  82.8852100  54.6502310  11.6227470  87.4195560  52.7475040
  12.1372140  87.3303570  53.5497470  10.7796550  87.7655260  53.0402950
  13.5981870  87.7050900  42.1759040  13.4383010  87.4153840  43.0740870
  13.4328580  86.9291030  41.6404270   6.0770250  87.4849430  43.9530660
   5.9012730  86.5684970  43.7398460   5.2225990  87.8436720  44.1928460
  13.3008000  85.2138460  40.7357040  12.6073160  85.2115750  40.0759320
  14.0430860  84.7897780  40.3051210  12.8657930  86.8401170  44.8105530
  13.3214880  86.0590550  45.1244150  13.2050450  87.5507990  45.3546710
  17.6134740  75.7700020  55.1429970  16.9979010  76.2779690  54.6145430
  17.2931160  74.8698350  55.0855910   5.3879250  71.7423390  47.0056840
   4.9447400  72.5232930  46.6741360   5.9464240  72.0653280  47.7127780
   9.6749060  74.6091910  52.6092160   9.2128430  74.8174930  53.4212100
   9.2727170  73.7951260  52.3062830  14.6753570  75.8300860  53.7388820
  13.8247160  75.5306610  54.0597890  14.5155360  76.0742870  52.8272640
  11.7703280  77.3302610  55.8387610  12.0956690  76.4966360  55.4989840
  12.5583610  77.8531130  55.9865940   8.5038070  71.3634090  41.8862670
   7.8792250  71.3593960  42.6115980   8.4168190  70.4965050  41.4898640
   7.4255150  72.2870720  48.8646440   7.7227480  73.1933550  48.7838460
   7.9740710  71.7989500  48.2506010   5.1793470  76.8656960  44.7338090
   4.9534390  76.6494130  45.6384710   4.3986000  77.2985420  44.3884060
  12.4091230  76.8720330  43.3328740  11.8100120  77.5956130  43.1492360
  12.9570840  76.8097110  42.5505190   7.6192680  77.7642540  55.3998360
   7.5236280  76.8237270  55.2498760   8.4624660  77.9857610  55.0046430
  11.0156100  75.5083870  45.3632020  11.4085670  75.8256070  44.5500710
  11.3772950  74.6295750  45.4776540   2.7503220  74.1756210  53.5532140
   2.3566610  75.0231420  53.7604920   2.0621620  73.5382580  53.7440780
   9.3248270  74.2591180  56.6228880   8.6346590  74.0663380  57.2574970
  10.0680570  74.5425820  57.1553180  11.6011240  78.0989620  49.4582800
  10.8692360  78.6076430  49.8072900  11.2035580  77.2819600  49.1571580
   8.0388630  74.7743820  47.8635290   8.0424690  74.3333770  47.0139830
   8.9339750  75.0961150  47.9707110   3.8891010  74.6570310  46.8229500
   3.5491060  75.1345540  47.5796550   3.1268330  74.2035430  46.4630600
   8.1008780  75.7755900  40.8542050   8.2221600  75.7342380  41.8027870
   7.7157290  76.6380050  40.6988780  12.0637150  73.5523300  48.8705740
  12.0809890  74.0031950  49.7147590  11.8152730  72.6528940  49.0839180
   7.1130280  78.0857040  40.2525350   6.5447180  77.6375290  39.6261260
   7.8219280  78.4449820  39.7190500  15.4907900  70.9655480  54.7092120
  15.8153670  70.2345140  55.2350100  15.5264410  70.6469120  53.8073110
   2.1899460  81.9869060  54.1292080   1.8054250  81.3462730  54.7275040
   2.5011650  82.6905180  54.6986810   8.3396600  78.8345600  49.6100700
   8.7066730  78.3604170  50.3562040   8.1501660  79.7087170  49.9509040
   6.1295970  77.8754240  51.9284910   5.8253040  78.7546220  52.1535270
   7.0842430  77.9354030  51.9642350   4.6577760  82.0815230  42.5251760
   3.8840020  81.5412850  42.3650480   5.3872390  81.5621840  42.1869520
  15.4165740  81.0780590  48.3178150  16.1364860  81.5735880  47.9274260
  15.2147560  80.3998480  47.6732020  10.8775680  72.4718550  42.4607540
  10.0640290  71.9731720  42.3852850  10.6837630  73.3116800  42.0443890
  10.7984540  81.1489650  54.2047150  10.7321850  80.2285320  53.9504740
  10.1689680  81.2465090  54.9191790  13.5924070  76.8438200  40.7569700
  14.4803690  77.1555430  40.5821040  13.5629160  75.9710450  40.3650280
   4.7015160  81.7495610  46.1630570   5.2193830  80.9463870  46.1087460
   4.2499180  81.6874750  47.0047400   9.5884660  83.0161890  41.4357870
   9.9300360  83.7604120  40.9401190   8.7597370  83.3293010  41.7982700
   2.1859700  78.7156980  53.0756270   1.8274640  79.3810830  53.6629610
   1.8914260  77.8840530  53.4468890   5.3872820  79.1741220  55.9595820
   5.0872960  79.3198400  55.0623640   6.1584060  78.6146510  55.8669210
  10.7301270  83.9710220  53.9550950  10.7445810  83.0391180  53.7369860
  10.0226370  84.0569980  54.5940720  15.8638340  78.1550040  40.2249560
  15.7802060  78.5864260  39.3746000  16.5832530  78.6148390  40.6576380
  16.9412480  80.6117560  53.3019530  16.2160670  81.2046340  53.1048920
  17.4687940  80.6041100  52.5032900  16.8925590  85.0092300  42.9531690
  16.2501750  84.3547920  43.2275410  16.5056250  85.4147390  42.1772360
  12.4712070  82.3377730  46.8003380  12.8235890  81.7405860  46.1404750
  11.5874400  82.0121960  46.9711630   8.5575350  83.0975420  44.2073790
   9.2446480  83.6444630  44.5881380   7.7707770  83.6416150  44.2423400
   7.8602560  80.1021450  43.8199150   8.3165340  80.9126700  44.0459340
   7.5090770  79.7844590  44.6517640  10.1635170  85.6127790  51.0491450
  10.8077390  85.8187170  51.7264870  10.5264610  84.8516190  50.5962300
   3.7614340  70.4459100  44.2921670   3.6328970  70.4377000  45.2406590
   2.9376360  70.7842190  43.9412680  11.4367250  83.6160140  49.7668900
  12.0789480  82.9153300  49.8801070  11.9616600  84.3958580  49.5865790
  15.2822970  83.9008760  39.4908040  15.0560550  83.1839200  40.0832680
  14.8919170  83.6521200  38.6529790  13.2104870  84.4155040  52.9704960
  13.5461110  85.0021730  53.6482880  12.2905210  84.2847750  53.2002750
  14.8639220  81.8180700  41.1522200  14.5760920  82.2793390  41.9400080
  15.6591390  81.3578470  41.4206420   9.0393450  84.4646370  56.1393020
   8.7190320  83.7455610  56.6838710   8.3651810  85.1401440  56.2129080
   7.0807620  85.3106820  41.0826170   7.0717720  86.0436510  40.4670680
   6.1605980  85.0638400  41.1753130   2.6814260  80.5321710  41.8272930
   2.0742210  81.2720610  41.8368230   3.1563610  80.6221070  41.0011130
  12.2547050  74.6972530  51.5029820  12.6227870  73.8767740  51.8309390
  11.3945250  74.7574420  51.9185470  15.6209080  73.6529470  42.3117380
  14.9922240  73.7575140  41.5975610  15.1261000  73.8726250  43.1011260
  10.0667220  85.3735060  39.7451360  10.1679200  85.1699050  38.8153340
   9.1668960  85.1193340  39.9499140   7.5893110  75.9315420  43.7275260
   6.8809260  76.4001760  44.1688870   7.8737590  75.2737430  44.3620450
   9.2149040  77.3512120  51.7267790   9.7134290  77.8257940  52.3919640
   9.3571990  76.4275640  51.9337820  11.6208540  72.6566080  45.1671050
  11.4976320  72.6752210  44.2180560  12.5693100  72.7045020  45.2869450
   8.7085330  87.8921380  44.4399030   8.9626830  87.8542770  43.5178400
   7.7597810  87.7654710  44.4327280   5.7928130  74.2400500  41.1025970
   6.6418660  74.6770650  41.0366160   5.4259400  74.5520760  41.9298030
  16.4215900  73.5680080  52.5696180  15.9189500  74.3085480  52.9089990
  17.2372560  73.9564080  52.2532970  14.7137910  78.8113260  46.0157540
  13.7728050  78.8263490  46.1905230  15.0281980  78.0249220  46.4617840
   4.6919550  80.4932860  39.5761500   5.4582820  80.3814220  40.1386930
   4.7694240  79.7970830  38.9238270   3.3866310  77.9257930  40.2594390
   3.4669900  76.9785440  40.3711790   4.2786060  78.2564810  40.3655050
  16.7163490  85.9822110  47.6911800  16.8410910  86.8053280  48.1635610
  17.5829050  85.7712840  47.3435950   4.1881020  88.0753320  47.3628930
   4.9243500  87.5268780  47.6337500   4.5721940  88.9409330  47.2234920
   3.1939300  87.2599390  56.5514510   3.9952030  87.5811440  56.9649910
   2.6791120  86.8994970  57.2734420   7.2983330  87.2483630  39.1854500
   8.0911940  87.5372460  38.7336290   6.7787680  86.8175800  38.5066980
  12.0303930  83.3679260  56.4989920  11.4242090  83.3910860  55.7585670
  11.7258040  82.6362300  57.0357170  13.4604300  87.0959550  55.1099330
  14.4126050  87.0117570  55.0599570  13.3132520  87.7601260  55.7833120
  16.3513500  86.4753760  40.6091240  16.0655010  86.0618900  39.7945420
  16.1533050  87.4041470  40.4891760   7.8160730  82.4687040  39.0496850
   7.7111370  81.8539390  39.7758230   7.6484950  81.9452930  38.2659860
   7.9675050  81.1543840  55.0286080   7.2020720  81.7228840  54.9440750
   8.1491010  80.8620050  54.1354310  11.0563460  81.5307070  39.6538840
  10.5073560  81.9776370  40.2981580  11.6782720  81.0256320  40.1776510
  15.1098400  82.8849170  55.5861100  15.8507870  83.2224930  55.0828560
  14.3471080  83.0541230  55.0330870   2.9460190  77.8902440  56.3900630
   2.9865530  77.5916310  57.2985860   3.8005690  78.2910050  56.2308150
   6.7238580  80.4897990  41.5504140   7.1455000  80.3237860  42.3935530
   6.8489420  79.6798220  41.0559280   4.8866000  76.4694540  54.3575120
   4.3562460  75.9785490  53.7298460   5.5554070  76.8978740  53.8233050
   9.2366220  79.5135600  38.7981240   9.7571880  78.7984620  38.4322390
   9.8834620  80.1521470  39.0981750  13.7844060  80.9364000  54.1216310
  14.1985080  81.0909080  54.9706730  12.8495060  81.0619220  54.2842090
  14.2566230  78.2760160  56.1255460  14.8387000  77.5212480  56.0375940
  14.4328000  78.8067600  55.3486940   5.3738300  73.4356910  54.4372410
   5.2795170  72.8177660  53.7123280   4.7935690  74.1623200  54.2102320
   8.1399740  71.9930150  51.4699800   7.6917040  72.0154410  50.6245350
   7.5064940  71.5949170  52.0670100   8.5459290  80.8884480  52.0912240
   8.9647400  81.7317210  51.9188480   7.6267920  81.0256520  51.8619020
  10.8823190  78.6200660  53.4750080  11.0019400  78.0241800  54.2144920
  11.7417190  78.6570350  53.0551380  13.2211090  79.1737850  52.0512590
  12.6946310  79.6980470  51.4477730  13.5642430  79.8065240  52.6822320
   5.6197480  76.5631220  38.4962300   5.4186540  75.6998580  38.8575640
   5.4489530  76.4764580  37.5583900   6.3966710  87.1937490  53.2069970
   5.8587800  87.9183550  52.8878670   6.6500670  86.7167830  52.4167310
   7.6491960  75.1622010  54.7325900   8.2391650  74.8537860  55.4203720
   6.8312200  74.6901760  54.8885800  12.4685390  74.7787820  54.9658920
  11.7800910  74.1169360  54.9008910  13.1891410  74.3326090  55.4107380
  13.0985790  71.3739450  41.0249180  13.3788080  70.5307350  41.3808600
  12.3251520  71.6062560  41.5387930   4.4180280  73.6631840  38.4840180
   4.7206180  73.6699270  37.5759330   5.1574870  73.3129700  38.9807840
   9.2528920  88.4288700  53.4656620   9.1787620  89.3323840  53.7728990
   8.3507760  88.1100600  53.4378690   7.6365210  72.6066460  39.4696380
   7.2887210  71.9290450  38.8898830   7.8377980  72.1455970  40.2839770
   9.8014250  87.5947210  41.0882980  10.6965040  87.9332180  41.1101740
   9.8331880  86.8726620  40.4607260   3.4410410  82.9674260  39.3169980
   3.8785280  83.5103930  39.9727560   3.9258140  82.1421210  39.3266320
   5.2518130  84.0872300  44.4292210   4.9513670  83.9637270  45.3296120
   5.1455620  83.2280890  44.0207940  16.7808600  86.1250880  53.7949180
  16.1810590  86.1843440  53.0513100  16.9102500  85.1855860  53.9246030
  18.0210050  83.8668700  39.1318890  17.1903010  83.9345350  39.6026120
  18.1981880  84.7572820  38.8285750  17.4766510  80.6116180  41.6353090
  18.2385420  81.1812830  41.7412780  17.4920880  80.0443380  42.4061400
  18.4826480  81.4666280  46.4795020  18.8535310  80.6833600  46.0730990
  19.1228410  82.1555380  46.3012320  15.4660240  82.8502860  51.8925340
  14.6520080  83.2800020  52.1551130  15.8734440  83.4621270  51.2794390
  17.5285680  80.9050550  38.7925610  17.8034520  81.8129430  38.6644830
  17.3396420  80.8413080  39.7287600  13.9261290  73.9295400  40.0879240
  14.3446170  73.7426380  39.2475900  13.6197350  73.0774450  40.3982170
  17.4251020  78.8419540  43.7855040  17.0494620  78.0747470  43.3536330
  16.6954140  79.2242240  44.2729970   2.0146780  79.5206680  50.4064090
   2.3819820  79.4334080  51.2860110   1.4457600  78.7573230  50.3070950
  16.8150640  77.9891060  53.4194560  16.5836730  77.7603810  52.5192510
  17.0755190  78.9090610  53.3739450  15.2538710  73.2147490  56.1974260
  16.1308890  73.2230890  56.5808260  15.2659550  72.4778330  55.5866610
  16.7001980  77.0677030  47.0862280  17.2239460  76.5739680  46.4552450
  17.2861400  77.2027390  47.8309850  16.8791700  77.1516900  50.6081830
  15.9294410  77.1180440  50.7226820  17.0604710  78.0617010  50.3731600
   2.7336140  75.4018580  39.7180460   3.4427840  74.9801800  39.2327740
   2.0176080  75.4693810  39.0863810   2.3810300  71.4557910  38.7583110
   3.1038430  71.9966850  39.0764330   2.6534820  71.1821330  37.8824650
  16.1901950  76.3250380  43.0254690  16.6861070  76.0921250  43.8103570
  15.9918020  75.4862220  42.6092330   2.0702490  70.7064100  48.6605730
   2.7178680  70.1561480  48.2200890   2.4904330  70.9607250  49.4821540
  17.6189110  74.9611330  45.5592370  17.5088390  74.8067370  46.4974640
  18.3796700  74.4332270  45.3167780  15.9654830  70.9005460  52.0175370
  16.6027050  71.5139600  52.3834560  16.1129720  70.9366120  51.0724600
  18.5079380  72.7919250  38.7998510  19.4328690  72.6600430  38.5916800
  18.4855170  72.8712070  39.7534960  18.5817870  73.5629910  41.4255220
  17.7869370  73.4975030  41.9548130  18.7861150  74.4980550  41.4140570
  15.5236290  87.6021460  45.4193610  16.1195360  87.2806030  44.7428030
  15.7814440  87.1293280  46.2106880   1.8234490  70.8619770  51.4031050
   1.4749310  71.3183590  52.1689230   1.4922190  69.9676900  51.4853480
   3.4298860  84.0339370  55.5684240   3.3868490  83.6632280  56.4498700
   3.5609870  84.9716940  55.7086060   7.1304890  85.5898960  51.1693960
   6.8896250  85.8573520  50.2824480   8.0707530  85.7604690  51.2244820
   9.3359310  72.0531650  54.9250470   9.2748200  72.6453480  55.6745880
  10.2759690  71.9457610  54.7800730  11.9733870  71.7101710  54.5642760
  12.5874280  72.0281000  53.9023840  12.5183430  71.2250300  55.1838620
  18.3909050  87.6093340  51.9704600  17.8967330  88.0062210  51.2531730
  17.7822340  86.9842550  52.3641880   2.4955130  70.3895970  54.6781820
   3.0438120  70.2084020  53.9147930   2.5610440  69.5990080  55.2138130
   3.2686890  86.9801620  52.6882020   2.6747210  86.8486320  53.4272060
   3.2610730  86.1439760  52.2224120  12.7141910  70.2733850  50.8912050
  11.8401750  70.6068960  50.6884980  12.6052660  69.8007030  51.7163920
  13.6213890  72.4804720  52.2753770  13.2927250  71.6656480  51.8955500
  14.5696190  72.4374530  52.1519460  16.0748500  88.2516760  49.2491340
  15.6151470  89.0032570  48.8749360  15.4460960  87.5323230  49.1906140
   2.8999120  84.3460000  51.6390060   2.1733180  83.7265290  51.5716010
   2.9608270  84.7400610  50.7688140   6.5044220  86.5605000  48.4239470
   7.0209240  85.9492360  47.8987730   7.1541600  87.0633780  48.9150480
   9.2439720  87.4513490  49.2508450   9.5317530  87.1967790  48.3741460
   9.7562940  86.8990850  49.8414020  10.4616730  71.1903690  49.8304960
   9.6788520  71.6649190  50.1101720  10.1679660  70.2858520  49.7218140
  15.0137800  71.8926790  47.8754050  15.4545890  71.8371890  47.0275650
  14.7445390  72.8084800  47.9464230  16.8776370  71.5242030  45.8862870
  16.8164770  70.5803250  45.7393890  17.6568400  71.6322120  46.4316330
   1.8057140  71.4951170  42.3518680   2.5636500  71.6080050  41.7782710
   1.3434310  72.3320370  42.3062110   8.3470950  73.6090440  45.3420990
   7.5345460  73.2347330  45.0016870   8.8512590  72.8535520  45.6442180
  12.8495930  70.2732890  46.5804060  13.4525300  70.8453100  47.0552580
  12.1088920  70.8372330  46.3577960  15.9930530  70.6754450  41.8544340
  16.1881160  71.5737900  42.1211770  15.2060400  70.4441530  42.3477290
   2.7891820  86.3567620  42.2936960   2.2639440  86.7375650  41.5898920
   2.7136400  86.9818390  43.0146670   4.1782290  72.0215220  40.8920650
   4.7075050  71.2345020  40.7628600   4.8110610  72.7006410  41.1256180
   6.3720130  71.7590360  43.9466040   5.7422870  71.0577670  44.1136170
   5.8325270  72.5194490  43.7299200   9.3112080  88.3729590  56.6176650
  10.2379390  88.1373860  56.6612610   9.2962510  89.2001590  56.1362680
  17.5457140  87.9155160  43.6150900  17.7209330  87.2292900  42.9711820
  16.8478710  88.4402210  43.2227570   6.4975690  71.0374340  56.3818530
   6.2159960  71.5407940  55.6179350   6.8795390  70.2396090  56.0160660
   5.3884790  88.3050000  41.1686210   6.1203610  88.0209280  40.6210100
   5.6478460  88.0663280  42.0585590   4.5499580  84.4214730  41.1732540
   3.9208460  84.8899830  41.7218370   4.6647410  83.5763950  41.6078730
  13.0991150  70.4527920  56.9599000  12.9856600  70.7722530  57.8550520
  13.9160890  70.8540430  56.6636280  15.8789640  87.5999450  56.4417690
  16.6714960  87.1048680  56.2343650  16.1722790  88.2789590  57.0493300
  12.0049300  78.4720390  27.3233740  11.9243350  77.5575000  27.0525450
  11.5913720  78.9687460  26.6173450  10.1367340  80.2499410  29.2043010
   9.3609440  79.7699850  29.4941580  10.7880270  79.5705060  29.0299170
   4.1533170  80.5619220  30.0818770   3.3218050  80.3067930  30.4815280
   4.7614150  80.6329990  30.8176690   4.1334430  84.5959310  30.2776790
   4.4362470  83.7057050  30.0987010   4.8778020  85.1529530  30.0499040
   2.5625120  75.5221110  23.8661160   1.6741820  75.8637080  23.7641040
   2.8466310  75.3221430  22.9741990  10.3838080  86.9417610  27.6046130
   9.7649520  87.3975110  27.0340570  11.2389860  87.0969070  27.2035830
   9.5776330  82.9256600  29.2113170   9.5084610  81.9846540  29.0502300
  10.3396190  83.0158010  29.7835740   1.7683000  73.5311120  31.5369790
   1.5885840  72.6336870  31.8172550   1.3663080  74.0782990  32.2116740
  10.6081500  75.7326980  29.4382100  10.9846320  74.8598860  29.3255770
  10.5101010  76.0685680  28.5472540   4.7386510  74.1052610  24.8999540
   4.8453260  75.0056340  25.2068300   3.8278870  74.0570580  24.6094190
  14.3905620  73.2277420  26.3710440  15.2115240  72.7373990  26.4135920
  14.4239700  73.8175080  27.1242280   2.3869670  76.0271620  30.1452130
   3.0679780  76.2909990  30.7639530   2.0717720  75.1872490  30.4790140
   6.5794240  77.0738980  29.2324720   7.0872460  77.5719950  29.8729740
   7.1107480  76.2974180  29.0564080   4.8630340  71.7137540  33.4988140
   4.8648780  72.2309930  32.6934040   4.0334650  71.2367720  33.4758070
  11.2501430  81.8256850  24.9978040  10.6318700  82.2906300  24.4340760
  11.7624680  82.5184330  25.4147550   6.1133190  81.3532720  31.6761640
   5.7802570  81.9801640  32.3182710   6.2899870  81.8794600  30.8963310
  14.6267100  75.1677800  29.1437980  13.9222670  75.4562690  29.7241090
  14.9879260  75.9777910  28.7837540   4.5445670  73.4247500  31.5058590
   4.8862480  74.2689550  31.2112460   3.6061480  73.5731240  31.6223930
   5.3252290  83.3213520  33.4910820   5.9426290  83.9964600  33.2095270
   4.4645410  83.7301500  33.3998320  17.6954020  74.6132590  29.5347190
  16.7478930  74.6471570  29.6662620  18.0204010  75.4271540  29.9196550
   8.2273560  70.9129770  27.8303180   8.5348540  70.3576660  27.1138680
   7.2974260  71.0474230  27.6476170  13.1774060  81.5326900  31.4493250
  13.5942850  81.3187010  30.6146710  13.9013880  81.7899690  32.0201870
  10.6154320  78.9778600  24.5663300   9.6883600  78.9115980  24.7951770
  10.7679140  79.9158730  24.4518540  10.6023400  75.2495600  21.5630460
   9.6627070  75.4109560  21.6482920  10.9206660  75.9681280  21.0166450
  14.0878170  76.7183440  32.4864360  13.6749350  77.5437150  32.7404350
  13.3554120  76.1328480  32.2940720   6.2210960  79.5043340  27.3483030
   5.8167960  78.7920590  26.8528930   6.3074080  79.1596580  28.2371070
   6.6892660  83.1910900  29.5122240   6.3920950  82.5856370  28.8330020
   7.6392480  83.2288210  29.4011600   4.9339580  76.2786550  31.1282070
   5.4854170  76.3881890  30.3535320   5.4483090  76.6524150  31.8437300
  14.7778270  86.7642770  33.1745340  14.3008830  87.5714960  32.9817950
  14.0940060  86.1121100  33.3271550   5.7811090  82.9292590  36.1630040
   4.8839620  83.1532560  36.4103440   5.8063960  83.0527530  35.2141440
  12.8216310  79.7785710  22.0771300  13.2609590  78.9408140  21.9309120
  13.5344730  80.4115110  22.1635440   4.6082310  79.8005910  34.7387410
   4.4690080  80.6728710  35.1074810   3.7263670  79.4578720  34.5935350
  10.9311690  84.7181780  26.0452540  11.3707600  85.4606110  25.6307930
  10.8698580  84.9608350  26.9691500   6.4062660  85.7427610  36.9472560
   6.3778090  86.1470560  36.0800990   6.2427630  84.8137970  36.7844160
  16.4033450  71.0328520  20.3912340  16.0906110  71.1255350  21.2911410
  17.1645920  71.6109550  20.3409770   2.9215590  78.3988320  24.8489680
   2.8013190  79.1250410  24.2370950   2.6116480  77.6291230  24.3717590
  18.3577480  86.5254710  38.2436730  18.8337200  87.0037600  38.9225810
  18.9784640  86.4572200  37.5182230   1.8048590  83.2703650  27.0664500
   1.3976670  83.4118240  26.2118100   2.6961600  82.9863810  26.8635710
  17.7610730  83.7167560  35.4036740  17.8873790  83.4779440  34.4853920
  17.8032110  82.8852100  35.8758820  11.6227470  87.4195560  33.9731550
  12.1372140  87.3303570  34.7753980  10.7796550  87.7655260  34.2659460
  13.5981870  87.7050900  23.4015550  13.4383010  87.4153840  24.2997380
  13.4328580  86.9291030  22.8660780   6.0770250  87.4849430  25.1787170
   5.9012730  86.5684970  24.9654970   5.2225990  87.8436720  25.4184970
   5.3879250  71.7423390  28.2313350   4.9447400  72.5232930  27.8997870
   5.9464240  72.0653280  28.9384290   9.6749060  74.6091910  33.8348670
   9.2128430  74.8174930  34.6468610   9.2727170  73.7951260  33.5319340
  14.6753570  75.8300860  34.9645330  13.8247160  75.5306610  35.2854400
  14.5155360  76.0742870  34.0529150  11.7703280  77.3302610  37.0644120
  12.0956690  76.4966360  36.7246350  12.5583610  77.8531130  37.2122450
   8.5038070  71.3634090  23.1119180   7.8792250  71.3593960  23.8372490
   8.4168190  70.4965050  22.7155150   7.4255150  72.2870720  30.0902950
   7.7227480  73.1933550  30.0094970   7.9740710  71.7989500  29.4762520
   5.1793470  76.8656960  25.9594600   4.9534390  76.6494130  26.8641220
   4.3986000  77.2985420  25.6140570  12.4091230  76.8720330  24.5585250
  11.8100120  77.5956130  24.3748870  12.9570840  76.8097110  23.7761700
   7.6192680  77.7642540  36.6254870   7.5236280  76.8237270  36.4755270
   8.4624660  77.9857610  36.2302940  11.0156100  75.5083870  26.5888530
  11.4085670  75.8256070  25.7757220  11.3772950  74.6295750  26.7033050
   2.7503220  74.1756210  34.7788650   2.3566610  75.0231420  34.9861430
   2.0621620  73.5382580  34.9697290   9.3248270  74.2591180  37.8485390
   8.6346590  74.0663380  38.4831480  10.0680570  74.5425820  38.3809690
  11.6011240  78.0989620  30.6839310  10.8692360  78.6076430  31.0329410
  11.2035580  77.2819600  30.3828090   8.0388630  74.7743820  29.0891800
   8.0424690  74.3333770  28.2396340   8.9339750  75.0961150  29.1963620
   3.8891010  74.6570310  28.0486010   3.5491060  75.1345540  28.8053060
   3.1268330  74.2035430  27.6887110   8.1008780  75.7755900  22.0798560
   8.2221600  75.7342380  23.0284380   7.7157290  76.6380050  21.9245290
  12.0637150  73.5523300  30.0962250  12.0809890  74.0031950  30.9404100
  11.8152730  72.6528940  30.3095690   7.1130280  78.0857040  21.4781860
   6.5447180  77.6375290  20.8517770   7.8219280  78.4449820  20.9447010
  15.4907900  70.9655480  35.9348630  15.8153670  70.2345140  36.4606610
  15.5264410  70.6469120  35.0329620   2.1899460  81.9869060  35.3548590
   1.8054250  81.3462730  35.9531550   2.5011650  82.6905180  35.9243320
   8.3396600  78.8345600  30.8357210   8.7066730  78.3604170  31.5818550
   8.1501660  79.7087170  31.1765550   6.1295970  77.8754240  33.1541420
   5.8253040  78.7546220  33.3791780   7.0842430  77.9354030  33.1898860
   4.6577760  82.0815230  23.7508270   3.8840020  81.5412850  23.5906990
   5.3872390  81.5621840  23.4126030  10.8775680  72.4718550  23.6864050
  10.0640290  71.9731720  23.6109360  10.6837630  73.3116800  23.2700400
  10.7984540  81.1489650  35.4303660  10.7321850  80.2285320  35.1761250
  10.1689680  81.2465090  36.1448300  13.5924070  76.8438200  21.9826210
  14.4803690  77.1555430  21.8077550  13.5629160  75.9710450  21.5906790
   4.7015160  81.7495610  27.3887080   5.2193830  80.9463870  27.3343970
   4.2499180  81.6874750  28.2303910   9.5884660  83.0161890  22.6614380
   9.9300360  83.7604120  22.1657700   8.7597370  83.3293010  23.0239210
   2.1859700  78.7156980  34.3012780   1.8274640  79.3810830  34.8886120
   1.8914260  77.8840530  34.6725400   5.3872820  79.1741220  37.1852330
   5.0872960  79.3198400  36.2880150   6.1584060  78.6146510  37.0925720
  10.7301270  83.9710220  35.1807460  10.7445810  83.0391180  34.9626370
  10.0226370  84.0569980  35.8197230  15.8638340  78.1550040  21.4506070
  15.7802060  78.5864260  20.6002510  16.5832530  78.6148390  21.8832890
  12.4712070  82.3377730  28.0259890  12.8235890  81.7405860  27.3661260
  11.5874400  82.0121960  28.1968140   8.5575350  83.0975420  25.4330300
   9.2446480  83.6444630  25.8137890   7.7707770  83.6416150  25.4679910
   7.8602560  80.1021450  25.0455660   8.3165340  80.9126700  25.2715850
   7.5090770  79.7844590  25.8774150  10.1635170  85.6127790  32.2747960
  10.8077390  85.8187170  32.9521380  10.5264610  84.8516190  31.8218810
   3.7614340  70.4459100  25.5178180   3.6328970  70.4377000  26.4663100
   2.9376360  70.7842190  25.1669190  11.4367250  83.6160140  30.9925410
  12.0789480  82.9153300  31.1057580  11.9616600  84.3958580  30.8122300
  13.2104870  84.4155040  34.1961470  13.5461110  85.0021730  34.8739390
  12.2905210  84.2847750  34.4259260   9.0393450  84.4646370  37.3649530
   8.7190320  83.7455610  37.9095220   8.3651810  85.1401440  37.4385590
   7.0807620  85.3106820  22.3082680   7.0717720  86.0436510  21.6927190
   6.1605980  85.0638400  22.4009640   2.6814260  80.5321710  23.0529440
   2.0742210  81.2720610  23.0624740   3.1563610  80.6221070  22.2267640
  12.2547050  74.6972530  32.7286330  12.6227870  73.8767740  33.0565900
  11.3945250  74.7574420  33.1441980  15.6209080  73.6529470  23.5373890
  14.9922240  73.7575140  22.8232120  15.1261000  73.8726250  24.3267770
  10.0667220  85.3735060  20.9707870  10.1679200  85.1699050  20.0409850
   9.1668960  85.1193340  21.1755650   7.5893110  75.9315420  24.9531770
   6.8809260  76.4001760  25.3945380   7.8737590  75.2737430  25.5876960
   9.2149040  77.3512120  32.9524300   9.7134290  77.8257940  33.6176150
   9.3571990  76.4275640  33.1594330  11.6208540  72.6566080  26.3927560
  11.4976320  72.6752210  25.4437070  12.5693100  72.7045020  26.5125960
   8.7085330  87.8921380  25.6655540   8.9626830  87.8542770  24.7434910
   7.7597810  87.7654710  25.6583790   5.7928130  74.2400500  22.3282480
   6.6418660  74.6770650  22.2622670   5.4259400  74.5520760  23.1554540
  16.4215900  73.5680080  33.7952690  15.9189500  74.3085480  34.1346500
  17.2372560  73.9564080  33.4789480  14.7137910  78.8113260  27.2414050
  13.7728050  78.8263490  27.4161740  15.0281980  78.0249220  27.6874350
   4.6919550  80.4932860  20.8018010   5.4582820  80.3814220  21.3643440
   4.7694240  79.7970830  20.1494780   3.3866310  77.9257930  21.4850900
   3.4669900  76.9785440  21.5968300   4.2786060  78.2564810  21.5911560
   4.1881020  88.0753320  28.5885440   4.9243500  87.5268780  28.8594010
   4.5721940  88.9409330  28.4491430   3.1939300  87.2599390  37.7771020
   3.9952030  87.5811440  38.1906420   2.6791120  86.8994970  38.4990930
   7.2983330  87.2483630  20.4111010   8.0911940  87.5372460  19.9592800
   6.7787680  86.8175800  19.7323490  12.0303930  83.3679260  37.7246430
  11.4242090  83.3910860  36.9842180  11.7258040  82.6362300  38.2613680
  13.4604300  87.0959550  36.3355840  14.4126050  87.0117570  36.2856080
  13.3132520  87.7601260  37.0089630   7.8160730  82.4687040  20.2753360
   7.7111370  81.8539390  21.0014740   7.6484950  81.9452930  19.4916370
   7.9675050  81.1543840  36.2542590   7.2020720  81.7228840  36.1697260
   8.1491010  80.8620050  35.3610820  11.0563460  81.5307070  20.8795350
  10.5073560  81.9776370  21.5238090  11.6782720  81.0256320  21.4033020
  15.1098400  82.8849170  36.8117610  15.8507870  83.2224930  36.3085070
  14.3471080  83.0541230  36.2587380   2.9460190  77.8902440  37.6157140
   2.9865530  77.5916310  38.5242370   3.8005690  78.2910050  37.4564660
   6.7238580  80.4897990  22.7760650   7.1455000  80.3237860  23.6192040
   6.8489420  79.6798220  22.2815790   4.8866000  76.4694540  35.5831630
   4.3562460  75.9785490  34.9554970   5.5554070  76.8978740  35.0489560
   9.2366220  79.5135600  20.0237750   9.7571880  78.7984620  19.6578900
   9.8834620  80.1521470  20.3238260  13.7844060  80.9364000  35.3472820
  14.1985080  81.0909080  36.1963240  12.8495060  81.0619220  35.5098600
  14.2566230  78.2760160  37.3511970  14.8387000  77.5212480  37.2632450
  14.4328000  78.8067600  36.5743450   5.3738300  73.4356910  35.6628920
   5.2795170  72.8177660  34.9379790   4.7935690  74.1623200  35.4358830
   8.1399740  71.9930150  32.6956310   7.6917040  72.0154410  31.8501860
   7.5064940  71.5949170  33.2926610   8.5459290  80.8884480  33.3168750
   8.9647400  81.7317210  33.1444990   7.6267920  81.0256520  33.0875530
  10.8823190  78.6200660  34.7006590  11.0019400  78.0241800  35.4401430
  11.7417190  78.6570350  34.2807890  13.2211090  79.1737850  33.2769100
  12.6946310  79.6980470  32.6734240  13.5642430  79.8065240  33.9078830
   5.6197480  76.5631220  19.7218810   5.4186540  75.6998580  20.0832150
   5.4489530  76.4764580  18.7840410   6.3966710  87.1937490  34.4326480
   5.8587800  87.9183550  34.1135180   6.6500670  86.7167830  33.6423820
   7.6491960  75.1622010  35.9582410   8.2391650  74.8537860  36.6460230
   6.8312200  74.6901760  36.1142310  12.4685390  74.7787820  36.1915430
  11.7800910  74.1169360  36.1265420  13.1891410  74.3326090  36.6363890
  13.0985790  71.3739450  22.2505690  13.3788080  70.5307350  22.6065110
  12.3251520  71.6062560  22.7644440   4.4180280  73.6631840  19.7096690
   4.7206180  73.6699270  18.8015840   5.1574870  73.3129700  20.2064350
   9.2528920  88.4288700  34.6913130   9.1787620  89.3323840  34.9985500
   8.3507760  88.1100600  34.6635200   7.6365210  72.6066460  20.6952890
   7.2887210  71.9290450  20.1155340   7.8377980  72.1455970  21.5096280
   9.8014250  87.5947210  22.3139490  10.6965040  87.9332180  22.3358250
   9.8331880  86.8726620  21.6863770   3.4410410  82.9674260  20.5426490
   3.8785280  83.5103930  21.1984070   3.9258140  82.1421210  20.5522830
   5.2518130  84.0872300  25.6548720   4.9513670  83.9637270  26.5552630
   5.1455620  83.2280890  25.2464450  16.7808600  86.1250880  35.0205690
  16.1810590  86.1843440  34.2769610  16.9102500  85.1855860  35.1502540
  18.0210050  83.8668700  20.3575400  17.1903010  83.9345350  20.8282630
  18.1981880  84.7572820  20.0542260  15.4660240  82.8502860  33.1181850
  14.6520080  83.2800020  33.3807640  15.8734440  83.4621270  32.5050900
  17.5285680  80.9050550  20.0182120  17.8034520  81.8129430  19.8901340
  17.3396420  80.8413080  20.9544110  13.9261290  73.9295400  21.3135750
  14.3446170  73.7426380  20.4732410  13.6197350  73.0774450  21.6238680
  17.4251020  78.8419540  25.0111550  17.0494620  78.0747470  24.5792840
  16.6954140  79.2242240  25.4986480   2.0146780  79.5206680  31.6320600
   2.3819820  79.4334080  32.5116620   1.4457600  78.7573230  31.5327460
  15.2538710  73.2147490  37.4230770  16.1308890  73.2230890  37.8064770
  15.2659550  72.4778330  36.8123120  16.7001980  77.0677030  28.3118790
  17.2239460  76.5739680  27.6808960  17.2861400  77.2027390  29.0566360
   2.7336140  75.4018580  20.9436970   3.4427840  74.9801800  20.4584250
   2.0176080  75.4693810  20.3120320   2.3810300  71.4557910  19.9839620
   3.1038430  71.9966850  20.3020840   2.6534820  71.1821330  19.1081160
  16.1901950  76.3250380  24.2511200  16.6861070  76.0921250  25.0360080
  15.9918020  75.4862220  23.8348840   2.0702490  70.7064100  29.8862240
   2.7178680  70.1561480  29.4457400   2.4904330  70.9607250  30.7078050
  17.6189110  74.9611330  26.7848880  17.5088390  74.8067370  27.7231150
  18.3796700  74.4332270  26.5424290  15.9654830  70.9005460  33.2431880
  16.6027050  71.5139600  33.6091070  16.1129720  70.9366120  32.2981110
  18.5079380  72.7919250  20.0255020  19.4328690  72.6600430  19.8173310
  18.4855170  72.8712070  20.9791470  18.5817870  73.5629910  22.6511730
  17.7869370  73.4975030  23.1804640  18.7861150  74.4980550  22.6397080
   1.8234490  70.8619770  32.6287560   1.4749310  71.3183590  33.3945740
   1.4922190  69.9676900  32.7109990   3.4298860  84.0339370  36.7940750
   3.3868490  83.6632280  37.6755210   3.5609870  84.9716940  36.9342570
   7.1304890  85.5898960  32.3950470   6.8896250  85.8573520  31.5080990
   8.0707530  85.7604690  32.4501330   9.3359310  72.0531650  36.1506980
   9.2748200  72.6453480  36.9002390  10.2759690  71.9457610  36.0057240
  11.9733870  71.7101710  35.7899270  12.5874280  72.0281000  35.1280350
  12.5183430  71.2250300  36.4095130  18.3909050  87.6093340  33.1961110
  17.8967330  88.0062210  32.4788240  17.7822340  86.9842550  33.5898390
   2.4955130  70.3895970  35.9038330   3.0438120  70.2084020  35.1404440
   2.5610440  69.5990080  36.4394640   3.2686890  86.9801620  33.9138530
   2.6747210  86.8486320  34.6528570   3.2610730  86.1439760  33.4480630
  12.7141910  70.2733850  32.1168560  11.8401750  70.6068960  31.9141490
  12.6052660  69.8007030  32.9420430  13.6213890  72.4804720  33.5010280
  13.2927250  71.6656480  33.1212010  14.5696190  72.4374530  33.3775970
   2.8999120  84.3460000  32.8646570   2.1733180  83.7265290  32.7972520
   2.9608270  84.7400610  31.9944650   6.5044220  86.5605000  29.6495980
   7.0209240  85.9492360  29.1244240   7.1541600  87.0633780  30.1406990
   9.2439720  87.4513490  30.4764960   9.5317530  87.1967790  29.5997970
   9.7562940  86.8990850  31.0670530  10.4616730  71.1903690  31.0561470
   9.6788520  71.6649190  31.3358230  10.1679660  70.2858520  30.9474650
  15.0137800  71.8926790  29.1010560  15.4545890  71.8371890  28.2532160
  14.7445390  72.8084800  29.1720740  16.8776370  71.5242030  27.1119380
  16.8164770  70.5803250  26.9650400  17.6568400  71.6322120  27.6572840
   1.8057140  71.4951170  23.5775190   2.5636500  71.6080050  23.0039220
   1.3434310  72.3320370  23.5318620   8.3470950  73.6090440  26.5677500
   7.5345460  73.2347330  26.2273380   8.8512590  72.8535520  26.8698690
  12.8495930  70.2732890  27.8060570  13.4525300  70.8453100  28.2809090
  12.1088920  70.8372330  27.5834470  15.9930530  70.6754450  23.0800850
  16.1881160  71.5737900  23.3468280  15.2060400  70.4441530  23.5733800
   2.7891820  86.3567620  23.5193470   2.2639440  86.7375650  22.8155430
   2.7136400  86.9818390  24.2403180   4.1782290  72.0215220  22.1177160
   4.7075050  71.2345020  21.9885110   4.8110610  72.7006410  22.3512690
   6.3720130  71.7590360  25.1722550   5.7422870  71.0577670  25.3392680
   5.8325270  72.5194490  24.9555710   9.3112080  88.3729590  37.8433160
  10.2379390  88.1373860  37.8869120   9.2962510  89.2001590  37.3619190
   6.4975690  71.0374340  37.6075040   6.2159960  71.5407940  36.8435860
   6.8795390  70.2396090  37.2417170   5.3884790  88.3050000  22.3942720
   6.1203610  88.0209280  21.8466610   5.6478460  88.0663280  23.2842100
   4.5499580  84.4214730  22.3989050   3.9208460  84.8899830  22.9474880
   4.6647410  83.5763950  22.8335240  13.0991150  70.4527920  38.1855510
  12.9856600  70.7722530  39.0807030  13.9160890  70.8540430  37.8892790
  15.8789640  87.5999450  37.6674200  16.6714960  87.1048680  37.4600160
  16.1722790  88.2789590  38.2749810  12.0049300  78.4720390   8.5490250
  11.9243350  77.5575000   8.2781960  11.5913720  78.9687460   7.8429960
  10.1367340  80.2499410  10.4299520   9.3609440  79.7699850  10.7198090
  10.7880270  79.5705060  10.2555680   4.1533170  80.5619220  11.3075280
   3.3218050  80.3067930  11.7071790   4.7614150  80.6329990  12.0433200
  14.1574770  84.6559600   9.2098650  13.6956300  83.8846840   9.5385820
  14.9700320  84.6825670   9.7151100   4.1334430  84.5959310  11.5033300
   4.4362470  83.7057050  11.3243520   4.8778020  85.1529530  11.2755550
   2.5625120  75.5221110   5.0917670   1.6741820  75.8637080   4.9897550
   2.8466310  75.3221430   4.1998500  10.3838080  86.9417610   8.8302640
   9.7649520  87.3975110   8.2597080  11.2389860  87.0969070   8.4292340
   9.5776330  82.9256600  10.4369680   9.5084610  81.9846540  10.2758810
  10.3396190  83.0158010  11.0092250   1.7683000  73.5311120  12.7626300
   1.5885840  72.6336870  13.0429060   1.3663080  74.0782990  13.4373250
  10.6081500  75.7326980  10.6638610  10.9846320  74.8598860  10.5512280
  10.5101010  76.0685680   9.7729050   4.7386510  74.1052610   6.1256050
   4.8453260  75.0056340   6.4324810   3.8278870  74.0570580   5.8350700
  14.3905620  73.2277420   7.5966950  15.2115240  72.7373990   7.6392430
  14.4239700  73.8175080   8.3498790   2.3869670  76.0271620  11.3708640
   3.0679780  76.2909990  11.9896040   2.0717720  75.1872490  11.7046650
   6.5794240  77.0738980  10.4581230   7.0872460  77.5719950  11.0986250
   7.1107480  76.2974180  10.2820590  18.6805170  75.2444170  14.1610580
  17.9757340  75.6325880  13.6425690  18.9463090  75.9394460  14.7631510
   4.8630340  71.7137540  14.7244650   4.8648780  72.2309930  13.9190550
   4.0334650  71.2367720  14.7014580  11.2501430  81.8256850   6.2234550
  10.6318700  82.2906300   5.6597270  11.7624680  82.5184330   6.6404060
   6.1133190  81.3532720  12.9018150   5.7802570  81.9801640  13.5439220
   6.2899870  81.8794600  12.1219820  14.6267100  75.1677800  10.3694490
  13.9222670  75.4562690  10.9497600  14.9879260  75.9777910  10.0094050
   4.5445670  73.4247500  12.7315100   4.8862480  74.2689550  12.4368970
   3.6061480  73.5731240  12.8480440   5.3252290  83.3213520  14.7167330
   5.9426290  83.9964600  14.4351780   4.4645410  83.7301500  14.6254830
  16.2429880  84.7852930  12.6321970  15.5593400  85.4552040  12.6238640
  16.7824170  84.9833580  11.8666830  17.6954020  74.6132590  10.7603700
  16.7478930  74.6471570  10.8919130  18.0204010  75.4271540  11.1453060
   8.2273560  70.9129770   9.0559690   8.5348540  70.3576660   8.3395190
   7.2974260  71.0474230   8.8732680  13.7788620  86.6297060  11.3467150
  13.7915780  86.2259350  10.4789410  13.2263840  87.4044350  11.2428580
  15.0734040  83.3513280   6.4357320  14.9630370  82.4087610   6.5606740
  15.0702290  83.7128920   7.3220080  13.1774060  81.5326900  12.6749760
  13.5942850  81.3187010  11.8403220  13.9013880  81.7899690  13.2458380
  10.6154320  78.9778600   5.7919810   9.6883600  78.9115980   6.0208280
  10.7679140  79.9158730   5.6775050  10.6023400  75.2495600   2.7886970
   9.6627070  75.4109560   2.8739430  10.9206660  75.9681280   2.2422960
  17.1236160  79.9314120  12.7666000  16.2954790  80.0007210  12.2916130
  17.7186640  80.5168430  12.2981830  14.6451610  80.5398900   6.2955060
  14.0264030  80.2018450   5.6481360  14.6276060  79.8958660   7.0034250
  14.0878170  76.7183440  13.7120870  13.6749350  77.5437150  13.9660860
  13.3554120  76.1328480  13.5197230   6.2210960  79.5043340   8.5739540
   5.8167960  78.7920590   8.0785440   6.3074080  79.1596580   9.4627580
   6.6892660  83.1910900  10.7378750   6.3920950  82.5856370  10.0586530
   7.6392480  83.2288210  10.6268110   4.9339580  76.2786550  12.3538580
   5.4854170  76.3881890  11.5791830   5.4483090  76.6524150  13.0693810
  14.7778270  86.7642770  14.4001850  14.3008830  87.5714960  14.2074460
  14.0940060  86.1121100  14.5528060   5.7811090  82.9292590  17.3886550
   4.8839620  83.1532560  17.6359950   5.8063960  83.0527530  16.4397950
  12.8216310  79.7785710   3.3027810  13.2609590  78.9408140   3.1565630
  13.5344730  80.4115110   3.3891950   4.6082310  79.8005910  15.9643920
   4.4690080  80.6728710  16.3331320   3.7263670  79.4578720  15.8191860
  10.9311690  84.7181780   7.2709050  11.3707600  85.4606110   6.8564440
  10.8698580  84.9608350   8.1948010   6.4062660  85.7427610  18.1729070
   6.3778090  86.1470560  17.3057500   6.2427630  84.8137970  18.0100670
   2.9215590  78.3988320   6.0746190   2.8013190  79.1250410   5.4627460
   2.6116480  77.6291230   5.5974100  18.3577480  86.5254710  19.4693240
  18.8337200  87.0037600  20.1482320  18.9784640  86.4572200  18.7438740
   1.8048590  83.2703650   8.2921010   1.3976670  83.4118240   7.4374610
   2.6961600  82.9863810   8.0892220  17.7610730  83.7167560  16.6293250
  17.8873790  83.4779440  15.7110430  17.8032110  82.8852100  17.1015330
  11.6227470  87.4195560  15.1988060  12.1372140  87.3303570  16.0010490
  10.7796550  87.7655260  15.4915970  13.5981870  87.7050900   4.6272060
  13.4383010  87.4153840   5.5253890  13.4328580  86.9291030   4.0917290
   6.0770250  87.4849430   6.4043680   5.9012730  86.5684970   6.1911480
   5.2225990  87.8436720   6.6441480  13.3008000  85.2138460   3.1870060
  12.6073160  85.2115750   2.5272340  14.0430860  84.7897780   2.7564230
  12.8657930  86.8401170   7.2618550  13.3214880  86.0590550   7.5757170
  13.2050450  87.5507990   7.8059730  17.6134740  75.7700020  17.5942990
  16.9979010  76.2779690  17.0658450  17.2931160  74.8698350  17.5368930
   5.3879250  71.7423390   9.4569860   4.9447400  72.5232930   9.1254380
   5.9464240  72.0653280  10.1640800   9.6749060  74.6091910  15.0605180
   9.2128430  74.8174930  15.8725120   9.2727170  73.7951260  14.7575850
  14.6753570  75.8300860  16.1901840  13.8247160  75.5306610  16.5110910
  14.5155360  76.0742870  15.2785660  11.7703280  77.3302610  18.2900630
  12.0956690  76.4966360  17.9502860  12.5583610  77.8531130  18.4378960
   8.5038070  71.3634090   4.3375690   7.8792250  71.3593960   5.0629000
   8.4168190  70.4965050   3.9411660   7.4255150  72.2870720  11.3159460
   7.7227480  73.1933550  11.2351480   7.9740710  71.7989500  10.7019030
   5.1793470  76.8656960   7.1851110   4.9534390  76.6494130   8.0897730
   4.3986000  77.2985420   6.8397080  12.4091230  76.8720330   5.7841760
  11.8100120  77.5956130   5.6005380  12.9570840  76.8097110   5.0018210
   7.6192680  77.7642540  17.8511380   7.5236280  76.8237270  17.7011780
   8.4624660  77.9857610  17.4559450  11.0156100  75.5083870   7.8145040
  11.4085670  75.8256070   7.0013730  11.3772950  74.6295750   7.9289560
   2.7503220  74.1756210  16.0045160   2.3566610  75.0231420  16.2117940
   2.0621620  73.5382580  16.1953800   9.3248270  74.2591180  19.0741900
   8.6346590  74.0663380  19.7087990  10.0680570  74.5425820  19.6066200
  11.6011240  78.0989620  11.9095820  10.8692360  78.6076430  12.2585920
  11.2035580  77.2819600  11.6084600   8.0388630  74.7743820  10.3148310
   8.0424690  74.3333770   9.4652850   8.9339750  75.0961150  10.4220130
   3.8891010  74.6570310   9.2742520   3.5491060  75.1345540  10.0309570
   3.1268330  74.2035430   8.9143620   8.1008780  75.7755900   3.3055070
   8.2221600  75.7342380   4.2540890   7.7157290  76.6380050   3.1501800
  12.0637150  73.5523300  11.3218760  12.0809890  74.0031950  12.1660610
  11.8152730  72.6528940  11.5352200   7.1130280  78.0857040   2.7038370
   6.5447180  77.6375290   2.0774280   7.8219280  78.4449820   2.1703520
  15.4907900  70.9655480  17.1605140  15.8153670  70.2345140  17.6863120
  15.5264410  70.6469120  16.2586130   2.1899460  81.9869060  16.5805100
   1.8054250  81.3462730  17.1788060   2.5011650  82.6905180  17.1499830
   8.3396600  78.8345600  12.0613720   8.7066730  78.3604170  12.8075060
   8.1501660  79.7087170  12.4022060   6.1295970  77.8754240  14.3797930
   5.8253040  78.7546220  14.6048290   7.0842430  77.9354030  14.4155370
   4.6577760  82.0815230   4.9764780   3.8840020  81.5412850   4.8163500
   5.3872390  81.5621840   4.6382540  15.4165740  81.0780590  10.7691170
  16.1364860  81.5735880  10.3787280  15.2147560  80.3998480  10.1245040
  10.8775680  72.4718550   4.9120560  10.0640290  71.9731720   4.8365870
  10.6837630  73.3116800   4.4956910  10.7984540  81.1489650  16.6560170
  10.7321850  80.2285320  16.4017760  10.1689680  81.2465090  17.3704810
  13.5924070  76.8438200   3.2082720  14.4803690  77.1555430   3.0334060
  13.5629160  75.9710450   2.8163300   4.7015160  81.7495610   8.6143590
   5.2193830  80.9463870   8.5600480   4.2499180  81.6874750   9.4560420
   9.5884660  83.0161890   3.8870890   9.9300360  83.7604120   3.3914210
   8.7597370  83.3293010   4.2495720   2.1859700  78.7156980  15.5269290
   1.8274640  79.3810830  16.1142630   1.8914260  77.8840530  15.8981910
   5.3872820  79.1741220  18.4108840   5.0872960  79.3198400  17.5136660
   6.1584060  78.6146510  18.3182230  10.7301270  83.9710220  16.4063970
  10.7445810  83.0391180  16.1882880  10.0226370  84.0569980  17.0453740
  15.8638340  78.1550040   2.6762580  15.7802060  78.5864260   1.8259020
  16.5832530  78.6148390   3.1089400  16.9412480  80.6117560  15.7532550
  16.2160670  81.2046340  15.5561940  17.4687940  80.6041100  14.9545920
  16.8925590  85.0092300   5.4044710  16.2501750  84.3547920   5.6788430
  16.5056250  85.4147390   4.6285380  12.4712070  82.3377730   9.2516400
  12.8235890  81.7405860   8.5917770  11.5874400  82.0121960   9.4224650
   8.5575350  83.0975420   6.6586810   9.2446480  83.6444630   7.0394400
   7.7707770  83.6416150   6.6936420   7.8602560  80.1021450   6.2712170
   8.3165340  80.9126700   6.4972360   7.5090770  79.7844590   7.1030660
  10.1635170  85.6127790  13.5004470  10.8077390  85.8187170  14.1777890
  10.5264610  84.8516190  13.0475320   3.7614340  70.4459100   6.7434690
   3.6328970  70.4377000   7.6919610   2.9376360  70.7842190   6.3925700
  11.4367250  83.6160140  12.2181920  12.0789480  82.9153300  12.3314090
  11.9616600  84.3958580  12.0378810  13.2104870  84.4155040  15.4217980
  13.5461110  85.0021730  16.0995900  12.2905210  84.2847750  15.6515770
  14.8639220  81.8180700   3.6035220  14.5760920  82.2793390   4.3913100
  15.6591390  81.3578470   3.8719440   9.0393450  84.4646370  18.5906040
   8.7190320  83.7455610  19.1351730   8.3651810  85.1401440  18.6642100
   7.0807620  85.3106820   3.5339190   7.0717720  86.0436510   2.9183700
   6.1605980  85.0638400   3.6266150   2.6814260  80.5321710   4.2785950
   2.0742210  81.2720610   4.2881250   3.1563610  80.6221070   3.4524150
  12.2547050  74.6972530  13.9542840  12.6227870  73.8767740  14.2822410
  11.3945250  74.7574420  14.3698490  15.6209080  73.6529470   4.7630400
  14.9922240  73.7575140   4.0488630  15.1261000  73.8726250   5.5524280
   7.5893110  75.9315420   6.1788280   6.8809260  76.4001760   6.6201890
   7.8737590  75.2737430   6.8133470   9.2149040  77.3512120  14.1780810
   9.7134290  77.8257940  14.8432660   9.3571990  76.4275640  14.3850840
  11.6208540  72.6566080   7.6184070  11.4976320  72.6752210   6.6693580
  12.5693100  72.7045020   7.7382470   8.7085330  87.8921380   6.8912050
   8.9626830  87.8542770   5.9691420   7.7597810  87.7654710   6.8840300
   5.7928130  74.2400500   3.5538990   6.6418660  74.6770650   3.4879180
   5.4259400  74.5520760   4.3811050  16.4215900  73.5680080  15.0209200
  15.9189500  74.3085480  15.3603010  17.2372560  73.9564080  14.7045990
  14.7137910  78.8113260   8.4670560  13.7728050  78.8263490   8.6418250
  15.0281980  78.0249220   8.9130860   3.3866310  77.9257930   2.7107410
   3.4669900  76.9785440   2.8224810   4.2786060  78.2564810   2.8168070
  16.7163490  85.9822110  10.1424820  16.8410910  86.8053280  10.6148630
  17.5829050  85.7712840   9.7948970   4.1881020  88.0753320   9.8141950
   4.9243500  87.5268780  10.0850520   4.5721940  88.9409330   9.6747940
   3.1939300  87.2599390  19.0027530   3.9952030  87.5811440  19.4162930
   2.6791120  86.8994970  19.7247440  12.0303930  83.3679260  18.9502940
  11.4242090  83.3910860  18.2098690  11.7258040  82.6362300  19.4870190
  13.4604300  87.0959550  17.5612350  14.4126050  87.0117570  17.5112590
  13.3132520  87.7601260  18.2346140  16.3513500  86.4753760   3.0604260
  16.0655010  86.0618900   2.2458440  16.1533050  87.4041470   2.9404780
   7.9675050  81.1543840  17.4799100   7.2020720  81.7228840  17.3953770
   8.1491010  80.8620050  16.5867330  11.0563460  81.5307070   2.1051860
  10.5073560  81.9776370   2.7494600  11.6782720  81.0256320   2.6289530
  15.1098400  82.8849170  18.0374120  15.8507870  83.2224930  17.5341580
  14.3471080  83.0541230  17.4843890   2.9460190  77.8902440  18.8413650
   2.9865530  77.5916310  19.7498880   3.8005690  78.2910050  18.6821170
   6.7238580  80.4897990   4.0017160   7.1455000  80.3237860   4.8448550
   6.8489420  79.6798220   3.5072300   4.8866000  76.4694540  16.8088140
   4.3562460  75.9785490  16.1811480   5.5554070  76.8978740  16.2746070
  13.7844060  80.9364000  16.5729330  14.1985080  81.0909080  17.4219750
  12.8495060  81.0619220  16.7355110  14.2566230  78.2760160  18.5768480
  14.8387000  77.5212480  18.4888960  14.4328000  78.8067600  17.7999960
   5.3738300  73.4356910  16.8885430   5.2795170  72.8177660  16.1636300
   4.7935690  74.1623200  16.6615340   8.1399740  71.9930150  13.9212820
   7.6917040  72.0154410  13.0758370   7.5064940  71.5949170  14.5183120
   8.5459290  80.8884480  14.5425260   8.9647400  81.7317210  14.3701500
   7.6267920  81.0256520  14.3132040  10.8823190  78.6200660  15.9263100
  11.0019400  78.0241800  16.6657940  11.7417190  78.6570350  15.5064400
  13.2211090  79.1737850  14.5025610  12.6946310  79.6980470  13.8990750
  13.5642430  79.8065240  15.1335340   6.3966710  87.1937490  15.6582990
   5.8587800  87.9183550  15.3391690   6.6500670  86.7167830  14.8680330
   7.6491960  75.1622010  17.1838920   8.2391650  74.8537860  17.8716740
   6.8312200  74.6901760  17.3398820  12.4685390  74.7787820  17.4171940
  11.7800910  74.1169360  17.3521930  13.1891410  74.3326090  17.8620400
  13.0985790  71.3739450   3.4762200  13.3788080  70.5307350   3.8321620
  12.3251520  71.6062560   3.9900950   9.2528920  88.4288700  15.9169640
   9.1787620  89.3323840  16.2242010   8.3507760  88.1100600  15.8891710
   9.8014250  87.5947210   3.5396000  10.6965040  87.9332180   3.5614760
   9.8331880  86.8726620   2.9120280   3.4410410  82.9674260   1.7683000
   3.8785280  83.5103930   2.4240580   3.9258140  82.1421210   1.7779340
   5.2518130  84.0872300   6.8805230   4.9513670  83.9637270   7.7809140
   5.1455620  83.2280890   6.4720960  16.7808600  86.1250880  16.2462200
  16.1810590  86.1843440  15.5026120  16.9102500  85.1855860  16.3759050
  17.4766510  80.6116180   4.0866110  18.2385420  81.1812830   4.1925800
  17.4920880  80.0443380   4.8574420  18.4826480  81.4666280   8.9308040
  18.8535310  80.6833600   8.5244010  19.1228410  82.1555380   8.7525340
  15.4660240  82.8502860  14.3438360  14.6520080  83.2800020  14.6064150
  15.8734440  83.4621270  13.7307410  13.9261290  73.9295400   2.5392260
  14.3446170  73.7426380   1.6988920  13.6197350  73.0774450   2.8495190
  17.4251020  78.8419540   6.2368060  17.0494620  78.0747470   5.8049350
  16.6954140  79.2242240   6.7242990   2.0146780  79.5206680  12.8577110
   2.3819820  79.4334080  13.7373130   1.4457600  78.7573230  12.7583970
  16.8150640  77.9891060  15.8707580  16.5836730  77.7603810  14.9705530
  17.0755190  78.9090610  15.8252470  15.2538710  73.2147490  18.6487280
  16.1308890  73.2230890  19.0321280  15.2659550  72.4778330  18.0379630
  16.7001980  77.0677030   9.5375300  17.2239460  76.5739680   8.9065470
  17.2861400  77.2027390  10.2822870  16.8791700  77.1516900  13.0594850
  15.9294410  77.1180440  13.1739840  17.0604710  78.0617010  12.8244620
  16.1901950  76.3250380   5.4767710  16.6861070  76.0921250   6.2616590
  15.9918020  75.4862220   5.0605350   2.0702490  70.7064100  11.1118750
   2.7178680  70.1561480  10.6713910   2.4904330  70.9607250  11.9334560
  17.6189110  74.9611330   8.0105390  17.5088390  74.8067370   8.9487660
  18.3796700  74.4332270   7.7680800  15.9654830  70.9005460  14.4688390
  16.6027050  71.5139600  14.8347580  16.1129720  70.9366120  13.5237620
  18.5817870  73.5629910   3.8768240  17.7869370  73.4975030   4.4061150
  18.7861150  74.4980550   3.8653590  15.5236290  87.6021460   7.8706630
  16.1195360  87.2806030   7.1941050  15.7814440  87.1293280   8.6619900
   1.8234490  70.8619770  13.8544070   1.4749310  71.3183590  14.6202250
   1.4922190  69.9676900  13.9366500   3.4298860  84.0339370  18.0197260
   3.3868490  83.6632280  18.9011720   3.5609870  84.9716940  18.1599080
   7.1304890  85.5898960  13.6206980   6.8896250  85.8573520  12.7337500
   8.0707530  85.7604690  13.6757840   9.3359310  72.0531650  17.3763490
   9.2748200  72.6453480  18.1258900  10.2759690  71.9457610  17.2313750
  11.9733870  71.7101710  17.0155780  12.5874280  72.0281000  16.3536860
  12.5183430  71.2250300  17.6351640  18.3909050  87.6093340  14.4217620
  17.8967330  88.0062210  13.7044750  17.7822340  86.9842550  14.8154900
   2.4955130  70.3895970  17.1294840   3.0438120  70.2084020  16.3660950
   2.5610440  69.5990080  17.6651150   3.2686890  86.9801620  15.1395040
   2.6747210  86.8486320  15.8785080   3.2610730  86.1439760  14.6737140
  12.7141910  70.2733850  13.3425070  11.8401750  70.6068960  13.1398000
  12.6052660  69.8007030  14.1676940  13.6213890  72.4804720  14.7266790
  13.2927250  71.6656480  14.3468520  14.5696190  72.4374530  14.6032480
  16.0748500  88.2516760  11.7004360  15.6151470  89.0032570  11.3262380
  15.4460960  87.5323230  11.6419160   2.8999120  84.3460000  14.0903080
   2.1733180  83.7265290  14.0229030   2.9608270  84.7400610  13.2201160
   6.5044220  86.5605000  10.8752490   7.0209240  85.9492360  10.3500750
   7.1541600  87.0633780  11.3663500   9.2439720  87.4513490  11.7021470
   9.5317530  87.1967790  10.8254480   9.7562940  86.8990850  12.2927040
  10.4616730  71.1903690  12.2817980   9.6788520  71.6649190  12.5614740
  10.1679660  70.2858520  12.1731160  15.0137800  71.8926790  10.3267070
  15.4545890  71.8371890   9.4788670  14.7445390  72.8084800  10.3977250
  16.8776370  71.5242030   8.3375890  16.8164770  70.5803250   8.1906910
  17.6568400  71.6322120   8.8829350   1.8057140  71.4951170   4.8031700
   2.5636500  71.6080050   4.2295730   1.3434310  72.3320370   4.7575130
   8.3470950  73.6090440   7.7934010   7.5345460  73.2347330   7.4529890
   8.8512590  72.8535520   8.0955200  12.8495930  70.2732890   9.0317080
  13.4525300  70.8453100   9.5065600  12.1088920  70.8372330   8.8090980
  15.9930530  70.6754450   4.3057360  16.1881160  71.5737900   4.5724790
  15.2060400  70.4441530   4.7990310   2.7891820  86.3567620   4.7449980
   2.2639440  86.7375650   4.0411940   2.7136400  86.9818390   5.4659690
   4.1782290  72.0215220   3.3433670   4.7075050  71.2345020   3.2141620
   4.8110610  72.7006410   3.5769200   6.3720130  71.7590360   6.3979060
   5.7422870  71.0577670   6.5649190   5.8325270  72.5194490   6.1812220
   9.3112080  88.3729590  19.0689670  10.2379390  88.1373860  19.1125630
   9.2962510  89.2001590  18.5875700  17.5457140  87.9155160   6.0663920
  17.7209330  87.2292900   5.4224840  16.8478710  88.4402210   5.6740590
   6.4975690  71.0374340  18.8331550   6.2159960  71.5407940  18.0692370
   6.8795390  70.2396090  18.4673680   5.3884790  88.3050000   3.6199230
   6.1203610  88.0209280   3.0723120   5.6478460  88.0663280   4.5098610
   4.5499580  84.4214730   3.6245560   3.9208460  84.8899830   4.1731390
   4.6647410  83.5763950   4.0591750  13.0991150  70.4527920  19.4112020
  12.9856600  70.7722530  20.3063540  13.9160890  70.8540430  19.1149300
  15.8789640  87.5999450  18.8930710  16.6714960  87.1048680  18.6856670
  16.1722790  88.2789590  19.5006320  12.0049300  59.6976900  64.8720720
  11.9243350  58.7831510  64.6012430  11.5913720  60.1943970  64.1660430
  10.1367340  61.4755920  66.7529990   9.3609440  60.9956360  67.0428560
  10.7880270  60.7961570  66.5786150   4.1533170  61.7875730  67.6305750
   3.3218050  61.5324440  68.0302260   4.7614150  61.8586500  68.3663670
  14.1574770  65.8816110  65.5329120  13.6956300  65.1103350  65.8616290
  14.9700320  65.9082180  66.0381570   4.1334430  65.8215820  67.8263770
   4.4362470  64.9313560  67.6473990   4.8778020  66.3786040  67.5986020
   2.5625120  56.7477620  61.4148140   1.6741820  57.0893590  61.3128020
   2.8466310  56.5477940  60.5228970  10.3838080  68.1674120  65.1533110
   9.7649520  68.6231620  64.5827550  11.2389860  68.3225580  64.7522810
   9.5776330  64.1513110  66.7600150   9.5084610  63.2103050  66.5989280
  10.3396190  64.2414520  67.3322720   1.7683000  54.7567630  69.0856770
   1.5885840  53.8593380  69.3659530   1.3663080  55.3039500  69.7603720
  10.6081500  56.9583490  66.9869080  10.9846320  56.0855370  66.8742750
  10.5101010  57.2942190  66.0959520   4.7386510  55.3309120  62.4486520
   4.8453260  56.2312850  62.7555280   3.8278870  55.2827090  62.1581170
  14.3905620  54.4533930  63.9197420  15.2115240  53.9630500  63.9622900
  14.4239700  55.0431590  64.6729260   2.3869670  57.2528130  67.6939110
   3.0679780  57.5166500  68.3126510   2.0717720  56.4129000  68.0277120
   6.5794240  58.2995490  66.7811700   7.0872460  58.7976460  67.4216720
   7.1107480  57.5230690  66.6051060  18.6805170  56.4700680  70.4841050
  17.9757340  56.8582390  69.9656160  18.9463090  57.1650970  71.0861980
   4.8630340  52.9394050  71.0475120   4.8648780  53.4566440  70.2421020
   4.0334650  52.4624230  71.0245050  11.2501430  63.0513360  62.5465020
  10.6318700  63.5162810  61.9827740  11.7624680  63.7440840  62.9634530
   6.1133190  62.5789230  69.2248620   5.7802570  63.2058150  69.8669690
   6.2899870  63.1051110  68.4450290  14.6267100  56.3934310  66.6924960
  13.9222670  56.6819200  67.2728070  14.9879260  57.2034420  66.3324520
   4.5445670  54.6504010  69.0545570   4.8862480  55.4946060  68.7599440
   3.6061480  54.7987750  69.1710910   5.3252290  64.5470030  71.0397800
   5.9426290  65.2221110  70.7582250   4.4645410  64.9558010  70.9485300
  16.2429880  66.0109440  68.9552440  15.5593400  66.6808550  68.9469110
  16.7824170  66.2090090  68.1897300  17.6954020  55.8389100  67.0834170
  16.7478930  55.8728080  67.2149600  18.0204010  56.6528050  67.4683530
   8.2273560  52.1386280  65.3790160   8.5348540  51.5833170  64.6625660
   7.2974260  52.2730740  65.1963150  13.7788620  67.8553570  67.6697620
  13.7915780  67.4515860  66.8019880  13.2263840  68.6300860  67.5659050
  15.0734040  64.5769790  62.7587790  14.9630370  63.6344120  62.8837210
  15.0702290  64.9385430  63.6450550  13.1774060  62.7583410  68.9980230
  13.5942850  62.5443520  68.1633690  13.9013880  63.0156200  69.5688850
  10.6154320  60.2035110  62.1150280   9.6883600  60.1372490  62.3438750
  10.7679140  61.1415240  62.0005520  10.6023400  56.4752110  59.1117440
   9.6627070  56.6366070  59.1969900  10.9206660  57.1937790  58.5653430
  17.1236160  61.1570630  69.0896470  16.2954790  61.2263720  68.6146600
  17.7186640  61.7424940  68.6212300  14.6451610  61.7655410  62.6185530
  14.0264030  61.4274960  61.9711830  14.6276060  61.1215170  63.3264720
  14.0878170  57.9439950  70.0351340  13.6749350  58.7693660  70.2891330
  13.3554120  57.3584990  69.8427700   6.2210960  60.7299850  64.8970010
   5.8167960  60.0177100  64.4015910   6.3074080  60.3853090  65.7858050
   6.6892660  64.4167410  67.0609220   6.3920950  63.8112880  66.3817000
   7.6392480  64.4544720  66.9498580   4.9339580  57.5043060  68.6769050
   5.4854170  57.6138400  67.9022300   5.4483090  57.8780660  69.3924280
  14.7778270  67.9899280  70.7232320  14.3008830  68.7971470  70.5304930
  14.0940060  67.3377610  70.8758530   5.7811090  64.1549100  73.7117020
   4.8839620  64.3789070  73.9590420   5.8063960  64.2784040  72.7628420
  12.8216310  61.0042220  59.6258280  13.2609590  60.1664650  59.4796100
  13.5344730  61.6371620  59.7122420   4.6082310  61.0262420  72.2874390
   4.4690080  61.8985220  72.6561790   3.7263670  60.6835230  72.1422330
  10.9311690  65.9438290  63.5939520  11.3707600  66.6862620  63.1794910
  10.8698580  66.1864860  64.5178480   6.4062660  66.9684120  74.4959540
   6.3778090  67.3727070  73.6287970   6.2427630  66.0394480  74.3331140
  16.4033450  52.2585030  57.9399320  16.0906110  52.3511860  58.8398390
  17.1645920  52.8366060  57.8896750   2.9215590  59.6244830  62.3976660
   2.8013190  60.3506920  61.7857930   2.6116480  58.8547740  61.9204570
   1.8048590  64.4960160  64.6151480   1.3976670  64.6374750  63.7605080
   2.6961600  64.2120320  64.4122690  17.7610730  64.9424070  72.9523720
  17.8873790  64.7035950  72.0340900  17.8032110  64.1108610  73.4245800
  11.6227470  68.6452070  71.5218530  12.1372140  68.5560080  72.3240960
  10.7796550  68.9911770  71.8146440  13.5981870  68.9307410  60.9502530
  13.4383010  68.6410350  61.8484360  13.4328580  68.1547540  60.4147760
   6.0770250  68.7105940  62.7274150   5.9012730  67.7941480  62.5141950
   5.2225990  69.0693230  62.9671950  13.3008000  66.4394970  59.5100530
  12.6073160  66.4372260  58.8502810  14.0430860  66.0154290  59.0794700
  12.8657930  68.0657680  63.5849020  13.3214880  67.2847060  63.8987640
  13.2050450  68.7764500  64.1290200  17.6134740  56.9956530  73.9173460
  16.9979010  57.5036200  73.3888920  17.2931160  56.0954860  73.8599400
   5.3879250  52.9679900  65.7800330   4.9447400  53.7489440  65.4484850
   5.9464240  53.2909790  66.4871270   9.6749060  55.8348420  71.3835650
   9.2128430  56.0431440  72.1955590   9.2727170  55.0207770  71.0806320
  14.6753570  57.0557370  72.5132310  13.8247160  56.7563120  72.8341380
  14.5155360  57.2999380  71.6016130  11.7703280  58.5559120  74.6131100
  12.0956690  57.7222870  74.2733330  12.5583610  59.0787640  74.7609430
   8.5038070  52.5890600  60.6606160   7.8792250  52.5850470  61.3859470
   8.4168190  51.7221560  60.2642130   7.4255150  53.5127230  67.6389930
   7.7227480  54.4190060  67.5581950   7.9740710  53.0246010  67.0249500
   5.1793470  58.0913470  63.5081580   4.9534390  57.8750640  64.4128200
   4.3986000  58.5241930  63.1627550  12.4091230  58.0976840  62.1072230
  11.8100120  58.8212640  61.9235850  12.9570840  58.0353620  61.3248680
   7.6192680  58.9899050  74.1741850   7.5236280  58.0493780  74.0242250
   8.4624660  59.2114120  73.7789920  11.0156100  56.7340380  64.1375510
  11.4085670  57.0512580  63.3244200  11.3772950  55.8552260  64.2520030
   2.7503220  55.4012720  72.3275630   2.3566610  56.2487930  72.5348410
   2.0621620  54.7639090  72.5184270  11.6011240  59.3246130  68.2326290
  10.8692360  59.8332940  68.5816390  11.2035580  58.5076110  67.9315070
   8.0388630  56.0000330  66.6378780   8.0424690  55.5590280  65.7883320
   8.9339750  56.3217660  66.7450600   3.8891010  55.8826820  65.5972990
   3.5491060  56.3602050  66.3540040   3.1268330  55.4291940  65.2374090
   8.1008780  57.0012410  59.6285540   8.2221600  56.9598890  60.5771360
   7.7157290  57.8636560  59.4732270  12.0637150  54.7779810  67.6449230
  12.0809890  55.2288460  68.4891080  11.8152730  53.8785450  67.8582670
   7.1130280  59.3113550  59.0268840   6.5447180  58.8631800  58.4004750
   7.8219280  59.6706330  58.4933990  15.4907900  52.1911990  73.4835610
  15.8153670  51.4601650  74.0093590  15.5264410  51.8725630  72.5816600
   2.1899460  63.2125570  72.9035570   1.8054250  62.5719240  73.5018530
   2.5011650  63.9161690  73.4730300   8.3396600  60.0602110  68.3844190
   8.7066730  59.5860680  69.1305530   8.1501660  60.9343680  68.7252530
   6.1295970  59.1010750  70.7028400   5.8253040  59.9802730  70.9278760
   7.0842430  59.1610540  70.7385840   4.6577760  63.3071740  61.2995250
   3.8840020  62.7669360  61.1393970   5.3872390  62.7878350  60.9613010
  15.4165740  62.3037100  67.0921640  16.1364860  62.7992390  66.7017750
  15.2147560  61.6254990  66.4475510  10.8775680  53.6975060  61.2351030
  10.0640290  53.1988230  61.1596340  10.6837630  54.5373310  60.8187380
  10.7984540  62.3746160  72.9790640  10.7321850  61.4541830  72.7248230
  10.1689680  62.4721600  73.6935280  13.5924070  58.0694710  59.5313190
  14.4803690  58.3811940  59.3564530  13.5629160  57.1966960  59.1393770
   4.7015160  62.9752120  64.9374060   5.2193830  62.1720380  64.8830950
   4.2499180  62.9131260  65.7790890   9.5884660  64.2418400  60.2101360
   9.9300360  64.9860630  59.7144680   8.7597370  64.5549520  60.5726190
   2.1859700  59.9413490  71.8499760   1.8274640  60.6067340  72.4373100
   1.8914260  59.1097040  72.2212380   5.3872820  60.3997730  74.7339310
   5.0872960  60.5454910  73.8367130   6.1584060  59.8403020  74.6412700
  10.7301270  65.1966730  72.7294440  10.7445810  64.2647690  72.5113350
  10.0226370  65.2826490  73.3684210  15.8638340  59.3806550  58.9993050
  15.7802060  59.8120770  58.1489490  16.5832530  59.8404900  59.4319870
  16.9412480  61.8374070  72.0763020  16.2160670  62.4302850  71.8792410
  17.4687940  61.8297610  71.2776390  16.8925590  66.2348810  61.7275180
  16.2501750  65.5804430  62.0018900  16.5056250  66.6403900  60.9515850
  12.4712070  63.5634240  65.5746870  12.8235890  62.9662370  64.9148240
  11.5874400  63.2378470  65.7455120   8.5575350  64.3231930  62.9817280
   9.2446480  64.8701140  63.3624870   7.7707770  64.8672660  63.0166890
   7.8602560  61.3277960  62.5942640   8.3165340  62.1383210  62.8202830
   7.5090770  61.0101100  63.4261130  10.1635170  66.8384300  69.8234940
  10.8077390  67.0443680  70.5008360  10.5264610  66.0772700  69.3705790
   3.7614340  51.6715610  63.0665160   3.6328970  51.6633510  64.0150080
   2.9376360  52.0098700  62.7156170  11.4367250  64.8416650  68.5412390
  12.0789480  64.1409810  68.6544560  11.9616600  65.6215090  68.3609280
  15.2822970  65.1265270  58.2651530  15.0560550  64.4095710  58.8576170
  14.8919170  64.8777710  57.4273280  13.2104870  65.6411550  71.7448450
  13.5461110  66.2278240  72.4226370  12.2905210  65.5104260  71.9746240
  14.8639220  63.0437210  59.9265690  14.5760920  63.5049900  60.7143570
  15.6591390  62.5834980  60.1949910   7.0807620  66.5363330  59.8569660
   7.0717720  67.2693020  59.2414170   6.1605980  66.2894910  59.9496620
   2.6814260  61.7578220  60.6016420   2.0742210  62.4977120  60.6111720
   3.1563610  61.8477580  59.7754620  12.2547050  55.9229040  70.2773310
  12.6227870  55.1024250  70.6052880  11.3945250  55.9830930  70.6928960
  15.6209080  54.8785980  61.0860870  14.9922240  54.9831650  60.3719100
  15.1261000  55.0982760  61.8754750  10.0667220  66.5991570  58.5194850
  10.1679200  66.3955560  57.5896830   9.1668960  66.3449850  58.7242630
   7.5893110  57.1571930  62.5018750   6.8809260  57.6258270  62.9432360
   7.8737590  56.4993940  63.1363940   9.2149040  58.5768630  70.5011280
   9.7134290  59.0514450  71.1663130   9.3571990  57.6532150  70.7081310
  11.6208540  53.8822590  63.9414540  11.4976320  53.9008720  62.9924050
  12.5693100  53.9301530  64.0612940   8.7085330  69.1177890  63.2142520
   8.9626830  69.0799280  62.2921890   7.7597810  68.9911220  63.2070770
   5.7928130  55.4657010  59.8769460   6.6418660  55.9027160  59.8109650
   5.4259400  55.7777270  60.7041520  16.4215900  54.7936590  71.3439670
  15.9189500  55.5341990  71.6833480  17.2372560  55.1820590  71.0276460
  14.7137910  60.0369770  64.7901030  13.7728050  60.0520000  64.9648720
  15.0281980  59.2505730  65.2361330   4.6919550  61.7189370  58.3504990
   5.4582820  61.6070730  58.9130420   4.7694240  61.0227340  57.6981760
   3.3866310  59.1514440  59.0337880   3.4669900  58.2041950  59.1455280
   4.2786060  59.4821320  59.1398540  16.7163490  67.2078620  66.4655290
  16.8410910  68.0309790  66.9379100  17.5829050  66.9969350  66.1179440
   4.1881020  69.3009830  66.1372420   4.9243500  68.7525290  66.4080990
   4.5721940  70.1665840  65.9978410   7.2983330  68.4740140  57.9597990
   8.0911940  68.7628970  57.5079780   6.7787680  68.0432310  57.2810470
  13.4604300  68.3216060  73.8842820  14.4126050  68.2374080  73.8343060
  13.3132520  68.9857770  74.5576610  16.3513500  67.7010270  59.3834730
  16.0655010  67.2875410  58.5688910  16.1533050  68.6297980  59.2635250
   7.8160730  63.6943550  57.8240340   7.7111370  63.0795900  58.5501720
   7.6484950  63.1709440  57.0403350   7.9675050  62.3800350  73.8029570
   7.2020720  62.9485350  73.7184240   8.1491010  62.0876560  72.9097800
  11.0563460  62.7563580  58.4282330  10.5073560  63.2032880  59.0725070
  11.6782720  62.2512830  58.9520000  15.1098400  64.1105680  74.3604590
  15.8507870  64.4481440  73.8572050  14.3471080  64.2797740  73.8074360
   6.7238580  61.7154500  60.3247630   7.1455000  61.5494370  61.1679020
   6.8489420  60.9054730  59.8302770   4.8866000  57.6951050  73.1318610
   4.3562460  57.2042000  72.5041950   5.5554070  58.1235250  72.5976540
   9.2366220  60.7392110  57.5724730   9.7571880  60.0241130  57.2065880
   9.8834620  61.3777980  57.8725240  13.7844060  62.1620510  72.8959800
  14.1985080  62.3165590  73.7450220  12.8495060  62.2875730  73.0585580
  14.2566230  59.5016670  74.8998950  14.8387000  58.7468990  74.8119430
  14.4328000  60.0324110  74.1230430   5.3738300  54.6613420  73.2115900
   5.2795170  54.0434170  72.4866770   4.7935690  55.3879710  72.9845810
   8.1399740  53.2186660  70.2443290   7.6917040  53.2410920  69.3988840
   7.5064940  52.8205680  70.8413590   8.5459290  62.1140990  70.8655730
   8.9647400  62.9573720  70.6931970   7.6267920  62.2513030  70.6362510
  10.8823190  59.8457170  72.2493570  11.0019400  59.2498310  72.9888410
  11.7417190  59.8826860  71.8294870  13.2211090  60.3994360  70.8256080
  12.6946310  60.9236980  70.2221220  13.5642430  61.0321750  71.4565810
   5.6197480  57.7887730  57.2705790   5.4186540  56.9255090  57.6319130
   5.4489530  57.7021090  56.3327390   6.3966710  68.4194000  71.9813460
   5.8587800  69.1440060  71.6622160   6.6500670  67.9424340  71.1910800
   7.6491960  56.3878520  73.5069390   8.2391650  56.0794370  74.1947210
   6.8312200  55.9158270  73.6629290  12.4685390  56.0044330  73.7402410
  11.7800910  55.3425870  73.6752400  13.1891410  55.5582600  74.1850870
  13.0985790  52.5995960  59.7992670  13.3788080  51.7563860  60.1552090
  12.3251520  52.8319070  60.3131420   4.4180280  54.8888350  57.2583670
   4.7206180  54.8955780  56.3502820   5.1574870  54.5386210  57.7551330
   9.2528920  69.6545210  72.2400110   9.1787620  70.5580350  72.5472480
   8.3507760  69.3357110  72.2122180   7.6365210  53.8322970  58.2439870
   7.2887210  53.1546960  57.6642320   7.8377980  53.3712480  59.0583260
   9.8014250  68.8203720  59.8626470  10.6965040  69.1588690  59.8845230
   9.8331880  68.0983130  59.2350750   3.4410410  64.1930770  58.0913470
   3.8785280  64.7360440  58.7471050   3.9258140  63.3677720  58.1009810
   5.2518130  65.3128810  63.2035700   4.9513670  65.1893780  64.1039610
   5.1455620  64.4537400  62.7951430  16.7808600  67.3507390  72.5692670
  16.1810590  67.4099950  71.8256590  16.9102500  66.4112370  72.6989520
  18.0210050  65.0925210  57.9062380  17.1903010  65.1601860  58.3769610
  18.1981880  65.9829330  57.6029240  17.4766510  61.8372690  60.4096580
  18.2385420  62.4069340  60.5156270  17.4920880  61.2699890  61.1804890
  18.4826480  62.6922790  65.2538510  18.8535310  61.9090110  64.8474480
  19.1228410  63.3811890  65.0755810  15.4660240  64.0759370  70.6668830
  14.6520080  64.5056530  70.9294620  15.8734440  64.6877780  70.0537880
  17.5285680  62.1307060  57.5669100  17.8034520  63.0385940  57.4388320
  17.3396420  62.0669590  58.5031090  13.9261290  55.1551910  58.8622730
  14.3446170  54.9682890  58.0219390  13.6197350  54.3030960  59.1725660
  17.4251020  60.0676050  62.5598530  17.0494620  59.3003980  62.1279820
  16.6954140  60.4498750  63.0473460   2.0146780  60.7463190  69.1807580
   2.3819820  60.6590590  70.0603600   1.4457600  59.9829740  69.0814440
  16.8150640  59.2147570  72.1938050  16.5836730  58.9860320  71.2936000
  17.0755190  60.1347120  72.1482940  16.7001980  58.2933540  65.8605770
  17.2239460  57.7996190  65.2295940  17.2861400  58.4283900  66.6053340
  16.8791700  58.3773410  69.3825320  15.9294410  58.3436950  69.4970310
  17.0604710  59.2873520  69.1475090   2.7336140  56.6275090  58.4923950
   3.4427840  56.2058310  58.0071230   2.0176080  56.6950320  57.8607300
   2.3810300  52.6814420  57.5326600   3.1038430  53.2223360  57.8507820
   2.6534820  52.4077840  56.6568140  16.1901950  57.5506890  61.7998180
  16.6861070  57.3177760  62.5847060  15.9918020  56.7118730  61.3835820
   2.0702490  51.9320610  67.4349220   2.7178680  51.3817990  66.9944380
   2.4904330  52.1863760  68.2565030  17.6189110  56.1867840  64.3335860
  17.5088390  56.0323880  65.2718130  18.3796700  55.6588780  64.0911270
  15.9654830  52.1261970  70.7918860  16.6027050  52.7396110  71.1578050
  16.1129720  52.1622630  69.8468090  18.5079380  54.0175760  57.5742000
  19.4328690  53.8856940  57.3660290  18.4855170  54.0968580  58.5278450
  18.5817870  54.7886420  60.1998710  17.7869370  54.7231540  60.7291620
  18.7861150  55.7237060  60.1884060  15.5236290  68.8277970  64.1937100
  16.1195360  68.5062540  63.5171520  15.7814440  68.3549790  64.9850370
   1.8234490  52.0876280  70.1774540   1.4749310  52.5440100  70.9432720
   1.4922190  51.1933410  70.2596970   7.1304890  66.8155470  69.9437450
   6.8896250  67.0830030  69.0567970   8.0707530  66.9861200  69.9988310
   9.3359310  53.2788160  73.6993960   9.2748200  53.8709990  74.4489370
  10.2759690  53.1714120  73.5544220  11.9733870  52.9358220  73.3386250
  12.5874280  53.2537510  72.6767330  12.5183430  52.4506810  73.9582110
  18.3909050  68.8349850  70.7448090  17.8967330  69.2318720  70.0275220
  17.7822340  68.2099060  71.1385370   2.4955130  51.6152480  73.4525310
   3.0438120  51.4340530  72.6891420   2.5610440  50.8246590  73.9881620
   3.2686890  68.2058130  71.4625510   2.6747210  68.0742830  72.2015550
   3.2610730  67.3696270  70.9967610  12.7141910  51.4990360  69.6655540
  11.8401750  51.8325470  69.4628470  12.6052660  51.0263540  70.4907410
  13.6213890  53.7061230  71.0497260  13.2927250  52.8912990  70.6698990
  14.5696190  53.6631040  70.9262950  16.0748500  69.4773270  68.0234830
  15.6151470  70.2289080  67.6492850  15.4460960  68.7579740  67.9649630
   2.8999120  65.5716510  70.4133550   2.1733180  64.9521800  70.3459500
   2.9608270  65.9657120  69.5431630   6.5044220  67.7861510  67.1982960
   7.0209240  67.1748870  66.6731220   7.1541600  68.2890290  67.6893970
   9.2439720  68.6770000  68.0251940   9.5317530  68.4224300  67.1484950
   9.7562940  68.1247360  68.6157510  10.4616730  52.4160200  68.6048450
   9.6788520  52.8905700  68.8845210  10.1679660  51.5115030  68.4961630
  15.0137800  53.1183300  66.6497540  15.4545890  53.0628400  65.8019140
  14.7445390  54.0341310  66.7207720  16.8776370  52.7498540  64.6606360
  16.8164770  51.8059760  64.5137380  17.6568400  52.8578630  65.2059820
   1.8057140  52.7207680  61.1262170   2.5636500  52.8336560  60.5526200
   1.3434310  53.5576880  61.0805600   8.3470950  54.8346950  64.1164480
   7.5345460  54.4603840  63.7760360   8.8512590  54.0792030  64.4185670
  12.8495930  51.4989400  65.3547550  13.4525300  52.0709610  65.8296070
  12.1088920  52.0628840  65.1321450  15.9930530  51.9010960  60.6287830
  16.1881160  52.7994410  60.8955260  15.2060400  51.6698040  61.1220780
   2.7891820  67.5824130  61.0680450   2.2639440  67.9632160  60.3642410
   2.7136400  68.2074900  61.7890160   4.1782290  53.2471730  59.6664140
   4.7075050  52.4601530  59.5372090   4.8110610  53.9262920  59.8999670
   6.3720130  52.9846870  62.7209530   5.7422870  52.2834180  62.8879660
   5.8325270  53.7451000  62.5042690  17.5457140  69.1411670  62.3894390
  17.7209330  68.4549410  61.7455310  16.8478710  69.6658720  61.9971060
   5.3884790  69.5306510  59.9429700   6.1203610  69.2465790  59.3953590
   5.6478460  69.2919790  60.8329080   4.5499580  65.6471240  59.9476030
   3.9208460  66.1156340  60.4961860   4.6647410  64.8020460  60.3822220
  10.1367340  61.4755920  47.9786500   9.3609440  60.9956360  48.2685070
  10.7880270  60.7961570  47.8042660   4.1533170  61.7875730  48.8562260
   3.3218050  61.5324440  49.2558770   4.7614150  61.8586500  49.5920180
  14.1574770  65.8816110  46.7585630  13.6956300  65.1103350  47.0872800
  14.9700320  65.9082180  47.2638080   4.1334430  65.8215820  49.0520280
   4.4362470  64.9313560  48.8730500   4.8778020  66.3786040  48.8242530
   2.5625120  56.7477620  42.6404650   1.6741820  57.0893590  42.5384530
   2.8466310  56.5477940  41.7485480  10.3838080  68.1674120  46.3789620
   9.7649520  68.6231620  45.8084060  11.2389860  68.3225580  45.9779320
   9.5776330  64.1513110  47.9856660   9.5084610  63.2103050  47.8245790
  10.3396190  64.2414520  48.5579230   1.7683000  54.7567630  50.3113280
   1.5885840  53.8593380  50.5916040   1.3663080  55.3039500  50.9860230
  10.6081500  56.9583490  48.2125590  10.9846320  56.0855370  48.0999260
  10.5101010  57.2942190  47.3216030   4.7386510  55.3309120  43.6743030
   4.8453260  56.2312850  43.9811790   3.8278870  55.2827090  43.3837680
  14.3905620  54.4533930  45.1453930  15.2115240  53.9630500  45.1879410
  14.4239700  55.0431590  45.8985770   2.3869670  57.2528130  48.9195620
   3.0679780  57.5166500  49.5383020   2.0717720  56.4129000  49.2533630
   6.5794240  58.2995490  48.0068210   7.0872460  58.7976460  48.6473230
   7.1107480  57.5230690  47.8307570   4.8630340  52.9394050  52.2731630
   4.8648780  53.4566440  51.4677530   4.0334650  52.4624230  52.2501560
  11.2501430  63.0513360  43.7721530  10.6318700  63.5162810  43.2084250
  11.7624680  63.7440840  44.1891040   6.1133190  62.5789230  50.4505130
   5.7802570  63.2058150  51.0926200   6.2899870  63.1051110  49.6706800
   4.5445670  54.6504010  50.2802080   4.8862480  55.4946060  49.9855950
   3.6061480  54.7987750  50.3967420   5.3252290  64.5470030  52.2654310
   5.9426290  65.2221110  51.9838760   4.4645410  64.9558010  52.1741810
  16.2429880  66.0109440  50.1808950  15.5593400  66.6808550  50.1725620
  16.7824170  66.2090090  49.4153810   8.2273560  52.1386280  46.6046670
   8.5348540  51.5833170  45.8882170   7.2974260  52.2730740  46.4219660
  13.7788620  67.8553570  48.8954130  13.7915780  67.4515860  48.0276390
  13.2263840  68.6300860  48.7915560  15.0734040  64.5769790  43.9844300
  14.9630370  63.6344120  44.1093720  15.0702290  64.9385430  44.8707060
  13.1774060  62.7583410  50.2236740  13.5942850  62.5443520  49.3890200
  13.9013880  63.0156200  50.7945360  10.6154320  60.2035110  43.3406790
   9.6883600  60.1372490  43.5695260  10.7679140  61.1415240  43.2262030
  10.6023400  56.4752110  40.3373950   9.6627070  56.6366070  40.4226410
  10.9206660  57.1937790  39.7909940   6.2210960  60.7299850  46.1226520
   5.8167960  60.0177100  45.6272420   6.3074080  60.3853090  47.0114560
   6.6892660  64.4167410  48.2865730   6.3920950  63.8112880  47.6073510
   7.6392480  64.4544720  48.1755090   4.9339580  57.5043060  49.9025560
   5.4854170  57.6138400  49.1278810   5.4483090  57.8780660  50.6180790
  14.7778270  67.9899280  51.9488830  14.3008830  68.7971470  51.7561440
  14.0940060  67.3377610  52.1015040   5.7811090  64.1549100  54.9373530
   4.8839620  64.3789070  55.1846930   5.8063960  64.2784040  53.9884930
  12.8216310  61.0042220  40.8514790  13.2609590  60.1664650  40.7052610
  13.5344730  61.6371620  40.9378930   4.6082310  61.0262420  53.5130900
   4.4690080  61.8985220  53.8818300   3.7263670  60.6835230  53.3678840
  10.9311690  65.9438290  44.8196030  11.3707600  66.6862620  44.4051420
  10.8698580  66.1864860  45.7434990   6.4062660  66.9684120  55.7216050
   6.3778090  67.3727070  54.8544480   6.2427630  66.0394480  55.5587650
  16.4033450  52.2585030  39.1655830  16.0906110  52.3511860  40.0654900
  17.1645920  52.8366060  39.1153260   2.9215590  59.6244830  43.6233170
   2.8013190  60.3506920  43.0114440   2.6116480  58.8547740  43.1461080
  18.3577480  67.7511220  57.0180220  18.8337200  68.2294110  57.6969300
  18.9784640  67.6828710  56.2925720   1.8048590  64.4960160  45.8407990
   1.3976670  64.6374750  44.9861590   2.6961600  64.2120320  45.6379200
  17.7610730  64.9424070  54.1780230  17.8873790  64.7035950  53.2597410
  17.8032110  64.1108610  54.6502310  11.6227470  68.6452070  52.7475040
  12.1372140  68.5560080  53.5497470  10.7796550  68.9911770  53.0402950
  13.5981870  68.9307410  42.1759040  13.4383010  68.6410350  43.0740870
  13.4328580  68.1547540  41.6404270   6.0770250  68.7105940  43.9530660
   5.9012730  67.7941480  43.7398460   5.2225990  69.0693230  44.1928460
  13.3008000  66.4394970  40.7357040  12.6073160  66.4372260  40.0759320
  14.0430860  66.0154290  40.3051210  12.8657930  68.0657680  44.8105530
  13.3214880  67.2847060  45.1244150  13.2050450  68.7764500  45.3546710
   5.3879250  52.9679900  47.0056840   4.9447400  53.7489440  46.6741360
   5.9464240  53.2909790  47.7127780   9.6749060  55.8348420  52.6092160
   9.2128430  56.0431440  53.4212100   9.2727170  55.0207770  52.3062830
  14.6753570  57.0557370  53.7388820  13.8247160  56.7563120  54.0597890
  14.5155360  57.2999380  52.8272640  11.7703280  58.5559120  55.8387610
  12.0956690  57.7222870  55.4989840  12.5583610  59.0787640  55.9865940
   8.5038070  52.5890600  41.8862670   7.8792250  52.5850470  42.6115980
   8.4168190  51.7221560  41.4898640   7.4255150  53.5127230  48.8646440
   7.7227480  54.4190060  48.7838460   7.9740710  53.0246010  48.2506010
   5.1793470  58.0913470  44.7338090   4.9534390  57.8750640  45.6384710
   4.3986000  58.5241930  44.3884060  12.4091230  58.0976840  43.3328740
  11.8100120  58.8212640  43.1492360  12.9570840  58.0353620  42.5505190
   7.6192680  58.9899050  55.3998360   7.5236280  58.0493780  55.2498760
   8.4624660  59.2114120  55.0046430  11.0156100  56.7340380  45.3632020
  11.4085670  57.0512580  44.5500710  11.3772950  55.8552260  45.4776540
   2.7503220  55.4012720  53.5532140   2.3566610  56.2487930  53.7604920
   2.0621620  54.7639090  53.7440780   9.3248270  55.4847690  56.6228880
   8.6346590  55.2919890  57.2574970  10.0680570  55.7682330  57.1553180
  11.6011240  59.3246130  49.4582800  10.8692360  59.8332940  49.8072900
  11.2035580  58.5076110  49.1571580   8.0388630  56.0000330  47.8635290
   8.0424690  55.5590280  47.0139830   8.9339750  56.3217660  47.9707110
   3.8891010  55.8826820  46.8229500   3.5491060  56.3602050  47.5796550
   3.1268330  55.4291940  46.4630600   8.1008780  57.0012410  40.8542050
   8.2221600  56.9598890  41.8027870   7.7157290  57.8636560  40.6988780
  12.0637150  54.7779810  48.8705740  12.0809890  55.2288460  49.7147590
  11.8152730  53.8785450  49.0839180   7.1130280  59.3113550  40.2525350
   6.5447180  58.8631800  39.6261260   7.8219280  59.6706330  39.7190500
  15.4907900  52.1911990  54.7092120  15.8153670  51.4601650  55.2350100
  15.5264410  51.8725630  53.8073110   2.1899460  63.2125570  54.1292080
   1.8054250  62.5719240  54.7275040   2.5011650  63.9161690  54.6986810
   8.3396600  60.0602110  49.6100700   8.7066730  59.5860680  50.3562040
   8.1501660  60.9343680  49.9509040   6.1295970  59.1010750  51.9284910
   5.8253040  59.9802730  52.1535270   7.0842430  59.1610540  51.9642350
   4.6577760  63.3071740  42.5251760   3.8840020  62.7669360  42.3650480
   5.3872390  62.7878350  42.1869520  10.8775680  53.6975060  42.4607540
  10.0640290  53.1988230  42.3852850  10.6837630  54.5373310  42.0443890
  10.7984540  62.3746160  54.2047150  10.7321850  61.4541830  53.9504740
  10.1689680  62.4721600  54.9191790  13.5924070  58.0694710  40.7569700
  14.4803690  58.3811940  40.5821040  13.5629160  57.1966960  40.3650280
   4.7015160  62.9752120  46.1630570   5.2193830  62.1720380  46.1087460
   4.2499180  62.9131260  47.0047400   9.5884660  64.2418400  41.4357870
   9.9300360  64.9860630  40.9401190   8.7597370  64.5549520  41.7982700
   2.1859700  59.9413490  53.0756270   1.8274640  60.6067340  53.6629610
   1.8914260  59.1097040  53.4468890   5.3872820  60.3997730  55.9595820
   5.0872960  60.5454910  55.0623640   6.1584060  59.8403020  55.8669210
  10.7301270  65.1966730  53.9550950  10.7445810  64.2647690  53.7369860
  10.0226370  65.2826490  54.5940720  15.8638340  59.3806550  40.2249560
  15.7802060  59.8120770  39.3746000  16.5832530  59.8404900  40.6576380
  16.9412480  61.8374070  53.3019530  16.2160670  62.4302850  53.1048920
  17.4687940  61.8297610  52.5032900  16.8925590  66.2348810  42.9531690
  16.2501750  65.5804430  43.2275410  16.5056250  66.6403900  42.1772360
  12.4712070  63.5634240  46.8003380  12.8235890  62.9662370  46.1404750
  11.5874400  63.2378470  46.9711630   8.5575350  64.3231930  44.2073790
   9.2446480  64.8701140  44.5881380   7.7707770  64.8672660  44.2423400
   7.8602560  61.3277960  43.8199150   8.3165340  62.1383210  44.0459340
   7.5090770  61.0101100  44.6517640  10.1635170  66.8384300  51.0491450
  10.8077390  67.0443680  51.7264870  10.5264610  66.0772700  50.5962300
   3.7614340  51.6715610  44.2921670   3.6328970  51.6633510  45.2406590
   2.9376360  52.0098700  43.9412680  11.4367250  64.8416650  49.7668900
  12.0789480  64.1409810  49.8801070  11.9616600  65.6215090  49.5865790
  15.2822970  65.1265270  39.4908040  15.0560550  64.4095710  40.0832680
  14.8919170  64.8777710  38.6529790  13.2104870  65.6411550  52.9704960
  13.5461110  66.2278240  53.6482880  12.2905210  65.5104260  53.2002750
  14.8639220  63.0437210  41.1522200  14.5760920  63.5049900  41.9400080
  15.6591390  62.5834980  41.4206420   9.0393450  65.6902880  56.1393020
   8.7190320  64.9712120  56.6838710   8.3651810  66.3657950  56.2129080
   7.0807620  66.5363330  41.0826170   7.0717720  67.2693020  40.4670680
   6.1605980  66.2894910  41.1753130   2.6814260  61.7578220  41.8272930
   2.0742210  62.4977120  41.8368230   3.1563610  61.8477580  41.0011130
  12.2547050  55.9229040  51.5029820  12.6227870  55.1024250  51.8309390
  11.3945250  55.9830930  51.9185470  15.6209080  54.8785980  42.3117380
  14.9922240  54.9831650  41.5975610  15.1261000  55.0982760  43.1011260
  10.0667220  66.5991570  39.7451360  10.1679200  66.3955560  38.8153340
   9.1668960  66.3449850  39.9499140   7.5893110  57.1571930  43.7275260
   6.8809260  57.6258270  44.1688870   7.8737590  56.4993940  44.3620450
   9.2149040  58.5768630  51.7267790   9.7134290  59.0514450  52.3919640
   9.3571990  57.6532150  51.9337820  11.6208540  53.8822590  45.1671050
  11.4976320  53.9008720  44.2180560  12.5693100  53.9301530  45.2869450
   8.7085330  69.1177890  44.4399030   8.9626830  69.0799280  43.5178400
   7.7597810  68.9911220  44.4327280   5.7928130  55.4657010  41.1025970
   6.6418660  55.9027160  41.0366160   5.4259400  55.7777270  41.9298030
  16.4215900  54.7936590  52.5696180  15.9189500  55.5341990  52.9089990
  17.2372560  55.1820590  52.2532970   4.6919550  61.7189370  39.5761500
   5.4582820  61.6070730  40.1386930   4.7694240  61.0227340  38.9238270
   3.3866310  59.1514440  40.2594390   3.4669900  58.2041950  40.3711790
   4.2786060  59.4821320  40.3655050  16.7163490  67.2078620  47.6911800
  16.8410910  68.0309790  48.1635610  17.5829050  66.9969350  47.3435950
   4.1881020  69.3009830  47.3628930   4.9243500  68.7525290  47.6337500
   4.5721940  70.1665840  47.2234920   3.1939300  68.4855900  56.5514510
   3.9952030  68.8067950  56.9649910   2.6791120  68.1251480  57.2734420
   7.2983330  68.4740140  39.1854500   8.0911940  68.7628970  38.7336290
   6.7787680  68.0432310  38.5066980  12.0303930  64.5935770  56.4989920
  11.4242090  64.6167370  55.7585670  11.7258040  63.8618810  57.0357170
  13.4604300  68.3216060  55.1099330  14.4126050  68.2374080  55.0599570
  13.3132520  68.9857770  55.7833120  16.3513500  67.7010270  40.6091240
  16.0655010  67.2875410  39.7945420  16.1533050  68.6297980  40.4891760
   7.8160730  63.6943550  39.0496850   7.7111370  63.0795900  39.7758230
   7.6484950  63.1709440  38.2659860   7.9675050  62.3800350  55.0286080
   7.2020720  62.9485350  54.9440750   8.1491010  62.0876560  54.1354310
  11.0563460  62.7563580  39.6538840  10.5073560  63.2032880  40.2981580
  11.6782720  62.2512830  40.1776510  15.1098400  64.1105680  55.5861100
  15.8507870  64.4481440  55.0828560  14.3471080  64.2797740  55.0330870
   2.9460190  59.1158950  56.3900630   2.9865530  58.8172820  57.2985860
   3.8005690  59.5166560  56.2308150   6.7238580  61.7154500  41.5504140
   7.1455000  61.5494370  42.3935530   6.8489420  60.9054730  41.0559280
   4.8866000  57.6951050  54.3575120   4.3562460  57.2042000  53.7298460
   5.5554070  58.1235250  53.8233050   9.2366220  60.7392110  38.7981240
   9.7571880  60.0241130  38.4322390   9.8834620  61.3777980  39.0981750
  13.7844060  62.1620510  54.1216310  14.1985080  62.3165590  54.9706730
  12.8495060  62.2875730  54.2842090  14.2566230  59.5016670  56.1255460
  14.8387000  58.7468990  56.0375940  14.4328000  60.0324110  55.3486940
   5.3738300  54.6613420  54.4372410   5.2795170  54.0434170  53.7123280
   4.7935690  55.3879710  54.2102320   8.1399740  53.2186660  51.4699800
   7.6917040  53.2410920  50.6245350   7.5064940  52.8205680  52.0670100
   8.5459290  62.1140990  52.0912240   8.9647400  62.9573720  51.9188480
   7.6267920  62.2513030  51.8619020  10.8823190  59.8457170  53.4750080
  11.0019400  59.2498310  54.2144920  11.7417190  59.8826860  53.0551380
  13.2211090  60.3994360  52.0512590  12.6946310  60.9236980  51.4477730
  13.5642430  61.0321750  52.6822320   5.6197480  57.7887730  38.4962300
   5.4186540  56.9255090  38.8575640   5.4489530  57.7021090  37.5583900
   6.3966710  68.4194000  53.2069970   5.8587800  69.1440060  52.8878670
   6.6500670  67.9424340  52.4167310   7.6491960  56.3878520  54.7325900
   8.2391650  56.0794370  55.4203720   6.8312200  55.9158270  54.8885800
  12.4685390  56.0044330  54.9658920  11.7800910  55.3425870  54.9008910
  13.1891410  55.5582600  55.4107380  13.0985790  52.5995960  41.0249180
  13.3788080  51.7563860  41.3808600  12.3251520  52.8319070  41.5387930
   4.4180280  54.8888350  38.4840180   4.7206180  54.8955780  37.5759330
   5.1574870  54.5386210  38.9807840   9.2528920  69.6545210  53.4656620
   9.1787620  70.5580350  53.7728990   8.3507760  69.3357110  53.4378690
   7.6365210  53.8322970  39.4696380   7.2887210  53.1546960  38.8898830
   7.8377980  53.3712480  40.2839770   9.8014250  68.8203720  41.0882980
  10.6965040  69.1588690  41.1101740   9.8331880  68.0983130  40.4607260
   3.4410410  64.1930770  39.3169980   3.8785280  64.7360440  39.9727560
   3.9258140  63.3677720  39.3266320   5.2518130  65.3128810  44.4292210
   4.9513670  65.1893780  45.3296120   5.1455620  64.4537400  44.0207940
  16.7808600  67.3507390  53.7949180  16.1810590  67.4099950  53.0513100
  16.9102500  66.4112370  53.9246030  18.0210050  65.0925210  39.1318890
  17.1903010  65.1601860  39.6026120  18.1981880  65.9829330  38.8285750
  17.4766510  61.8372690  41.6353090  18.2385420  62.4069340  41.7412780
  17.4920880  61.2699890  42.4061400  15.4660240  64.0759370  51.8925340
  14.6520080  64.5056530  52.1551130  15.8734440  64.6877780  51.2794390
  17.5285680  62.1307060  38.7925610  17.8034520  63.0385940  38.6644830
  17.3396420  62.0669590  39.7287600  13.9261290  55.1551910  40.0879240
  14.3446170  54.9682890  39.2475900  13.6197350  54.3030960  40.3982170
   2.0146780  60.7463190  50.4064090   2.3819820  60.6590590  51.2860110
   1.4457600  59.9829740  50.3070950  15.2538710  54.4404000  56.1974260
  16.1308890  54.4487400  56.5808260  15.2659550  53.7034840  55.5866610
   2.7336140  56.6275090  39.7180460   3.4427840  56.2058310  39.2327740
   2.0176080  56.6950320  39.0863810   2.3810300  52.6814420  38.7583110
   3.1038430  53.2223360  39.0764330   2.6534820  52.4077840  37.8824650
   2.0702490  51.9320610  48.6605730   2.7178680  51.3817990  48.2200890
   2.4904330  52.1863760  49.4821540  15.9654830  52.1261970  52.0175370
  16.6027050  52.7396110  52.3834560  16.1129720  52.1622630  51.0724600
  18.5079380  54.0175760  38.7998510  19.4328690  53.8856940  38.5916800
  18.4855170  54.0968580  39.7534960  18.5817870  54.7886420  41.4255220
  17.7869370  54.7231540  41.9548130  18.7861150  55.7237060  41.4140570
  15.5236290  68.8277970  45.4193610  16.1195360  68.5062540  44.7428030
  15.7814440  68.3549790  46.2106880   1.8234490  52.0876280  51.4031050
   1.4749310  52.5440100  52.1689230   1.4922190  51.1933410  51.4853480
   3.4298860  65.2595880  55.5684240   3.3868490  64.8888790  56.4498700
   3.5609870  66.1973450  55.7086060   7.1304890  66.8155470  51.1693960
   6.8896250  67.0830030  50.2824480   8.0707530  66.9861200  51.2244820
   9.3359310  53.2788160  54.9250470   9.2748200  53.8709990  55.6745880
  10.2759690  53.1714120  54.7800730  11.9733870  52.9358220  54.5642760
  12.5874280  53.2537510  53.9023840  12.5183430  52.4506810  55.1838620
  18.3909050  68.8349850  51.9704600  17.8967330  69.2318720  51.2531730
  17.7822340  68.2099060  52.3641880   2.4955130  51.6152480  54.6781820
   3.0438120  51.4340530  53.9147930   2.5610440  50.8246590  55.2138130
   3.2686890  68.2058130  52.6882020   2.6747210  68.0742830  53.4272060
   3.2610730  67.3696270  52.2224120  12.7141910  51.4990360  50.8912050
  11.8401750  51.8325470  50.6884980  12.6052660  51.0263540  51.7163920
  13.6213890  53.7061230  52.2753770  13.2927250  52.8912990  51.8955500
  14.5696190  53.6631040  52.1519460  16.0748500  69.4773270  49.2491340
  15.6151470  70.2289080  48.8749360  15.4460960  68.7579740  49.1906140
   2.8999120  65.5716510  51.6390060   2.1733180  64.9521800  51.5716010
   2.9608270  65.9657120  50.7688140   6.5044220  67.7861510  48.4239470
   7.0209240  67.1748870  47.8987730   7.1541600  68.2890290  48.9150480
   9.2439720  68.6770000  49.2508450   9.5317530  68.4224300  48.3741460
   9.7562940  68.1247360  49.8414020  10.4616730  52.4160200  49.8304960
   9.6788520  52.8905700  50.1101720  10.1679660  51.5115030  49.7218140
  15.0137800  53.1183300  47.8754050  15.4545890  53.0628400  47.0275650
  14.7445390  54.0341310  47.9464230  16.8776370  52.7498540  45.8862870
  16.8164770  51.8059760  45.7393890  17.6568400  52.8578630  46.4316330
   1.8057140  52.7207680  42.3518680   2.5636500  52.8336560  41.7782710
   1.3434310  53.5576880  42.3062110   8.3470950  54.8346950  45.3420990
   7.5345460  54.4603840  45.0016870   8.8512590  54.0792030  45.6442180
  12.8495930  51.4989400  46.5804060  13.4525300  52.0709610  47.0552580
  12.1088920  52.0628840  46.3577960  15.9930530  51.9010960  41.8544340
  16.1881160  52.7994410  42.1211770  15.2060400  51.6698040  42.3477290
   2.7891820  67.5824130  42.2936960   2.2639440  67.9632160  41.5898920
   2.7136400  68.2074900  43.0146670   4.1782290  53.2471730  40.8920650
   4.7075050  52.4601530  40.7628600   4.8110610  53.9262920  41.1256180
   6.3720130  52.9846870  43.9466040   5.7422870  52.2834180  44.1136170
   5.8325270  53.7451000  43.7299200   9.3112080  69.5986100  56.6176650
  10.2379390  69.3630370  56.6612610   9.2962510  70.4258100  56.1362680
  17.5457140  69.1411670  43.6150900  17.7209330  68.4549410  42.9711820
  16.8478710  69.6658720  43.2227570   6.4975690  52.2630850  56.3818530
   6.2159960  52.7664450  55.6179350   6.8795390  51.4652600  56.0160660
   5.3884790  69.5306510  41.1686210   6.1203610  69.2465790  40.6210100
   5.6478460  69.2919790  42.0585590   4.5499580  65.6471240  41.1732540
   3.9208460  66.1156340  41.7218370   4.6647410  64.8020460  41.6078730
  13.0991150  51.6784430  56.9599000  12.9856600  51.9979040  57.8550520
  13.9160890  52.0796940  56.6636280  15.8789640  68.8255960  56.4417690
  16.6714960  68.3305190  56.2343650  16.1722790  69.5046100  57.0493300
  12.0049300  59.6976900  27.3233740  11.9243350  58.7831510  27.0525450
  11.5913720  60.1943970  26.6173450  10.1367340  61.4755920  29.2043010
   9.3609440  60.9956360  29.4941580  10.7880270  60.7961570  29.0299170
   4.1533170  61.7875730  30.0818770   3.3218050  61.5324440  30.4815280
   4.7614150  61.8586500  30.8176690  14.1574770  65.8816110  27.9842140
  13.6956300  65.1103350  28.3129310  14.9700320  65.9082180  28.4894590
   4.1334430  65.8215820  30.2776790   4.4362470  64.9313560  30.0987010
   4.8778020  66.3786040  30.0499040   2.5625120  56.7477620  23.8661160
   1.6741820  57.0893590  23.7641040   2.8466310  56.5477940  22.9741990
  10.3838080  68.1674120  27.6046130   9.7649520  68.6231620  27.0340570
  11.2389860  68.3225580  27.2035830   9.5776330  64.1513110  29.2113170
   9.5084610  63.2103050  29.0502300  10.3396190  64.2414520  29.7835740
   1.7683000  54.7567630  31.5369790   1.5885840  53.8593380  31.8172550
   1.3663080  55.3039500  32.2116740  10.6081500  56.9583490  29.4382100
  10.9846320  56.0855370  29.3255770  10.5101010  57.2942190  28.5472540
   4.7386510  55.3309120  24.8999540   4.8453260  56.2312850  25.2068300
   3.8278870  55.2827090  24.6094190  14.3905620  54.4533930  26.3710440
  15.2115240  53.9630500  26.4135920  14.4239700  55.0431590  27.1242280
   2.3869670  57.2528130  30.1452130   3.0679780  57.5166500  30.7639530
   2.0717720  56.4129000  30.4790140   6.5794240  58.2995490  29.2324720
   7.0872460  58.7976460  29.8729740   7.1107480  57.5230690  29.0564080
  18.6805170  56.4700680  32.9354070  17.9757340  56.8582390  32.4169180
  18.9463090  57.1650970  33.5375000   4.8630340  52.9394050  33.4988140
   4.8648780  53.4566440  32.6934040   4.0334650  52.4624230  33.4758070
  11.2501430  63.0513360  24.9978040  10.6318700  63.5162810  24.4340760
  11.7624680  63.7440840  25.4147550   6.1133190  62.5789230  31.6761640
   5.7802570  63.2058150  32.3182710   6.2899870  63.1051110  30.8963310
  14.6267100  56.3934310  29.1437980  13.9222670  56.6819200  29.7241090
  14.9879260  57.2034420  28.7837540   4.5445670  54.6504010  31.5058590
   4.8862480  55.4946060  31.2112460   3.6061480  54.7987750  31.6223930
   5.3252290  64.5470030  33.4910820   5.9426290  65.2221110  33.2095270
   4.4645410  64.9558010  33.3998320  16.2429880  66.0109440  31.4065460
  15.5593400  66.6808550  31.3982130  16.7824170  66.2090090  30.6410320
  17.6954020  55.8389100  29.5347190  16.7478930  55.8728080  29.6662620
  18.0204010  56.6528050  29.9196550   8.2273560  52.1386280  27.8303180
   8.5348540  51.5833170  27.1138680   7.2974260  52.2730740  27.6476170
  13.7788620  67.8553570  30.1210640  13.7915780  67.4515860  29.2532900
  13.2263840  68.6300860  30.0172070  15.0734040  64.5769790  25.2100810
  14.9630370  63.6344120  25.3350230  15.0702290  64.9385430  26.0963570
  13.1774060  62.7583410  31.4493250  13.5942850  62.5443520  30.6146710
  13.9013880  63.0156200  32.0201870  10.6154320  60.2035110  24.5663300
   9.6883600  60.1372490  24.7951770  10.7679140  61.1415240  24.4518540
  10.6023400  56.4752110  21.5630460   9.6627070  56.6366070  21.6482920
  10.9206660  57.1937790  21.0166450  17.1236160  61.1570630  31.5409490
  16.2954790  61.2263720  31.0659620  17.7186640  61.7424940  31.0725320
  14.6451610  61.7655410  25.0698550  14.0264030  61.4274960  24.4224850
  14.6276060  61.1215170  25.7777740  14.0878170  57.9439950  32.4864360
  13.6749350  58.7693660  32.7404350  13.3554120  57.3584990  32.2940720
   6.2210960  60.7299850  27.3483030   5.8167960  60.0177100  26.8528930
   6.3074080  60.3853090  28.2371070   6.6892660  64.4167410  29.5122240
   6.3920950  63.8112880  28.8330020   7.6392480  64.4544720  29.4011600
   4.9339580  57.5043060  31.1282070   5.4854170  57.6138400  30.3535320
   5.4483090  57.8780660  31.8437300  14.7778270  67.9899280  33.1745340
  14.3008830  68.7971470  32.9817950  14.0940060  67.3377610  33.3271550
   5.7811090  64.1549100  36.1630040   4.8839620  64.3789070  36.4103440
   5.8063960  64.2784040  35.2141440  12.8216310  61.0042220  22.0771300
  13.2609590  60.1664650  21.9309120  13.5344730  61.6371620  22.1635440
   4.6082310  61.0262420  34.7387410   4.4690080  61.8985220  35.1074810
   3.7263670  60.6835230  34.5935350  10.9311690  65.9438290  26.0452540
  11.3707600  66.6862620  25.6307930  10.8698580  66.1864860  26.9691500
   6.4062660  66.9684120  36.9472560   6.3778090  67.3727070  36.0800990
   6.2427630  66.0394480  36.7844160  16.4033450  52.2585030  20.3912340
  16.0906110  52.3511860  21.2911410  17.1645920  52.8366060  20.3409770
   2.9215590  59.6244830  24.8489680   2.8013190  60.3506920  24.2370950
   2.6116480  58.8547740  24.3717590  18.3577480  67.7511220  38.2436730
  18.8337200  68.2294110  38.9225810  18.9784640  67.6828710  37.5182230
   1.8048590  64.4960160  27.0664500   1.3976670  64.6374750  26.2118100
   2.6961600  64.2120320  26.8635710  17.7610730  64.9424070  35.4036740
  17.8873790  64.7035950  34.4853920  17.8032110  64.1108610  35.8758820
  11.6227470  68.6452070  33.9731550  12.1372140  68.5560080  34.7753980
  10.7796550  68.9911770  34.2659460  13.5981870  68.9307410  23.4015550
  13.4383010  68.6410350  24.2997380  13.4328580  68.1547540  22.8660780
   6.0770250  68.7105940  25.1787170   5.9012730  67.7941480  24.9654970
   5.2225990  69.0693230  25.4184970  13.3008000  66.4394970  21.9613550
  12.6073160  66.4372260  21.3015830  14.0430860  66.0154290  21.5307720
  12.8657930  68.0657680  26.0362040  13.3214880  67.2847060  26.3500660
  13.2050450  68.7764500  26.5803220  17.6134740  56.9956530  36.3686480
  16.9979010  57.5036200  35.8401940  17.2931160  56.0954860  36.3112420
   5.3879250  52.9679900  28.2313350   4.9447400  53.7489440  27.8997870
   5.9464240  53.2909790  28.9384290   9.6749060  55.8348420  33.8348670
   9.2128430  56.0431440  34.6468610   9.2727170  55.0207770  33.5319340
  14.6753570  57.0557370  34.9645330  13.8247160  56.7563120  35.2854400
  14.5155360  57.2999380  34.0529150  11.7703280  58.5559120  37.0644120
  12.0956690  57.7222870  36.7246350  12.5583610  59.0787640  37.2122450
   8.5038070  52.5890600  23.1119180   7.8792250  52.5850470  23.8372490
   8.4168190  51.7221560  22.7155150   7.4255150  53.5127230  30.0902950
   7.7227480  54.4190060  30.0094970   7.9740710  53.0246010  29.4762520
   5.1793470  58.0913470  25.9594600   4.9534390  57.8750640  26.8641220
   4.3986000  58.5241930  25.6140570  12.4091230  58.0976840  24.5585250
  11.8100120  58.8212640  24.3748870  12.9570840  58.0353620  23.7761700
   7.6192680  58.9899050  36.6254870   7.5236280  58.0493780  36.4755270
   8.4624660  59.2114120  36.2302940  11.0156100  56.7340380  26.5888530
  11.4085670  57.0512580  25.7757220  11.3772950  55.8552260  26.7033050
   2.7503220  55.4012720  34.7788650   2.3566610  56.2487930  34.9861430
   2.0621620  54.7639090  34.9697290   9.3248270  55.4847690  37.8485390
   8.6346590  55.2919890  38.4831480  10.0680570  55.7682330  38.3809690
  11.6011240  59.3246130  30.6839310  10.8692360  59.8332940  31.0329410
  11.2035580  58.5076110  30.3828090   8.0388630  56.0000330  29.0891800
   8.0424690  55.5590280  28.2396340   8.9339750  56.3217660  29.1963620
   3.8891010  55.8826820  28.0486010   3.5491060  56.3602050  28.8053060
   3.1268330  55.4291940  27.6887110   8.1008780  57.0012410  22.0798560
   8.2221600  56.9598890  23.0284380   7.7157290  57.8636560  21.9245290
  12.0637150  54.7779810  30.0962250  12.0809890  55.2288460  30.9404100
  11.8152730  53.8785450  30.3095690   7.1130280  59.3113550  21.4781860
   6.5447180  58.8631800  20.8517770   7.8219280  59.6706330  20.9447010
  15.4907900  52.1911990  35.9348630  15.8153670  51.4601650  36.4606610
  15.5264410  51.8725630  35.0329620   2.1899460  63.2125570  35.3548590
   1.8054250  62.5719240  35.9531550   2.5011650  63.9161690  35.9243320
   8.3396600  60.0602110  30.8357210   8.7066730  59.5860680  31.5818550
   8.1501660  60.9343680  31.1765550   6.1295970  59.1010750  33.1541420
   5.8253040  59.9802730  33.3791780   7.0842430  59.1610540  33.1898860
   4.6577760  63.3071740  23.7508270   3.8840020  62.7669360  23.5906990
   5.3872390  62.7878350  23.4126030  15.4165740  62.3037100  29.5434660
  16.1364860  62.7992390  29.1530770  15.2147560  61.6254990  28.8988530
  10.8775680  53.6975060  23.6864050  10.0640290  53.1988230  23.6109360
  10.6837630  54.5373310  23.2700400  10.7984540  62.3746160  35.4303660
  10.7321850  61.4541830  35.1761250  10.1689680  62.4721600  36.1448300
  13.5924070  58.0694710  21.9826210  14.4803690  58.3811940  21.8077550
  13.5629160  57.1966960  21.5906790   4.7015160  62.9752120  27.3887080
   5.2193830  62.1720380  27.3343970   4.2499180  62.9131260  28.2303910
   9.5884660  64.2418400  22.6614380   9.9300360  64.9860630  22.1657700
   8.7597370  64.5549520  23.0239210   2.1859700  59.9413490  34.3012780
   1.8274640  60.6067340  34.8886120   1.8914260  59.1097040  34.6725400
   5.3872820  60.3997730  37.1852330   5.0872960  60.5454910  36.2880150
   6.1584060  59.8403020  37.0925720  10.7301270  65.1966730  35.1807460
  10.7445810  64.2647690  34.9626370  10.0226370  65.2826490  35.8197230
  15.8638340  59.3806550  21.4506070  15.7802060  59.8120770  20.6002510
  16.5832530  59.8404900  21.8832890  16.9412480  61.8374070  34.5276040
  16.2160670  62.4302850  34.3305430  17.4687940  61.8297610  33.7289410
  16.8925590  66.2348810  24.1788200  16.2501750  65.5804430  24.4531920
  16.5056250  66.6403900  23.4028870  12.4712070  63.5634240  28.0259890
  12.8235890  62.9662370  27.3661260  11.5874400  63.2378470  28.1968140
   8.5575350  64.3231930  25.4330300   9.2446480  64.8701140  25.8137890
   7.7707770  64.8672660  25.4679910   7.8602560  61.3277960  25.0455660
   8.3165340  62.1383210  25.2715850   7.5090770  61.0101100  25.8774150
  10.1635170  66.8384300  32.2747960  10.8077390  67.0443680  32.9521380
  10.5264610  66.0772700  31.8218810   3.7614340  51.6715610  25.5178180
   3.6328970  51.6633510  26.4663100   2.9376360  52.0098700  25.1669190
  11.4367250  64.8416650  30.9925410  12.0789480  64.1409810  31.1057580
  11.9616600  65.6215090  30.8122300  15.2822970  65.1265270  20.7164550
  15.0560550  64.4095710  21.3089190  14.8919170  64.8777710  19.8786300
  13.2104870  65.6411550  34.1961470  13.5461110  66.2278240  34.8739390
  12.2905210  65.5104260  34.4259260  14.8639220  63.0437210  22.3778710
  14.5760920  63.5049900  23.1656590  15.6591390  62.5834980  22.6462930
   9.0393450  65.6902880  37.3649530   8.7190320  64.9712120  37.9095220
   8.3651810  66.3657950  37.4385590   7.0807620  66.5363330  22.3082680
   7.0717720  67.2693020  21.6927190   6.1605980  66.2894910  22.4009640
   2.6814260  61.7578220  23.0529440   2.0742210  62.4977120  23.0624740
   3.1563610  61.8477580  22.2267640  12.2547050  55.9229040  32.7286330
  12.6227870  55.1024250  33.0565900  11.3945250  55.9830930  33.1441980
  15.6209080  54.8785980  23.5373890  14.9922240  54.9831650  22.8232120
  15.1261000  55.0982760  24.3267770  10.0667220  66.5991570  20.9707870
  10.1679200  66.3955560  20.0409850   9.1668960  66.3449850  21.1755650
   7.5893110  57.1571930  24.9531770   6.8809260  57.6258270  25.3945380
   7.8737590  56.4993940  25.5876960   9.2149040  58.5768630  32.9524300
   9.7134290  59.0514450  33.6176150   9.3571990  57.6532150  33.1594330
  11.6208540  53.8822590  26.3927560  11.4976320  53.9008720  25.4437070
  12.5693100  53.9301530  26.5125960   8.7085330  69.1177890  25.6655540
   8.9626830  69.0799280  24.7434910   7.7597810  68.9911220  25.6583790
   5.7928130  55.4657010  22.3282480   6.6418660  55.9027160  22.2622670
   5.4259400  55.7777270  23.1554540  16.4215900  54.7936590  33.7952690
  15.9189500  55.5341990  34.1346500  17.2372560  55.1820590  33.4789480
  14.7137910  60.0369770  27.2414050  13.7728050  60.0520000  27.4161740
  15.0281980  59.2505730  27.6874350   4.6919550  61.7189370  20.8018010
   5.4582820  61.6070730  21.3643440   4.7694240  61.0227340  20.1494780
   3.3866310  59.1514440  21.4850900   3.4669900  58.2041950  21.5968300
   4.2786060  59.4821320  21.5911560  16.7163490  67.2078620  28.9168310
  16.8410910  68.0309790  29.3892120  17.5829050  66.9969350  28.5692460
   4.1881020  69.3009830  28.5885440   4.9243500  68.7525290  28.8594010
   4.5721940  70.1665840  28.4491430   3.1939300  68.4855900  37.7771020
   3.9952030  68.8067950  38.1906420   2.6791120  68.1251480  38.4990930
   7.2983330  68.4740140  20.4111010   8.0911940  68.7628970  19.9592800
   6.7787680  68.0432310  19.7323490  12.0303930  64.5935770  37.7246430
  11.4242090  64.6167370  36.9842180  11.7258040  63.8618810  38.2613680
  13.4604300  68.3216060  36.3355840  14.4126050  68.2374080  36.2856080
  13.3132520  68.9857770  37.0089630  16.3513500  67.7010270  21.8347750
  16.0655010  67.2875410  21.0201930  16.1533050  68.6297980  21.7148270
   7.8160730  63.6943550  20.2753360   7.7111370  63.0795900  21.0014740
   7.6484950  63.1709440  19.4916370   7.9675050  62.3800350  36.2542590
   7.2020720  62.9485350  36.1697260   8.1491010  62.0876560  35.3610820
  11.0563460  62.7563580  20.8795350  10.5073560  63.2032880  21.5238090
  11.6782720  62.2512830  21.4033020  15.1098400  64.1105680  36.8117610
  15.8507870  64.4481440  36.3085070  14.3471080  64.2797740  36.2587380
   2.9460190  59.1158950  37.6157140   2.9865530  58.8172820  38.5242370
   3.8005690  59.5166560  37.4564660   6.7238580  61.7154500  22.7760650
   7.1455000  61.5494370  23.6192040   6.8489420  60.9054730  22.2815790
   4.8866000  57.6951050  35.5831630   4.3562460  57.2042000  34.9554970
   5.5554070  58.1235250  35.0489560   9.2366220  60.7392110  20.0237750
   9.7571880  60.0241130  19.6578900   9.8834620  61.3777980  20.3238260
  13.7844060  62.1620510  35.3472820  14.1985080  62.3165590  36.1963240
  12.8495060  62.2875730  35.5098600  14.2566230  59.5016670  37.3511970
  14.8387000  58.7468990  37.2632450  14.4328000  60.0324110  36.5743450
   5.3738300  54.6613420  35.6628920   5.2795170  54.0434170  34.9379790
   4.7935690  55.3879710  35.4358830   8.1399740  53.2186660  32.6956310
   7.6917040  53.2410920  31.8501860   7.5064940  52.8205680  33.2926610
   8.5459290  62.1140990  33.3168750   8.9647400  62.9573720  33.1444990
   7.6267920  62.2513030  33.0875530  10.8823190  59.8457170  34.7006590
  11.0019400  59.2498310  35.4401430  11.7417190  59.8826860  34.2807890
  13.2211090  60.3994360  33.2769100  12.6946310  60.9236980  32.6734240
  13.5642430  61.0321750  33.9078830   5.6197480  57.7887730  19.7218810
   5.4186540  56.9255090  20.0832150   5.4489530  57.7021090  18.7840410
   6.3966710  68.4194000  34.4326480   5.8587800  69.1440060  34.1135180
   6.6500670  67.9424340  33.6423820   7.6491960  56.3878520  35.9582410
   8.2391650  56.0794370  36.6460230   6.8312200  55.9158270  36.1142310
  12.4685390  56.0044330  36.1915430  11.7800910  55.3425870  36.1265420
  13.1891410  55.5582600  36.6363890  13.0985790  52.5995960  22.2505690
  13.3788080  51.7563860  22.6065110  12.3251520  52.8319070  22.7644440
   4.4180280  54.8888350  19.7096690   4.7206180  54.8955780  18.8015840
   5.1574870  54.5386210  20.2064350   9.2528920  69.6545210  34.6913130
   9.1787620  70.5580350  34.9985500   8.3507760  69.3357110  34.6635200
   7.6365210  53.8322970  20.6952890   7.2887210  53.1546960  20.1155340
   7.8377980  53.3712480  21.5096280   9.8014250  68.8203720  22.3139490
  10.6965040  69.1588690  22.3358250   9.8331880  68.0983130  21.6863770
   3.4410410  64.1930770  20.5426490   3.8785280  64.7360440  21.1984070
   3.9258140  63.3677720  20.5522830   5.2518130  65.3128810  25.6548720
   4.9513670  65.1893780  26.5552630   5.1455620  64.4537400  25.2464450
  16.7808600  67.3507390  35.0205690  16.1810590  67.4099950  34.2769610
  16.9102500  66.4112370  35.1502540  18.0210050  65.0925210  20.3575400
  17.1903010  65.1601860  20.8282630  18.1981880  65.9829330  20.0542260
  17.4766510  61.8372690  22.8609600  18.2385420  62.4069340  22.9669290
  17.4920880  61.2699890  23.6317910  18.4826480  62.6922790  27.7051530
  18.8535310  61.9090110  27.2987500  19.1228410  63.3811890  27.5268830
  15.4660240  64.0759370  33.1181850  14.6520080  64.5056530  33.3807640
  15.8734440  64.6877780  32.5050900  17.5285680  62.1307060  20.0182120
  17.8034520  63.0385940  19.8901340  17.3396420  62.0669590  20.9544110
  13.9261290  55.1551910  21.3135750  14.3446170  54.9682890  20.4732410
  13.6197350  54.3030960  21.6238680  17.4251020  60.0676050  25.0111550
  17.0494620  59.3003980  24.5792840  16.6954140  60.4498750  25.4986480
   2.0146780  60.7463190  31.6320600   2.3819820  60.6590590  32.5116620
   1.4457600  59.9829740  31.5327460  16.8150640  59.2147570  34.6451070
  16.5836730  58.9860320  33.7449020  17.0755190  60.1347120  34.5995960
  15.2538710  54.4404000  37.4230770  16.1308890  54.4487400  37.8064770
  15.2659550  53.7034840  36.8123120  16.7001980  58.2933540  28.3118790
  17.2239460  57.7996190  27.6808960  17.2861400  58.4283900  29.0566360
  16.8791700  58.3773410  31.8338340  15.9294410  58.3436950  31.9483330
  17.0604710  59.2873520  31.5988110   2.7336140  56.6275090  20.9436970
   3.4427840  56.2058310  20.4584250   2.0176080  56.6950320  20.3120320
   2.3810300  52.6814420  19.9839620   3.1038430  53.2223360  20.3020840
   2.6534820  52.4077840  19.1081160  16.1901950  57.5506890  24.2511200
  16.6861070  57.3177760  25.0360080  15.9918020  56.7118730  23.8348840
   2.0702490  51.9320610  29.8862240   2.7178680  51.3817990  29.4457400
   2.4904330  52.1863760  30.7078050  17.6189110  56.1867840  26.7848880
  17.5088390  56.0323880  27.7231150  18.3796700  55.6588780  26.5424290
  15.9654830  52.1261970  33.2431880  16.6027050  52.7396110  33.6091070
  16.1129720  52.1622630  32.2981110  18.5079380  54.0175760  20.0255020
  19.4328690  53.8856940  19.8173310  18.4855170  54.0968580  20.9791470
  18.5817870  54.7886420  22.6511730  17.7869370  54.7231540  23.1804640
  18.7861150  55.7237060  22.6397080  15.5236290  68.8277970  26.6450120
  16.1195360  68.5062540  25.9684540  15.7814440  68.3549790  27.4363390
   1.8234490  52.0876280  32.6287560   1.4749310  52.5440100  33.3945740
   1.4922190  51.1933410  32.7109990   3.4298860  65.2595880  36.7940750
   3.3868490  64.8888790  37.6755210   3.5609870  66.1973450  36.9342570
   7.1304890  66.8155470  32.3950470   6.8896250  67.0830030  31.5080990
   8.0707530  66.9861200  32.4501330   9.3359310  53.2788160  36.1506980
   9.2748200  53.8709990  36.9002390  10.2759690  53.1714120  36.0057240
  11.9733870  52.9358220  35.7899270  12.5874280  53.2537510  35.1280350
  12.5183430  52.4506810  36.4095130  18.3909050  68.8349850  33.1961110
  17.8967330  69.2318720  32.4788240  17.7822340  68.2099060  33.5898390
   2.4955130  51.6152480  35.9038330   3.0438120  51.4340530  35.1404440
   2.5610440  50.8246590  36.4394640   3.2686890  68.2058130  33.9138530
   2.6747210  68.0742830  34.6528570   3.2610730  67.3696270  33.4480630
  12.7141910  51.4990360  32.1168560  11.8401750  51.8325470  31.9141490
  12.6052660  51.0263540  32.9420430  13.6213890  53.7061230  33.5010280
  13.2927250  52.8912990  33.1212010  14.5696190  53.6631040  33.3775970
  16.0748500  69.4773270  30.4747850  15.6151470  70.2289080  30.1005870
  15.4460960  68.7579740  30.4162650   2.8999120  65.5716510  32.8646570
   2.1733180  64.9521800  32.7972520   2.9608270  65.9657120  31.9944650
   6.5044220  67.7861510  29.6495980   7.0209240  67.1748870  29.1244240
   7.1541600  68.2890290  30.1406990   9.2439720  68.6770000  30.4764960
   9.5317530  68.4224300  29.5997970   9.7562940  68.1247360  31.0670530
  10.4616730  52.4160200  31.0561470   9.6788520  52.8905700  31.3358230
  10.1679660  51.5115030  30.9474650  15.0137800  53.1183300  29.1010560
  15.4545890  53.0628400  28.2532160  14.7445390  54.0341310  29.1720740
  16.8776370  52.7498540  27.1119380  16.8164770  51.8059760  26.9650400
  17.6568400  52.8578630  27.6572840   1.8057140  52.7207680  23.5775190
   2.5636500  52.8336560  23.0039220   1.3434310  53.5576880  23.5318620
   8.3470950  54.8346950  26.5677500   7.5345460  54.4603840  26.2273380
   8.8512590  54.0792030  26.8698690  12.8495930  51.4989400  27.8060570
  13.4525300  52.0709610  28.2809090  12.1088920  52.0628840  27.5834470
  15.9930530  51.9010960  23.0800850  16.1881160  52.7994410  23.3468280
  15.2060400  51.6698040  23.5733800   2.7891820  67.5824130  23.5193470
   2.2639440  67.9632160  22.8155430   2.7136400  68.2074900  24.2403180
   4.1782290  53.2471730  22.1177160   4.7075050  52.4601530  21.9885110
   4.8110610  53.9262920  22.3512690   6.3720130  52.9846870  25.1722550
   5.7422870  52.2834180  25.3392680   5.8325270  53.7451000  24.9555710
   9.3112080  69.5986100  37.8433160  10.2379390  69.3630370  37.8869120
   9.2962510  70.4258100  37.3619190  17.5457140  69.1411670  24.8407410
  17.7209330  68.4549410  24.1968330  16.8478710  69.6658720  24.4484080
   6.4975690  52.2630850  37.6075040   6.2159960  52.7664450  36.8435860
   6.8795390  51.4652600  37.2417170   5.3884790  69.5306510  22.3942720
   6.1203610  69.2465790  21.8466610   5.6478460  69.2919790  23.2842100
   4.5499580  65.6471240  22.3989050   3.9208460  66.1156340  22.9474880
   4.6647410  64.8020460  22.8335240  13.0991150  51.6784430  38.1855510
  12.9856600  51.9979040  39.0807030  13.9160890  52.0796940  37.8892790
  15.8789640  68.8255960  37.6674200  16.6714960  68.3305190  37.4600160
  16.1722790  69.5046100  38.2749810  12.0049300  59.6976900   8.5490250
  11.9243350  58.7831510   8.2781960  11.5913720  60.1943970   7.8429960
  10.1367340  61.4755920  10.4299520   9.3609440  60.9956360  10.7198090
  10.7880270  60.7961570  10.2555680   4.1533170  61.7875730  11.3075280
   3.3218050  61.5324440  11.7071790   4.7614150  61.8586500  12.0433200
  14.1574770  65.8816110   9.2098650  13.6956300  65.1103350   9.5385820
  14.9700320  65.9082180   9.7151100   4.1334430  65.8215820  11.5033300
   4.4362470  64.9313560  11.3243520   4.8778020  66.3786040  11.2755550
   2.5625120  56.7477620   5.0917670   1.6741820  57.0893590   4.9897550
   2.8466310  56.5477940   4.1998500  10.3838080  68.1674120   8.8302640
   9.7649520  68.6231620   8.2597080  11.2389860  68.3225580   8.4292340
   9.5776330  64.1513110  10.4369680   9.5084610  63.2103050  10.2758810
  10.3396190  64.2414520  11.0092250   1.7683000  54.7567630  12.7626300
   1.5885840  53.8593380  13.0429060   1.3663080  55.3039500  13.4373250
  10.6081500  56.9583490  10.6638610  10.9846320  56.0855370  10.5512280
  10.5101010  57.2942190   9.7729050   4.7386510  55.3309120   6.1256050
   4.8453260  56.2312850   6.4324810   3.8278870  55.2827090   5.8350700
  14.3905620  54.4533930   7.5966950  15.2115240  53.9630500   7.6392430
  14.4239700  55.0431590   8.3498790   2.3869670  57.2528130  11.3708640
   3.0679780  57.5166500  11.9896040   2.0717720  56.4129000  11.7046650
   6.5794240  58.2995490  10.4581230   7.0872460  58.7976460  11.0986250
   7.1107480  57.5230690  10.2820590  18.6805170  56.4700680  14.1610580
  17.9757340  56.8582390  13.6425690  18.9463090  57.1650970  14.7631510
   4.8630340  52.9394050  14.7244650   4.8648780  53.4566440  13.9190550
   4.0334650  52.4624230  14.7014580  11.2501430  63.0513360   6.2234550
  10.6318700  63.5162810   5.6597270  11.7624680  63.7440840   6.6404060
   6.1133190  62.5789230  12.9018150   5.7802570  63.2058150  13.5439220
   6.2899870  63.1051110  12.1219820  14.6267100  56.3934310  10.3694490
  13.9222670  56.6819200  10.9497600  14.9879260  57.2034420  10.0094050
   4.5445670  54.6504010  12.7315100   4.8862480  55.4946060  12.4368970
   3.6061480  54.7987750  12.8480440   5.3252290  64.5470030  14.7167330
   5.9426290  65.2221110  14.4351780   4.4645410  64.9558010  14.6254830
  16.2429880  66.0109440  12.6321970  15.5593400  66.6808550  12.6238640
  16.7824170  66.2090090  11.8666830  17.6954020  55.8389100  10.7603700
  16.7478930  55.8728080  10.8919130  18.0204010  56.6528050  11.1453060
   8.2273560  52.1386280   9.0559690   8.5348540  51.5833170   8.3395190
   7.2974260  52.2730740   8.8732680  13.7788620  67.8553570  11.3467150
  13.7915780  67.4515860  10.4789410  13.2263840  68.6300860  11.2428580
  15.0734040  64.5769790   6.4357320  14.9630370  63.6344120   6.5606740
  15.0702290  64.9385430   7.3220080  13.1774060  62.7583410  12.6749760
  13.5942850  62.5443520  11.8403220  13.9013880  63.0156200  13.2458380
  10.6154320  60.2035110   5.7919810   9.6883600  60.1372490   6.0208280
  10.7679140  61.1415240   5.6775050  10.6023400  56.4752110   2.7886970
   9.6627070  56.6366070   2.8739430  10.9206660  57.1937790   2.2422960
  17.1236160  61.1570630  12.7666000  16.2954790  61.2263720  12.2916130
  17.7186640  61.7424940  12.2981830  14.6451610  61.7655410   6.2955060
  14.0264030  61.4274960   5.6481360  14.6276060  61.1215170   7.0034250
  14.0878170  57.9439950  13.7120870  13.6749350  58.7693660  13.9660860
  13.3554120  57.3584990  13.5197230   6.2210960  60.7299850   8.5739540
   5.8167960  60.0177100   8.0785440   6.3074080  60.3853090   9.4627580
   6.6892660  64.4167410  10.7378750   6.3920950  63.8112880  10.0586530
   7.6392480  64.4544720  10.6268110   4.9339580  57.5043060  12.3538580
   5.4854170  57.6138400  11.5791830   5.4483090  57.8780660  13.0693810
  14.7778270  67.9899280  14.4001850  14.3008830  68.7971470  14.2074460
  14.0940060  67.3377610  14.5528060   5.7811090  64.1549100  17.3886550
   4.8839620  64.3789070  17.6359950   5.8063960  64.2784040  16.4397950
  12.8216310  61.0042220   3.3027810  13.2609590  60.1664650   3.1565630
  13.5344730  61.6371620   3.3891950   4.6082310  61.0262420  15.9643920
   4.4690080  61.8985220  16.3331320   3.7263670  60.6835230  15.8191860
  10.9311690  65.9438290   7.2709050  11.3707600  66.6862620   6.8564440
  10.8698580  66.1864860   8.1948010   6.4062660  66.9684120  18.1729070
   6.3778090  67.3727070  17.3057500   6.2427630  66.0394480  18.0100670
   2.9215590  59.6244830   6.0746190   2.8013190  60.3506920   5.4627460
   2.6116480  58.8547740   5.5974100  18.3577480  67.7511220  19.4693240
  18.8337200  68.2294110  20.1482320  18.9784640  67.6828710  18.7438740
   1.8048590  64.4960160   8.2921010   1.3976670  64.6374750   7.4374610
   2.6961600  64.2120320   8.0892220  17.7610730  64.9424070  16.6293250
  17.8873790  64.7035950  15.7110430  17.8032110  64.1108610  17.1015330
  11.6227470  68.6452070  15.1988060  12.1372140  68.5560080  16.0010490
  10.7796550  68.9911770  15.4915970  13.5981870  68.9307410   4.6272060
  13.4383010  68.6410350   5.5253890  13.4328580  68.1547540   4.0917290
   6.0770250  68.7105940   6.4043680   5.9012730  67.7941480   6.1911480
   5.2225990  69.0693230   6.6441480  13.3008000  66.4394970   3.1870060
  12.6073160  66.4372260   2.5272340  14.0430860  66.0154290   2.7564230
  12.8657930  68.0657680   7.2618550  13.3214880  67.2847060   7.5757170
  13.2050450  68.7764500   7.8059730  17.6134740  56.9956530  17.5942990
  16.9979010  57.5036200  17.0658450  17.2931160  56.0954860  17.5368930
   5.3879250  52.9679900   9.4569860   4.9447400  53.7489440   9.1254380
   5.9464240  53.2909790  10.1640800   9.6749060  55.8348420  15.0605180
   9.2128430  56.0431440  15.8725120   9.2727170  55.0207770  14.7575850
  14.6753570  57.0557370  16.1901840  13.8247160  56.7563120  16.5110910
  14.5155360  57.2999380  15.2785660  11.7703280  58.5559120  18.2900630
  12.0956690  57.7222870  17.9502860  12.5583610  59.0787640  18.4378960
   8.5038070  52.5890600   4.3375690   7.8792250  52.5850470   5.0629000
   8.4168190  51.7221560   3.9411660   7.4255150  53.5127230  11.3159460
   7.7227480  54.4190060  11.2351480   7.9740710  53.0246010  10.7019030
   5.1793470  58.0913470   7.1851110   4.9534390  57.8750640   8.0897730
   4.3986000  58.5241930   6.8397080  12.4091230  58.0976840   5.7841760
  11.8100120  58.8212640   5.6005380  12.9570840  58.0353620   5.0018210
   7.6192680  58.9899050  17.8511380   7.5236280  58.0493780  17.7011780
   8.4624660  59.2114120  17.4559450  11.0156100  56.7340380   7.8145040
  11.4085670  57.0512580   7.0013730  11.3772950  55.8552260   7.9289560
   2.7503220  55.4012720  16.0045160   2.3566610  56.2487930  16.2117940
   2.0621620  54.7639090  16.1953800   9.3248270  55.4847690  19.0741900
   8.6346590  55.2919890  19.7087990  10.0680570  55.7682330  19.6066200
  11.6011240  59.3246130  11.9095820  10.8692360  59.8332940  12.2585920
  11.2035580  58.5076110  11.6084600   8.0388630  56.0000330  10.3148310
   8.0424690  55.5590280   9.4652850   8.9339750  56.3217660  10.4220130
   3.8891010  55.8826820   9.2742520   3.5491060  56.3602050  10.0309570
   3.1268330  55.4291940   8.9143620   8.1008780  57.0012410   3.3055070
   8.2221600  56.9598890   4.2540890   7.7157290  57.8636560   3.1501800
  12.0637150  54.7779810  11.3218760  12.0809890  55.2288460  12.1660610
  11.8152730  53.8785450  11.5352200   7.1130280  59.3113550   2.7038370
   6.5447180  58.8631800   2.0774280   7.8219280  59.6706330   2.1703520
  15.4907900  52.1911990  17.1605140  15.8153670  51.4601650  17.6863120
  15.5264410  51.8725630  16.2586130   2.1899460  63.2125570  16.5805100
   1.8054250  62.5719240  17.1788060   2.5011650  63.9161690  17.1499830
   8.3396600  60.0602110  12.0613720   8.7066730  59.5860680  12.8075060
   8.1501660  60.9343680  12.4022060   6.1295970  59.1010750  14.3797930
   5.8253040  59.9802730  14.6048290   7.0842430  59.1610540  14.4155370
   4.6577760  63.3071740   4.9764780   3.8840020  62.7669360   4.8163500
   5.3872390  62.7878350   4.6382540  15.4165740  62.3037100  10.7691170
  16.1364860  62.7992390  10.3787280  15.2147560  61.6254990  10.1245040
  10.8775680  53.6975060   4.9120560  10.0640290  53.1988230   4.8365870
  10.6837630  54.5373310   4.4956910  10.7984540  62.3746160  16.6560170
  10.7321850  61.4541830  16.4017760  10.1689680  62.4721600  17.3704810
  13.5924070  58.0694710   3.2082720  14.4803690  58.3811940   3.0334060
  13.5629160  57.1966960   2.8163300   4.7015160  62.9752120   8.6143590
   5.2193830  62.1720380   8.5600480   4.2499180  62.9131260   9.4560420
   9.5884660  64.2418400   3.8870890   9.9300360  64.9860630   3.3914210
   8.7597370  64.5549520   4.2495720   2.1859700  59.9413490  15.5269290
   1.8274640  60.6067340  16.1142630   1.8914260  59.1097040  15.8981910
   5.3872820  60.3997730  18.4108840   5.0872960  60.5454910  17.5136660
   6.1584060  59.8403020  18.3182230  10.7301270  65.1966730  16.4063970
  10.7445810  64.2647690  16.1882880  10.0226370  65.2826490  17.0453740
  15.8638340  59.3806550   2.6762580  15.7802060  59.8120770   1.8259020
  16.5832530  59.8404900   3.1089400  16.9412480  61.8374070  15.7532550
  16.2160670  62.4302850  15.5561940  17.4687940  61.8297610  14.9545920
  16.8925590  66.2348810   5.4044710  16.2501750  65.5804430   5.6788430
  16.5056250  66.6403900   4.6285380  12.4712070  63.5634240   9.2516400
  12.8235890  62.9662370   8.5917770  11.5874400  63.2378470   9.4224650
   8.5575350  64.3231930   6.6586810   9.2446480  64.8701140   7.0394400
   7.7707770  64.8672660   6.6936420   7.8602560  61.3277960   6.2712170
   8.3165340  62.1383210   6.4972360   7.5090770  61.0101100   7.1030660
  10.1635170  66.8384300  13.5004470  10.8077390  67.0443680  14.1777890
  10.5264610  66.0772700  13.0475320   3.7614340  51.6715610   6.7434690
   3.6328970  51.6633510   7.6919610   2.9376360  52.0098700   6.3925700
  11.4367250  64.8416650  12.2181920  12.0789480  64.1409810  12.3314090
  11.9616600  65.6215090  12.0378810  13.2104870  65.6411550  15.4217980
  13.5461110  66.2278240  16.0995900  12.2905210  65.5104260  15.6515770
  14.8639220  63.0437210   3.6035220  14.5760920  63.5049900   4.3913100
  15.6591390  62.5834980   3.8719440   9.0393450  65.6902880  18.5906040
   8.7190320  64.9712120  19.1351730   8.3651810  66.3657950  18.6642100
   7.0807620  66.5363330   3.5339190   7.0717720  67.2693020   2.9183700
   6.1605980  66.2894910   3.6266150   2.6814260  61.7578220   4.2785950
   2.0742210  62.4977120   4.2881250   3.1563610  61.8477580   3.4524150
  12.2547050  55.9229040  13.9542840  12.6227870  55.1024250  14.2822410
  11.3945250  55.9830930  14.3698490  15.6209080  54.8785980   4.7630400
  14.9922240  54.9831650   4.0488630  15.1261000  55.0982760   5.5524280
   7.5893110  57.1571930   6.1788280   6.8809260  57.6258270   6.6201890
   7.8737590  56.4993940   6.8133470   9.2149040  58.5768630  14.1780810
   9.7134290  59.0514450  14.8432660   9.3571990  57.6532150  14.3850840
  11.6208540  53.8822590   7.6184070  11.4976320  53.9008720   6.6693580
  12.5693100  53.9301530   7.7382470   8.7085330  69.1177890   6.8912050
   8.9626830  69.0799280   5.9691420   7.7597810  68.9911220   6.8840300
   5.7928130  55.4657010   3.5538990   6.6418660  55.9027160   3.4879180
   5.4259400  55.7777270   4.3811050  16.4215900  54.7936590  15.0209200
  15.9189500  55.5341990  15.3603010  17.2372560  55.1820590  14.7045990
  14.7137910  60.0369770   8.4670560  13.7728050  60.0520000   8.6418250
  15.0281980  59.2505730   8.9130860   3.3866310  59.1514440   2.7107410
   3.4669900  58.2041950   2.8224810   4.2786060  59.4821320   2.8168070
  16.7163490  67.2078620  10.1424820  16.8410910  68.0309790  10.6148630
  17.5829050  66.9969350   9.7948970   4.1881020  69.3009830   9.8141950
   4.9243500  68.7525290  10.0850520   4.5721940  70.1665840   9.6747940
   3.1939300  68.4855900  19.0027530   3.9952030  68.8067950  19.4162930
   2.6791120  68.1251480  19.7247440  12.0303930  64.5935770  18.9502940
  11.4242090  64.6167370  18.2098690  11.7258040  63.8618810  19.4870190
  13.4604300  68.3216060  17.5612350  14.4126050  68.2374080  17.5112590
  13.3132520  68.9857770  18.2346140  16.3513500  67.7010270   3.0604260
  16.0655010  67.2875410   2.2458440  16.1533050  68.6297980   2.9404780
   7.9675050  62.3800350  17.4799100   7.2020720  62.9485350  17.3953770
   8.1491010  62.0876560  16.5867330  11.0563460  62.7563580   2.1051860
  10.5073560  63.2032880   2.7494600  11.6782720  62.2512830   2.6289530
  15.1098400  64.1105680  18.0374120  15.8507870  64.4481440  17.5341580
  14.3471080  64.2797740  17.4843890   2.9460190  59.1158950  18.8413650
   2.9865530  58.8172820  19.7498880   3.8005690  59.5166560  18.6821170
   6.7238580  61.7154500   4.0017160   7.1455000  61.5494370   4.8448550
   6.8489420  60.9054730   3.5072300   4.8866000  57.6951050  16.8088140
   4.3562460  57.2042000  16.1811480   5.5554070  58.1235250  16.2746070
  13.7844060  62.1620510  16.5729330  14.1985080  62.3165590  17.4219750
  12.8495060  62.2875730  16.7355110  14.2566230  59.5016670  18.5768480
  14.8387000  58.7468990  18.4888960  14.4328000  60.0324110  17.7999960
   5.3738300  54.6613420  16.8885430   5.2795170  54.0434170  16.1636300
   4.7935690  55.3879710  16.6615340   8.1399740  53.2186660  13.9212820
   7.6917040  53.2410920  13.0758370   7.5064940  52.8205680  14.5183120
   8.5459290  62.1140990  14.5425260   8.9647400  62.9573720  14.3701500
   7.6267920  62.2513030  14.3132040  10.8823190  59.8457170  15.9263100
  11.0019400  59.2498310  16.6657940  11.7417190  59.8826860  15.5064400
  13.2211090  60.3994360  14.5025610  12.6946310  60.9236980  13.8990750
  13.5642430  61.0321750  15.1335340   6.3966710  68.4194000  15.6582990
   5.8587800  69.1440060  15.3391690   6.6500670  67.9424340  14.8680330
   7.6491960  56.3878520  17.1838920   8.2391650  56.0794370  17.8716740
   6.8312200  55.9158270  17.3398820  12.4685390  56.0044330  17.4171940
  11.7800910  55.3425870  17.3521930  13.1891410  55.5582600  17.8620400
  13.0985790  52.5995960   3.4762200  13.3788080  51.7563860   3.8321620
  12.3251520  52.8319070   3.9900950   9.2528920  69.6545210  15.9169640
   9.1787620  70.5580350  16.2242010   8.3507760  69.3357110  15.8891710
   9.8014250  68.8203720   3.5396000  10.6965040  69.1588690   3.5614760
   9.8331880  68.0983130   2.9120280   3.4410410  64.1930770   1.7683000
   3.8785280  64.7360440   2.4240580   3.9258140  63.3677720   1.7779340
   5.2518130  65.3128810   6.8805230   4.9513670  65.1893780   7.7809140
   5.1455620  64.4537400   6.4720960  16.7808600  67.3507390  16.2462200
  16.1810590  67.4099950  15.5026120  16.9102500  66.4112370  16.3759050
  17.4766510  61.8372690   4.0866110  18.2385420  62.4069340   4.1925800
  17.4920880  61.2699890   4.8574420  18.4826480  62.6922790   8.9308040
  18.8535310  61.9090110   8.5244010  19.1228410  63.3811890   8.7525340
  15.4660240  64.0759370  14.3438360  14.6520080  64.5056530  14.6064150
  15.8734440  64.6877780  13.7307410  13.9261290  55.1551910   2.5392260
  14.3446170  54.9682890   1.6988920  13.6197350  54.3030960   2.8495190
  17.4251020  60.0676050   6.2368060  17.0494620  59.3003980   5.8049350
  16.6954140  60.4498750   6.7242990   2.0146780  60.7463190  12.8577110
   2.3819820  60.6590590  13.7373130   1.4457600  59.9829740  12.7583970
  16.8150640  59.2147570  15.8707580  16.5836730  58.9860320  14.9705530
  17.0755190  60.1347120  15.8252470  15.2538710  54.4404000  18.6487280
  16.1308890  54.4487400  19.0321280  15.2659550  53.7034840  18.0379630
  16.7001980  58.2933540   9.5375300  17.2239460  57.7996190   8.9065470
  17.2861400  58.4283900  10.2822870  16.8791700  58.3773410  13.0594850
  15.9294410  58.3436950  13.1739840  17.0604710  59.2873520  12.8244620
  16.1901950  57.5506890   5.4767710  16.6861070  57.3177760   6.2616590
  15.9918020  56.7118730   5.0605350   2.0702490  51.9320610  11.1118750
   2.7178680  51.3817990  10.6713910   2.4904330  52.1863760  11.9334560
  17.6189110  56.1867840   8.0105390  17.5088390  56.0323880   8.9487660
  18.3796700  55.6588780   7.7680800  15.9654830  52.1261970  14.4688390
  16.6027050  52.7396110  14.8347580  16.1129720  52.1622630  13.5237620
  18.5817870  54.7886420   3.8768240  17.7869370  54.7231540   4.4061150
  18.7861150  55.7237060   3.8653590  15.5236290  68.8277970   7.8706630
  16.1195360  68.5062540   7.1941050  15.7814440  68.3549790   8.6619900
   1.8234490  52.0876280  13.8544070   1.4749310  52.5440100  14.6202250
   1.4922190  51.1933410  13.9366500   3.4298860  65.2595880  18.0197260
   3.3868490  64.8888790  18.9011720   3.5609870  66.1973450  18.1599080
   7.1304890  66.8155470  13.6206980   6.8896250  67.0830030  12.7337500
   8.0707530  66.9861200  13.6757840   9.3359310  53.2788160  17.3763490
   9.2748200  53.8709990  18.1258900  10.2759690  53.1714120  17.2313750
  11.9733870  52.9358220  17.0155780  12.5874280  53.2537510  16.3536860
  12.5183430  52.4506810  17.6351640  18.3909050  68.8349850  14.4217620
  17.8967330  69.2318720  13.7044750  17.7822340  68.2099060  14.8154900
   2.4955130  51.6152480  17.1294840   3.0438120  51.4340530  16.3660950
   2.5610440  50.8246590  17.6651150   3.2686890  68.2058130  15.1395040
   2.6747210  68.0742830  15.8785080   3.2610730  67.3696270  14.6737140
  12.7141910  51.4990360  13.3425070  11.8401750  51.8325470  13.1398000
  12.6052660  51.0263540  14.1676940  13.6213890  53.7061230  14.7266790
  13.2927250  52.8912990  14.3468520  14.5696190  53.6631040  14.6032480
  16.0748500  69.4773270  11.7004360  15.6151470  70.2289080  11.3262380
  15.4460960  68.7579740  11.6419160   2.8999120  65.5716510  14.0903080
   2.1733180  64.9521800  14.0229030   2.9608270  65.9657120  13.2201160
   6.5044220  67.7861510  10.8752490   7.0209240  67.1748870  10.3500750
   7.1541600  68.2890290  11.3663500   9.2439720  68.6770000  11.7021470
   9.5317530  68.4224300  10.8254480   9.7562940  68.1247360  12.2927040
  10.4616730  52.4160200  12.2817980   9.6788520  52.8905700  12.5614740
  10.1679660  51.5115030  12.1731160  15.0137800  53.1183300  10.3267070
  15.4545890  53.0628400   9.4788670  14.7445390  54.0341310  10.3977250
  16.8776370  52.7498540   8.3375890  16.8164770  51.8059760   8.1906910
  17.6568400  52.8578630   8.8829350   1.8057140  52.7207680   4.8031700
   2.5636500  52.8336560   4.2295730   1.3434310  53.5576880   4.7575130
   8.3470950  54.8346950   7.7934010   7.5345460  54.4603840   7.4529890
   8.8512590  54.0792030   8.0955200  12.8495930  51.4989400   9.0317080
  13.4525300  52.0709610   9.5065600  12.1088920  52.0628840   8.8090980
  15.9930530  51.9010960   4.3057360  16.1881160  52.7994410   4.5724790
  15.2060400  51.6698040   4.7990310   2.7891820  67.5824130   4.7449980
   2.2639440  67.9632160   4.0411940   2.7136400  68.2074900   5.4659690
   4.1782290  53.2471730   3.3433670   4.7075050  52.4601530   3.2141620
   4.8110610  53.9262920   3.5769200   6.3720130  52.9846870   6.3979060
   5.7422870  52.2834180   6.5649190   5.8325270  53.7451000   6.1812220
   9.3112080  69.5986100  19.0689670  10.2379390  69.3630370  19.1125630
   9.2962510  70.4258100  18.5875700  17.5457140  69.1411670   6.0663920
  17.7209330  68.4549410   5.4224840  16.8478710  69.6658720   5.6740590
   6.4975690  52.2630850  18.8331550   6.2159960  52.7664450  18.0692370
   6.8795390  51.4652600  18.4673680   5.3884790  69.5306510   3.6199230
   6.1203610  69.2465790   3.0723120   5.6478460  69.2919790   4.5098610
   4.5499580  65.6471240   3.6245560   3.9208460  66.1156340   4.1731390
   4.6647410  64.8020460   4.0591750  13.0991150  51.6784430  19.4112020
  12.9856600  51.9979040  20.3063540  13.9160890  52.0796940  19.1149300
  15.8789640  68.8255960  18.8930710  16.6714960  68.3305190  18.6856670
  16.1722790  69.5046100  19.5006320  12.0049300  40.9233410  64.8720720
  11.9243350  40.0088020  64.6012430  11.5913720  41.4200480  64.1660430
  10.1367340  42.7012430  66.7529990   9.3609440  42.2212870  67.0428560
  10.7880270  42.0218080  66.5786150   4.1533170  43.0132240  67.6305750
   3.3218050  42.7580950  68.0302260   4.7614150  43.0843010  68.3663670
  14.1574770  47.1072620  65.5329120  13.6956300  46.3359860  65.8616290
  14.9700320  47.1338690  66.0381570   4.1334430  47.0472330  67.8263770
   4.4362470  46.1570070  67.6473990   4.8778020  47.6042550  67.5986020
   2.5625120  37.9734130  61.4148140   1.6741820  38.3150100  61.3128020
   2.8466310  37.7734450  60.5228970  10.3838080  49.3930630  65.1533110
   9.7649520  49.8488130  64.5827550  11.2389860  49.5482090  64.7522810
   9.5776330  45.3769620  66.7600150   9.5084610  44.4359560  66.5989280
  10.3396190  45.4671030  67.3322720   1.7683000  35.9824140  69.0856770
   1.5885840  35.0849890  69.3659530   1.3663080  36.5296010  69.7603720
  10.6081500  38.1840000  66.9869080  10.9846320  37.3111880  66.8742750
  10.5101010  38.5198700  66.0959520   4.7386510  36.5565630  62.4486520
   4.8453260  37.4569360  62.7555280   3.8278870  36.5083600  62.1581170
  14.3905620  35.6790440  63.9197420  15.2115240  35.1887010  63.9622900
  14.4239700  36.2688100  64.6729260   2.3869670  38.4784640  67.6939110
   3.0679780  38.7423010  68.3126510   2.0717720  37.6385510  68.0277120
   6.5794240  39.5252000  66.7811700   7.0872460  40.0232970  67.4216720
   7.1107480  38.7487200  66.6051060  18.6805170  37.6957190  70.4841050
  17.9757340  38.0838900  69.9656160  18.9463090  38.3907480  71.0861980
   4.8630340  34.1650560  71.0475120   4.8648780  34.6822950  70.2421020
   4.0334650  33.6880740  71.0245050  11.2501430  44.2769870  62.5465020
  10.6318700  44.7419320  61.9827740  11.7624680  44.9697350  62.9634530
   6.1133190  43.8045740  69.2248620   5.7802570  44.4314660  69.8669690
   6.2899870  44.3307620  68.4450290  14.6267100  37.6190820  66.6924960
  13.9222670  37.9075710  67.2728070  14.9879260  38.4290930  66.3324520
   4.5445670  35.8760520  69.0545570   4.8862480  36.7202570  68.7599440
   3.6061480  36.0244260  69.1710910   5.3252290  45.7726540  71.0397800
   5.9426290  46.4477620  70.7582250   4.4645410  46.1814520  70.9485300
  16.2429880  47.2365950  68.9552440  15.5593400  47.9065060  68.9469110
  16.7824170  47.4346600  68.1897300  17.6954020  37.0645610  67.0834170
  16.7478930  37.0984590  67.2149600  18.0204010  37.8784560  67.4683530
   8.2273560  33.3642790  65.3790160   8.5348540  32.8089680  64.6625660
   7.2974260  33.4987250  65.1963150  13.7788620  49.0810080  67.6697620
  13.7915780  48.6772370  66.8019880  13.2263840  49.8557370  67.5659050
  15.0734040  45.8026300  62.7587790  14.9630370  44.8600630  62.8837210
  15.0702290  46.1641940  63.6450550  13.1774060  43.9839920  68.9980230
  13.5942850  43.7700030  68.1633690  13.9013880  44.2412710  69.5688850
  10.6154320  41.4291620  62.1150280   9.6883600  41.3629000  62.3438750
  10.7679140  42.3671750  62.0005520  10.6023400  37.7008620  59.1117440
   9.6627070  37.8622580  59.1969900  10.9206660  38.4194300  58.5653430
  17.1236160  42.3827140  69.0896470  16.2954790  42.4520230  68.6146600
  17.7186640  42.9681450  68.6212300  14.6451610  42.9911920  62.6185530
  14.0264030  42.6531470  61.9711830  14.6276060  42.3471680  63.3264720
  14.0878170  39.1696460  70.0351340  13.6749350  39.9950170  70.2891330
  13.3554120  38.5841500  69.8427700   6.2210960  41.9556360  64.8970010
   5.8167960  41.2433610  64.4015910   6.3074080  41.6109600  65.7858050
   6.6892660  45.6423920  67.0609220   6.3920950  45.0369390  66.3817000
   7.6392480  45.6801230  66.9498580   4.9339580  38.7299570  68.6769050
   5.4854170  38.8394910  67.9022300   5.4483090  39.1037170  69.3924280
  14.7778270  49.2155790  70.7232320  14.3008830  50.0227980  70.5304930
  14.0940060  48.5634120  70.8758530   5.7811090  45.3805610  73.7117020
   4.8839620  45.6045580  73.9590420   5.8063960  45.5040550  72.7628420
  12.8216310  42.2298730  59.6258280  13.2609590  41.3921160  59.4796100
  13.5344730  42.8628130  59.7122420   4.6082310  42.2518930  72.2874390
   4.4690080  43.1241730  72.6561790   3.7263670  41.9091740  72.1422330
  10.9311690  47.1694800  63.5939520  11.3707600  47.9119130  63.1794910
  10.8698580  47.4121370  64.5178480   6.4062660  48.1940630  74.4959540
   6.3778090  48.5983580  73.6287970   6.2427630  47.2650990  74.3331140
  16.4033450  33.4841540  57.9399320  16.0906110  33.5768370  58.8398390
  17.1645920  34.0622570  57.8896750   2.9215590  40.8501340  62.3976660
   2.8013190  41.5763430  61.7857930   2.6116480  40.0804250  61.9204570
   1.8048590  45.7216670  64.6151480   1.3976670  45.8631260  63.7605080
   2.6961600  45.4376830  64.4122690  17.7610730  46.1680580  72.9523720
  17.8873790  45.9292460  72.0340900  17.8032110  45.3365120  73.4245800
  11.6227470  49.8708580  71.5218530  12.1372140  49.7816590  72.3240960
  10.7796550  50.2168280  71.8146440  13.5981870  50.1563920  60.9502530
  13.4383010  49.8666860  61.8484360  13.4328580  49.3804050  60.4147760
   6.0770250  49.9362450  62.7274150   5.9012730  49.0197990  62.5141950
   5.2225990  50.2949740  62.9671950  13.3008000  47.6651480  59.5100530
  12.6073160  47.6628770  58.8502810  14.0430860  47.2410800  59.0794700
  12.8657930  49.2914190  63.5849020  13.3214880  48.5103570  63.8987640
  13.2050450  50.0021010  64.1290200  17.6134740  38.2213040  73.9173460
  16.9979010  38.7292710  73.3888920  17.2931160  37.3211370  73.8599400
   5.3879250  34.1936410  65.7800330   4.9447400  34.9745950  65.4484850
   5.9464240  34.5166300  66.4871270   9.6749060  37.0604930  71.3835650
   9.2128430  37.2687950  72.1955590   9.2727170  36.2464280  71.0806320
  14.6753570  38.2813880  72.5132310  13.8247160  37.9819630  72.8341380
  14.5155360  38.5255890  71.6016130  11.7703280  39.7815630  74.6131100
  12.0956690  38.9479380  74.2733330  12.5583610  40.3044150  74.7609430
   8.5038070  33.8147110  60.6606160   7.8792250  33.8106980  61.3859470
   8.4168190  32.9478070  60.2642130   7.4255150  34.7383740  67.6389930
   7.7227480  35.6446570  67.5581950   7.9740710  34.2502520  67.0249500
   5.1793470  39.3169980  63.5081580   4.9534390  39.1007150  64.4128200
   4.3986000  39.7498440  63.1627550  12.4091230  39.3233350  62.1072230
  11.8100120  40.0469150  61.9235850  12.9570840  39.2610130  61.3248680
   7.6192680  40.2155560  74.1741850   7.5236280  39.2750290  74.0242250
   8.4624660  40.4370630  73.7789920  11.0156100  37.9596890  64.1375510
  11.4085670  38.2769090  63.3244200  11.3772950  37.0808770  64.2520030
   2.7503220  36.6269230  72.3275630   2.3566610  37.4744440  72.5348410
   2.0621620  35.9895600  72.5184270  11.6011240  40.5502640  68.2326290
  10.8692360  41.0589450  68.5816390  11.2035580  39.7332620  67.9315070
   8.0388630  37.2256840  66.6378780   8.0424690  36.7846790  65.7883320
   8.9339750  37.5474170  66.7450600   3.8891010  37.1083330  65.5972990
   3.5491060  37.5858560  66.3540040   3.1268330  36.6548450  65.2374090
   8.1008780  38.2268920  59.6285540   8.2221600  38.1855400  60.5771360
   7.7157290  39.0893070  59.4732270  12.0637150  36.0036320  67.6449230
  12.0809890  36.4544970  68.4891080  11.8152730  35.1041960  67.8582670
   7.1130280  40.5370060  59.0268840   6.5447180  40.0888310  58.4004750
   7.8219280  40.8962840  58.4933990  15.4907900  33.4168500  73.4835610
  15.8153670  32.6858160  74.0093590  15.5264410  33.0982140  72.5816600
   2.1899460  44.4382080  72.9035570   1.8054250  43.7975750  73.5018530
   2.5011650  45.1418200  73.4730300   8.3396600  41.2858620  68.3844190
   8.7066730  40.8117190  69.1305530   8.1501660  42.1600190  68.7252530
   6.1295970  40.3267260  70.7028400   5.8253040  41.2059240  70.9278760
   7.0842430  40.3867050  70.7385840   4.6577760  44.5328250  61.2995250
   3.8840020  43.9925870  61.1393970   5.3872390  44.0134860  60.9613010
  15.4165740  43.5293610  67.0921640  16.1364860  44.0248900  66.7017750
  15.2147560  42.8511500  66.4475510  10.8775680  34.9231570  61.2351030
  10.0640290  34.4244740  61.1596340  10.6837630  35.7629820  60.8187380
  10.7984540  43.6002670  72.9790640  10.7321850  42.6798340  72.7248230
  10.1689680  43.6978110  73.6935280  13.5924070  39.2951220  59.5313190
  14.4803690  39.6068450  59.3564530  13.5629160  38.4223470  59.1393770
   4.7015160  44.2008630  64.9374060   5.2193830  43.3976890  64.8830950
   4.2499180  44.1387770  65.7790890   9.5884660  45.4674910  60.2101360
   9.9300360  46.2117140  59.7144680   8.7597370  45.7806030  60.5726190
   2.1859700  41.1670000  71.8499760   1.8274640  41.8323850  72.4373100
   1.8914260  40.3353550  72.2212380   5.3872820  41.6254240  74.7339310
   5.0872960  41.7711420  73.8367130   6.1584060  41.0659530  74.6412700
  10.7301270  46.4223240  72.7294440  10.7445810  45.4904200  72.5113350
  10.0226370  46.5083000  73.3684210  15.8638340  40.6063060  58.9993050
  15.7802060  41.0377280  58.1489490  16.5832530  41.0661410  59.4319870
  16.9412480  43.0630580  72.0763020  16.2160670  43.6559360  71.8792410
  17.4687940  43.0554120  71.2776390  16.8925590  47.4605320  61.7275180
  16.2501750  46.8060940  62.0018900  16.5056250  47.8660410  60.9515850
  12.4712070  44.7890750  65.5746870  12.8235890  44.1918880  64.9148240
  11.5874400  44.4634980  65.7455120   8.5575350  45.5488440  62.9817280
   9.2446480  46.0957650  63.3624870   7.7707770  46.0929170  63.0166890
   7.8602560  42.5534470  62.5942640   8.3165340  43.3639720  62.8202830
   7.5090770  42.2357610  63.4261130  10.1635170  48.0640810  69.8234940
  10.8077390  48.2700190  70.5008360  10.5264610  47.3029210  69.3705790
   3.7614340  32.8972120  63.0665160   3.6328970  32.8890020  64.0150080
   2.9376360  33.2355210  62.7156170  11.4367250  46.0673160  68.5412390
  12.0789480  45.3666320  68.6544560  11.9616600  46.8471600  68.3609280
  15.2822970  46.3521780  58.2651530  15.0560550  45.6352220  58.8576170
  14.8919170  46.1034220  57.4273280  13.2104870  46.8668060  71.7448450
  13.5461110  47.4534750  72.4226370  12.2905210  46.7360770  71.9746240
  14.8639220  44.2693720  59.9265690  14.5760920  44.7306410  60.7143570
  15.6591390  43.8091490  60.1949910   7.0807620  47.7619840  59.8569660
   7.0717720  48.4949530  59.2414170   6.1605980  47.5151420  59.9496620
   2.6814260  42.9834730  60.6016420   2.0742210  43.7233630  60.6111720
   3.1563610  43.0734090  59.7754620  12.2547050  37.1485550  70.2773310
  12.6227870  36.3280760  70.6052880  11.3945250  37.2087440  70.6928960
  15.6209080  36.1042490  61.0860870  14.9922240  36.2088160  60.3719100
  15.1261000  36.3239270  61.8754750  10.0667220  47.8248080  58.5194850
  10.1679200  47.6212070  57.5896830   9.1668960  47.5706360  58.7242630
   7.5893110  38.3828440  62.5018750   6.8809260  38.8514780  62.9432360
   7.8737590  37.7250450  63.1363940   9.2149040  39.8025140  70.5011280
   9.7134290  40.2770960  71.1663130   9.3571990  38.8788660  70.7081310
  11.6208540  35.1079100  63.9414540  11.4976320  35.1265230  62.9924050
  12.5693100  35.1558040  64.0612940   8.7085330  50.3434400  63.2142520
   8.9626830  50.3055790  62.2921890   7.7597810  50.2167730  63.2070770
   5.7928130  36.6913520  59.8769460   6.6418660  37.1283670  59.8109650
   5.4259400  37.0033780  60.7041520  16.4215900  36.0193100  71.3439670
  15.9189500  36.7598500  71.6833480  17.2372560  36.4077100  71.0276460
  14.7137910  41.2626280  64.7901030  13.7728050  41.2776510  64.9648720
  15.0281980  40.4762240  65.2361330   4.6919550  42.9445880  58.3504990
   5.4582820  42.8327240  58.9130420   4.7694240  42.2483850  57.6981760
   3.3866310  40.3770950  59.0337880   3.4669900  39.4298460  59.1455280
   4.2786060  40.7077830  59.1398540  16.7163490  48.4335130  66.4655290
  16.8410910  49.2566300  66.9379100  17.5829050  48.2225860  66.1179440
   4.1881020  50.5266340  66.1372420   4.9243500  49.9781800  66.4080990
   4.5721940  51.3922350  65.9978410   7.2983330  49.6996650  57.9597990
   8.0911940  49.9885480  57.5079780   6.7787680  49.2688820  57.2810470
  13.4604300  49.5472570  73.8842820  14.4126050  49.4630590  73.8343060
  13.3132520  50.2114280  74.5576610  16.3513500  48.9266780  59.3834730
  16.0655010  48.5131920  58.5688910  16.1533050  49.8554490  59.2635250
   7.8160730  44.9200060  57.8240340   7.7111370  44.3052410  58.5501720
   7.6484950  44.3965950  57.0403350   7.9675050  43.6056860  73.8029570
   7.2020720  44.1741860  73.7184240   8.1491010  43.3133070  72.9097800
  11.0563460  43.9820090  58.4282330  10.5073560  44.4289390  59.0725070
  11.6782720  43.4769340  58.9520000  15.1098400  45.3362190  74.3604590
  15.8507870  45.6737950  73.8572050  14.3471080  45.5054250  73.8074360
   6.7238580  42.9411010  60.3247630   7.1455000  42.7750880  61.1679020
   6.8489420  42.1311240  59.8302770   4.8866000  38.9207560  73.1318610
   4.3562460  38.4298510  72.5041950   5.5554070  39.3491760  72.5976540
   9.2366220  41.9648620  57.5724730   9.7571880  41.2497640  57.2065880
   9.8834620  42.6034490  57.8725240  13.7844060  43.3877020  72.8959800
  14.1985080  43.5422100  73.7450220  12.8495060  43.5132240  73.0585580
  14.2566230  40.7273180  74.8998950  14.8387000  39.9725500  74.8119430
  14.4328000  41.2580620  74.1230430   5.3738300  35.8869930  73.2115900
   5.2795170  35.2690680  72.4866770   4.7935690  36.6136220  72.9845810
   8.1399740  34.4443170  70.2443290   7.6917040  34.4667430  69.3988840
   7.5064940  34.0462190  70.8413590   8.5459290  43.3397500  70.8655730
   8.9647400  44.1830230  70.6931970   7.6267920  43.4769540  70.6362510
  10.8823190  41.0713680  72.2493570  11.0019400  40.4754820  72.9888410
  11.7417190  41.1083370  71.8294870  13.2211090  41.6250870  70.8256080
  12.6946310  42.1493490  70.2221220  13.5642430  42.2578260  71.4565810
   5.6197480  39.0144240  57.2705790   5.4186540  38.1511600  57.6319130
   5.4489530  38.9277600  56.3327390   6.3966710  49.6450510  71.9813460
   5.8587800  50.3696570  71.6622160   6.6500670  49.1680850  71.1910800
   7.6491960  37.6135030  73.5069390   8.2391650  37.3050880  74.1947210
   6.8312200  37.1414780  73.6629290  12.4685390  37.2300840  73.7402410
  11.7800910  36.5682380  73.6752400  13.1891410  36.7839110  74.1850870
  13.0985790  33.8252470  59.7992670  13.3788080  32.9820370  60.1552090
  12.3251520  34.0575580  60.3131420   4.4180280  36.1144860  57.2583670
   4.7206180  36.1212290  56.3502820   5.1574870  35.7642720  57.7551330
   9.2528920  50.8801720  72.2400110   9.1787620  51.7836860  72.5472480
   8.3507760  50.5613620  72.2122180   7.6365210  35.0579480  58.2439870
   7.2887210  34.3803470  57.6642320   7.8377980  34.5968990  59.0583260
   9.8014250  50.0460230  59.8626470  10.6965040  50.3845200  59.8845230
   9.8331880  49.3239640  59.2350750   3.4410410  45.4187280  58.0913470
   3.8785280  45.9616950  58.7471050   3.9258140  44.5934230  58.1009810
   5.2518130  46.5385320  63.2035700   4.9513670  46.4150290  64.1039610
   5.1455620  45.6793910  62.7951430  16.7808600  48.5763900  72.5692670
  16.1810590  48.6356460  71.8256590  16.9102500  47.6368880  72.6989520
  18.0210050  46.3181720  57.9062380  17.1903010  46.3858370  58.3769610
  18.1981880  47.2085840  57.6029240  17.4766510  43.0629200  60.4096580
  18.2385420  43.6325850  60.5156270  17.4920880  42.4956400  61.1804890
  18.4826480  43.9179300  65.2538510  18.8535310  43.1346620  64.8474480
  19.1228410  44.6068400  65.0755810  15.4660240  45.3015880  70.6668830
  14.6520080  45.7313040  70.9294620  15.8734440  45.9134290  70.0537880
  17.5285680  43.3563570  57.5669100  17.8034520  44.2642450  57.4388320
  17.3396420  43.2926100  58.5031090  13.9261290  36.3808420  58.8622730
  14.3446170  36.1939400  58.0219390  13.6197350  35.5287470  59.1725660
  17.4251020  41.2932560  62.5598530  17.0494620  40.5260490  62.1279820
  16.6954140  41.6755260  63.0473460   2.0146780  41.9719700  69.1807580
   2.3819820  41.8847100  70.0603600   1.4457600  41.2086250  69.0814440
  16.8150640  40.4404080  72.1938050  16.5836730  40.2116830  71.2936000
  17.0755190  41.3603630  72.1482940  16.7001980  39.5190050  65.8605770
  17.2239460  39.0252700  65.2295940  17.2861400  39.6540410  66.6053340
  16.8791700  39.6029920  69.3825320  15.9294410  39.5693460  69.4970310
  17.0604710  40.5130030  69.1475090   2.7336140  37.8531600  58.4923950
   3.4427840  37.4314820  58.0071230   2.0176080  37.9206830  57.8607300
   2.3810300  33.9070930  57.5326600   3.1038430  34.4479870  57.8507820
   2.6534820  33.6334350  56.6568140  16.1901950  38.7763400  61.7998180
  16.6861070  38.5434270  62.5847060  15.9918020  37.9375240  61.3835820
   2.0702490  33.1577120  67.4349220   2.7178680  32.6074500  66.9944380
   2.4904330  33.4120270  68.2565030  17.6189110  37.4124350  64.3335860
  17.5088390  37.2580390  65.2718130  18.3796700  36.8845290  64.0911270
  15.9654830  33.3518480  70.7918860  16.6027050  33.9652620  71.1578050
  16.1129720  33.3879140  69.8468090  18.5079380  35.2432270  57.5742000
  19.4328690  35.1113450  57.3660290  18.4855170  35.3225090  58.5278450
  18.5817870  36.0142930  60.1998710  17.7869370  35.9488050  60.7291620
  18.7861150  36.9493570  60.1884060  15.5236290  50.0534480  64.1937100
  16.1195360  49.7319050  63.5171520  15.7814440  49.5806300  64.9850370
   1.8234490  33.3132790  70.1774540   1.4749310  33.7696610  70.9432720
   1.4922190  32.4189920  70.2596970   7.1304890  48.0411980  69.9437450
   6.8896250  48.3086540  69.0567970   8.0707530  48.2117710  69.9988310
   9.3359310  34.5044670  73.6993960   9.2748200  35.0966500  74.4489370
  10.2759690  34.3970630  73.5544220  11.9733870  34.1614730  73.3386250
  12.5874280  34.4794020  72.6767330  12.5183430  33.6763320  73.9582110
  18.3909050  50.0606360  70.7448090  17.8967330  50.4575230  70.0275220
  17.7822340  49.4355570  71.1385370   2.4955130  32.8408990  73.4525310
   3.0438120  32.6597040  72.6891420   2.5610440  32.0503100  73.9881620
   3.2686890  49.4314640  71.4625510   2.6747210  49.2999340  72.2015550
   3.2610730  48.5952780  70.9967610  12.7141910  32.7246870  69.6655540
  11.8401750  33.0581980  69.4628470  12.6052660  32.2520050  70.4907410
  13.6213890  34.9317740  71.0497260  13.2927250  34.1169500  70.6698990
  14.5696190  34.8887550  70.9262950  16.0748500  50.7029780  68.0234830
  15.6151470  51.4545590  67.6492850  15.4460960  49.9836250  67.9649630
   2.8999120  46.7973020  70.4133550   2.1733180  46.1778310  70.3459500
   2.9608270  47.1913630  69.5431630   6.5044220  49.0118020  67.1982960
   7.0209240  48.4005380  66.6731220   7.1541600  49.5146800  67.6893970
   9.2439720  49.9026510  68.0251940   9.5317530  49.6480810  67.1484950
   9.7562940  49.3503870  68.6157510  10.4616730  33.6416710  68.6048450
   9.6788520  34.1162210  68.8845210  10.1679660  32.7371540  68.4961630
  15.0137800  34.3439810  66.6497540  15.4545890  34.2884910  65.8019140
  14.7445390  35.2597820  66.7207720  16.8776370  33.9755050  64.6606360
  16.8164770  33.0316270  64.5137380  17.6568400  34.0835140  65.2059820
   1.8057140  33.9464190  61.1262170   2.5636500  34.0593070  60.5526200
   1.3434310  34.7833390  61.0805600   8.3470950  36.0603460  64.1164480
   7.5345460  35.6860350  63.7760360   8.8512590  35.3048540  64.4185670
  12.8495930  32.7245910  65.3547550  13.4525300  33.2966120  65.8296070
  12.1088920  33.2885350  65.1321450  15.9930530  33.1267470  60.6287830
  16.1881160  34.0250920  60.8955260  15.2060400  32.8954550  61.1220780
   2.7891820  48.8080640  61.0680450   2.2639440  49.1888670  60.3642410
   2.7136400  49.4331410  61.7890160   4.1782290  34.4728240  59.6664140
   4.7075050  33.6858040  59.5372090   4.8110610  35.1519430  59.8999670
   6.3720130  34.2103380  62.7209530   5.7422870  33.5090690  62.8879660
   5.8325270  34.9707510  62.5042690  17.5457140  50.3668180  62.3894390
  17.7209330  49.6805920  61.7455310  16.8478710  50.8915230  61.9971060
   5.3884790  50.7563020  59.9429700   6.1203610  50.4722300  59.3953590
   5.6478460  50.5176300  60.8329080   4.5499580  46.8727750  59.9476030
   3.9208460  47.3412850  60.4961860   4.6647410  46.0276970  60.3822220
  12.0049300  40.9233410  46.0977230  11.9243350  40.0088020  45.8268940
  11.5913720  41.4200480  45.3916940  10.1367340  42.7012430  47.9786500
   9.3609440  42.2212870  48.2685070  10.7880270  42.0218080  47.8042660
   4.1533170  43.0132240  48.8562260   3.3218050  42.7580950  49.2558770
   4.7614150  43.0843010  49.5920180  14.1574770  47.1072620  46.7585630
  13.6956300  46.3359860  47.0872800  14.9700320  47.1338690  47.2638080
   4.1334430  47.0472330  49.0520280   4.4362470  46.1570070  48.8730500
   4.8778020  47.6042550  48.8242530   2.5625120  37.9734130  42.6404650
   1.6741820  38.3150100  42.5384530   2.8466310  37.7734450  41.7485480
  10.3838080  49.3930630  46.3789620   9.7649520  49.8488130  45.8084060
  11.2389860  49.5482090  45.9779320   9.5776330  45.3769620  47.9856660
   9.5084610  44.4359560  47.8245790  10.3396190  45.4671030  48.5579230
   1.7683000  35.9824140  50.3113280   1.5885840  35.0849890  50.5916040
   1.3663080  36.5296010  50.9860230  10.6081500  38.1840000  48.2125590
  10.9846320  37.3111880  48.0999260  10.5101010  38.5198700  47.3216030
   4.7386510  36.5565630  43.6743030   4.8453260  37.4569360  43.9811790
   3.8278870  36.5083600  43.3837680  14.3905620  35.6790440  45.1453930
  15.2115240  35.1887010  45.1879410  14.4239700  36.2688100  45.8985770
   2.3869670  38.4784640  48.9195620   3.0679780  38.7423010  49.5383020
   2.0717720  37.6385510  49.2533630   6.5794240  39.5252000  48.0068210
   7.0872460  40.0232970  48.6473230   7.1107480  38.7487200  47.8307570
  18.6805170  37.6957190  51.7097560  17.9757340  38.0838900  51.1912670
  18.9463090  38.3907480  52.3118490   4.8630340  34.1650560  52.2731630
   4.8648780  34.6822950  51.4677530   4.0334650  33.6880740  52.2501560
  11.2501430  44.2769870  43.7721530  10.6318700  44.7419320  43.2084250
  11.7624680  44.9697350  44.1891040   6.1133190  43.8045740  50.4505130
   5.7802570  44.4314660  51.0926200   6.2899870  44.3307620  49.6706800
  14.6267100  37.6190820  47.9181470  13.9222670  37.9075710  48.4984580
  14.9879260  38.4290930  47.5581030   4.5445670  35.8760520  50.2802080
   4.8862480  36.7202570  49.9855950   3.6061480  36.0244260  50.3967420
   5.3252290  45.7726540  52.2654310   5.9426290  46.4477620  51.9838760
   4.4645410  46.1814520  52.1741810  16.2429880  47.2365950  50.1808950
  15.5593400  47.9065060  50.1725620  16.7824170  47.4346600  49.4153810
  17.6954020  37.0645610  48.3090680  16.7478930  37.0984590  48.4406110
  18.0204010  37.8784560  48.6940040   8.2273560  33.3642790  46.6046670
   8.5348540  32.8089680  45.8882170   7.2974260  33.4987250  46.4219660
  13.7788620  49.0810080  48.8954130  13.7915780  48.6772370  48.0276390
  13.2263840  49.8557370  48.7915560  15.0734040  45.8026300  43.9844300
  14.9630370  44.8600630  44.1093720  15.0702290  46.1641940  44.8707060
  13.1774060  43.9839920  50.2236740  13.5942850  43.7700030  49.3890200
  13.9013880  44.2412710  50.7945360  10.6154320  41.4291620  43.3406790
   9.6883600  41.3629000  43.5695260  10.7679140  42.3671750  43.2262030
  10.6023400  37.7008620  40.3373950   9.6627070  37.8622580  40.4226410
  10.9206660  38.4194300  39.7909940  17.1236160  42.3827140  50.3152980
  16.2954790  42.4520230  49.8403110  17.7186640  42.9681450  49.8468810
  14.6451610  42.9911920  43.8442040  14.0264030  42.6531470  43.1968340
  14.6276060  42.3471680  44.5521230  14.0878170  39.1696460  51.2607850
  13.6749350  39.9950170  51.5147840  13.3554120  38.5841500  51.0684210
   6.2210960  41.9556360  46.1226520   5.8167960  41.2433610  45.6272420
   6.3074080  41.6109600  47.0114560   6.6892660  45.6423920  48.2865730
   6.3920950  45.0369390  47.6073510   7.6392480  45.6801230  48.1755090
   4.9339580  38.7299570  49.9025560   5.4854170  38.8394910  49.1278810
   5.4483090  39.1037170  50.6180790  14.7778270  49.2155790  51.9488830
  14.3008830  50.0227980  51.7561440  14.0940060  48.5634120  52.1015040
   5.7811090  45.3805610  54.9373530   4.8839620  45.6045580  55.1846930
   5.8063960  45.5040550  53.9884930  12.8216310  42.2298730  40.8514790
  13.2609590  41.3921160  40.7052610  13.5344730  42.8628130  40.9378930
   4.6082310  42.2518930  53.5130900   4.4690080  43.1241730  53.8818300
   3.7263670  41.9091740  53.3678840  10.9311690  47.1694800  44.8196030
  11.3707600  47.9119130  44.4051420  10.8698580  47.4121370  45.7434990
   6.4062660  48.1940630  55.7216050   6.3778090  48.5983580  54.8544480
   6.2427630  47.2650990  55.5587650  16.4033450  33.4841540  39.1655830
  16.0906110  33.5768370  40.0654900  17.1645920  34.0622570  39.1153260
   2.9215590  40.8501340  43.6233170   2.8013190  41.5763430  43.0114440
   2.6116480  40.0804250  43.1461080  18.3577480  48.9767730  57.0180220
  18.8337200  49.4550620  57.6969300  18.9784640  48.9085220  56.2925720
   1.8048590  45.7216670  45.8407990   1.3976670  45.8631260  44.9861590
   2.6961600  45.4376830  45.6379200  17.7610730  46.1680580  54.1780230
  17.8873790  45.9292460  53.2597410  17.8032110  45.3365120  54.6502310
  11.6227470  49.8708580  52.7475040  12.1372140  49.7816590  53.5497470
  10.7796550  50.2168280  53.0402950  13.5981870  50.1563920  42.1759040
  13.4383010  49.8666860  43.0740870  13.4328580  49.3804050  41.6404270
   6.0770250  49.9362450  43.9530660   5.9012730  49.0197990  43.7398460
   5.2225990  50.2949740  44.1928460  13.3008000  47.6651480  40.7357040
  12.6073160  47.6628770  40.0759320  14.0430860  47.2410800  40.3051210
  12.8657930  49.2914190  44.8105530  13.3214880  48.5103570  45.1244150
  13.2050450  50.0021010  45.3546710  17.6134740  38.2213040  55.1429970
  16.9979010  38.7292710  54.6145430  17.2931160  37.3211370  55.0855910
   5.3879250  34.1936410  47.0056840   4.9447400  34.9745950  46.6741360
   5.9464240  34.5166300  47.7127780   9.6749060  37.0604930  52.6092160
   9.2128430  37.2687950  53.4212100   9.2727170  36.2464280  52.3062830
  14.6753570  38.2813880  53.7388820  13.8247160  37.9819630  54.0597890
  14.5155360  38.5255890  52.8272640  11.7703280  39.7815630  55.8387610
  12.0956690  38.9479380  55.4989840  12.5583610  40.3044150  55.9865940
   8.5038070  33.8147110  41.8862670   7.8792250  33.8106980  42.6115980
   8.4168190  32.9478070  41.4898640   7.4255150  34.7383740  48.8646440
   7.7227480  35.6446570  48.7838460   7.9740710  34.2502520  48.2506010
   5.1793470  39.3169980  44.7338090   4.9534390  39.1007150  45.6384710
   4.3986000  39.7498440  44.3884060  12.4091230  39.3233350  43.3328740
  11.8100120  40.0469150  43.1492360  12.9570840  39.2610130  42.5505190
   7.6192680  40.2155560  55.3998360   7.5236280  39.2750290  55.2498760
   8.4624660  40.4370630  55.0046430  11.0156100  37.9596890  45.3632020
  11.4085670  38.2769090  44.5500710  11.3772950  37.0808770  45.4776540
   2.7503220  36.6269230  53.5532140   2.3566610  37.4744440  53.7604920
   2.0621620  35.9895600  53.7440780   9.3248270  36.7104200  56.6228880
   8.6346590  36.5176400  57.2574970  10.0680570  36.9938840  57.1553180
  11.6011240  40.5502640  49.4582800  10.8692360  41.0589450  49.8072900
  11.2035580  39.7332620  49.1571580   8.0388630  37.2256840  47.8635290
   8.0424690  36.7846790  47.0139830   8.9339750  37.5474170  47.9707110
   3.8891010  37.1083330  46.8229500   3.5491060  37.5858560  47.5796550
   3.1268330  36.6548450  46.4630600   8.1008780  38.2268920  40.8542050
   8.2221600  38.1855400  41.8027870   7.7157290  39.0893070  40.6988780
  12.0637150  36.0036320  48.8705740  12.0809890  36.4544970  49.7147590
  11.8152730  35.1041960  49.0839180   7.1130280  40.5370060  40.2525350
   6.5447180  40.0888310  39.6261260   7.8219280  40.8962840  39.7190500
  15.4907900  33.4168500  54.7092120  15.8153670  32.6858160  55.2350100
  15.5264410  33.0982140  53.8073110   2.1899460  44.4382080  54.1292080
   1.8054250  43.7975750  54.7275040   2.5011650  45.1418200  54.6986810
   8.3396600  41.2858620  49.6100700   8.7066730  40.8117190  50.3562040
   8.1501660  42.1600190  49.9509040   6.1295970  40.3267260  51.9284910
   5.8253040  41.2059240  52.1535270   7.0842430  40.3867050  51.9642350
   4.6577760  44.5328250  42.5251760   3.8840020  43.9925870  42.3650480
   5.3872390  44.0134860  42.1869520  15.4165740  43.5293610  48.3178150
  16.1364860  44.0248900  47.9274260  15.2147560  42.8511500  47.6732020
  10.8775680  34.9231570  42.4607540  10.0640290  34.4244740  42.3852850
  10.6837630  35.7629820  42.0443890  10.7984540  43.6002670  54.2047150
  10.7321850  42.6798340  53.9504740  10.1689680  43.6978110  54.9191790
  13.5924070  39.2951220  40.7569700  14.4803690  39.6068450  40.5821040
  13.5629160  38.4223470  40.3650280   4.7015160  44.2008630  46.1630570
   5.2193830  43.3976890  46.1087460   4.2499180  44.1387770  47.0047400
   9.5884660  45.4674910  41.4357870   9.9300360  46.2117140  40.9401190
   8.7597370  45.7806030  41.7982700   2.1859700  41.1670000  53.0756270
   1.8274640  41.8323850  53.6629610   1.8914260  40.3353550  53.4468890
   5.3872820  41.6254240  55.9595820   5.0872960  41.7711420  55.0623640
   6.1584060  41.0659530  55.8669210  10.7301270  46.4223240  53.9550950
  10.7445810  45.4904200  53.7369860  10.0226370  46.5083000  54.5940720
  15.8638340  40.6063060  40.2249560  15.7802060  41.0377280  39.3746000
  16.5832530  41.0661410  40.6576380  16.9412480  43.0630580  53.3019530
  16.2160670  43.6559360  53.1048920  17.4687940  43.0554120  52.5032900
  16.8925590  47.4605320  42.9531690  16.2501750  46.8060940  43.2275410
  16.5056250  47.8660410  42.1772360  12.4712070  44.7890750  46.8003380
  12.8235890  44.1918880  46.1404750  11.5874400  44.4634980  46.9711630
   8.5575350  45.5488440  44.2073790   9.2446480  46.0957650  44.5881380
   7.7707770  46.0929170  44.2423400   7.8602560  42.5534470  43.8199150
   8.3165340  43.3639720  44.0459340   7.5090770  42.2357610  44.6517640
  10.1635170  48.0640810  51.0491450  10.8077390  48.2700190  51.7264870
  10.5264610  47.3029210  50.5962300   3.7614340  32.8972120  44.2921670
   3.6328970  32.8890020  45.2406590   2.9376360  33.2355210  43.9412680
  11.4367250  46.0673160  49.7668900  12.0789480  45.3666320  49.8801070
  11.9616600  46.8471600  49.5865790  15.2822970  46.3521780  39.4908040
  15.0560550  45.6352220  40.0832680  14.8919170  46.1034220  38.6529790
  13.2104870  46.8668060  52.9704960  13.5461110  47.4534750  53.6482880
  12.2905210  46.7360770  53.2002750  14.8639220  44.2693720  41.1522200
  14.5760920  44.7306410  41.9400080  15.6591390  43.8091490  41.4206420
   9.0393450  46.9159390  56.1393020   8.7190320  46.1968630  56.6838710
   8.3651810  47.5914460  56.2129080   7.0807620  47.7619840  41.0826170
   7.0717720  48.4949530  40.4670680   6.1605980  47.5151420  41.1753130
   2.6814260  42.9834730  41.8272930   2.0742210  43.7233630  41.8368230
   3.1563610  43.0734090  41.0011130  12.2547050  37.1485550  51.5029820
  12.6227870  36.3280760  51.8309390  11.3945250  37.2087440  51.9185470
  15.6209080  36.1042490  42.3117380  14.9922240  36.2088160  41.5975610
  15.1261000  36.3239270  43.1011260  10.0667220  47.8248080  39.7451360
  10.1679200  47.6212070  38.8153340   9.1668960  47.5706360  39.9499140
   7.5893110  38.3828440  43.7275260   6.8809260  38.8514780  44.1688870
   7.8737590  37.7250450  44.3620450   9.2149040  39.8025140  51.7267790
   9.7134290  40.2770960  52.3919640   9.3571990  38.8788660  51.9337820
  11.6208540  35.1079100  45.1671050  11.4976320  35.1265230  44.2180560
  12.5693100  35.1558040  45.2869450   8.7085330  50.3434400  44.4399030
   8.9626830  50.3055790  43.5178400   7.7597810  50.2167730  44.4327280
   5.7928130  36.6913520  41.1025970   6.6418660  37.1283670  41.0366160
   5.4259400  37.0033780  41.9298030  16.4215900  36.0193100  52.5696180
  15.9189500  36.7598500  52.9089990  17.2372560  36.4077100  52.2532970
  14.7137910  41.2626280  46.0157540  13.7728050  41.2776510  46.1905230
  15.0281980  40.4762240  46.4617840   4.6919550  42.9445880  39.5761500
   5.4582820  42.8327240  40.1386930   4.7694240  42.2483850  38.9238270
   3.3866310  40.3770950  40.2594390   3.4669900  39.4298460  40.3711790
   4.2786060  40.7077830  40.3655050  16.7163490  48.4335130  47.6911800
  16.8410910  49.2566300  48.1635610  17.5829050  48.2225860  47.3435950
   4.1881020  50.5266340  47.3628930   4.9243500  49.9781800  47.6337500
   4.5721940  51.3922350  47.2234920   3.1939300  49.7112410  56.5514510
   3.9952030  50.0324460  56.9649910   2.6791120  49.3507990  57.2734420
   7.2983330  49.6996650  39.1854500   8.0911940  49.9885480  38.7336290
   6.7787680  49.2688820  38.5066980  12.0303930  45.8192280  56.4989920
  11.4242090  45.8423880  55.7585670  11.7258040  45.0875320  57.0357170
  13.4604300  49.5472570  55.1099330  14.4126050  49.4630590  55.0599570
  13.3132520  50.2114280  55.7833120  16.3513500  48.9266780  40.6091240
  16.0655010  48.5131920  39.7945420  16.1533050  49.8554490  40.4891760
   7.8160730  44.9200060  39.0496850   7.7111370  44.3052410  39.7758230
   7.6484950  44.3965950  38.2659860   7.9675050  43.6056860  55.0286080
   7.2020720  44.1741860  54.9440750   8.1491010  43.3133070  54.1354310
  11.0563460  43.9820090  39.6538840  10.5073560  44.4289390  40.2981580
  11.6782720  43.4769340  40.1776510  15.1098400  45.3362190  55.5861100
  15.8507870  45.6737950  55.0828560  14.3471080  45.5054250  55.0330870
   2.9460190  40.3415460  56.3900630   2.9865530  40.0429330  57.2985860
   3.8005690  40.7423070  56.2308150   6.7238580  42.9411010  41.5504140
   7.1455000  42.7750880  42.3935530   6.8489420  42.1311240  41.0559280
   4.8866000  38.9207560  54.3575120   4.3562460  38.4298510  53.7298460
   5.5554070  39.3491760  53.8233050   9.2366220  41.9648620  38.7981240
   9.7571880  41.2497640  38.4322390   9.8834620  42.6034490  39.0981750
  13.7844060  43.3877020  54.1216310  14.1985080  43.5422100  54.9706730
  12.8495060  43.5132240  54.2842090  14.2566230  40.7273180  56.1255460
  14.8387000  39.9725500  56.0375940  14.4328000  41.2580620  55.3486940
   5.3738300  35.8869930  54.4372410   5.2795170  35.2690680  53.7123280
   4.7935690  36.6136220  54.2102320   8.1399740  34.4443170  51.4699800
   7.6917040  34.4667430  50.6245350   7.5064940  34.0462190  52.0670100
   8.5459290  43.3397500  52.0912240   8.9647400  44.1830230  51.9188480
   7.6267920  43.4769540  51.8619020  10.8823190  41.0713680  53.4750080
  11.0019400  40.4754820  54.2144920  11.7417190  41.1083370  53.0551380
  13.2211090  41.6250870  52.0512590  12.6946310  42.1493490  51.4477730
  13.5642430  42.2578260  52.6822320   5.6197480  39.0144240  38.4962300
   5.4186540  38.1511600  38.8575640   5.4489530  38.9277600  37.5583900
   6.3966710  49.6450510  53.2069970   5.8587800  50.3696570  52.8878670
   6.6500670  49.1680850  52.4167310   7.6491960  37.6135030  54.7325900
   8.2391650  37.3050880  55.4203720   6.8312200  37.1414780  54.8885800
  12.4685390  37.2300840  54.9658920  11.7800910  36.5682380  54.9008910
  13.1891410  36.7839110  55.4107380  13.0985790  33.8252470  41.0249180
  13.3788080  32.9820370  41.3808600  12.3251520  34.0575580  41.5387930
   4.4180280  36.1144860  38.4840180   4.7206180  36.1212290  37.5759330
   5.1574870  35.7642720  38.9807840   9.2528920  50.8801720  53.4656620
   9.1787620  51.7836860  53.7728990   8.3507760  50.5613620  53.4378690
   7.6365210  35.0579480  39.4696380   7.2887210  34.3803470  38.8898830
   7.8377980  34.5968990  40.2839770   9.8014250  50.0460230  41.0882980
  10.6965040  50.3845200  41.1101740   9.8331880  49.3239640  40.4607260
   3.4410410  45.4187280  39.3169980   3.8785280  45.9616950  39.9727560
   3.9258140  44.5934230  39.3266320   5.2518130  46.5385320  44.4292210
   4.9513670  46.4150290  45.3296120   5.1455620  45.6793910  44.0207940
  16.7808600  48.5763900  53.7949180  16.1810590  48.6356460  53.0513100
  16.9102500  47.6368880  53.9246030  18.0210050  46.3181720  39.1318890
  17.1903010  46.3858370  39.6026120  18.1981880  47.2085840  38.8285750
  17.4766510  43.0629200  41.6353090  18.2385420  43.6325850  41.7412780
  17.4920880  42.4956400  42.4061400  18.4826480  43.9179300  46.4795020
  18.8535310  43.1346620  46.0730990  19.1228410  44.6068400  46.3012320
  15.4660240  45.3015880  51.8925340  14.6520080  45.7313040  52.1551130
  15.8734440  45.9134290  51.2794390  17.5285680  43.3563570  38.7925610
  17.8034520  44.2642450  38.6644830  17.3396420  43.2926100  39.7287600
  13.9261290  36.3808420  40.0879240  14.3446170  36.1939400  39.2475900
  13.6197350  35.5287470  40.3982170  17.4251020  41.2932560  43.7855040
  17.0494620  40.5260490  43.3536330  16.6954140  41.6755260  44.2729970
   2.0146780  41.9719700  50.4064090   2.3819820  41.8847100  51.2860110
   1.4457600  41.2086250  50.3070950  16.8150640  40.4404080  53.4194560
  16.5836730  40.2116830  52.5192510  17.0755190  41.3603630  53.3739450
  15.2538710  35.6660510  56.1974260  16.1308890  35.6743910  56.5808260
  15.2659550  34.9291350  55.5866610  16.7001980  39.5190050  47.0862280
  17.2239460  39.0252700  46.4552450  17.2861400  39.6540410  47.8309850
  16.8791700  39.6029920  50.6081830  15.9294410  39.5693460  50.7226820
  17.0604710  40.5130030  50.3731600   2.7336140  37.8531600  39.7180460
   3.4427840  37.4314820  39.2327740   2.0176080  37.9206830  39.0863810
   2.3810300  33.9070930  38.7583110   3.1038430  34.4479870  39.0764330
   2.6534820  33.6334350  37.8824650  16.1901950  38.7763400  43.0254690
  16.6861070  38.5434270  43.8103570  15.9918020  37.9375240  42.6092330
   2.0702490  33.1577120  48.6605730   2.7178680  32.6074500  48.2200890
   2.4904330  33.4120270  49.4821540  17.6189110  37.4124350  45.5592370
  17.5088390  37.2580390  46.4974640  18.3796700  36.8845290  45.3167780
  15.9654830  33.3518480  52.0175370  16.6027050  33.9652620  52.3834560
  16.1129720  33.3879140  51.0724600  18.5079380  35.2432270  38.7998510
  19.4328690  35.1113450  38.5916800  18.4855170  35.3225090  39.7534960
  18.5817870  36.0142930  41.4255220  17.7869370  35.9488050  41.9548130
  18.7861150  36.9493570  41.4140570  15.5236290  50.0534480  45.4193610
  16.1195360  49.7319050  44.7428030  15.7814440  49.5806300  46.2106880
   1.8234490  33.3132790  51.4031050   1.4749310  33.7696610  52.1689230
   1.4922190  32.4189920  51.4853480   3.4298860  46.4852390  55.5684240
   3.3868490  46.1145300  56.4498700   3.5609870  47.4229960  55.7086060
   7.1304890  48.0411980  51.1693960   6.8896250  48.3086540  50.2824480
   8.0707530  48.2117710  51.2244820   9.3359310  34.5044670  54.9250470
   9.2748200  35.0966500  55.6745880  10.2759690  34.3970630  54.7800730
  11.9733870  34.1614730  54.5642760  12.5874280  34.4794020  53.9023840
  12.5183430  33.6763320  55.1838620  18.3909050  50.0606360  51.9704600
  17.8967330  50.4575230  51.2531730  17.7822340  49.4355570  52.3641880
   2.4955130  32.8408990  54.6781820   3.0438120  32.6597040  53.9147930
   2.5610440  32.0503100  55.2138130   3.2686890  49.4314640  52.6882020
   2.6747210  49.2999340  53.4272060   3.2610730  48.5952780  52.2224120
  12.7141910  32.7246870  50.8912050  11.8401750  33.0581980  50.6884980
  12.6052660  32.2520050  51.7163920  13.6213890  34.9317740  52.2753770
  13.2927250  34.1169500  51.8955500  14.5696190  34.8887550  52.1519460
  16.0748500  50.7029780  49.2491340  15.6151470  51.4545590  48.8749360
  15.4460960  49.9836250  49.1906140   2.8999120  46.7973020  51.6390060
   2.1733180  46.1778310  51.5716010   2.9608270  47.1913630  50.7688140
   6.5044220  49.0118020  48.4239470   7.0209240  48.4005380  47.8987730
   7.1541600  49.5146800  48.9150480   9.2439720  49.9026510  49.2508450
   9.5317530  49.6480810  48.3741460   9.7562940  49.3503870  49.8414020
  10.4616730  33.6416710  49.8304960   9.6788520  34.1162210  50.1101720
  10.1679660  32.7371540  49.7218140  15.0137800  34.3439810  47.8754050
  15.4545890  34.2884910  47.0275650  14.7445390  35.2597820  47.9464230
  16.8776370  33.9755050  45.8862870  16.8164770  33.0316270  45.7393890
  17.6568400  34.0835140  46.4316330   1.8057140  33.9464190  42.3518680
   2.5636500  34.0593070  41.7782710   1.3434310  34.7833390  42.3062110
   8.3470950  36.0603460  45.3420990   7.5345460  35.6860350  45.0016870
   8.8512590  35.3048540  45.6442180  12.8495930  32.7245910  46.5804060
  13.4525300  33.2966120  47.0552580  12.1088920  33.2885350  46.3577960
  15.9930530  33.1267470  41.8544340  16.1881160  34.0250920  42.1211770
  15.2060400  32.8954550  42.3477290   2.7891820  48.8080640  42.2936960
   2.2639440  49.1888670  41.5898920   2.7136400  49.4331410  43.0146670
   4.1782290  34.4728240  40.8920650   4.7075050  33.6858040  40.7628600
   4.8110610  35.1519430  41.1256180   6.3720130  34.2103380  43.9466040
   5.7422870  33.5090690  44.1136170   5.8325270  34.9707510  43.7299200
   9.3112080  50.8242610  56.6176650  10.2379390  50.5886880  56.6612610
   9.2962510  51.6514610  56.1362680  17.5457140  50.3668180  43.6150900
  17.7209330  49.6805920  42.9711820  16.8478710  50.8915230  43.2227570
   6.4975690  33.4887360  56.3818530   6.2159960  33.9920960  55.6179350
   6.8795390  32.6909110  56.0160660   5.3884790  50.7563020  41.1686210
   6.1203610  50.4722300  40.6210100   5.6478460  50.5176300  42.0585590
   4.5499580  46.8727750  41.1732540   3.9208460  47.3412850  41.7218370
   4.6647410  46.0276970  41.6078730  13.0991150  32.9040940  56.9599000
  12.9856600  33.2235550  57.8550520  13.9160890  33.3053450  56.6636280
  15.8789640  50.0512470  56.4417690  16.6714960  49.5561700  56.2343650
  16.1722790  50.7302610  57.0493300  12.0049300  40.9233410  27.3233740
  11.9243350  40.0088020  27.0525450  11.5913720  41.4200480  26.6173450
  10.1367340  42.7012430  29.2043010   9.3609440  42.2212870  29.4941580
  10.7880270  42.0218080  29.0299170   4.1533170  43.0132240  30.0818770
   3.3218050  42.7580950  30.4815280   4.7614150  43.0843010  30.8176690
  14.1574770  47.1072620  27.9842140  13.6956300  46.3359860  28.3129310
  14.9700320  47.1338690  28.4894590   4.1334430  47.0472330  30.2776790
   4.4362470  46.1570070  30.0987010   4.8778020  47.6042550  30.0499040
   2.5625120  37.9734130  23.8661160   1.6741820  38.3150100  23.7641040
   2.8466310  37.7734450  22.9741990  10.3838080  49.3930630  27.6046130
   9.7649520  49.8488130  27.0340570  11.2389860  49.5482090  27.2035830
   9.5776330  45.3769620  29.2113170   9.5084610  44.4359560  29.0502300
  10.3396190  45.4671030  29.7835740   1.7683000  35.9824140  31.5369790
   1.5885840  35.0849890  31.8172550   1.3663080  36.5296010  32.2116740
  10.6081500  38.1840000  29.4382100  10.9846320  37.3111880  29.3255770
  10.5101010  38.5198700  28.5472540   4.7386510  36.5565630  24.8999540
   4.8453260  37.4569360  25.2068300   3.8278870  36.5083600  24.6094190
  14.3905620  35.6790440  26.3710440  15.2115240  35.1887010  26.4135920
  14.4239700  36.2688100  27.1242280   2.3869670  38.4784640  30.1452130
   3.0679780  38.7423010  30.7639530   2.0717720  37.6385510  30.4790140
   6.5794240  39.5252000  29.2324720   7.0872460  40.0232970  29.8729740
   7.1107480  38.7487200  29.0564080  18.6805170  37.6957190  32.9354070
  17.9757340  38.0838900  32.4169180  18.9463090  38.3907480  33.5375000
   4.8630340  34.1650560  33.4988140   4.8648780  34.6822950  32.6934040
   4.0334650  33.6880740  33.4758070  11.2501430  44.2769870  24.9978040
  10.6318700  44.7419320  24.4340760  11.7624680  44.9697350  25.4147550
   6.1133190  43.8045740  31.6761640   5.7802570  44.4314660  32.3182710
   6.2899870  44.3307620  30.8963310  14.6267100  37.6190820  29.1437980
  13.9222670  37.9075710  29.7241090  14.9879260  38.4290930  28.7837540
   4.5445670  35.8760520  31.5058590   4.8862480  36.7202570  31.2112460
   3.6061480  36.0244260  31.6223930   5.3252290  45.7726540  33.4910820
   5.9426290  46.4477620  33.2095270   4.4645410  46.1814520  33.3998320
  16.2429880  47.2365950  31.4065460  15.5593400  47.9065060  31.3982130
  16.7824170  47.4346600  30.6410320  17.6954020  37.0645610  29.5347190
  16.7478930  37.0984590  29.6662620  18.0204010  37.8784560  29.9196550
   8.2273560  33.3642790  27.8303180   8.5348540  32.8089680  27.1138680
   7.2974260  33.4987250  27.6476170  13.7788620  49.0810080  30.1210640
  13.7915780  48.6772370  29.2532900  13.2263840  49.8557370  30.0172070
  15.0734040  45.8026300  25.2100810  14.9630370  44.8600630  25.3350230
  15.0702290  46.1641940  26.0963570  13.1774060  43.9839920  31.4493250
  13.5942850  43.7700030  30.6146710  13.9013880  44.2412710  32.0201870
  10.6154320  41.4291620  24.5663300   9.6883600  41.3629000  24.7951770
  10.7679140  42.3671750  24.4518540  10.6023400  37.7008620  21.5630460
   9.6627070  37.8622580  21.6482920  10.9206660  38.4194300  21.0166450
  17.1236160  42.3827140  31.5409490  16.2954790  42.4520230  31.0659620
  17.7186640  42.9681450  31.0725320  14.6451610  42.9911920  25.0698550
  14.0264030  42.6531470  24.4224850  14.6276060  42.3471680  25.7777740
  14.0878170  39.1696460  32.4864360  13.6749350  39.9950170  32.7404350
  13.3554120  38.5841500  32.2940720   6.2210960  41.9556360  27.3483030
   5.8167960  41.2433610  26.8528930   6.3074080  41.6109600  28.2371070
   6.6892660  45.6423920  29.5122240   6.3920950  45.0369390  28.8330020
   7.6392480  45.6801230  29.4011600   4.9339580  38.7299570  31.1282070
   5.4854170  38.8394910  30.3535320   5.4483090  39.1037170  31.8437300
  14.7778270  49.2155790  33.1745340  14.3008830  50.0227980  32.9817950
  14.0940060  48.5634120  33.3271550   5.7811090  45.3805610  36.1630040
   4.8839620  45.6045580  36.4103440   5.8063960  45.5040550  35.2141440
  12.8216310  42.2298730  22.0771300  13.2609590  41.3921160  21.9309120
  13.5344730  42.8628130  22.1635440   4.6082310  42.2518930  34.7387410
   4.4690080  43.1241730  35.1074810   3.7263670  41.9091740  34.5935350
  10.9311690  47.1694800  26.0452540  11.3707600  47.9119130  25.6307930
  10.8698580  47.4121370  26.9691500   6.4062660  48.1940630  36.9472560
   6.3778090  48.5983580  36.0800990   6.2427630  47.2650990  36.7844160
  16.4033450  33.4841540  20.3912340  16.0906110  33.5768370  21.2911410
  17.1645920  34.0622570  20.3409770   2.9215590  40.8501340  24.8489680
   2.8013190  41.5763430  24.2370950   2.6116480  40.0804250  24.3717590
  18.3577480  48.9767730  38.2436730  18.8337200  49.4550620  38.9225810
  18.9784640  48.9085220  37.5182230   1.8048590  45.7216670  27.0664500
   1.3976670  45.8631260  26.2118100   2.6961600  45.4376830  26.8635710
  17.7610730  46.1680580  35.4036740  17.8873790  45.9292460  34.4853920
  17.8032110  45.3365120  35.8758820  11.6227470  49.8708580  33.9731550
  12.1372140  49.7816590  34.7753980  10.7796550  50.2168280  34.2659460
  13.5981870  50.1563920  23.4015550  13.4383010  49.8666860  24.2997380
  13.4328580  49.3804050  22.8660780   6.0770250  49.9362450  25.1787170
   5.9012730  49.0197990  24.9654970   5.2225990  50.2949740  25.4184970
  13.3008000  47.6651480  21.9613550  12.6073160  47.6628770  21.3015830
  14.0430860  47.2410800  21.5307720  12.8657930  49.2914190  26.0362040
  13.3214880  48.5103570  26.3500660  13.2050450  50.0021010  26.5803220
  17.6134740  38.2213040  36.3686480  16.9979010  38.7292710  35.8401940
  17.2931160  37.3211370  36.3112420   5.3879250  34.1936410  28.2313350
   4.9447400  34.9745950  27.8997870   5.9464240  34.5166300  28.9384290
   9.6749060  37.0604930  33.8348670   9.2128430  37.2687950  34.6468610
   9.2727170  36.2464280  33.5319340  14.6753570  38.2813880  34.9645330
  13.8247160  37.9819630  35.2854400  14.5155360  38.5255890  34.0529150
  11.7703280  39.7815630  37.0644120  12.0956690  38.9479380  36.7246350
  12.5583610  40.3044150  37.2122450   8.5038070  33.8147110  23.1119180
   7.8792250  33.8106980  23.8372490   8.4168190  32.9478070  22.7155150
   7.4255150  34.7383740  30.0902950   7.7227480  35.6446570  30.0094970
   7.9740710  34.2502520  29.4762520   5.1793470  39.3169980  25.9594600
   4.9534390  39.1007150  26.8641220   4.3986000  39.7498440  25.6140570
  12.4091230  39.3233350  24.5585250  11.8100120  40.0469150  24.3748870
  12.9570840  39.2610130  23.7761700   7.6192680  40.2155560  36.6254870
   7.5236280  39.2750290  36.4755270   8.4624660  40.4370630  36.2302940
  11.0156100  37.9596890  26.5888530  11.4085670  38.2769090  25.7757220
  11.3772950  37.0808770  26.7033050   2.7503220  36.6269230  34.7788650
   2.3566610  37.4744440  34.9861430   2.0621620  35.9895600  34.9697290
   9.3248270  36.7104200  37.8485390   8.6346590  36.5176400  38.4831480
  10.0680570  36.9938840  38.3809690  11.6011240  40.5502640  30.6839310
  10.8692360  41.0589450  31.0329410  11.2035580  39.7332620  30.3828090
   8.0388630  37.2256840  29.0891800   8.0424690  36.7846790  28.2396340
   8.9339750  37.5474170  29.1963620   3.8891010  37.1083330  28.0486010
   3.5491060  37.5858560  28.8053060   3.1268330  36.6548450  27.6887110
   8.1008780  38.2268920  22.0798560   8.2221600  38.1855400  23.0284380
   7.7157290  39.0893070  21.9245290  12.0637150  36.0036320  30.0962250
  12.0809890  36.4544970  30.9404100  11.8152730  35.1041960  30.3095690
   7.1130280  40.5370060  21.4781860   6.5447180  40.0888310  20.8517770
   7.8219280  40.8962840  20.9447010  15.4907900  33.4168500  35.9348630
  15.8153670  32.6858160  36.4606610  15.5264410  33.0982140  35.0329620
   2.1899460  44.4382080  35.3548590   1.8054250  43.7975750  35.9531550
   2.5011650  45.1418200  35.9243320   8.3396600  41.2858620  30.8357210
   8.7066730  40.8117190  31.5818550   8.1501660  42.1600190  31.1765550
   6.1295970  40.3267260  33.1541420   5.8253040  41.2059240  33.3791780
   7.0842430  40.3867050  33.1898860   4.6577760  44.5328250  23.7508270
   3.8840020  43.9925870  23.5906990   5.3872390  44.0134860  23.4126030
  15.4165740  43.5293610  29.5434660  16.1364860  44.0248900  29.1530770
  15.2147560  42.8511500  28.8988530  10.8775680  34.9231570  23.6864050
  10.0640290  34.4244740  23.6109360  10.6837630  35.7629820  23.2700400
  10.7984540  43.6002670  35.4303660  10.7321850  42.6798340  35.1761250
  10.1689680  43.6978110  36.1448300  13.5924070  39.2951220  21.9826210
  14.4803690  39.6068450  21.8077550  13.5629160  38.4223470  21.5906790
   4.7015160  44.2008630  27.3887080   5.2193830  43.3976890  27.3343970
   4.2499180  44.1387770  28.2303910   9.5884660  45.4674910  22.6614380
   9.9300360  46.2117140  22.1657700   8.7597370  45.7806030  23.0239210
   2.1859700  41.1670000  34.3012780   1.8274640  41.8323850  34.8886120
   1.8914260  40.3353550  34.6725400   5.3872820  41.6254240  37.1852330
   5.0872960  41.7711420  36.2880150   6.1584060  41.0659530  37.0925720
  10.7301270  46.4223240  35.1807460  10.7445810  45.4904200  34.9626370
  10.0226370  46.5083000  35.8197230  15.8638340  40.6063060  21.4506070
  15.7802060  41.0377280  20.6002510  16.5832530  41.0661410  21.8832890
  16.9412480  43.0630580  34.5276040  16.2160670  43.6559360  34.3305430
  17.4687940  43.0554120  33.7289410  16.8925590  47.4605320  24.1788200
  16.2501750  46.8060940  24.4531920  16.5056250  47.8660410  23.4028870
  12.4712070  44.7890750  28.0259890  12.8235890  44.1918880  27.3661260
  11.5874400  44.4634980  28.1968140   8.5575350  45.5488440  25.4330300
   9.2446480  46.0957650  25.8137890   7.7707770  46.0929170  25.4679910
   7.8602560  42.5534470  25.0455660   8.3165340  43.3639720  25.2715850
   7.5090770  42.2357610  25.8774150  10.1635170  48.0640810  32.2747960
  10.8077390  48.2700190  32.9521380  10.5264610  47.3029210  31.8218810
   3.7614340  32.8972120  25.5178180   3.6328970  32.8890020  26.4663100
   2.9376360  33.2355210  25.1669190  11.4367250  46.0673160  30.9925410
  12.0789480  45.3666320  31.1057580  11.9616600  46.8471600  30.8122300
  15.2822970  46.3521780  20.7164550  15.0560550  45.6352220  21.3089190
  14.8919170  46.1034220  19.8786300  13.2104870  46.8668060  34.1961470
  13.5461110  47.4534750  34.8739390  12.2905210  46.7360770  34.4259260
  14.8639220  44.2693720  22.3778710  14.5760920  44.7306410  23.1656590
  15.6591390  43.8091490  22.6462930   9.0393450  46.9159390  37.3649530
   8.7190320  46.1968630  37.9095220   8.3651810  47.5914460  37.4385590
   7.0807620  47.7619840  22.3082680   7.0717720  48.4949530  21.6927190
   6.1605980  47.5151420  22.4009640   2.6814260  42.9834730  23.0529440
   2.0742210  43.7233630  23.0624740   3.1563610  43.0734090  22.2267640
  12.2547050  37.1485550  32.7286330  12.6227870  36.3280760  33.0565900
  11.3945250  37.2087440  33.1441980  15.6209080  36.1042490  23.5373890
  14.9922240  36.2088160  22.8232120  15.1261000  36.3239270  24.3267770
  10.0667220  47.8248080  20.9707870  10.1679200  47.6212070  20.0409850
   9.1668960  47.5706360  21.1755650   7.5893110  38.3828440  24.9531770
   6.8809260  38.8514780  25.3945380   7.8737590  37.7250450  25.5876960
   9.2149040  39.8025140  32.9524300   9.7134290  40.2770960  33.6176150
   9.3571990  38.8788660  33.1594330  11.6208540  35.1079100  26.3927560
  11.4976320  35.1265230  25.4437070  12.5693100  35.1558040  26.5125960
   8.7085330  50.3434400  25.6655540   8.9626830  50.3055790  24.7434910
   7.7597810  50.2167730  25.6583790   5.7928130  36.6913520  22.3282480
   6.6418660  37.1283670  22.2622670   5.4259400  37.0033780  23.1554540
  16.4215900  36.0193100  33.7952690  15.9189500  36.7598500  34.1346500
  17.2372560  36.4077100  33.4789480  14.7137910  41.2626280  27.2414050
  13.7728050  41.2776510  27.4161740  15.0281980  40.4762240  27.6874350
   4.6919550  42.9445880  20.8018010   5.4582820  42.8327240  21.3643440
   4.7694240  42.2483850  20.1494780   3.3866310  40.3770950  21.4850900
   3.4669900  39.4298460  21.5968300   4.2786060  40.7077830  21.5911560
  16.7163490  48.4335130  28.9168310  16.8410910  49.2566300  29.3892120
  17.5829050  48.2225860  28.5692460   4.1881020  50.5266340  28.5885440
   4.9243500  49.9781800  28.8594010   4.5721940  51.3922350  28.4491430
   3.1939300  49.7112410  37.7771020   3.9952030  50.0324460  38.1906420
   2.6791120  49.3507990  38.4990930   7.2983330  49.6996650  20.4111010
   8.0911940  49.9885480  19.9592800   6.7787680  49.2688820  19.7323490
  12.0303930  45.8192280  37.7246430  11.4242090  45.8423880  36.9842180
  11.7258040  45.0875320  38.2613680  13.4604300  49.5472570  36.3355840
  14.4126050  49.4630590  36.2856080  13.3132520  50.2114280  37.0089630
  16.3513500  48.9266780  21.8347750  16.0655010  48.5131920  21.0201930
  16.1533050  49.8554490  21.7148270   7.8160730  44.9200060  20.2753360
   7.7111370  44.3052410  21.0014740   7.6484950  44.3965950  19.4916370
   7.9675050  43.6056860  36.2542590   7.2020720  44.1741860  36.1697260
   8.1491010  43.3133070  35.3610820  11.0563460  43.9820090  20.8795350
  10.5073560  44.4289390  21.5238090  11.6782720  43.4769340  21.4033020
  15.1098400  45.3362190  36.8117610  15.8507870  45.6737950  36.3085070
  14.3471080  45.5054250  36.2587380   2.9460190  40.3415460  37.6157140
   2.9865530  40.0429330  38.5242370   3.8005690  40.7423070  37.4564660
   6.7238580  42.9411010  22.7760650   7.1455000  42.7750880  23.6192040
   6.8489420  42.1311240  22.2815790   4.8866000  38.9207560  35.5831630
   4.3562460  38.4298510  34.9554970   5.5554070  39.3491760  35.0489560
   9.2366220  41.9648620  20.0237750   9.7571880  41.2497640  19.6578900
   9.8834620  42.6034490  20.3238260  13.7844060  43.3877020  35.3472820
  14.1985080  43.5422100  36.1963240  12.8495060  43.5132240  35.5098600
  14.2566230  40.7273180  37.3511970  14.8387000  39.9725500  37.2632450
  14.4328000  41.2580620  36.5743450   5.3738300  35.8869930  35.6628920
   5.2795170  35.2690680  34.9379790   4.7935690  36.6136220  35.4358830
   8.1399740  34.4443170  32.6956310   7.6917040  34.4667430  31.8501860
   7.5064940  34.0462190  33.2926610   8.5459290  43.3397500  33.3168750
   8.9647400  44.1830230  33.1444990   7.6267920  43.4769540  33.0875530
  10.8823190  41.0713680  34.7006590  11.0019400  40.4754820  35.4401430
  11.7417190  41.1083370  34.2807890  13.2211090  41.6250870  33.2769100
  12.6946310  42.1493490  32.6734240  13.5642430  42.2578260  33.9078830
   5.6197480  39.0144240  19.7218810   5.4186540  38.1511600  20.0832150
   5.4489530  38.9277600  18.7840410   6.3966710  49.6450510  34.4326480
   5.8587800  50.3696570  34.1135180   6.6500670  49.1680850  33.6423820
   7.6491960  37.6135030  35.9582410   8.2391650  37.3050880  36.6460230
   6.8312200  37.1414780  36.1142310  12.4685390  37.2300840  36.1915430
  11.7800910  36.5682380  36.1265420  13.1891410  36.7839110  36.6363890
  13.0985790  33.8252470  22.2505690  13.3788080  32.9820370  22.6065110
  12.3251520  34.0575580  22.7644440   4.4180280  36.1144860  19.7096690
   4.7206180  36.1212290  18.8015840   5.1574870  35.7642720  20.2064350
   9.2528920  50.8801720  34.6913130   9.1787620  51.7836860  34.9985500
   8.3507760  50.5613620  34.6635200   7.6365210  35.0579480  20.6952890
   7.2887210  34.3803470  20.1155340   7.8377980  34.5968990  21.5096280
   9.8014250  50.0460230  22.3139490  10.6965040  50.3845200  22.3358250
   9.8331880  49.3239640  21.6863770   3.4410410  45.4187280  20.5426490
   3.8785280  45.9616950  21.1984070   3.9258140  44.5934230  20.5522830
   5.2518130  46.5385320  25.6548720   4.9513670  46.4150290  26.5552630
   5.1455620  45.6793910  25.2464450  16.7808600  48.5763900  35.0205690
  16.1810590  48.6356460  34.2769610  16.9102500  47.6368880  35.1502540
  18.0210050  46.3181720  20.3575400  17.1903010  46.3858370  20.8282630
  18.1981880  47.2085840  20.0542260  17.4766510  43.0629200  22.8609600
  18.2385420  43.6325850  22.9669290  17.4920880  42.4956400  23.6317910
  18.4826480  43.9179300  27.7051530  18.8535310  43.1346620  27.2987500
  19.1228410  44.6068400  27.5268830  15.4660240  45.3015880  33.1181850
  14.6520080  45.7313040  33.3807640  15.8734440  45.9134290  32.5050900
  17.5285680  43.3563570  20.0182120  17.8034520  44.2642450  19.8901340
  17.3396420  43.2926100  20.9544110  13.9261290  36.3808420  21.3135750
  14.3446170  36.1939400  20.4732410  13.6197350  35.5287470  21.6238680
  17.4251020  41.2932560  25.0111550  17.0494620  40.5260490  24.5792840
  16.6954140  41.6755260  25.4986480   2.0146780  41.9719700  31.6320600
   2.3819820  41.8847100  32.5116620   1.4457600  41.2086250  31.5327460
  16.8150640  40.4404080  34.6451070  16.5836730  40.2116830  33.7449020
  17.0755190  41.3603630  34.5995960  15.2538710  35.6660510  37.4230770
  16.1308890  35.6743910  37.8064770  15.2659550  34.9291350  36.8123120
  16.7001980  39.5190050  28.3118790  17.2239460  39.0252700  27.6808960
  17.2861400  39.6540410  29.0566360  16.8791700  39.6029920  31.8338340
  15.9294410  39.5693460  31.9483330  17.0604710  40.5130030  31.5988110
   2.7336140  37.8531600  20.9436970   3.4427840  37.4314820  20.4584250
   2.0176080  37.9206830  20.3120320   2.3810300  33.9070930  19.9839620
   3.1038430  34.4479870  20.3020840   2.6534820  33.6334350  19.1081160
  16.1901950  38.7763400  24.2511200  16.6861070  38.5434270  25.0360080
  15.9918020  37.9375240  23.8348840   2.0702490  33.1577120  29.8862240
   2.7178680  32.6074500  29.4457400   2.4904330  33.4120270  30.7078050
  17.6189110  37.4124350  26.7848880  17.5088390  37.2580390  27.7231150
  18.3796700  36.8845290  26.5424290  15.9654830  33.3518480  33.2431880
  16.6027050  33.9652620  33.6091070  16.1129720  33.3879140  32.2981110
  18.5079380  35.2432270  20.0255020  19.4328690  35.1113450  19.8173310
  18.4855170  35.3225090  20.9791470  18.5817870  36.0142930  22.6511730
  17.7869370  35.9488050  23.1804640  18.7861150  36.9493570  22.6397080
  15.5236290  50.0534480  26.6450120  16.1195360  49.7319050  25.9684540
  15.7814440  49.5806300  27.4363390   1.8234490  33.3132790  32.6287560
   1.4749310  33.7696610  33.3945740   1.4922190  32.4189920  32.7109990
   3.4298860  46.4852390  36.7940750   3.3868490  46.1145300  37.6755210
   3.5609870  47.4229960  36.9342570   7.1304890  48.0411980  32.3950470
   6.8896250  48.3086540  31.5080990   8.0707530  48.2117710  32.4501330
   9.3359310  34.5044670  36.1506980   9.2748200  35.0966500  36.9002390
  10.2759690  34.3970630  36.0057240  11.9733870  34.1614730  35.7899270
  12.5874280  34.4794020  35.1280350  12.5183430  33.6763320  36.4095130
  18.3909050  50.0606360  33.1961110  17.8967330  50.4575230  32.4788240
  17.7822340  49.4355570  33.5898390   2.4955130  32.8408990  35.9038330
   3.0438120  32.6597040  35.1404440   2.5610440  32.0503100  36.4394640
   3.2686890  49.4314640  33.9138530   2.6747210  49.2999340  34.6528570
   3.2610730  48.5952780  33.4480630  12.7141910  32.7246870  32.1168560
  11.8401750  33.0581980  31.9141490  12.6052660  32.2520050  32.9420430
  13.6213890  34.9317740  33.5010280  13.2927250  34.1169500  33.1212010
  14.5696190  34.8887550  33.3775970  16.0748500  50.7029780  30.4747850
  15.6151470  51.4545590  30.1005870  15.4460960  49.9836250  30.4162650
   2.8999120  46.7973020  32.8646570   2.1733180  46.1778310  32.7972520
   2.9608270  47.1913630  31.9944650   6.5044220  49.0118020  29.6495980
   7.0209240  48.4005380  29.1244240   7.1541600  49.5146800  30.1406990
   9.2439720  49.9026510  30.4764960   9.5317530  49.6480810  29.5997970
   9.7562940  49.3503870  31.0670530  10.4616730  33.6416710  31.0561470
   9.6788520  34.1162210  31.3358230  10.1679660  32.7371540  30.9474650
  15.0137800  34.3439810  29.1010560  15.4545890  34.2884910  28.2532160
  14.7445390  35.2597820  29.1720740  16.8776370  33.9755050  27.1119380
  16.8164770  33.0316270  26.9650400  17.6568400  34.0835140  27.6572840
   1.8057140  33.9464190  23.5775190   2.5636500  34.0593070  23.0039220
   1.3434310  34.7833390  23.5318620   8.3470950  36.0603460  26.5677500
   7.5345460  35.6860350  26.2273380   8.8512590  35.3048540  26.8698690
  12.8495930  32.7245910  27.8060570  13.4525300  33.2966120  28.2809090
  12.1088920  33.2885350  27.5834470  15.9930530  33.1267470  23.0800850
  16.1881160  34.0250920  23.3468280  15.2060400  32.8954550  23.5733800
   2.7891820  48.8080640  23.5193470   2.2639440  49.1888670  22.8155430
   2.7136400  49.4331410  24.2403180   4.1782290  34.4728240  22.1177160
   4.7075050  33.6858040  21.9885110   4.8110610  35.1519430  22.3512690
   6.3720130  34.2103380  25.1722550   5.7422870  33.5090690  25.3392680
   5.8325270  34.9707510  24.9555710   9.3112080  50.8242610  37.8433160
  10.2379390  50.5886880  37.8869120   9.2962510  51.6514610  37.3619190
  17.5457140  50.3668180  24.8407410  17.7209330  49.6805920  24.1968330
  16.8478710  50.8915230  24.4484080   6.4975690  33.4887360  37.6075040
   6.2159960  33.9920960  36.8435860   6.8795390  32.6909110  37.2417170
   5.3884790  50.7563020  22.3942720   6.1203610  50.4722300  21.8466610
   5.6478460  50.5176300  23.2842100   4.5499580  46.8727750  22.3989050
   3.9208460  47.3412850  22.9474880   4.6647410  46.0276970  22.8335240
  13.0991150  32.9040940  38.1855510  12.9856600  33.2235550  39.0807030
  13.9160890  33.3053450  37.8892790  15.8789640  50.0512470  37.6674200
  16.6714960  49.5561700  37.4600160  16.1722790  50.7302610  38.2749810
  12.0049300  40.9233410   8.5490250  11.9243350  40.0088020   8.2781960
  11.5913720  41.4200480   7.8429960  10.1367340  42.7012430  10.4299520
   9.3609440  42.2212870  10.7198090  10.7880270  42.0218080  10.2555680
   4.1533170  43.0132240  11.3075280   3.3218050  42.7580950  11.7071790
   4.7614150  43.0843010  12.0433200  14.1574770  47.1072620   9.2098650
  13.6956300  46.3359860   9.5385820  14.9700320  47.1338690   9.7151100
   4.1334430  47.0472330  11.5033300   4.4362470  46.1570070  11.3243520
   4.8778020  47.6042550  11.2755550   2.5625120  37.9734130   5.0917670
   1.6741820  38.3150100   4.9897550   2.8466310  37.7734450   4.1998500
  10.3838080  49.3930630   8.8302640   9.7649520  49.8488130   8.2597080
  11.2389860  49.5482090   8.4292340   9.5776330  45.3769620  10.4369680
   9.5084610  44.4359560  10.2758810  10.3396190  45.4671030  11.0092250
   1.7683000  35.9824140  12.7626300   1.5885840  35.0849890  13.0429060
   1.3663080  36.5296010  13.4373250  10.6081500  38.1840000  10.6638610
  10.9846320  37.3111880  10.5512280  10.5101010  38.5198700   9.7729050
   4.7386510  36.5565630   6.1256050   4.8453260  37.4569360   6.4324810
   3.8278870  36.5083600   5.8350700  14.3905620  35.6790440   7.5966950
  15.2115240  35.1887010   7.6392430  14.4239700  36.2688100   8.3498790
   2.3869670  38.4784640  11.3708640   3.0679780  38.7423010  11.9896040
   2.0717720  37.6385510  11.7046650   6.5794240  39.5252000  10.4581230
   7.0872460  40.0232970  11.0986250   7.1107480  38.7487200  10.2820590
  18.6805170  37.6957190  14.1610580  17.9757340  38.0838900  13.6425690
  18.9463090  38.3907480  14.7631510   4.8630340  34.1650560  14.7244650
   4.8648780  34.6822950  13.9190550   4.0334650  33.6880740  14.7014580
  11.2501430  44.2769870   6.2234550  10.6318700  44.7419320   5.6597270
  11.7624680  44.9697350   6.6404060   6.1133190  43.8045740  12.9018150
   5.7802570  44.4314660  13.5439220   6.2899870  44.3307620  12.1219820
  14.6267100  37.6190820  10.3694490  13.9222670  37.9075710  10.9497600
  14.9879260  38.4290930  10.0094050   4.5445670  35.8760520  12.7315100
   4.8862480  36.7202570  12.4368970   3.6061480  36.0244260  12.8480440
   5.3252290  45.7726540  14.7167330   5.9426290  46.4477620  14.4351780
   4.4645410  46.1814520  14.6254830  16.2429880  47.2365950  12.6321970
  15.5593400  47.9065060  12.6238640  16.7824170  47.4346600  11.8666830
  17.6954020  37.0645610  10.7603700  16.7478930  37.0984590  10.8919130
  18.0204010  37.8784560  11.1453060   8.2273560  33.3642790   9.0559690
   8.5348540  32.8089680   8.3395190   7.2974260  33.4987250   8.8732680
  13.7788620  49.0810080  11.3467150  13.7915780  48.6772370  10.4789410
  13.2263840  49.8557370  11.2428580  15.0734040  45.8026300   6.4357320
  14.9630370  44.8600630   6.5606740  15.0702290  46.1641940   7.3220080
  13.1774060  43.9839920  12.6749760  13.5942850  43.7700030  11.8403220
  13.9013880  44.2412710  13.2458380  10.6154320  41.4291620   5.7919810
   9.6883600  41.3629000   6.0208280  10.7679140  42.3671750   5.6775050
  10.6023400  37.7008620   2.7886970   9.6627070  37.8622580   2.8739430
  10.9206660  38.4194300   2.2422960  17.1236160  42.3827140  12.7666000
  16.2954790  42.4520230  12.2916130  17.7186640  42.9681450  12.2981830
  14.6451610  42.9911920   6.2955060  14.0264030  42.6531470   5.6481360
  14.6276060  42.3471680   7.0034250  14.0878170  39.1696460  13.7120870
  13.6749350  39.9950170  13.9660860  13.3554120  38.5841500  13.5197230
   6.2210960  41.9556360   8.5739540   5.8167960  41.2433610   8.0785440
   6.3074080  41.6109600   9.4627580   6.6892660  45.6423920  10.7378750
   6.3920950  45.0369390  10.0586530   7.6392480  45.6801230  10.6268110
   4.9339580  38.7299570  12.3538580   5.4854170  38.8394910  11.5791830
   5.4483090  39.1037170  13.0693810  14.7778270  49.2155790  14.4001850
  14.3008830  50.0227980  14.2074460  14.0940060  48.5634120  14.5528060
   5.7811090  45.3805610  17.3886550   4.8839620  45.6045580  17.6359950
   5.8063960  45.5040550  16.4397950  12.8216310  42.2298730   3.3027810
  13.2609590  41.3921160   3.1565630  13.5344730  42.8628130   3.3891950
   4.6082310  42.2518930  15.9643920   4.4690080  43.1241730  16.3331320
   3.7263670  41.9091740  15.8191860  10.9311690  47.1694800   7.2709050
  11.3707600  47.9119130   6.8564440  10.8698580  47.4121370   8.1948010
   6.4062660  48.1940630  18.1729070   6.3778090  48.5983580  17.3057500
   6.2427630  47.2650990  18.0100670   2.9215590  40.8501340   6.0746190
   2.8013190  41.5763430   5.4627460   2.6116480  40.0804250   5.5974100
  18.3577480  48.9767730  19.4693240  18.8337200  49.4550620  20.1482320
  18.9784640  48.9085220  18.7438740   1.8048590  45.7216670   8.2921010
   1.3976670  45.8631260   7.4374610   2.6961600  45.4376830   8.0892220
  17.7610730  46.1680580  16.6293250  17.8873790  45.9292460  15.7110430
  17.8032110  45.3365120  17.1015330  11.6227470  49.8708580  15.1988060
  12.1372140  49.7816590  16.0010490  10.7796550  50.2168280  15.4915970
  13.5981870  50.1563920   4.6272060  13.4383010  49.8666860   5.5253890
  13.4328580  49.3804050   4.0917290   6.0770250  49.9362450   6.4043680
   5.9012730  49.0197990   6.1911480   5.2225990  50.2949740   6.6441480
  13.3008000  47.6651480   3.1870060  12.6073160  47.6628770   2.5272340
  14.0430860  47.2410800   2.7564230  12.8657930  49.2914190   7.2618550
  13.3214880  48.5103570   7.5757170  13.2050450  50.0021010   7.8059730
  17.6134740  38.2213040  17.5942990  16.9979010  38.7292710  17.0658450
  17.2931160  37.3211370  17.5368930   5.3879250  34.1936410   9.4569860
   4.9447400  34.9745950   9.1254380   5.9464240  34.5166300  10.1640800
   9.6749060  37.0604930  15.0605180   9.2128430  37.2687950  15.8725120
   9.2727170  36.2464280  14.7575850  14.6753570  38.2813880  16.1901840
  13.8247160  37.9819630  16.5110910  14.5155360  38.5255890  15.2785660
  11.7703280  39.7815630  18.2900630  12.0956690  38.9479380  17.9502860
  12.5583610  40.3044150  18.4378960   8.5038070  33.8147110   4.3375690
   7.8792250  33.8106980   5.0629000   8.4168190  32.9478070   3.9411660
   7.4255150  34.7383740  11.3159460   7.7227480  35.6446570  11.2351480
   7.9740710  34.2502520  10.7019030   5.1793470  39.3169980   7.1851110
   4.9534390  39.1007150   8.0897730   4.3986000  39.7498440   6.8397080
  12.4091230  39.3233350   5.7841760  11.8100120  40.0469150   5.6005380
  12.9570840  39.2610130   5.0018210   7.6192680  40.2155560  17.8511380
   7.5236280  39.2750290  17.7011780   8.4624660  40.4370630  17.4559450
  11.0156100  37.9596890   7.8145040  11.4085670  38.2769090   7.0013730
  11.3772950  37.0808770   7.9289560   2.7503220  36.6269230  16.0045160
   2.3566610  37.4744440  16.2117940   2.0621620  35.9895600  16.1953800
   9.3248270  36.7104200  19.0741900   8.6346590  36.5176400  19.7087990
  10.0680570  36.9938840  19.6066200  11.6011240  40.5502640  11.9095820
  10.8692360  41.0589450  12.2585920  11.2035580  39.7332620  11.6084600
   8.0388630  37.2256840  10.3148310   8.0424690  36.7846790   9.4652850
   8.9339750  37.5474170  10.4220130   3.8891010  37.1083330   9.2742520
   3.5491060  37.5858560  10.0309570   3.1268330  36.6548450   8.9143620
   8.1008780  38.2268920   3.3055070   8.2221600  38.1855400   4.2540890
   7.7157290  39.0893070   3.1501800  12.0637150  36.0036320  11.3218760
  12.0809890  36.4544970  12.1660610  11.8152730  35.1041960  11.5352200
   7.1130280  40.5370060   2.7038370   6.5447180  40.0888310   2.0774280
   7.8219280  40.8962840   2.1703520  15.4907900  33.4168500  17.1605140
  15.8153670  32.6858160  17.6863120  15.5264410  33.0982140  16.2586130
   2.1899460  44.4382080  16.5805100   1.8054250  43.7975750  17.1788060
   2.5011650  45.1418200  17.1499830   8.3396600  41.2858620  12.0613720
   8.7066730  40.8117190  12.8075060   8.1501660  42.1600190  12.4022060
   6.1295970  40.3267260  14.3797930   5.8253040  41.2059240  14.6048290
   7.0842430  40.3867050  14.4155370   4.6577760  44.5328250   4.9764780
   3.8840020  43.9925870   4.8163500   5.3872390  44.0134860   4.6382540
  15.4165740  43.5293610  10.7691170  16.1364860  44.0248900  10.3787280
  15.2147560  42.8511500  10.1245040  10.8775680  34.9231570   4.9120560
  10.0640290  34.4244740   4.8365870  10.6837630  35.7629820   4.4956910
  10.7984540  43.6002670  16.6560170  10.7321850  42.6798340  16.4017760
  10.1689680  43.6978110  17.3704810  13.5924070  39.2951220   3.2082720
  14.4803690  39.6068450   3.0334060  13.5629160  38.4223470   2.8163300
   4.7015160  44.2008630   8.6143590   5.2193830  43.3976890   8.5600480
   4.2499180  44.1387770   9.4560420   9.5884660  45.4674910   3.8870890
   9.9300360  46.2117140   3.3914210   8.7597370  45.7806030   4.2495720
   2.1859700  41.1670000  15.5269290   1.8274640  41.8323850  16.1142630
   1.8914260  40.3353550  15.8981910   5.3872820  41.6254240  18.4108840
   5.0872960  41.7711420  17.5136660   6.1584060  41.0659530  18.3182230
  10.7301270  46.4223240  16.4063970  10.7445810  45.4904200  16.1882880
  10.0226370  46.5083000  17.0453740  15.8638340  40.6063060   2.6762580
  15.7802060  41.0377280   1.8259020  16.5832530  41.0661410   3.1089400
  16.9412480  43.0630580  15.7532550  16.2160670  43.6559360  15.5561940
  17.4687940  43.0554120  14.9545920  16.8925590  47.4605320   5.4044710
  16.2501750  46.8060940   5.6788430  16.5056250  47.8660410   4.6285380
  12.4712070  44.7890750   9.2516400  12.8235890  44.1918880   8.5917770
  11.5874400  44.4634980   9.4224650   8.5575350  45.5488440   6.6586810
   9.2446480  46.0957650   7.0394400   7.7707770  46.0929170   6.6936420
   7.8602560  42.5534470   6.2712170   8.3165340  43.3639720   6.4972360
   7.5090770  42.2357610   7.1030660  10.1635170  48.0640810  13.5004470
  10.8077390  48.2700190  14.1777890  10.5264610  47.3029210  13.0475320
   3.7614340  32.8972120   6.7434690   3.6328970  32.8890020   7.6919610
   2.9376360  33.2355210   6.3925700  11.4367250  46.0673160  12.2181920
  12.0789480  45.3666320  12.3314090  11.9616600  46.8471600  12.0378810
  13.2104870  46.8668060  15.4217980  13.5461110  47.4534750  16.0995900
  12.2905210  46.7360770  15.6515770  14.8639220  44.2693720   3.6035220
  14.5760920  44.7306410   4.3913100  15.6591390  43.8091490   3.8719440
   9.0393450  46.9159390  18.5906040   8.7190320  46.1968630  19.1351730
   8.3651810  47.5914460  18.6642100   7.0807620  47.7619840   3.5339190
   7.0717720  48.4949530   2.9183700   6.1605980  47.5151420   3.6266150
   2.6814260  42.9834730   4.2785950   2.0742210  43.7233630   4.2881250
   3.1563610  43.0734090   3.4524150  12.2547050  37.1485550  13.9542840
  12.6227870  36.3280760  14.2822410  11.3945250  37.2087440  14.3698490
  15.6209080  36.1042490   4.7630400  14.9922240  36.2088160   4.0488630
  15.1261000  36.3239270   5.5524280   7.5893110  38.3828440   6.1788280
   6.8809260  38.8514780   6.6201890   7.8737590  37.7250450   6.8133470
   9.2149040  39.8025140  14.1780810   9.7134290  40.2770960  14.8432660
   9.3571990  38.8788660  14.3850840  11.6208540  35.1079100   7.6184070
  11.4976320  35.1265230   6.6693580  12.5693100  35.1558040   7.7382470
   8.7085330  50.3434400   6.8912050   8.9626830  50.3055790   5.9691420
   7.7597810  50.2167730   6.8840300   5.7928130  36.6913520   3.5538990
   6.6418660  37.1283670   3.4879180   5.4259400  37.0033780   4.3811050
  16.4215900  36.0193100  15.0209200  15.9189500  36.7598500  15.3603010
  17.2372560  36.4077100  14.7045990  14.7137910  41.2626280   8.4670560
  13.7728050  41.2776510   8.6418250  15.0281980  40.4762240   8.9130860
   3.3866310  40.3770950   2.7107410   3.4669900  39.4298460   2.8224810
   4.2786060  40.7077830   2.8168070  16.7163490  48.4335130  10.1424820
  16.8410910  49.2566300  10.6148630  17.5829050  48.2225860   9.7948970
   4.1881020  50.5266340   9.8141950   4.9243500  49.9781800  10.0850520
   4.5721940  51.3922350   9.6747940   3.1939300  49.7112410  19.0027530
   3.9952030  50.0324460  19.4162930   2.6791120  49.3507990  19.7247440
  12.0303930  45.8192280  18.9502940  11.4242090  45.8423880  18.2098690
  11.7258040  45.0875320  19.4870190  13.4604300  49.5472570  17.5612350
  14.4126050  49.4630590  17.5112590  13.3132520  50.2114280  18.2346140
  16.3513500  48.9266780   3.0604260  16.0655010  48.5131920   2.2458440
  16.1533050  49.8554490   2.9404780   7.9675050  43.6056860  17.4799100
   7.2020720  44.1741860  17.3953770   8.1491010  43.3133070  16.5867330
  11.0563460  43.9820090   2.1051860  10.5073560  44.4289390   2.7494600
  11.6782720  43.4769340   2.6289530  15.1098400  45.3362190  18.0374120
  15.8507870  45.6737950  17.5341580  14.3471080  45.5054250  17.4843890
   2.9460190  40.3415460  18.8413650   2.9865530  40.0429330  19.7498880
   3.8005690  40.7423070  18.6821170   6.7238580  42.9411010   4.0017160
   7.1455000  42.7750880   4.8448550   6.8489420  42.1311240   3.5072300
   4.8866000  38.9207560  16.8088140   4.3562460  38.4298510  16.1811480
   5.5554070  39.3491760  16.2746070  13.7844060  43.3877020  16.5729330
  14.1985080  43.5422100  17.4219750  12.8495060  43.5132240  16.7355110
  14.2566230  40.7273180  18.5768480  14.8387000  39.9725500  18.4888960
  14.4328000  41.2580620  17.7999960   5.3738300  35.8869930  16.8885430
   5.2795170  35.2690680  16.1636300   4.7935690  36.6136220  16.6615340
   8.1399740  34.4443170  13.9212820   7.6917040  34.4667430  13.0758370
   7.5064940  34.0462190  14.5183120   8.5459290  43.3397500  14.5425260
   8.9647400  44.1830230  14.3701500   7.6267920  43.4769540  14.3132040
  10.8823190  41.0713680  15.9263100  11.0019400  40.4754820  16.6657940
  11.7417190  41.1083370  15.5064400  13.2211090  41.6250870  14.5025610
  12.6946310  42.1493490  13.8990750  13.5642430  42.2578260  15.1335340
   6.3966710  49.6450510  15.6582990   5.8587800  50.3696570  15.3391690
   6.6500670  49.1680850  14.8680330   7.6491960  37.6135030  17.1838920
   8.2391650  37.3050880  17.8716740   6.8312200  37.1414780  17.3398820
  12.4685390  37.2300840  17.4171940  11.7800910  36.5682380  17.3521930
  13.1891410  36.7839110  17.8620400  13.0985790  33.8252470   3.4762200
  13.3788080  32.9820370   3.8321620  12.3251520  34.0575580   3.9900950
   9.2528920  50.8801720  15.9169640   9.1787620  51.7836860  16.2242010
   8.3507760  50.5613620  15.8891710   9.8014250  50.0460230   3.5396000
  10.6965040  50.3845200   3.5614760   9.8331880  49.3239640   2.9120280
   3.4410410  45.4187280   1.7683000   3.8785280  45.9616950   2.4240580
   3.9258140  44.5934230   1.7779340   5.2518130  46.5385320   6.8805230
   4.9513670  46.4150290   7.7809140   5.1455620  45.6793910   6.4720960
  16.7808600  48.5763900  16.2462200  16.1810590  48.6356460  15.5026120
  16.9102500  47.6368880  16.3759050  17.4766510  43.0629200   4.0866110
  18.2385420  43.6325850   4.1925800  17.4920880  42.4956400   4.8574420
  18.4826480  43.9179300   8.9308040  18.8535310  43.1346620   8.5244010
  19.1228410  44.6068400   8.7525340  15.4660240  45.3015880  14.3438360
  14.6520080  45.7313040  14.6064150  15.8734440  45.9134290  13.7307410
  13.9261290  36.3808420   2.5392260  14.3446170  36.1939400   1.6988920
  13.6197350  35.5287470   2.8495190  17.4251020  41.2932560   6.2368060
  17.0494620  40.5260490   5.8049350  16.6954140  41.6755260   6.7242990
   2.0146780  41.9719700  12.8577110   2.3819820  41.8847100  13.7373130
   1.4457600  41.2086250  12.7583970  16.8150640  40.4404080  15.8707580
  16.5836730  40.2116830  14.9705530  17.0755190  41.3603630  15.8252470
  15.2538710  35.6660510  18.6487280  16.1308890  35.6743910  19.0321280
  15.2659550  34.9291350  18.0379630  16.7001980  39.5190050   9.5375300
  17.2239460  39.0252700   8.9065470  17.2861400  39.6540410  10.2822870
  16.8791700  39.6029920  13.0594850  15.9294410  39.5693460  13.1739840
  17.0604710  40.5130030  12.8244620  16.1901950  38.7763400   5.4767710
  16.6861070  38.5434270   6.2616590  15.9918020  37.9375240   5.0605350
   2.0702490  33.1577120  11.1118750   2.7178680  32.6074500  10.6713910
   2.4904330  33.4120270  11.9334560  17.6189110  37.4124350   8.0105390
  17.5088390  37.2580390   8.9487660  18.3796700  36.8845290   7.7680800
  15.9654830  33.3518480  14.4688390  16.6027050  33.9652620  14.8347580
  16.1129720  33.3879140  13.5237620  18.5817870  36.0142930   3.8768240
  17.7869370  35.9488050   4.4061150  18.7861150  36.9493570   3.8653590
  15.5236290  50.0534480   7.8706630  16.1195360  49.7319050   7.1941050
  15.7814440  49.5806300   8.6619900   1.8234490  33.3132790  13.8544070
   1.4749310  33.7696610  14.6202250   1.4922190  32.4189920  13.9366500
   3.4298860  46.4852390  18.0197260   3.3868490  46.1145300  18.9011720
   3.5609870  47.4229960  18.1599080   7.1304890  48.0411980  13.6206980
   6.8896250  48.3086540  12.7337500   8.0707530  48.2117710  13.6757840
   9.3359310  34.5044670  17.3763490   9.2748200  35.0966500  18.1258900
  10.2759690  34.3970630  17.2313750  11.9733870  34.1614730  17.0155780
  12.5874280  34.4794020  16.3536860  12.5183430  33.6763320  17.6351640
  18.3909050  50.0606360  14.4217620  17.8967330  50.4575230  13.7044750
  17.7822340  49.4355570  14.8154900   2.4955130  32.8408990  17.1294840
   3.0438120  32.6597040  16.3660950   2.5610440  32.0503100  17.6651150
   3.2686890  49.4314640  15.1395040   2.6747210  49.2999340  15.8785080
   3.2610730  48.5952780  14.6737140  12.7141910  32.7246870  13.3425070
  11.8401750  33.0581980  13.1398000  12.6052660  32.2520050  14.1676940
  13.6213890  34.9317740  14.7266790  13.2927250  34.1169500  14.3468520
  14.5696190  34.8887550  14.6032480  16.0748500  50.7029780  11.7004360
  15.6151470  51.4545590  11.3262380  15.4460960  49.9836250  11.6419160
   2.8999120  46.7973020  14.0903080   2.1733180  46.1778310  14.0229030
   2.9608270  47.1913630  13.2201160   6.5044220  49.0118020  10.8752490
   7.0209240  48.4005380  10.3500750   7.1541600  49.5146800  11.3663500
   9.2439720  49.9026510  11.7021470   9.5317530  49.6480810  10.8254480
   9.7562940  49.3503870  12.2927040  10.4616730  33.6416710  12.2817980
   9.6788520  34.1162210  12.5614740  10.1679660  32.7371540  12.1731160
  15.0137800  34.3439810  10.3267070  15.4545890  34.2884910   9.4788670
  14.7445390  35.2597820  10.3977250  16.8776370  33.9755050   8.3375890
  16.8164770  33.0316270   8.1906910  17.6568400  34.0835140   8.8829350
   1.8057140  33.9464190   4.8031700   2.5636500  34.0593070   4.2295730
   1.3434310  34.7833390   4.7575130   8.3470950  36.0603460   7.7934010
   7.5345460  35.6860350   7.4529890   8.8512590  35.3048540   8.0955200
  12.8495930  32.7245910   9.0317080  13.4525300  33.2966120   9.5065600
  12.1088920  33.2885350   8.8090980  15.9930530  33.1267470   4.3057360
  16.1881160  34.0250920   4.5724790  15.2060400  32.8954550   4.7990310
   2.7891820  48.8080640   4.7449980   2.2639440  49.1888670   4.0411940
   2.7136400  49.4331410   5.4659690   4.1782290  34.4728240   3.3433670
   4.7075050  33.6858040   3.2141620   4.8110610  35.1519430   3.5769200
   6.3720130  34.2103380   6.3979060   5.7422870  33.5090690   6.5649190
   5.8325270  34.9707510   6.1812220   9.3112080  50.8242610  19.0689670
  10.2379390  50.5886880  19.1125630   9.2962510  51.6514610  18.5875700
  17.5457140  50.3668180   6.0663920  17.7209330  49.6805920   5.4224840
  16.8478710  50.8915230   5.6740590   6.4975690  33.4887360  18.8331550
   6.2159960  33.9920960  18.0692370   6.8795390  32.6909110  18.4673680
   5.3884790  50.7563020   3.6199230   6.1203610  50.4722300   3.0723120
   5.6478460  50.5176300   4.5098610   4.5499580  46.8727750   3.6245560
   3.9208460  47.3412850   4.1731390   4.6647410  46.0276970   4.0591750
  13.0991150  32.9040940  19.4112020  12.9856600  33.2235550  20.3063540
  13.9160890  33.3053450  19.1149300  15.8789640  50.0512470  18.8930710
  16.6714960  49.5561700  18.6856670  16.1722790  50.7302610  19.5006320
  12.0049300  22.1489920  64.8720720  11.9243350  21.2344530  64.6012430
  11.5913720  22.6456990  64.1660430  10.1367340  23.9268940  66.7529990
   9.3609440  23.4469380  67.0428560  10.7880270  23.2474590  66.5786150
   4.1533170  24.2388750  67.6305750   3.3218050  23.9837460  68.0302260
   4.7614150  24.3099520  68.3663670  14.1574770  28.3329130  65.5329120
  13.6956300  27.5616370  65.8616290  14.9700320  28.3595200  66.0381570
   4.1334430  28.2728840  67.8263770   4.4362470  27.3826580  67.6473990
   4.8778020  28.8299060  67.5986020   2.5625120  19.1990640  61.4148140
   1.6741820  19.5406610  61.3128020   2.8466310  18.9990960  60.5228970
  10.3838080  30.6187140  65.1533110   9.7649520  31.0744640  64.5827550
  11.2389860  30.7738600  64.7522810   9.5776330  26.6026130  66.7600150
   9.5084610  25.6616070  66.5989280  10.3396190  26.6927540  67.3322720
   1.7683000  17.2080650  69.0856770   1.5885840  16.3106400  69.3659530
   1.3663080  17.7552520  69.7603720  10.6081500  19.4096510  66.9869080
  10.9846320  18.5368390  66.8742750  10.5101010  19.7455210  66.0959520
   4.7386510  17.7822140  62.4486520   4.8453260  18.6825870  62.7555280
   3.8278870  17.7340110  62.1581170  14.3905620  16.9046950  63.9197420
  15.2115240  16.4143520  63.9622900  14.4239700  17.4944610  64.6729260
   2.3869670  19.7041150  67.6939110   3.0679780  19.9679520  68.3126510
   2.0717720  18.8642020  68.0277120   6.5794240  20.7508510  66.7811700
   7.0872460  21.2489480  67.4216720   7.1107480  19.9743710  66.6051060
  18.6805170  18.9213700  70.4841050  17.9757340  19.3095410  69.9656160
  18.9463090  19.6163990  71.0861980   4.8630340  15.3907070  71.0475120
   4.8648780  15.9079460  70.2421020   4.0334650  14.9137250  71.0245050
  11.2501430  25.5026380  62.5465020  10.6318700  25.9675830  61.9827740
  11.7624680  26.1953860  62.9634530   6.1133190  25.0302250  69.2248620
   5.7802570  25.6571170  69.8669690   6.2899870  25.5564130  68.4450290
  14.6267100  18.8447330  66.6924960  13.9222670  19.1332220  67.2728070
  14.9879260  19.6547440  66.3324520   4.5445670  17.1017030  69.0545570
   4.8862480  17.9459080  68.7599440   3.6061480  17.2500770  69.1710910
   5.3252290  26.9983050  71.0397800   5.9426290  27.6734130  70.7582250
   4.4645410  27.4071030  70.9485300  16.2429880  28.4622460  68.9552440
  15.5593400  29.1321570  68.9469110  16.7824170  28.6603110  68.1897300
  17.6954020  18.2902120  67.0834170  16.7478930  18.3241100  67.2149600
  18.0204010  19.1041070  67.4683530   8.2273560  14.5899300  65.3790160
   8.5348540  14.0346190  64.6625660   7.2974260  14.7243760  65.1963150
  13.7788620  30.3066590  67.6697620  13.7915780  29.9028880  66.8019880
  13.2263840  31.0813880  67.5659050  15.0734040  27.0282810  62.7587790
  14.9630370  26.0857140  62.8837210  15.0702290  27.3898450  63.6450550
  13.1774060  25.2096430  68.9980230  13.5942850  24.9956540  68.1633690
  13.9013880  25.4669220  69.5688850  10.6154320  22.6548130  62.1150280
   9.6883600  22.5885510  62.3438750  10.7679140  23.5928260  62.0005520
  10.6023400  18.9265130  59.1117440   9.6627070  19.0879090  59.1969900
  10.9206660  19.6450810  58.5653430  17.1236160  23.6083650  69.0896470
  16.2954790  23.6776740  68.6146600  17.7186640  24.1937960  68.6212300
  14.6451610  24.2168430  62.6185530  14.0264030  23.8787980  61.9711830
  14.6276060  23.5728190  63.3264720  14.0878170  20.3952970  70.0351340
  13.6749350  21.2206680  70.2891330  13.3554120  19.8098010  69.8427700
   6.2210960  23.1812870  64.8970010   5.8167960  22.4690120  64.4015910
   6.3074080  22.8366110  65.7858050   6.6892660  26.8680430  67.0609220
   6.3920950  26.2625900  66.3817000   7.6392480  26.9057740  66.9498580
   4.9339580  19.9556080  68.6769050   5.4854170  20.0651420  67.9022300
   5.4483090  20.3293680  69.3924280  14.7778270  30.4412300  70.7232320
  14.3008830  31.2484490  70.5304930  14.0940060  29.7890630  70.8758530
   5.7811090  26.6062120  73.7117020   4.8839620  26.8302090  73.9590420
   5.8063960  26.7297060  72.7628420  12.8216310  23.4555240  59.6258280
  13.2609590  22.6177670  59.4796100  13.5344730  24.0884640  59.7122420
   4.6082310  23.4775440  72.2874390   4.4690080  24.3498240  72.6561790
   3.7263670  23.1348250  72.1422330  10.9311690  28.3951310  63.5939520
  11.3707600  29.1375640  63.1794910  10.8698580  28.6377880  64.5178480
   6.4062660  29.4197140  74.4959540   6.3778090  29.8240090  73.6287970
   6.2427630  28.4907500  74.3331140  16.4033450  14.7098050  57.9399320
  16.0906110  14.8024880  58.8398390  17.1645920  15.2879080  57.8896750
   2.9215590  22.0757850  62.3976660   2.8013190  22.8019940  61.7857930
   2.6116480  21.3060760  61.9204570   1.8048590  26.9473180  64.6151480
   1.3976670  27.0887770  63.7605080   2.6961600  26.6633340  64.4122690
  17.7610730  27.3937090  72.9523720  17.8873790  27.1548970  72.0340900
  17.8032110  26.5621630  73.4245800  11.6227470  31.0965090  71.5218530
  12.1372140  31.0073100  72.3240960  10.7796550  31.4424790  71.8146440
  13.5981870  31.3820430  60.9502530  13.4383010  31.0923370  61.8484360
  13.4328580  30.6060560  60.4147760   6.0770250  31.1618960  62.7274150
   5.9012730  30.2454500  62.5141950   5.2225990  31.5206250  62.9671950
  13.3008000  28.8907990  59.5100530  12.6073160  28.8885280  58.8502810
  14.0430860  28.4667310  59.0794700  12.8657930  30.5170700  63.5849020
  13.3214880  29.7360080  63.8987640  13.2050450  31.2277520  64.1290200
  17.6134740  19.4469550  73.9173460  16.9979010  19.9549220  73.3888920
  17.2931160  18.5467880  73.8599400   5.3879250  15.4192920  65.7800330
   4.9447400  16.2002460  65.4484850   5.9464240  15.7422810  66.4871270
   9.6749060  18.2861440  71.3835650   9.2128430  18.4944460  72.1955590
   9.2727170  17.4720790  71.0806320  14.6753570  19.5070390  72.5132310
  13.8247160  19.2076140  72.8341380  14.5155360  19.7512400  71.6016130
  11.7703280  21.0072140  74.6131100  12.0956690  20.1735890  74.2733330
  12.5583610  21.5300660  74.7609430   8.5038070  15.0403620  60.6606160
   7.8792250  15.0363490  61.3859470   8.4168190  14.1734580  60.2642130
   7.4255150  15.9640250  67.6389930   7.7227480  16.8703080  67.5581950
   7.9740710  15.4759030  67.0249500   5.1793470  20.5426490  63.5081580
   4.9534390  20.3263660  64.4128200   4.3986000  20.9754950  63.1627550
  12.4091230  20.5489860  62.1072230  11.8100120  21.2725660  61.9235850
  12.9570840  20.4866640  61.3248680   7.6192680  21.4412070  74.1741850
   7.5236280  20.5006800  74.0242250   8.4624660  21.6627140  73.7789920
  11.0156100  19.1853400  64.1375510  11.4085670  19.5025600  63.3244200
  11.3772950  18.3065280  64.2520030   2.7503220  17.8525740  72.3275630
   2.3566610  18.7000950  72.5348410   2.0621620  17.2152110  72.5184270
  11.6011240  21.7759150  68.2326290  10.8692360  22.2845960  68.5816390
  11.2035580  20.9589130  67.9315070   8.0388630  18.4513350  66.6378780
   8.0424690  18.0103300  65.7883320   8.9339750  18.7730680  66.7450600
   3.8891010  18.3339840  65.5972990   3.5491060  18.8115070  66.3540040
   3.1268330  17.8804960  65.2374090   8.1008780  19.4525430  59.6285540
   8.2221600  19.4111910  60.5771360   7.7157290  20.3149580  59.4732270
  12.0637150  17.2292830  67.6449230  12.0809890  17.6801480  68.4891080
  11.8152730  16.3298470  67.8582670   7.1130280  21.7626570  59.0268840
   6.5447180  21.3144820  58.4004750   7.8219280  22.1219350  58.4933990
  15.4907900  14.6425010  73.4835610  15.8153670  13.9114670  74.0093590
  15.5264410  14.3238650  72.5816600   2.1899460  25.6638590  72.9035570
   1.8054250  25.0232260  73.5018530   2.5011650  26.3674710  73.4730300
   8.3396600  22.5115130  68.3844190   8.7066730  22.0373700  69.1305530
   8.1501660  23.3856700  68.7252530   6.1295970  21.5523770  70.7028400
   5.8253040  22.4315750  70.9278760   7.0842430  21.6123560  70.7385840
   4.6577760  25.7584760  61.2995250   3.8840020  25.2182380  61.1393970
   5.3872390  25.2391370  60.9613010  15.4165740  24.7550120  67.0921640
  16.1364860  25.2505410  66.7017750  15.2147560  24.0768010  66.4475510
  10.8775680  16.1488080  61.2351030  10.0640290  15.6501250  61.1596340
  10.6837630  16.9886330  60.8187380  10.7984540  24.8259180  72.9790640
  10.7321850  23.9054850  72.7248230  10.1689680  24.9234620  73.6935280
  13.5924070  20.5207730  59.5313190  14.4803690  20.8324960  59.3564530
  13.5629160  19.6479980  59.1393770   4.7015160  25.4265140  64.9374060
   5.2193830  24.6233400  64.8830950   4.2499180  25.3644280  65.7790890
   9.5884660  26.6931420  60.2101360   9.9300360  27.4373650  59.7144680
   8.7597370  27.0062540  60.5726190   2.1859700  22.3926510  71.8499760
   1.8274640  23.0580360  72.4373100   1.8914260  21.5610060  72.2212380
   5.3872820  22.8510750  74.7339310   5.0872960  22.9967930  73.8367130
   6.1584060  22.2916040  74.6412700  10.7301270  27.6479750  72.7294440
  10.7445810  26.7160710  72.5113350  10.0226370  27.7339510  73.3684210
  15.8638340  21.8319570  58.9993050  15.7802060  22.2633790  58.1489490
  16.5832530  22.2917920  59.4319870  16.9412480  24.2887090  72.0763020
  16.2160670  24.8815870  71.8792410  17.4687940  24.2810630  71.2776390
  16.8925590  28.6861830  61.7275180  16.2501750  28.0317450  62.0018900
  16.5056250  29.0916920  60.9515850  12.4712070  26.0147260  65.5746870
  12.8235890  25.4175390  64.9148240  11.5874400  25.6891490  65.7455120
   8.5575350  26.7744950  62.9817280   9.2446480  27.3214160  63.3624870
   7.7707770  27.3185680  63.0166890   7.8602560  23.7790980  62.5942640
   8.3165340  24.5896230  62.8202830   7.5090770  23.4614120  63.4261130
  10.1635170  29.2897320  69.8234940  10.8077390  29.4956700  70.5008360
  10.5264610  28.5285720  69.3705790   3.7614340  14.1228630  63.0665160
   3.6328970  14.1146530  64.0150080   2.9376360  14.4611720  62.7156170
  11.4367250  27.2929670  68.5412390  12.0789480  26.5922830  68.6544560
  11.9616600  28.0728110  68.3609280  15.2822970  27.5778290  58.2651530
  15.0560550  26.8608730  58.8576170  14.8919170  27.3290730  57.4273280
  13.2104870  28.0924570  71.7448450  13.5461110  28.6791260  72.4226370
  12.2905210  27.9617280  71.9746240  14.8639220  25.4950230  59.9265690
  14.5760920  25.9562920  60.7143570  15.6591390  25.0348000  60.1949910
   7.0807620  28.9876350  59.8569660   7.0717720  29.7206040  59.2414170
   6.1605980  28.7407930  59.9496620   2.6814260  24.2091240  60.6016420
   2.0742210  24.9490140  60.6111720   3.1563610  24.2990600  59.7754620
  12.2547050  18.3742060  70.2773310  12.6227870  17.5537270  70.6052880
  11.3945250  18.4343950  70.6928960  15.6209080  17.3299000  61.0860870
  14.9922240  17.4344670  60.3719100  15.1261000  17.5495780  61.8754750
  10.0667220  29.0504590  58.5194850  10.1679200  28.8468580  57.5896830
   9.1668960  28.7962870  58.7242630   7.5893110  19.6084950  62.5018750
   6.8809260  20.0771290  62.9432360   7.8737590  18.9506960  63.1363940
   9.2149040  21.0281650  70.5011280   9.7134290  21.5027470  71.1663130
   9.3571990  20.1045170  70.7081310  11.6208540  16.3335610  63.9414540
  11.4976320  16.3521740  62.9924050  12.5693100  16.3814550  64.0612940
   8.7085330  31.5690910  63.2142520   8.9626830  31.5312300  62.2921890
   7.7597810  31.4424240  63.2070770   5.7928130  17.9170030  59.8769460
   6.6418660  18.3540180  59.8109650   5.4259400  18.2290290  60.7041520
  16.4215900  17.2449610  71.3439670  15.9189500  17.9855010  71.6833480
  17.2372560  17.6333610  71.0276460  14.7137910  22.4882790  64.7901030
  13.7728050  22.5033020  64.9648720  15.0281980  21.7018750  65.2361330
   4.6919550  24.1702390  58.3504990   5.4582820  24.0583750  58.9130420
   4.7694240  23.4740360  57.6981760   3.3866310  21.6027460  59.0337880
   3.4669900  20.6554970  59.1455280   4.2786060  21.9334340  59.1398540
  16.7163490  29.6591640  66.4655290  16.8410910  30.4822810  66.9379100
  17.5829050  29.4482370  66.1179440   4.1881020  31.7522850  66.1372420
   4.9243500  31.2038310  66.4080990   4.5721940  32.6178860  65.9978410
   7.2983330  30.9253160  57.9597990   8.0911940  31.2141990  57.5079780
   6.7787680  30.4945330  57.2810470  13.4604300  30.7729080  73.8842820
  14.4126050  30.6887100  73.8343060  13.3132520  31.4370790  74.5576610
  16.3513500  30.1523290  59.3834730  16.0655010  29.7388430  58.5688910
  16.1533050  31.0811000  59.2635250   7.8160730  26.1456570  57.8240340
   7.7111370  25.5308920  58.5501720   7.6484950  25.6222460  57.0403350
   7.9675050  24.8313370  73.8029570   7.2020720  25.3998370  73.7184240
   8.1491010  24.5389580  72.9097800  11.0563460  25.2076600  58.4282330
  10.5073560  25.6545900  59.0725070  11.6782720  24.7025850  58.9520000
  15.1098400  26.5618700  74.3604590  15.8507870  26.8994460  73.8572050
  14.3471080  26.7310760  73.8074360   6.7238580  24.1667520  60.3247630
   7.1455000  24.0007390  61.1679020   6.8489420  23.3567750  59.8302770
   4.8866000  20.1464070  73.1318610   4.3562460  19.6555020  72.5041950
   5.5554070  20.5748270  72.5976540   9.2366220  23.1905130  57.5724730
   9.7571880  22.4754150  57.2065880   9.8834620  23.8291000  57.8725240
  13.7844060  24.6133530  72.8959800  14.1985080  24.7678610  73.7450220
  12.8495060  24.7388750  73.0585580  14.2566230  21.9529690  74.8998950
  14.8387000  21.1982010  74.8119430  14.4328000  22.4837130  74.1230430
   5.3738300  17.1126440  73.2115900   5.2795170  16.4947190  72.4866770
   4.7935690  17.8392730  72.9845810   8.1399740  15.6699680  70.2443290
   7.6917040  15.6923940  69.3988840   7.5064940  15.2718700  70.8413590
   8.5459290  24.5654010  70.8655730   8.9647400  25.4086740  70.6931970
   7.6267920  24.7026050  70.6362510  10.8823190  22.2970190  72.2493570
  11.0019400  21.7011330  72.9888410  11.7417190  22.3339880  71.8294870
  13.2211090  22.8507380  70.8256080  12.6946310  23.3750000  70.2221220
  13.5642430  23.4834770  71.4565810   5.6197480  20.2400750  57.2705790
   5.4186540  19.3768110  57.6319130   5.4489530  20.1534110  56.3327390
   6.3966710  30.8707020  71.9813460   5.8587800  31.5953080  71.6622160
   6.6500670  30.3937360  71.1910800   7.6491960  18.8391540  73.5069390
   8.2391650  18.5307390  74.1947210   6.8312200  18.3671290  73.6629290
  12.4685390  18.4557350  73.7402410  11.7800910  17.7938890  73.6752400
  13.1891410  18.0095620  74.1850870  13.0985790  15.0508980  59.7992670
  13.3788080  14.2076880  60.1552090  12.3251520  15.2832090  60.3131420
   4.4180280  17.3401370  57.2583670   4.7206180  17.3468800  56.3502820
   5.1574870  16.9899230  57.7551330   9.2528920  32.1058230  72.2400110
   9.1787620  33.0093370  72.5472480   8.3507760  31.7870130  72.2122180
   7.6365210  16.2835990  58.2439870   7.2887210  15.6059980  57.6642320
   7.8377980  15.8225500  59.0583260   9.8014250  31.2716740  59.8626470
  10.6965040  31.6101710  59.8845230   9.8331880  30.5496150  59.2350750
   3.4410410  26.6443790  58.0913470   3.8785280  27.1873460  58.7471050
   3.9258140  25.8190740  58.1009810   5.2518130  27.7641830  63.2035700
   4.9513670  27.6406800  64.1039610   5.1455620  26.9050420  62.7951430
  16.7808600  29.8020410  72.5692670  16.1810590  29.8612970  71.8256590
  16.9102500  28.8625390  72.6989520  18.0210050  27.5438230  57.9062380
  17.1903010  27.6114880  58.3769610  18.1981880  28.4342350  57.6029240
  17.4766510  24.2885710  60.4096580  18.2385420  24.8582360  60.5156270
  17.4920880  23.7212910  61.1804890  18.4826480  25.1435810  65.2538510
  18.8535310  24.3603130  64.8474480  19.1228410  25.8324910  65.0755810
  15.4660240  26.5272390  70.6668830  14.6520080  26.9569550  70.9294620
  15.8734440  27.1390800  70.0537880  17.5285680  24.5820080  57.5669100
  17.8034520  25.4898960  57.4388320  17.3396420  24.5182610  58.5031090
  13.9261290  17.6064930  58.8622730  14.3446170  17.4195910  58.0219390
  13.6197350  16.7543980  59.1725660  17.4251020  22.5189070  62.5598530
  17.0494620  21.7517000  62.1279820  16.6954140  22.9011770  63.0473460
   2.0146780  23.1976210  69.1807580   2.3819820  23.1103610  70.0603600
   1.4457600  22.4342760  69.0814440  16.8150640  21.6660590  72.1938050
  16.5836730  21.4373340  71.2936000  17.0755190  22.5860140  72.1482940
  16.7001980  20.7446560  65.8605770  17.2239460  20.2509210  65.2295940
  17.2861400  20.8796920  66.6053340  16.8791700  20.8286430  69.3825320
  15.9294410  20.7949970  69.4970310  17.0604710  21.7386540  69.1475090
   2.7336140  19.0788110  58.4923950   3.4427840  18.6571330  58.0071230
   2.0176080  19.1463340  57.8607300   2.3810300  15.1327440  57.5326600
   3.1038430  15.6736380  57.8507820   2.6534820  14.8590860  56.6568140
  16.1901950  20.0019910  61.7998180  16.6861070  19.7690780  62.5847060
  15.9918020  19.1631750  61.3835820   2.0702490  14.3833630  67.4349220
   2.7178680  13.8331010  66.9944380   2.4904330  14.6376780  68.2565030
  17.6189110  18.6380860  64.3335860  17.5088390  18.4836900  65.2718130
  18.3796700  18.1101800  64.0911270  15.9654830  14.5774990  70.7918860
  16.6027050  15.1909130  71.1578050  16.1129720  14.6135650  69.8468090
  18.5079380  16.4688780  57.5742000  19.4328690  16.3369960  57.3660290
  18.4855170  16.5481600  58.5278450  18.5817870  17.2399440  60.1998710
  17.7869370  17.1744560  60.7291620  18.7861150  18.1750080  60.1884060
  15.5236290  31.2790990  64.1937100  16.1195360  30.9575560  63.5171520
  15.7814440  30.8062810  64.9850370   1.8234490  14.5389300  70.1774540
   1.4749310  14.9953120  70.9432720   1.4922190  13.6446430  70.2596970
   7.1304890  29.2668490  69.9437450   6.8896250  29.5343050  69.0567970
   8.0707530  29.4374220  69.9988310   9.3359310  15.7301180  73.6993960
   9.2748200  16.3223010  74.4489370  10.2759690  15.6227140  73.5544220
  11.9733870  15.3871240  73.3386250  12.5874280  15.7050530  72.6767330
  12.5183430  14.9019830  73.9582110  18.3909050  31.2862870  70.7448090
  17.8967330  31.6831740  70.0275220  17.7822340  30.6612080  71.1385370
   2.4955130  14.0665500  73.4525310   3.0438120  13.8853550  72.6891420
   2.5610440  13.2759610  73.9881620   3.2686890  30.6571150  71.4625510
   2.6747210  30.5255850  72.2015550   3.2610730  29.8209290  70.9967610
  12.7141910  13.9503380  69.6655540  11.8401750  14.2838490  69.4628470
  12.6052660  13.4776560  70.4907410  13.6213890  16.1574250  71.0497260
  13.2927250  15.3426010  70.6698990  14.5696190  16.1144060  70.9262950
  16.0748500  31.9286290  68.0234830  15.6151470  32.6802100  67.6492850
  15.4460960  31.2092760  67.9649630   2.8999120  28.0229530  70.4133550
   2.1733180  27.4034820  70.3459500   2.9608270  28.4170140  69.5431630
   6.5044220  30.2374530  67.1982960   7.0209240  29.6261890  66.6731220
   7.1541600  30.7403310  67.6893970   9.2439720  31.1283020  68.0251940
   9.5317530  30.8737320  67.1484950   9.7562940  30.5760380  68.6157510
  10.4616730  14.8673220  68.6048450   9.6788520  15.3418720  68.8845210
  10.1679660  13.9628050  68.4961630  15.0137800  15.5696320  66.6497540
  15.4545890  15.5141420  65.8019140  14.7445390  16.4854330  66.7207720
  16.8776370  15.2011560  64.6606360  16.8164770  14.2572780  64.5137380
  17.6568400  15.3091650  65.2059820   1.8057140  15.1720700  61.1262170
   2.5636500  15.2849580  60.5526200   1.3434310  16.0089900  61.0805600
   8.3470950  17.2859970  64.1164480   7.5345460  16.9116860  63.7760360
   8.8512590  16.5305050  64.4185670  12.8495930  13.9502420  65.3547550
  13.4525300  14.5222630  65.8296070  12.1088920  14.5141860  65.1321450
  15.9930530  14.3523980  60.6287830  16.1881160  15.2507430  60.8955260
  15.2060400  14.1211060  61.1220780   2.7891820  30.0337150  61.0680450
   2.2639440  30.4145180  60.3642410   2.7136400  30.6587920  61.7890160
   4.1782290  15.6984750  59.6664140   4.7075050  14.9114550  59.5372090
   4.8110610  16.3775940  59.8999670   6.3720130  15.4359890  62.7209530
   5.7422870  14.7347200  62.8879660   5.8325270  16.1964020  62.5042690
  17.5457140  31.5924690  62.3894390  17.7209330  30.9062430  61.7455310
  16.8478710  32.1171740  61.9971060   5.3884790  31.9819530  59.9429700
   6.1203610  31.6978810  59.3953590   5.6478460  31.7432810  60.8329080
   4.5499580  28.0984260  59.9476030   3.9208460  28.5669360  60.4961860
   4.6647410  27.2533480  60.3822220  12.0049300  22.1489920  46.0977230
  11.9243350  21.2344530  45.8268940  11.5913720  22.6456990  45.3916940
  10.1367340  23.9268940  47.9786500   9.3609440  23.4469380  48.2685070
  10.7880270  23.2474590  47.8042660   4.1533170  24.2388750  48.8562260
   3.3218050  23.9837460  49.2558770   4.7614150  24.3099520  49.5920180
  14.1574770  28.3329130  46.7585630  13.6956300  27.5616370  47.0872800
  14.9700320  28.3595200  47.2638080   4.1334430  28.2728840  49.0520280
   4.4362470  27.3826580  48.8730500   4.8778020  28.8299060  48.8242530
   2.5625120  19.1990640  42.6404650   1.6741820  19.5406610  42.5384530
   2.8466310  18.9990960  41.7485480  10.3838080  30.6187140  46.3789620
   9.7649520  31.0744640  45.8084060  11.2389860  30.7738600  45.9779320
   9.5776330  26.6026130  47.9856660   9.5084610  25.6616070  47.8245790
  10.3396190  26.6927540  48.5579230   1.7683000  17.2080650  50.3113280
   1.5885840  16.3106400  50.5916040   1.3663080  17.7552520  50.9860230
  10.6081500  19.4096510  48.2125590  10.9846320  18.5368390  48.0999260
  10.5101010  19.7455210  47.3216030   4.7386510  17.7822140  43.6743030
   4.8453260  18.6825870  43.9811790   3.8278870  17.7340110  43.3837680
  14.3905620  16.9046950  45.1453930  15.2115240  16.4143520  45.1879410
  14.4239700  17.4944610  45.8985770   2.3869670  19.7041150  48.9195620
   3.0679780  19.9679520  49.5383020   2.0717720  18.8642020  49.2533630
   6.5794240  20.7508510  48.0068210   7.0872460  21.2489480  48.6473230
   7.1107480  19.9743710  47.8307570  18.6805170  18.9213700  51.7097560
  17.9757340  19.3095410  51.1912670  18.9463090  19.6163990  52.3118490
   4.8630340  15.3907070  52.2731630   4.8648780  15.9079460  51.4677530
   4.0334650  14.9137250  52.2501560  11.2501430  25.5026380  43.7721530
  10.6318700  25.9675830  43.2084250  11.7624680  26.1953860  44.1891040
   6.1133190  25.0302250  50.4505130   5.7802570  25.6571170  51.0926200
   6.2899870  25.5564130  49.6706800  14.6267100  18.8447330  47.9181470
  13.9222670  19.1332220  48.4984580  14.9879260  19.6547440  47.5581030
   4.5445670  17.1017030  50.2802080   4.8862480  17.9459080  49.9855950
   3.6061480  17.2500770  50.3967420   5.3252290  26.9983050  52.2654310
   5.9426290  27.6734130  51.9838760   4.4645410  27.4071030  52.1741810
  16.2429880  28.4622460  50.1808950  15.5593400  29.1321570  50.1725620
  16.7824170  28.6603110  49.4153810  17.6954020  18.2902120  48.3090680
  16.7478930  18.3241100  48.4406110  18.0204010  19.1041070  48.6940040
   8.2273560  14.5899300  46.6046670   8.5348540  14.0346190  45.8882170
   7.2974260  14.7243760  46.4219660  13.7788620  30.3066590  48.8954130
  13.7915780  29.9028880  48.0276390  13.2263840  31.0813880  48.7915560
  15.0734040  27.0282810  43.9844300  14.9630370  26.0857140  44.1093720
  15.0702290  27.3898450  44.8707060  13.1774060  25.2096430  50.2236740
  13.5942850  24.9956540  49.3890200  13.9013880  25.4669220  50.7945360
  10.6154320  22.6548130  43.3406790   9.6883600  22.5885510  43.5695260
  10.7679140  23.5928260  43.2262030  10.6023400  18.9265130  40.3373950
   9.6627070  19.0879090  40.4226410  10.9206660  19.6450810  39.7909940
  17.1236160  23.6083650  50.3152980  16.2954790  23.6776740  49.8403110
  17.7186640  24.1937960  49.8468810  14.6451610  24.2168430  43.8442040
  14.0264030  23.8787980  43.1968340  14.6276060  23.5728190  44.5521230
  14.0878170  20.3952970  51.2607850  13.6749350  21.2206680  51.5147840
  13.3554120  19.8098010  51.0684210   6.2210960  23.1812870  46.1226520
   5.8167960  22.4690120  45.6272420   6.3074080  22.8366110  47.0114560
   6.6892660  26.8680430  48.2865730   6.3920950  26.2625900  47.6073510
   7.6392480  26.9057740  48.1755090   4.9339580  19.9556080  49.9025560
   5.4854170  20.0651420  49.1278810   5.4483090  20.3293680  50.6180790
  14.7778270  30.4412300  51.9488830  14.3008830  31.2484490  51.7561440
  14.0940060  29.7890630  52.1015040   5.7811090  26.6062120  54.9373530
   4.8839620  26.8302090  55.1846930   5.8063960  26.7297060  53.9884930
  12.8216310  23.4555240  40.8514790  13.2609590  22.6177670  40.7052610
  13.5344730  24.0884640  40.9378930   4.6082310  23.4775440  53.5130900
   4.4690080  24.3498240  53.8818300   3.7263670  23.1348250  53.3678840
  10.9311690  28.3951310  44.8196030  11.3707600  29.1375640  44.4051420
  10.8698580  28.6377880  45.7434990   6.4062660  29.4197140  55.7216050
   6.3778090  29.8240090  54.8544480   6.2427630  28.4907500  55.5587650
  16.4033450  14.7098050  39.1655830  16.0906110  14.8024880  40.0654900
  17.1645920  15.2879080  39.1153260   2.9215590  22.0757850  43.6233170
   2.8013190  22.8019940  43.0114440   2.6116480  21.3060760  43.1461080
  18.3577480  30.2024240  57.0180220  18.8337200  30.6807130  57.6969300
  18.9784640  30.1341730  56.2925720   1.8048590  26.9473180  45.8407990
   1.3976670  27.0887770  44.9861590   2.6961600  26.6633340  45.6379200
  17.7610730  27.3937090  54.1780230  17.8873790  27.1548970  53.2597410
  17.8032110  26.5621630  54.6502310  11.6227470  31.0965090  52.7475040
  12.1372140  31.0073100  53.5497470  10.7796550  31.4424790  53.0402950
  13.5981870  31.3820430  42.1759040  13.4383010  31.0923370  43.0740870
  13.4328580  30.6060560  41.6404270   6.0770250  31.1618960  43.9530660
   5.9012730  30.2454500  43.7398460   5.2225990  31.5206250  44.1928460
  13.3008000  28.8907990  40.7357040  12.6073160  28.8885280  40.0759320
  14.0430860  28.4667310  40.3051210  12.8657930  30.5170700  44.8105530
  13.3214880  29.7360080  45.1244150  13.2050450  31.2277520  45.3546710
  17.6134740  19.4469550  55.1429970  16.9979010  19.9549220  54.6145430
  17.2931160  18.5467880  55.0855910   5.3879250  15.4192920  47.0056840
   4.9447400  16.2002460  46.6741360   5.9464240  15.7422810  47.7127780
   9.6749060  18.2861440  52.6092160   9.2128430  18.4944460  53.4212100
   9.2727170  17.4720790  52.3062830  14.6753570  19.5070390  53.7388820
  13.8247160  19.2076140  54.0597890  14.5155360  19.7512400  52.8272640
  11.7703280  21.0072140  55.8387610  12.0956690  20.1735890  55.4989840
  12.5583610  21.5300660  55.9865940   8.5038070  15.0403620  41.8862670
   7.8792250  15.0363490  42.6115980   8.4168190  14.1734580  41.4898640
   7.4255150  15.9640250  48.8646440   7.7227480  16.8703080  48.7838460
   7.9740710  15.4759030  48.2506010   5.1793470  20.5426490  44.7338090
   4.9534390  20.3263660  45.6384710   4.3986000  20.9754950  44.3884060
  12.4091230  20.5489860  43.3328740  11.8100120  21.2725660  43.1492360
  12.9570840  20.4866640  42.5505190   7.6192680  21.4412070  55.3998360
   7.5236280  20.5006800  55.2498760   8.4624660  21.6627140  55.0046430
  11.0156100  19.1853400  45.3632020  11.4085670  19.5025600  44.5500710
  11.3772950  18.3065280  45.4776540   2.7503220  17.8525740  53.5532140
   2.3566610  18.7000950  53.7604920   2.0621620  17.2152110  53.7440780
   9.3248270  17.9360710  56.6228880   8.6346590  17.7432910  57.2574970
  10.0680570  18.2195350  57.1553180  11.6011240  21.7759150  49.4582800
  10.8692360  22.2845960  49.8072900  11.2035580  20.9589130  49.1571580
   8.0388630  18.4513350  47.8635290   8.0424690  18.0103300  47.0139830
   8.9339750  18.7730680  47.9707110   3.8891010  18.3339840  46.8229500
   3.5491060  18.8115070  47.5796550   3.1268330  17.8804960  46.4630600
   8.1008780  19.4525430  40.8542050   8.2221600  19.4111910  41.8027870
   7.7157290  20.3149580  40.6988780  12.0637150  17.2292830  48.8705740
  12.0809890  17.6801480  49.7147590  11.8152730  16.3298470  49.0839180
   7.1130280  21.7626570  40.2525350   6.5447180  21.3144820  39.6261260
   7.8219280  22.1219350  39.7190500  15.4907900  14.6425010  54.7092120
  15.8153670  13.9114670  55.2350100  15.5264410  14.3238650  53.8073110
   2.1899460  25.6638590  54.1292080   1.8054250  25.0232260  54.7275040
   2.5011650  26.3674710  54.6986810   8.3396600  22.5115130  49.6100700
   8.7066730  22.0373700  50.3562040   8.1501660  23.3856700  49.9509040
   6.1295970  21.5523770  51.9284910   5.8253040  22.4315750  52.1535270
   7.0842430  21.6123560  51.9642350   4.6577760  25.7584760  42.5251760
   3.8840020  25.2182380  42.3650480   5.3872390  25.2391370  42.1869520
  15.4165740  24.7550120  48.3178150  16.1364860  25.2505410  47.9274260
  15.2147560  24.0768010  47.6732020  10.8775680  16.1488080  42.4607540
  10.0640290  15.6501250  42.3852850  10.6837630  16.9886330  42.0443890
  10.7984540  24.8259180  54.2047150  10.7321850  23.9054850  53.9504740
  10.1689680  24.9234620  54.9191790  13.5924070  20.5207730  40.7569700
  14.4803690  20.8324960  40.5821040  13.5629160  19.6479980  40.3650280
   4.7015160  25.4265140  46.1630570   5.2193830  24.6233400  46.1087460
   4.2499180  25.3644280  47.0047400   9.5884660  26.6931420  41.4357870
   9.9300360  27.4373650  40.9401190   8.7597370  27.0062540  41.7982700
   2.1859700  22.3926510  53.0756270   1.8274640  23.0580360  53.6629610
   1.8914260  21.5610060  53.4468890   5.3872820  22.8510750  55.9595820
   5.0872960  22.9967930  55.0623640   6.1584060  22.2916040  55.8669210
  10.7301270  27.6479750  53.9550950  10.7445810  26.7160710  53.7369860
  10.0226370  27.7339510  54.5940720  15.8638340  21.8319570  40.2249560
  15.7802060  22.2633790  39.3746000  16.5832530  22.2917920  40.6576380
  16.9412480  24.2887090  53.3019530  16.2160670  24.8815870  53.1048920
  17.4687940  24.2810630  52.5032900  16.8925590  28.6861830  42.9531690
  16.2501750  28.0317450  43.2275410  16.5056250  29.0916920  42.1772360
  12.4712070  26.0147260  46.8003380  12.8235890  25.4175390  46.1404750
  11.5874400  25.6891490  46.9711630   8.5575350  26.7744950  44.2073790
   9.2446480  27.3214160  44.5881380   7.7707770  27.3185680  44.2423400
   7.8602560  23.7790980  43.8199150   8.3165340  24.5896230  44.0459340
   7.5090770  23.4614120  44.6517640  10.1635170  29.2897320  51.0491450
  10.8077390  29.4956700  51.7264870  10.5264610  28.5285720  50.5962300
   3.7614340  14.1228630  44.2921670   3.6328970  14.1146530  45.2406590
   2.9376360  14.4611720  43.9412680  11.4367250  27.2929670  49.7668900
  12.0789480  26.5922830  49.8801070  11.9616600  28.0728110  49.5865790
  15.2822970  27.5778290  39.4908040  15.0560550  26.8608730  40.0832680
  14.8919170  27.3290730  38.6529790  13.2104870  28.0924570  52.9704960
  13.5461110  28.6791260  53.6482880  12.2905210  27.9617280  53.2002750
  14.8639220  25.4950230  41.1522200  14.5760920  25.9562920  41.9400080
  15.6591390  25.0348000  41.4206420   9.0393450  28.1415900  56.1393020
   8.7190320  27.4225140  56.6838710   8.3651810  28.8170970  56.2129080
   7.0807620  28.9876350  41.0826170   7.0717720  29.7206040  40.4670680
   6.1605980  28.7407930  41.1753130   2.6814260  24.2091240  41.8272930
   2.0742210  24.9490140  41.8368230   3.1563610  24.2990600  41.0011130
  12.2547050  18.3742060  51.5029820  12.6227870  17.5537270  51.8309390
  11.3945250  18.4343950  51.9185470  15.6209080  17.3299000  42.3117380
  14.9922240  17.4344670  41.5975610  15.1261000  17.5495780  43.1011260
  10.0667220  29.0504590  39.7451360  10.1679200  28.8468580  38.8153340
   9.1668960  28.7962870  39.9499140   7.5893110  19.6084950  43.7275260
   6.8809260  20.0771290  44.1688870   7.8737590  18.9506960  44.3620450
   9.2149040  21.0281650  51.7267790   9.7134290  21.5027470  52.3919640
   9.3571990  20.1045170  51.9337820  11.6208540  16.3335610  45.1671050
  11.4976320  16.3521740  44.2180560  12.5693100  16.3814550  45.2869450
   8.7085330  31.5690910  44.4399030   8.9626830  31.5312300  43.5178400
   7.7597810  31.4424240  44.4327280   5.7928130  17.9170030  41.1025970
   6.6418660  18.3540180  41.0366160   5.4259400  18.2290290  41.9298030
  16.4215900  17.2449610  52.5696180  15.9189500  17.9855010  52.9089990
  17.2372560  17.6333610  52.2532970  14.7137910  22.4882790  46.0157540
  13.7728050  22.5033020  46.1905230  15.0281980  21.7018750  46.4617840
   4.6919550  24.1702390  39.5761500   5.4582820  24.0583750  40.1386930
   4.7694240  23.4740360  38.9238270   3.3866310  21.6027460  40.2594390
   3.4669900  20.6554970  40.3711790   4.2786060  21.9334340  40.3655050
  16.7163490  29.6591640  47.6911800  16.8410910  30.4822810  48.1635610
  17.5829050  29.4482370  47.3435950   4.1881020  31.7522850  47.3628930
   4.9243500  31.2038310  47.6337500   4.5721940  32.6178860  47.2234920
   3.1939300  30.9368920  56.5514510   3.9952030  31.2580970  56.9649910
   2.6791120  30.5764500  57.2734420   7.2983330  30.9253160  39.1854500
   8.0911940  31.2141990  38.7336290   6.7787680  30.4945330  38.5066980
  12.0303930  27.0448790  56.4989920  11.4242090  27.0680390  55.7585670
  11.7258040  26.3131830  57.0357170  13.4604300  30.7729080  55.1099330
  14.4126050  30.6887100  55.0599570  13.3132520  31.4370790  55.7833120
  16.3513500  30.1523290  40.6091240  16.0655010  29.7388430  39.7945420
  16.1533050  31.0811000  40.4891760   7.8160730  26.1456570  39.0496850
   7.7111370  25.5308920  39.7758230   7.6484950  25.6222460  38.2659860
   7.9675050  24.8313370  55.0286080   7.2020720  25.3998370  54.9440750
   8.1491010  24.5389580  54.1354310  11.0563460  25.2076600  39.6538840
  10.5073560  25.6545900  40.2981580  11.6782720  24.7025850  40.1776510
  15.1098400  26.5618700  55.5861100  15.8507870  26.8994460  55.0828560
  14.3471080  26.7310760  55.0330870   2.9460190  21.5671970  56.3900630
   2.9865530  21.2685840  57.2985860   3.8005690  21.9679580  56.2308150
   6.7238580  24.1667520  41.5504140   7.1455000  24.0007390  42.3935530
   6.8489420  23.3567750  41.0559280   4.8866000  20.1464070  54.3575120
   4.3562460  19.6555020  53.7298460   5.5554070  20.5748270  53.8233050
   9.2366220  23.1905130  38.7981240   9.7571880  22.4754150  38.4322390
   9.8834620  23.8291000  39.0981750  13.7844060  24.6133530  54.1216310
  14.1985080  24.7678610  54.9706730  12.8495060  24.7388750  54.2842090
  14.2566230  21.9529690  56.1255460  14.8387000  21.1982010  56.0375940
  14.4328000  22.4837130  55.3486940   5.3738300  17.1126440  54.4372410
   5.2795170  16.4947190  53.7123280   4.7935690  17.8392730  54.2102320
   8.1399740  15.6699680  51.4699800   7.6917040  15.6923940  50.6245350
   7.5064940  15.2718700  52.0670100   8.5459290  24.5654010  52.0912240
   8.9647400  25.4086740  51.9188480   7.6267920  24.7026050  51.8619020
  10.8823190  22.2970190  53.4750080  11.0019400  21.7011330  54.2144920
  11.7417190  22.3339880  53.0551380  13.2211090  22.8507380  52.0512590
  12.6946310  23.3750000  51.4477730  13.5642430  23.4834770  52.6822320
   5.6197480  20.2400750  38.4962300   5.4186540  19.3768110  38.8575640
   5.4489530  20.1534110  37.5583900   6.3966710  30.8707020  53.2069970
   5.8587800  31.5953080  52.8878670   6.6500670  30.3937360  52.4167310
   7.6491960  18.8391540  54.7325900   8.2391650  18.5307390  55.4203720
   6.8312200  18.3671290  54.8885800  12.4685390  18.4557350  54.9658920
  11.7800910  17.7938890  54.9008910  13.1891410  18.0095620  55.4107380
  13.0985790  15.0508980  41.0249180  13.3788080  14.2076880  41.3808600
  12.3251520  15.2832090  41.5387930   4.4180280  17.3401370  38.4840180
   4.7206180  17.3468800  37.5759330   5.1574870  16.9899230  38.9807840
   9.2528920  32.1058230  53.4656620   9.1787620  33.0093370  53.7728990
   8.3507760  31.7870130  53.4378690   7.6365210  16.2835990  39.4696380
   7.2887210  15.6059980  38.8898830   7.8377980  15.8225500  40.2839770
   9.8014250  31.2716740  41.0882980  10.6965040  31.6101710  41.1101740
   9.8331880  30.5496150  40.4607260   3.4410410  26.6443790  39.3169980
   3.8785280  27.1873460  39.9727560   3.9258140  25.8190740  39.3266320
   5.2518130  27.7641830  44.4292210   4.9513670  27.6406800  45.3296120
   5.1455620  26.9050420  44.0207940  16.7808600  29.8020410  53.7949180
  16.1810590  29.8612970  53.0513100  16.9102500  28.8625390  53.9246030
  18.0210050  27.5438230  39.1318890  17.1903010  27.6114880  39.6026120
  18.1981880  28.4342350  38.8285750  17.4766510  24.2885710  41.6353090
  18.2385420  24.8582360  41.7412780  17.4920880  23.7212910  42.4061400
  18.4826480  25.1435810  46.4795020  18.8535310  24.3603130  46.0730990
  19.1228410  25.8324910  46.3012320  15.4660240  26.5272390  51.8925340
  14.6520080  26.9569550  52.1551130  15.8734440  27.1390800  51.2794390
  17.5285680  24.5820080  38.7925610  17.8034520  25.4898960  38.6644830
  17.3396420  24.5182610  39.7287600  13.9261290  17.6064930  40.0879240
  14.3446170  17.4195910  39.2475900  13.6197350  16.7543980  40.3982170
  17.4251020  22.5189070  43.7855040  17.0494620  21.7517000  43.3536330
  16.6954140  22.9011770  44.2729970   2.0146780  23.1976210  50.4064090
   2.3819820  23.1103610  51.2860110   1.4457600  22.4342760  50.3070950
  16.8150640  21.6660590  53.4194560  16.5836730  21.4373340  52.5192510
  17.0755190  22.5860140  53.3739450  15.2538710  16.8917020  56.1974260
  16.1308890  16.9000420  56.5808260  15.2659550  16.1547860  55.5866610
  16.7001980  20.7446560  47.0862280  17.2239460  20.2509210  46.4552450
  17.2861400  20.8796920  47.8309850  16.8791700  20.8286430  50.6081830
  15.9294410  20.7949970  50.7226820  17.0604710  21.7386540  50.3731600
   2.7336140  19.0788110  39.7180460   3.4427840  18.6571330  39.2327740
   2.0176080  19.1463340  39.0863810   2.3810300  15.1327440  38.7583110
   3.1038430  15.6736380  39.0764330   2.6534820  14.8590860  37.8824650
  16.1901950  20.0019910  43.0254690  16.6861070  19.7690780  43.8103570
  15.9918020  19.1631750  42.6092330   2.0702490  14.3833630  48.6605730
   2.7178680  13.8331010  48.2200890   2.4904330  14.6376780  49.4821540
  17.6189110  18.6380860  45.5592370  17.5088390  18.4836900  46.4974640
  18.3796700  18.1101800  45.3167780  15.9654830  14.5774990  52.0175370
  16.6027050  15.1909130  52.3834560  16.1129720  14.6135650  51.0724600
  18.5079380  16.4688780  38.7998510  19.4328690  16.3369960  38.5916800
  18.4855170  16.5481600  39.7534960  18.5817870  17.2399440  41.4255220
  17.7869370  17.1744560  41.9548130  18.7861150  18.1750080  41.4140570
  15.5236290  31.2790990  45.4193610  16.1195360  30.9575560  44.7428030
  15.7814440  30.8062810  46.2106880   1.8234490  14.5389300  51.4031050
   1.4749310  14.9953120  52.1689230   1.4922190  13.6446430  51.4853480
   3.4298860  27.7108900  55.5684240   3.3868490  27.3401810  56.4498700
   3.5609870  28.6486470  55.7086060   7.1304890  29.2668490  51.1693960
   6.8896250  29.5343050  50.2824480   8.0707530  29.4374220  51.2244820
   9.3359310  15.7301180  54.9250470   9.2748200  16.3223010  55.6745880
  10.2759690  15.6227140  54.7800730  11.9733870  15.3871240  54.5642760
  12.5874280  15.7050530  53.9023840  12.5183430  14.9019830  55.1838620
  18.3909050  31.2862870  51.9704600  17.8967330  31.6831740  51.2531730
  17.7822340  30.6612080  52.3641880   2.4955130  14.0665500  54.6781820
   3.0438120  13.8853550  53.9147930   2.5610440  13.2759610  55.2138130
   3.2686890  30.6571150  52.6882020   2.6747210  30.5255850  53.4272060
   3.2610730  29.8209290  52.2224120  12.7141910  13.9503380  50.8912050
  11.8401750  14.2838490  50.6884980  12.6052660  13.4776560  51.7163920
  13.6213890  16.1574250  52.2753770  13.2927250  15.3426010  51.8955500
  14.5696190  16.1144060  52.1519460  16.0748500  31.9286290  49.2491340
  15.6151470  32.6802100  48.8749360  15.4460960  31.2092760  49.1906140
   2.8999120  28.0229530  51.6390060   2.1733180  27.4034820  51.5716010
   2.9608270  28.4170140  50.7688140   6.5044220  30.2374530  48.4239470
   7.0209240  29.6261890  47.8987730   7.1541600  30.7403310  48.9150480
   9.2439720  31.1283020  49.2508450   9.5317530  30.8737320  48.3741460
   9.7562940  30.5760380  49.8414020  10.4616730  14.8673220  49.8304960
   9.6788520  15.3418720  50.1101720  10.1679660  13.9628050  49.7218140
  15.0137800  15.5696320  47.8754050  15.4545890  15.5141420  47.0275650
  14.7445390  16.4854330  47.9464230  16.8776370  15.2011560  45.8862870
  16.8164770  14.2572780  45.7393890  17.6568400  15.3091650  46.4316330
   1.8057140  15.1720700  42.3518680   2.5636500  15.2849580  41.7782710
   1.3434310  16.0089900  42.3062110   8.3470950  17.2859970  45.3420990
   7.5345460  16.9116860  45.0016870   8.8512590  16.5305050  45.6442180
  12.8495930  13.9502420  46.5804060  13.4525300  14.5222630  47.0552580
  12.1088920  14.5141860  46.3577960  15.9930530  14.3523980  41.8544340
  16.1881160  15.2507430  42.1211770  15.2060400  14.1211060  42.3477290
   2.7891820  30.0337150  42.2936960   2.2639440  30.4145180  41.5898920
   2.7136400  30.6587920  43.0146670   4.1782290  15.6984750  40.8920650
   4.7075050  14.9114550  40.7628600   4.8110610  16.3775940  41.1256180
   6.3720130  15.4359890  43.9466040   5.7422870  14.7347200  44.1136170
   5.8325270  16.1964020  43.7299200   9.3112080  32.0499120  56.6176650
  10.2379390  31.8143390  56.6612610   9.2962510  32.8771120  56.1362680
  17.5457140  31.5924690  43.6150900  17.7209330  30.9062430  42.9711820
  16.8478710  32.1171740  43.2227570   6.4975690  14.7143870  56.3818530
   6.2159960  15.2177470  55.6179350   6.8795390  13.9165620  56.0160660
   5.3884790  31.9819530  41.1686210   6.1203610  31.6978810  40.6210100
   5.6478460  31.7432810  42.0585590   4.5499580  28.0984260  41.1732540
   3.9208460  28.5669360  41.7218370   4.6647410  27.2533480  41.6078730
  13.0991150  14.1297450  56.9599000  12.9856600  14.4492060  57.8550520
  13.9160890  14.5309960  56.6636280  15.8789640  31.2768980  56.4417690
  16.6714960  30.7818210  56.2343650  16.1722790  31.9559120  57.0493300
  12.0049300  22.1489920  27.3233740  11.9243350  21.2344530  27.0525450
  11.5913720  22.6456990  26.6173450  10.1367340  23.9268940  29.2043010
   9.3609440  23.4469380  29.4941580  10.7880270  23.2474590  29.0299170
   4.1533170  24.2388750  30.0818770   3.3218050  23.9837460  30.4815280
   4.7614150  24.3099520  30.8176690  14.1574770  28.3329130  27.9842140
  13.6956300  27.5616370  28.3129310  14.9700320  28.3595200  28.4894590
   4.1334430  28.2728840  30.2776790   4.4362470  27.3826580  30.0987010
   4.8778020  28.8299060  30.0499040   2.5625120  19.1990640  23.8661160
   1.6741820  19.5406610  23.7641040   2.8466310  18.9990960  22.9741990
  10.3838080  30.6187140  27.6046130   9.7649520  31.0744640  27.0340570
  11.2389860  30.7738600  27.2035830   9.5776330  26.6026130  29.2113170
   9.5084610  25.6616070  29.0502300  10.3396190  26.6927540  29.7835740
   1.7683000  17.2080650  31.5369790   1.5885840  16.3106400  31.8172550
   1.3663080  17.7552520  32.2116740  10.6081500  19.4096510  29.4382100
  10.9846320  18.5368390  29.3255770  10.5101010  19.7455210  28.5472540
   4.7386510  17.7822140  24.8999540   4.8453260  18.6825870  25.2068300
   3.8278870  17.7340110  24.6094190  14.3905620  16.9046950  26.3710440
  15.2115240  16.4143520  26.4135920  14.4239700  17.4944610  27.1242280
   2.3869670  19.7041150  30.1452130   3.0679780  19.9679520  30.7639530
   2.0717720  18.8642020  30.4790140   6.5794240  20.7508510  29.2324720
   7.0872460  21.2489480  29.8729740   7.1107480  19.9743710  29.0564080
  18.6805170  18.9213700  32.9354070  17.9757340  19.3095410  32.4169180
  18.9463090  19.6163990  33.5375000   4.8630340  15.3907070  33.4988140
   4.8648780  15.9079460  32.6934040   4.0334650  14.9137250  33.4758070
  11.2501430  25.5026380  24.9978040  10.6318700  25.9675830  24.4340760
  11.7624680  26.1953860  25.4147550   6.1133190  25.0302250  31.6761640
   5.7802570  25.6571170  32.3182710   6.2899870  25.5564130  30.8963310
  14.6267100  18.8447330  29.1437980  13.9222670  19.1332220  29.7241090
  14.9879260  19.6547440  28.7837540   4.5445670  17.1017030  31.5058590
   4.8862480  17.9459080  31.2112460   3.6061480  17.2500770  31.6223930
   5.3252290  26.9983050  33.4910820   5.9426290  27.6734130  33.2095270
   4.4645410  27.4071030  33.3998320  16.2429880  28.4622460  31.4065460
  15.5593400  29.1321570  31.3982130  16.7824170  28.6603110  30.6410320
  17.6954020  18.2902120  29.5347190  16.7478930  18.3241100  29.6662620
  18.0204010  19.1041070  29.9196550   8.2273560  14.5899300  27.8303180
   8.5348540  14.0346190  27.1138680   7.2974260  14.7243760  27.6476170
  13.7788620  30.3066590  30.1210640  13.7915780  29.9028880  29.2532900
  13.2263840  31.0813880  30.0172070  15.0734040  27.0282810  25.2100810
  14.9630370  26.0857140  25.3350230  15.0702290  27.3898450  26.0963570
  13.1774060  25.2096430  31.4493250  13.5942850  24.9956540  30.6146710
  13.9013880  25.4669220  32.0201870  10.6154320  22.6548130  24.5663300
   9.6883600  22.5885510  24.7951770  10.7679140  23.5928260  24.4518540
  10.6023400  18.9265130  21.5630460   9.6627070  19.0879090  21.6482920
  10.9206660  19.6450810  21.0166450  17.1236160  23.6083650  31.5409490
  16.2954790  23.6776740  31.0659620  17.7186640  24.1937960  31.0725320
  14.6451610  24.2168430  25.0698550  14.0264030  23.8787980  24.4224850
  14.6276060  23.5728190  25.7777740  14.0878170  20.3952970  32.4864360
  13.6749350  21.2206680  32.7404350  13.3554120  19.8098010  32.2940720
   6.2210960  23.1812870  27.3483030   5.8167960  22.4690120  26.8528930
   6.3074080  22.8366110  28.2371070   6.6892660  26.8680430  29.5122240
   6.3920950  26.2625900  28.8330020   7.6392480  26.9057740  29.4011600
   4.9339580  19.9556080  31.1282070   5.4854170  20.0651420  30.3535320
   5.4483090  20.3293680  31.8437300  14.7778270  30.4412300  33.1745340
  14.3008830  31.2484490  32.9817950  14.0940060  29.7890630  33.3271550
   5.7811090  26.6062120  36.1630040   4.8839620  26.8302090  36.4103440
   5.8063960  26.7297060  35.2141440  12.8216310  23.4555240  22.0771300
  13.2609590  22.6177670  21.9309120  13.5344730  24.0884640  22.1635440
   4.6082310  23.4775440  34.7387410   4.4690080  24.3498240  35.1074810
   3.7263670  23.1348250  34.5935350  10.9311690  28.3951310  26.0452540
  11.3707600  29.1375640  25.6307930  10.8698580  28.6377880  26.9691500
   6.4062660  29.4197140  36.9472560   6.3778090  29.8240090  36.0800990
   6.2427630  28.4907500  36.7844160  16.4033450  14.7098050  20.3912340
  16.0906110  14.8024880  21.2911410  17.1645920  15.2879080  20.3409770
   2.9215590  22.0757850  24.8489680   2.8013190  22.8019940  24.2370950
   2.6116480  21.3060760  24.3717590  18.3577480  30.2024240  38.2436730
  18.8337200  30.6807130  38.9225810  18.9784640  30.1341730  37.5182230
   1.8048590  26.9473180  27.0664500   1.3976670  27.0887770  26.2118100
   2.6961600  26.6633340  26.8635710  17.7610730  27.3937090  35.4036740
  17.8873790  27.1548970  34.4853920  17.8032110  26.5621630  35.8758820
  11.6227470  31.0965090  33.9731550  12.1372140  31.0073100  34.7753980
  10.7796550  31.4424790  34.2659460  13.5981870  31.3820430  23.4015550
  13.4383010  31.0923370  24.2997380  13.4328580  30.6060560  22.8660780
   6.0770250  31.1618960  25.1787170   5.9012730  30.2454500  24.9654970
   5.2225990  31.5206250  25.4184970  13.3008000  28.8907990  21.9613550
  12.6073160  28.8885280  21.3015830  14.0430860  28.4667310  21.5307720
  12.8657930  30.5170700  26.0362040  13.3214880  29.7360080  26.3500660
  13.2050450  31.2277520  26.5803220  17.6134740  19.4469550  36.3686480
  16.9979010  19.9549220  35.8401940  17.2931160  18.5467880  36.3112420
   5.3879250  15.4192920  28.2313350   4.9447400  16.2002460  27.8997870
   5.9464240  15.7422810  28.9384290   9.6749060  18.2861440  33.8348670
   9.2128430  18.4944460  34.6468610   9.2727170  17.4720790  33.5319340
  14.6753570  19.5070390  34.9645330  13.8247160  19.2076140  35.2854400
  14.5155360  19.7512400  34.0529150  11.7703280  21.0072140  37.0644120
  12.0956690  20.1735890  36.7246350  12.5583610  21.5300660  37.2122450
   8.5038070  15.0403620  23.1119180   7.8792250  15.0363490  23.8372490
   8.4168190  14.1734580  22.7155150   7.4255150  15.9640250  30.0902950
   7.7227480  16.8703080  30.0094970   7.9740710  15.4759030  29.4762520
   5.1793470  20.5426490  25.9594600   4.9534390  20.3263660  26.8641220
   4.3986000  20.9754950  25.6140570  12.4091230  20.5489860  24.5585250
  11.8100120  21.2725660  24.3748870  12.9570840  20.4866640  23.7761700
   7.6192680  21.4412070  36.6254870   7.5236280  20.5006800  36.4755270
   8.4624660  21.6627140  36.2302940  11.0156100  19.1853400  26.5888530
  11.4085670  19.5025600  25.7757220  11.3772950  18.3065280  26.7033050
   2.7503220  17.8525740  34.7788650   2.3566610  18.7000950  34.9861430
   2.0621620  17.2152110  34.9697290   9.3248270  17.9360710  37.8485390
   8.6346590  17.7432910  38.4831480  10.0680570  18.2195350  38.3809690
  11.6011240  21.7759150  30.6839310  10.8692360  22.2845960  31.0329410
  11.2035580  20.9589130  30.3828090   8.0388630  18.4513350  29.0891800
   8.0424690  18.0103300  28.2396340   8.9339750  18.7730680  29.1963620
   3.8891010  18.3339840  28.0486010   3.5491060  18.8115070  28.8053060
   3.1268330  17.8804960  27.6887110   8.1008780  19.4525430  22.0798560
   8.2221600  19.4111910  23.0284380   7.7157290  20.3149580  21.9245290
  12.0637150  17.2292830  30.0962250  12.0809890  17.6801480  30.9404100
  11.8152730  16.3298470  30.3095690   7.1130280  21.7626570  21.4781860
   6.5447180  21.3144820  20.8517770   7.8219280  22.1219350  20.9447010
  15.4907900  14.6425010  35.9348630  15.8153670  13.9114670  36.4606610
  15.5264410  14.3238650  35.0329620   2.1899460  25.6638590  35.3548590
   1.8054250  25.0232260  35.9531550   2.5011650  26.3674710  35.9243320
   8.3396600  22.5115130  30.8357210   8.7066730  22.0373700  31.5818550
   8.1501660  23.3856700  31.1765550   6.1295970  21.5523770  33.1541420
   5.8253040  22.4315750  33.3791780   7.0842430  21.6123560  33.1898860
   4.6577760  25.7584760  23.7508270   3.8840020  25.2182380  23.5906990
   5.3872390  25.2391370  23.4126030  15.4165740  24.7550120  29.5434660
  16.1364860  25.2505410  29.1530770  15.2147560  24.0768010  28.8988530
  10.8775680  16.1488080  23.6864050  10.0640290  15.6501250  23.6109360
  10.6837630  16.9886330  23.2700400  10.7984540  24.8259180  35.4303660
  10.7321850  23.9054850  35.1761250  10.1689680  24.9234620  36.1448300
  13.5924070  20.5207730  21.9826210  14.4803690  20.8324960  21.8077550
  13.5629160  19.6479980  21.5906790   4.7015160  25.4265140  27.3887080
   5.2193830  24.6233400  27.3343970   4.2499180  25.3644280  28.2303910
   9.5884660  26.6931420  22.6614380   9.9300360  27.4373650  22.1657700
   8.7597370  27.0062540  23.0239210   2.1859700  22.3926510  34.3012780
   1.8274640  23.0580360  34.8886120   1.8914260  21.5610060  34.6725400
   5.3872820  22.8510750  37.1852330   5.0872960  22.9967930  36.2880150
   6.1584060  22.2916040  37.0925720  10.7301270  27.6479750  35.1807460
  10.7445810  26.7160710  34.9626370  10.0226370  27.7339510  35.8197230
  15.8638340  21.8319570  21.4506070  15.7802060  22.2633790  20.6002510
  16.5832530  22.2917920  21.8832890  16.9412480  24.2887090  34.5276040
  16.2160670  24.8815870  34.3305430  17.4687940  24.2810630  33.7289410
  16.8925590  28.6861830  24.1788200  16.2501750  28.0317450  24.4531920
  16.5056250  29.0916920  23.4028870  12.4712070  26.0147260  28.0259890
  12.8235890  25.4175390  27.3661260  11.5874400  25.6891490  28.1968140
   8.5575350  26.7744950  25.4330300   9.2446480  27.3214160  25.8137890
   7.7707770  27.3185680  25.4679910   7.8602560  23.7790980  25.0455660
   8.3165340  24.5896230  25.2715850   7.5090770  23.4614120  25.8774150
  10.1635170  29.2897320  32.2747960  10.8077390  29.4956700  32.9521380
  10.5264610  28.5285720  31.8218810   3.7614340  14.1228630  25.5178180
   3.6328970  14.1146530  26.4663100   2.9376360  14.4611720  25.1669190
  11.4367250  27.2929670  30.9925410  12.0789480  26.5922830  31.1057580
  11.9616600  28.0728110  30.8122300  15.2822970  27.5778290  20.7164550
  15.0560550  26.8608730  21.3089190  14.8919170  27.3290730  19.8786300
  13.2104870  28.0924570  34.1961470  13.5461110  28.6791260  34.8739390
  12.2905210  27.9617280  34.4259260  14.8639220  25.4950230  22.3778710
  14.5760920  25.9562920  23.1656590  15.6591390  25.0348000  22.6462930
   9.0393450  28.1415900  37.3649530   8.7190320  27.4225140  37.9095220
   8.3651810  28.8170970  37.4385590   7.0807620  28.9876350  22.3082680
   7.0717720  29.7206040  21.6927190   6.1605980  28.7407930  22.4009640
   2.6814260  24.2091240  23.0529440   2.0742210  24.9490140  23.0624740
   3.1563610  24.2990600  22.2267640  12.2547050  18.3742060  32.7286330
  12.6227870  17.5537270  33.0565900  11.3945250  18.4343950  33.1441980
  15.6209080  17.3299000  23.5373890  14.9922240  17.4344670  22.8232120
  15.1261000  17.5495780  24.3267770  10.0667220  29.0504590  20.9707870
  10.1679200  28.8468580  20.0409850   9.1668960  28.7962870  21.1755650
   7.5893110  19.6084950  24.9531770   6.8809260  20.0771290  25.3945380
   7.8737590  18.9506960  25.5876960   9.2149040  21.0281650  32.9524300
   9.7134290  21.5027470  33.6176150   9.3571990  20.1045170  33.1594330
  11.6208540  16.3335610  26.3927560  11.4976320  16.3521740  25.4437070
  12.5693100  16.3814550  26.5125960   8.7085330  31.5690910  25.6655540
   8.9626830  31.5312300  24.7434910   7.7597810  31.4424240  25.6583790
   5.7928130  17.9170030  22.3282480   6.6418660  18.3540180  22.2622670
   5.4259400  18.2290290  23.1554540  16.4215900  17.2449610  33.7952690
  15.9189500  17.9855010  34.1346500  17.2372560  17.6333610  33.4789480
  14.7137910  22.4882790  27.2414050  13.7728050  22.5033020  27.4161740
  15.0281980  21.7018750  27.6874350   4.6919550  24.1702390  20.8018010
   5.4582820  24.0583750  21.3643440   4.7694240  23.4740360  20.1494780
   3.3866310  21.6027460  21.4850900   3.4669900  20.6554970  21.5968300
   4.2786060  21.9334340  21.5911560  16.7163490  29.6591640  28.9168310
  16.8410910  30.4822810  29.3892120  17.5829050  29.4482370  28.5692460
   4.1881020  31.7522850  28.5885440   4.9243500  31.2038310  28.8594010
   4.5721940  32.6178860  28.4491430   3.1939300  30.9368920  37.7771020
   3.9952030  31.2580970  38.1906420   2.6791120  30.5764500  38.4990930
   7.2983330  30.9253160  20.4111010   8.0911940  31.2141990  19.9592800
   6.7787680  30.4945330  19.7323490  12.0303930  27.0448790  37.7246430
  11.4242090  27.0680390  36.9842180  11.7258040  26.3131830  38.2613680
  13.4604300  30.7729080  36.3355840  14.4126050  30.6887100  36.2856080
  13.3132520  31.4370790  37.0089630  16.3513500  30.1523290  21.8347750
  16.0655010  29.7388430  21.0201930  16.1533050  31.0811000  21.7148270
   7.8160730  26.1456570  20.2753360   7.7111370  25.5308920  21.0014740
   7.6484950  25.6222460  19.4916370   7.9675050  24.8313370  36.2542590
   7.2020720  25.3998370  36.1697260   8.1491010  24.5389580  35.3610820
  11.0563460  25.2076600  20.8795350  10.5073560  25.6545900  21.5238090
  11.6782720  24.7025850  21.4033020  15.1098400  26.5618700  36.8117610
  15.8507870  26.8994460  36.3085070  14.3471080  26.7310760  36.2587380
   2.9460190  21.5671970  37.6157140   2.9865530  21.2685840  38.5242370
   3.8005690  21.9679580  37.4564660   6.7238580  24.1667520  22.7760650
   7.1455000  24.0007390  23.6192040   6.8489420  23.3567750  22.2815790
   4.8866000  20.1464070  35.5831630   4.3562460  19.6555020  34.9554970
   5.5554070  20.5748270  35.0489560   9.2366220  23.1905130  20.0237750
   9.7571880  22.4754150  19.6578900   9.8834620  23.8291000  20.3238260
  13.7844060  24.6133530  35.3472820  14.1985080  24.7678610  36.1963240
  12.8495060  24.7388750  35.5098600  14.2566230  21.9529690  37.3511970
  14.8387000  21.1982010  37.2632450  14.4328000  22.4837130  36.5743450
   5.3738300  17.1126440  35.6628920   5.2795170  16.4947190  34.9379790
   4.7935690  17.8392730  35.4358830   8.1399740  15.6699680  32.6956310
   7.6917040  15.6923940  31.8501860   7.5064940  15.2718700  33.2926610
   8.5459290  24.5654010  33.3168750   8.9647400  25.4086740  33.1444990
   7.6267920  24.7026050  33.0875530  10.8823190  22.2970190  34.7006590
  11.0019400  21.7011330  35.4401430  11.7417190  22.3339880  34.2807890
  13.2211090  22.8507380  33.2769100  12.6946310  23.3750000  32.6734240
  13.5642430  23.4834770  33.9078830   5.6197480  20.2400750  19.7218810
   5.4186540  19.3768110  20.0832150   5.4489530  20.1534110  18.7840410
   6.3966710  30.8707020  34.4326480   5.8587800  31.5953080  34.1135180
   6.6500670  30.3937360  33.6423820   7.6491960  18.8391540  35.9582410
   8.2391650  18.5307390  36.6460230   6.8312200  18.3671290  36.1142310
  12.4685390  18.4557350  36.1915430  11.7800910  17.7938890  36.1265420
  13.1891410  18.0095620  36.6363890  13.0985790  15.0508980  22.2505690
  13.3788080  14.2076880  22.6065110  12.3251520  15.2832090  22.7644440
   4.4180280  17.3401370  19.7096690   4.7206180  17.3468800  18.8015840
   5.1574870  16.9899230  20.2064350   9.2528920  32.1058230  34.6913130
   9.1787620  33.0093370  34.9985500   8.3507760  31.7870130  34.6635200
   7.6365210  16.2835990  20.6952890   7.2887210  15.6059980  20.1155340
   7.8377980  15.8225500  21.5096280   9.8014250  31.2716740  22.3139490
  10.6965040  31.6101710  22.3358250   9.8331880  30.5496150  21.6863770
   3.4410410  26.6443790  20.5426490   3.8785280  27.1873460  21.1984070
   3.9258140  25.8190740  20.5522830   5.2518130  27.7641830  25.6548720
   4.9513670  27.6406800  26.5552630   5.1455620  26.9050420  25.2464450
  16.7808600  29.8020410  35.0205690  16.1810590  29.8612970  34.2769610
  16.9102500  28.8625390  35.1502540  18.0210050  27.5438230  20.3575400
  17.1903010  27.6114880  20.8282630  18.1981880  28.4342350  20.0542260
  17.4766510  24.2885710  22.8609600  18.2385420  24.8582360  22.9669290
  17.4920880  23.7212910  23.6317910  18.4826480  25.1435810  27.7051530
  18.8535310  24.3603130  27.2987500  19.1228410  25.8324910  27.5268830
  15.4660240  26.5272390  33.1181850  14.6520080  26.9569550  33.3807640
  15.8734440  27.1390800  32.5050900  17.5285680  24.5820080  20.0182120
  17.8034520  25.4898960  19.8901340  17.3396420  24.5182610  20.9544110
  13.9261290  17.6064930  21.3135750  14.3446170  17.4195910  20.4732410
  13.6197350  16.7543980  21.6238680  17.4251020  22.5189070  25.0111550
  17.0494620  21.7517000  24.5792840  16.6954140  22.9011770  25.4986480
   2.0146780  23.1976210  31.6320600   2.3819820  23.1103610  32.5116620
   1.4457600  22.4342760  31.5327460  16.8150640  21.6660590  34.6451070
  16.5836730  21.4373340  33.7449020  17.0755190  22.5860140  34.5995960
  15.2538710  16.8917020  37.4230770  16.1308890  16.9000420  37.8064770
  15.2659550  16.1547860  36.8123120  16.7001980  20.7446560  28.3118790
  17.2239460  20.2509210  27.6808960  17.2861400  20.8796920  29.0566360
  16.8791700  20.8286430  31.8338340  15.9294410  20.7949970  31.9483330
  17.0604710  21.7386540  31.5988110   2.7336140  19.0788110  20.9436970
   3.4427840  18.6571330  20.4584250   2.0176080  19.1463340  20.3120320
   2.3810300  15.1327440  19.9839620   3.1038430  15.6736380  20.3020840
   2.6534820  14.8590860  19.1081160  16.1901950  20.0019910  24.2511200
  16.6861070  19.7690780  25.0360080  15.9918020  19.1631750  23.8348840
   2.0702490  14.3833630  29.8862240   2.7178680  13.8331010  29.4457400
   2.4904330  14.6376780  30.7078050  17.6189110  18.6380860  26.7848880
  17.5088390  18.4836900  27.7231150  18.3796700  18.1101800  26.5424290
  15.9654830  14.5774990  33.2431880  16.6027050  15.1909130  33.6091070
  16.1129720  14.6135650  32.2981110  18.5079380  16.4688780  20.0255020
  19.4328690  16.3369960  19.8173310  18.4855170  16.5481600  20.9791470
  18.5817870  17.2399440  22.6511730  17.7869370  17.1744560  23.1804640
  18.7861150  18.1750080  22.6397080  15.5236290  31.2790990  26.6450120
  16.1195360  30.9575560  25.9684540  15.7814440  30.8062810  27.4363390
   1.8234490  14.5389300  32.6287560   1.4749310  14.9953120  33.3945740
   1.4922190  13.6446430  32.7109990   3.4298860  27.7108900  36.7940750
   3.3868490  27.3401810  37.6755210   3.5609870  28.6486470  36.9342570
   7.1304890  29.2668490  32.3950470   6.8896250  29.5343050  31.5080990
   8.0707530  29.4374220  32.4501330   9.3359310  15.7301180  36.1506980
   9.2748200  16.3223010  36.9002390  10.2759690  15.6227140  36.0057240
  11.9733870  15.3871240  35.7899270  12.5874280  15.7050530  35.1280350
  12.5183430  14.9019830  36.4095130  18.3909050  31.2862870  33.1961110
  17.8967330  31.6831740  32.4788240  17.7822340  30.6612080  33.5898390
   2.4955130  14.0665500  35.9038330   3.0438120  13.8853550  35.1404440
   2.5610440  13.2759610  36.4394640   3.2686890  30.6571150  33.9138530
   2.6747210  30.5255850  34.6528570   3.2610730  29.8209290  33.4480630
  12.7141910  13.9503380  32.1168560  11.8401750  14.2838490  31.9141490
  12.6052660  13.4776560  32.9420430  13.6213890  16.1574250  33.5010280
  13.2927250  15.3426010  33.1212010  14.5696190  16.1144060  33.3775970
  16.0748500  31.9286290  30.4747850  15.6151470  32.6802100  30.1005870
  15.4460960  31.2092760  30.4162650   2.8999120  28.0229530  32.8646570
   2.1733180  27.4034820  32.7972520   2.9608270  28.4170140  31.9944650
   6.5044220  30.2374530  29.6495980   7.0209240  29.6261890  29.1244240
   7.1541600  30.7403310  30.1406990   9.2439720  31.1283020  30.4764960
   9.5317530  30.8737320  29.5997970   9.7562940  30.5760380  31.0670530
  10.4616730  14.8673220  31.0561470   9.6788520  15.3418720  31.3358230
  10.1679660  13.9628050  30.9474650  15.0137800  15.5696320  29.1010560
  15.4545890  15.5141420  28.2532160  14.7445390  16.4854330  29.1720740
  16.8776370  15.2011560  27.1119380  16.8164770  14.2572780  26.9650400
  17.6568400  15.3091650  27.6572840   1.8057140  15.1720700  23.5775190
   2.5636500  15.2849580  23.0039220   1.3434310  16.0089900  23.5318620
   8.3470950  17.2859970  26.5677500   7.5345460  16.9116860  26.2273380
   8.8512590  16.5305050  26.8698690  12.8495930  13.9502420  27.8060570
  13.4525300  14.5222630  28.2809090  12.1088920  14.5141860  27.5834470
  15.9930530  14.3523980  23.0800850  16.1881160  15.2507430  23.3468280
  15.2060400  14.1211060  23.5733800   2.7891820  30.0337150  23.5193470
   2.2639440  30.4145180  22.8155430   2.7136400  30.6587920  24.2403180
   4.1782290  15.6984750  22.1177160   4.7075050  14.9114550  21.9885110
   4.8110610  16.3775940  22.3512690   6.3720130  15.4359890  25.1722550
   5.7422870  14.7347200  25.3392680   5.8325270  16.1964020  24.9555710
   9.3112080  32.0499120  37.8433160  10.2379390  31.8143390  37.8869120
   9.2962510  32.8771120  37.3619190  17.5457140  31.5924690  24.8407410
  17.7209330  30.9062430  24.1968330  16.8478710  32.1171740  24.4484080
   6.4975690  14.7143870  37.6075040   6.2159960  15.2177470  36.8435860
   6.8795390  13.9165620  37.2417170   5.3884790  31.9819530  22.3942720
   6.1203610  31.6978810  21.8466610   5.6478460  31.7432810  23.2842100
   4.5499580  28.0984260  22.3989050   3.9208460  28.5669360  22.9474880
   4.6647410  27.2533480  22.8335240  13.0991150  14.1297450  38.1855510
  12.9856600  14.4492060  39.0807030  13.9160890  14.5309960  37.8892790
  15.8789640  31.2768980  37.6674200  16.6714960  30.7818210  37.4600160
  16.1722790  31.9559120  38.2749810  12.0049300  22.1489920   8.5490250
  11.9243350  21.2344530   8.2781960  11.5913720  22.6456990   7.8429960
  10.1367340  23.9268940  10.4299520   9.3609440  23.4469380  10.7198090
  10.7880270  23.2474590  10.2555680   4.1533170  24.2388750  11.3075280
   3.3218050  23.9837460  11.7071790   4.7614150  24.3099520  12.0433200
  14.1574770  28.3329130   9.2098650  13.6956300  27.5616370   9.5385820
  14.9700320  28.3595200   9.7151100   4.1334430  28.2728840  11.5033300
   4.4362470  27.3826580  11.3243520   4.8778020  28.8299060  11.2755550
   2.5625120  19.1990640   5.0917670   1.6741820  19.5406610   4.9897550
   2.8466310  18.9990960   4.1998500  10.3838080  30.6187140   8.8302640
   9.7649520  31.0744640   8.2597080  11.2389860  30.7738600   8.4292340
   9.5776330  26.6026130  10.4369680   9.5084610  25.6616070  10.2758810
  10.3396190  26.6927540  11.0092250   1.7683000  17.2080650  12.7626300
   1.5885840  16.3106400  13.0429060   1.3663080  17.7552520  13.4373250
  10.6081500  19.4096510  10.6638610  10.9846320  18.5368390  10.5512280
  10.5101010  19.7455210   9.7729050   4.7386510  17.7822140   6.1256050
   4.8453260  18.6825870   6.4324810   3.8278870  17.7340110   5.8350700
  14.3905620  16.9046950   7.5966950  15.2115240  16.4143520   7.6392430
  14.4239700  17.4944610   8.3498790   2.3869670  19.7041150  11.3708640
   3.0679780  19.9679520  11.9896040   2.0717720  18.8642020  11.7046650
   6.5794240  20.7508510  10.4581230   7.0872460  21.2489480  11.0986250
   7.1107480  19.9743710  10.2820590  18.6805170  18.9213700  14.1610580
  17.9757340  19.3095410  13.6425690  18.9463090  19.6163990  14.7631510
   4.8630340  15.3907070  14.7244650   4.8648780  15.9079460  13.9190550
   4.0334650  14.9137250  14.7014580  11.2501430  25.5026380   6.2234550
  10.6318700  25.9675830   5.6597270  11.7624680  26.1953860   6.6404060
   6.1133190  25.0302250  12.9018150   5.7802570  25.6571170  13.5439220
   6.2899870  25.5564130  12.1219820  14.6267100  18.8447330  10.3694490
  13.9222670  19.1332220  10.9497600  14.9879260  19.6547440  10.0094050
   4.5445670  17.1017030  12.7315100   4.8862480  17.9459080  12.4368970
   3.6061480  17.2500770  12.8480440   5.3252290  26.9983050  14.7167330
   5.9426290  27.6734130  14.4351780   4.4645410  27.4071030  14.6254830
  16.2429880  28.4622460  12.6321970  15.5593400  29.1321570  12.6238640
  16.7824170  28.6603110  11.8666830  17.6954020  18.2902120  10.7603700
  16.7478930  18.3241100  10.8919130  18.0204010  19.1041070  11.1453060
   8.2273560  14.5899300   9.0559690   8.5348540  14.0346190   8.3395190
   7.2974260  14.7243760   8.8732680  13.7788620  30.3066590  11.3467150
  13.7915780  29.9028880  10.4789410  13.2263840  31.0813880  11.2428580
  15.0734040  27.0282810   6.4357320  14.9630370  26.0857140   6.5606740
  15.0702290  27.3898450   7.3220080  13.1774060  25.2096430  12.6749760
  13.5942850  24.9956540  11.8403220  13.9013880  25.4669220  13.2458380
  10.6154320  22.6548130   5.7919810   9.6883600  22.5885510   6.0208280
  10.7679140  23.5928260   5.6775050  10.6023400  18.9265130   2.7886970
   9.6627070  19.0879090   2.8739430  10.9206660  19.6450810   2.2422960
  17.1236160  23.6083650  12.7666000  16.2954790  23.6776740  12.2916130
  17.7186640  24.1937960  12.2981830  14.6451610  24.2168430   6.2955060
  14.0264030  23.8787980   5.6481360  14.6276060  23.5728190   7.0034250
  14.0878170  20.3952970  13.7120870  13.6749350  21.2206680  13.9660860
  13.3554120  19.8098010  13.5197230   6.2210960  23.1812870   8.5739540
   5.8167960  22.4690120   8.0785440   6.3074080  22.8366110   9.4627580
   6.6892660  26.8680430  10.7378750   6.3920950  26.2625900  10.0586530
   7.6392480  26.9057740  10.6268110   4.9339580  19.9556080  12.3538580
   5.4854170  20.0651420  11.5791830   5.4483090  20.3293680  13.0693810
  14.7778270  30.4412300  14.4001850  14.3008830  31.2484490  14.2074460
  14.0940060  29.7890630  14.5528060   5.7811090  26.6062120  17.3886550
   4.8839620  26.8302090  17.6359950   5.8063960  26.7297060  16.4397950
  12.8216310  23.4555240   3.3027810  13.2609590  22.6177670   3.1565630
  13.5344730  24.0884640   3.3891950   4.6082310  23.4775440  15.9643920
   4.4690080  24.3498240  16.3331320   3.7263670  23.1348250  15.8191860
  10.9311690  28.3951310   7.2709050  11.3707600  29.1375640   6.8564440
  10.8698580  28.6377880   8.1948010   6.4062660  29.4197140  18.1729070
   6.3778090  29.8240090  17.3057500   6.2427630  28.4907500  18.0100670
   2.9215590  22.0757850   6.0746190   2.8013190  22.8019940   5.4627460
   2.6116480  21.3060760   5.5974100  18.3577480  30.2024240  19.4693240
  18.8337200  30.6807130  20.1482320  18.9784640  30.1341730  18.7438740
   1.8048590  26.9473180   8.2921010   1.3976670  27.0887770   7.4374610
   2.6961600  26.6633340   8.0892220  17.7610730  27.3937090  16.6293250
  17.8873790  27.1548970  15.7110430  17.8032110  26.5621630  17.1015330
  11.6227470  31.0965090  15.1988060  12.1372140  31.0073100  16.0010490
  10.7796550  31.4424790  15.4915970  13.5981870  31.3820430   4.6272060
  13.4383010  31.0923370   5.5253890  13.4328580  30.6060560   4.0917290
   6.0770250  31.1618960   6.4043680   5.9012730  30.2454500   6.1911480
   5.2225990  31.5206250   6.6441480  13.3008000  28.8907990   3.1870060
  12.6073160  28.8885280   2.5272340  14.0430860  28.4667310   2.7564230
  12.8657930  30.5170700   7.2618550  13.3214880  29.7360080   7.5757170
  13.2050450  31.2277520   7.8059730  17.6134740  19.4469550  17.5942990
  16.9979010  19.9549220  17.0658450  17.2931160  18.5467880  17.5368930
   5.3879250  15.4192920   9.4569860   4.9447400  16.2002460   9.1254380
   5.9464240  15.7422810  10.1640800   9.6749060  18.2861440  15.0605180
   9.2128430  18.4944460  15.8725120   9.2727170  17.4720790  14.7575850
  14.6753570  19.5070390  16.1901840  13.8247160  19.2076140  16.5110910
  14.5155360  19.7512400  15.2785660  11.7703280  21.0072140  18.2900630
  12.0956690  20.1735890  17.9502860  12.5583610  21.5300660  18.4378960
   8.5038070  15.0403620   4.3375690   7.8792250  15.0363490   5.0629000
   8.4168190  14.1734580   3.9411660   7.4255150  15.9640250  11.3159460
   7.7227480  16.8703080  11.2351480   7.9740710  15.4759030  10.7019030
   5.1793470  20.5426490   7.1851110   4.9534390  20.3263660   8.0897730
   4.3986000  20.9754950   6.8397080  12.4091230  20.5489860   5.7841760
  11.8100120  21.2725660   5.6005380  12.9570840  20.4866640   5.0018210
   7.6192680  21.4412070  17.8511380   7.5236280  20.5006800  17.7011780
   8.4624660  21.6627140  17.4559450  11.0156100  19.1853400   7.8145040
  11.4085670  19.5025600   7.0013730  11.3772950  18.3065280   7.9289560
   2.7503220  17.8525740  16.0045160   2.3566610  18.7000950  16.2117940
   2.0621620  17.2152110  16.1953800   9.3248270  17.9360710  19.0741900
   8.6346590  17.7432910  19.7087990  10.0680570  18.2195350  19.6066200
  11.6011240  21.7759150  11.9095820  10.8692360  22.2845960  12.2585920
  11.2035580  20.9589130  11.6084600   8.0388630  18.4513350  10.3148310
   8.0424690  18.0103300   9.4652850   8.9339750  18.7730680  10.4220130
   3.8891010  18.3339840   9.2742520   3.5491060  18.8115070  10.0309570
   3.1268330  17.8804960   8.9143620   8.1008780  19.4525430   3.3055070
   8.2221600  19.4111910   4.2540890   7.7157290  20.3149580   3.1501800
  12.0637150  17.2292830  11.3218760  12.0809890  17.6801480  12.1660610
  11.8152730  16.3298470  11.5352200   7.1130280  21.7626570   2.7038370
   6.5447180  21.3144820   2.0774280   7.8219280  22.1219350   2.1703520
  15.4907900  14.6425010  17.1605140  15.8153670  13.9114670  17.6863120
  15.5264410  14.3238650  16.2586130   2.1899460  25.6638590  16.5805100
   1.8054250  25.0232260  17.1788060   2.5011650  26.3674710  17.1499830
   8.3396600  22.5115130  12.0613720   8.7066730  22.0373700  12.8075060
   8.1501660  23.3856700  12.4022060   6.1295970  21.5523770  14.3797930
   5.8253040  22.4315750  14.6048290   7.0842430  21.6123560  14.4155370
   4.6577760  25.7584760   4.9764780   3.8840020  25.2182380   4.8163500
   5.3872390  25.2391370   4.6382540  15.4165740  24.7550120  10.7691170
  16.1364860  25.2505410  10.3787280  15.2147560  24.0768010  10.1245040
  10.8775680  16.1488080   4.9120560  10.0640290  15.6501250   4.8365870
  10.6837630  16.9886330   4.4956910  10.7984540  24.8259180  16.6560170
  10.7321850  23.9054850  16.4017760  10.1689680  24.9234620  17.3704810
  13.5924070  20.5207730   3.2082720  14.4803690  20.8324960   3.0334060
  13.5629160  19.6479980   2.8163300   4.7015160  25.4265140   8.6143590
   5.2193830  24.6233400   8.5600480   4.2499180  25.3644280   9.4560420
   9.5884660  26.6931420   3.8870890   9.9300360  27.4373650   3.3914210
   8.7597370  27.0062540   4.2495720   2.1859700  22.3926510  15.5269290
   1.8274640  23.0580360  16.1142630   1.8914260  21.5610060  15.8981910
   5.3872820  22.8510750  18.4108840   5.0872960  22.9967930  17.5136660
   6.1584060  22.2916040  18.3182230  10.7301270  27.6479750  16.4063970
  10.7445810  26.7160710  16.1882880  10.0226370  27.7339510  17.0453740
  15.8638340  21.8319570   2.6762580  15.7802060  22.2633790   1.8259020
  16.5832530  22.2917920   3.1089400  16.9412480  24.2887090  15.7532550
  16.2160670  24.8815870  15.5561940  17.4687940  24.2810630  14.9545920
  16.8925590  28.6861830   5.4044710  16.2501750  28.0317450   5.6788430
  16.5056250  29.0916920   4.6285380  12.4712070  26.0147260   9.2516400
  12.8235890  25.4175390   8.5917770  11.5874400  25.6891490   9.4224650
   8.5575350  26.7744950   6.6586810   9.2446480  27.3214160   7.0394400
   7.7707770  27.3185680   6.6936420   7.8602560  23.7790980   6.2712170
   8.3165340  24.5896230   6.4972360   7.5090770  23.4614120   7.1030660
  10.1635170  29.2897320  13.5004470  10.8077390  29.4956700  14.1777890
  10.5264610  28.5285720  13.0475320   3.7614340  14.1228630   6.7434690
   3.6328970  14.1146530   7.6919610   2.9376360  14.4611720   6.3925700
  11.4367250  27.2929670  12.2181920  12.0789480  26.5922830  12.3314090
  11.9616600  28.0728110  12.0378810  13.2104870  28.0924570  15.4217980
  13.5461110  28.6791260  16.0995900  12.2905210  27.9617280  15.6515770
  14.8639220  25.4950230   3.6035220  14.5760920  25.9562920   4.3913100
  15.6591390  25.0348000   3.8719440   9.0393450  28.1415900  18.5906040
   8.7190320  27.4225140  19.1351730   8.3651810  28.8170970  18.6642100
   7.0807620  28.9876350   3.5339190   7.0717720  29.7206040   2.9183700
   6.1605980  28.7407930   3.6266150   2.6814260  24.2091240   4.2785950
   2.0742210  24.9490140   4.2881250   3.1563610  24.2990600   3.4524150
  12.2547050  18.3742060  13.9542840  12.6227870  17.5537270  14.2822410
  11.3945250  18.4343950  14.3698490  15.6209080  17.3299000   4.7630400
  14.9922240  17.4344670   4.0488630  15.1261000  17.5495780   5.5524280
   7.5893110  19.6084950   6.1788280   6.8809260  20.0771290   6.6201890
   7.8737590  18.9506960   6.8133470   9.2149040  21.0281650  14.1780810
   9.7134290  21.5027470  14.8432660   9.3571990  20.1045170  14.3850840
  11.6208540  16.3335610   7.6184070  11.4976320  16.3521740   6.6693580
  12.5693100  16.3814550   7.7382470   8.7085330  31.5690910   6.8912050
   8.9626830  31.5312300   5.9691420   7.7597810  31.4424240   6.8840300
   5.7928130  17.9170030   3.5538990   6.6418660  18.3540180   3.4879180
   5.4259400  18.2290290   4.3811050  16.4215900  17.2449610  15.0209200
  15.9189500  17.9855010  15.3603010  17.2372560  17.6333610  14.7045990
  14.7137910  22.4882790   8.4670560  13.7728050  22.5033020   8.6418250
  15.0281980  21.7018750   8.9130860   3.3866310  21.6027460   2.7107410
   3.4669900  20.6554970   2.8224810   4.2786060  21.9334340   2.8168070
  16.7163490  29.6591640  10.1424820  16.8410910  30.4822810  10.6148630
  17.5829050  29.4482370   9.7948970   4.1881020  31.7522850   9.8141950
   4.9243500  31.2038310  10.0850520   4.5721940  32.6178860   9.6747940
   3.1939300  30.9368920  19.0027530   3.9952030  31.2580970  19.4162930
   2.6791120  30.5764500  19.7247440  12.0303930  27.0448790  18.9502940
  11.4242090  27.0680390  18.2098690  11.7258040  26.3131830  19.4870190
  13.4604300  30.7729080  17.5612350  14.4126050  30.6887100  17.5112590
  13.3132520  31.4370790  18.2346140  16.3513500  30.1523290   3.0604260
  16.0655010  29.7388430   2.2458440  16.1533050  31.0811000   2.9404780
   7.9675050  24.8313370  17.4799100   7.2020720  25.3998370  17.3953770
   8.1491010  24.5389580  16.5867330  11.0563460  25.2076600   2.1051860
  10.5073560  25.6545900   2.7494600  11.6782720  24.7025850   2.6289530
  15.1098400  26.5618700  18.0374120  15.8507870  26.8994460  17.5341580
  14.3471080  26.7310760  17.4843890   2.9460190  21.5671970  18.8413650
   2.9865530  21.2685840  19.7498880   3.8005690  21.9679580  18.6821170
   6.7238580  24.1667520   4.0017160   7.1455000  24.0007390   4.8448550
   6.8489420  23.3567750   3.5072300   4.8866000  20.1464070  16.8088140
   4.3562460  19.6555020  16.1811480   5.5554070  20.5748270  16.2746070
  13.7844060  24.6133530  16.5729330  14.1985080  24.7678610  17.4219750
  12.8495060  24.7388750  16.7355110  14.2566230  21.9529690  18.5768480
  14.8387000  21.1982010  18.4888960  14.4328000  22.4837130  17.7999960
   5.3738300  17.1126440  16.8885430   5.2795170  16.4947190  16.1636300
   4.7935690  17.8392730  16.6615340   8.1399740  15.6699680  13.9212820
   7.6917040  15.6923940  13.0758370   7.5064940  15.2718700  14.5183120
   8.5459290  24.5654010  14.5425260   8.9647400  25.4086740  14.3701500
   7.6267920  24.7026050  14.3132040  10.8823190  22.2970190  15.9263100
  11.0019400  21.7011330  16.6657940  11.7417190  22.3339880  15.5064400
  13.2211090  22.8507380  14.5025610  12.6946310  23.3750000  13.8990750
  13.5642430  23.4834770  15.1335340   6.3966710  30.8707020  15.6582990
   5.8587800  31.5953080  15.3391690   6.6500670  30.3937360  14.8680330
   7.6491960  18.8391540  17.1838920   8.2391650  18.5307390  17.8716740
   6.8312200  18.3671290  17.3398820  12.4685390  18.4557350  17.4171940
  11.7800910  17.7938890  17.3521930  13.1891410  18.0095620  17.8620400
  13.0985790  15.0508980   3.4762200  13.3788080  14.2076880   3.8321620
  12.3251520  15.2832090   3.9900950   9.2528920  32.1058230  15.9169640
   9.1787620  33.0093370  16.2242010   8.3507760  31.7870130  15.8891710
   9.8014250  31.2716740   3.5396000  10.6965040  31.6101710   3.5614760
   9.8331880  30.5496150   2.9120280   3.4410410  26.6443790   1.7683000
   3.8785280  27.1873460   2.4240580   3.9258140  25.8190740   1.7779340
   5.2518130  27.7641830   6.8805230   4.9513670  27.6406800   7.7809140
   5.1455620  26.9050420   6.4720960  16.7808600  29.8020410  16.2462200
  16.1810590  29.8612970  15.5026120  16.9102500  28.8625390  16.3759050
  17.4766510  24.2885710   4.0866110  18.2385420  24.8582360   4.1925800
  17.4920880  23.7212910   4.8574420  18.4826480  25.1435810   8.9308040
  18.8535310  24.3603130   8.5244010  19.1228410  25.8324910   8.7525340
  15.4660240  26.5272390  14.3438360  14.6520080  26.9569550  14.6064150
  15.8734440  27.1390800  13.7307410  13.9261290  17.6064930   2.5392260
  14.3446170  17.4195910   1.6988920  13.6197350  16.7543980   2.8495190
  17.4251020  22.5189070   6.2368060  17.0494620  21.7517000   5.8049350
  16.6954140  22.9011770   6.7242990   2.0146780  23.1976210  12.8577110
   2.3819820  23.1103610  13.7373130   1.4457600  22.4342760  12.7583970
  16.8150640  21.6660590  15.8707580  16.5836730  21.4373340  14.9705530
  17.0755190  22.5860140  15.8252470  15.2538710  16.8917020  18.6487280
  16.1308890  16.9000420  19.0321280  15.2659550  16.1547860  18.0379630
  16.7001980  20.7446560   9.5375300  17.2239460  20.2509210   8.9065470
  17.2861400  20.8796920  10.2822870  16.8791700  20.8286430  13.0594850
  15.9294410  20.7949970  13.1739840  17.0604710  21.7386540  12.8244620
  16.1901950  20.0019910   5.4767710  16.6861070  19.7690780   6.2616590
  15.9918020  19.1631750   5.0605350   2.0702490  14.3833630  11.1118750
   2.7178680  13.8331010  10.6713910   2.4904330  14.6376780  11.9334560
  17.6189110  18.6380860   8.0105390  17.5088390  18.4836900   8.9487660
  18.3796700  18.1101800   7.7680800  15.9654830  14.5774990  14.4688390
  16.6027050  15.1909130  14.8347580  16.1129720  14.6135650  13.5237620
  18.5817870  17.2399440   3.8768240  17.7869370  17.1744560   4.4061150
  18.7861150  18.1750080   3.8653590  15.5236290  31.2790990   7.8706630
  16.1195360  30.9575560   7.1941050  15.7814440  30.8062810   8.6619900
   1.8234490  14.5389300  13.8544070   1.4749310  14.9953120  14.6202250
   1.4922190  13.6446430  13.9366500   3.4298860  27.7108900  18.0197260
   3.3868490  27.3401810  18.9011720   3.5609870  28.6486470  18.1599080
   7.1304890  29.2668490  13.6206980   6.8896250  29.5343050  12.7337500
   8.0707530  29.4374220  13.6757840   9.3359310  15.7301180  17.3763490
   9.2748200  16.3223010  18.1258900  10.2759690  15.6227140  17.2313750
  11.9733870  15.3871240  17.0155780  12.5874280  15.7050530  16.3536860
  12.5183430  14.9019830  17.6351640  18.3909050  31.2862870  14.4217620
  17.8967330  31.6831740  13.7044750  17.7822340  30.6612080  14.8154900
   2.4955130  14.0665500  17.1294840   3.0438120  13.8853550  16.3660950
   2.5610440  13.2759610  17.6651150   3.2686890  30.6571150  15.1395040
   2.6747210  30.5255850  15.8785080   3.2610730  29.8209290  14.6737140
  12.7141910  13.9503380  13.3425070  11.8401750  14.2838490  13.1398000
  12.6052660  13.4776560  14.1676940  13.6213890  16.1574250  14.7266790
  13.2927250  15.3426010  14.3468520  14.5696190  16.1144060  14.6032480
  16.0748500  31.9286290  11.7004360  15.6151470  32.6802100  11.3262380
  15.4460960  31.2092760  11.6419160   2.8999120  28.0229530  14.0903080
   2.1733180  27.4034820  14.0229030   2.9608270  28.4170140  13.2201160
   6.5044220  30.2374530  10.8752490   7.0209240  29.6261890  10.3500750
   7.1541600  30.7403310  11.3663500   9.2439720  31.1283020  11.7021470
   9.5317530  30.8737320  10.8254480   9.7562940  30.5760380  12.2927040
  10.4616730  14.8673220  12.2817980   9.6788520  15.3418720  12.5614740
  10.1679660  13.9628050  12.1731160  15.0137800  15.5696320  10.3267070
  15.4545890  15.5141420   9.4788670  14.7445390  16.4854330  10.3977250
  16.8776370  15.2011560   8.3375890  16.8164770  14.2572780   8.1906910
  17.6568400  15.3091650   8.8829350   1.8057140  15.1720700   4.8031700
   2.5636500  15.2849580   4.2295730   1.3434310  16.0089900   4.7575130
   8.3470950  17.2859970   7.7934010   7.5345460  16.9116860   7.4529890
   8.8512590  16.5305050   8.0955200  12.8495930  13.9502420   9.0317080
  13.4525300  14.5222630   9.5065600  12.1088920  14.5141860   8.8090980
  15.9930530  14.3523980   4.3057360  16.1881160  15.2507430   4.5724790
  15.2060400  14.1211060   4.7990310   2.7891820  30.0337150   4.7449980
   2.2639440  30.4145180   4.0411940   2.7136400  30.6587920   5.4659690
   4.1782290  15.6984750   3.3433670   4.7075050  14.9114550   3.2141620
   4.8110610  16.3775940   3.5769200   6.3720130  15.4359890   6.3979060
   5.7422870  14.7347200   6.5649190   5.8325270  16.1964020   6.1812220
   9.3112080  32.0499120  19.0689670  10.2379390  31.8143390  19.1125630
   9.2962510  32.8771120  18.5875700  17.5457140  31.5924690   6.0663920
  17.7209330  30.9062430   5.4224840  16.8478710  32.1171740   5.6740590
   6.4975690  14.7143870  18.8331550   6.2159960  15.2177470  18.0692370
   6.8795390  13.9165620  18.4673680   5.3884790  31.9819530   3.6199230
   6.1203610  31.6978810   3.0723120   5.6478460  31.7432810   4.5098610
   4.5499580  28.0984260   3.6245560   3.9208460  28.5669360   4.1731390
   4.6647410  27.2533480   4.0591750  13.0991150  14.1297450  19.4112020
  12.9856600  14.4492060  20.3063540  13.9160890  14.5309960  19.1149300
  15.8789640  31.2768980  18.8930710  16.6714960  30.7818210  18.6856670
  16.1722790  31.9559120  19.5006320  12.0049300   3.3746430  64.8720720
  11.9243350   2.4601040  64.6012430  11.5913720   3.8713500  64.1660430
  10.1367340   5.1525450  66.7529990   9.3609440   4.6725890  67.0428560
  10.7880270   4.4731100  66.5786150   4.1533170   5.4645260  67.6305750
   3.3218050   5.2093970  68.0302260   4.7614150   5.5356030  68.3663670
  14.1574770   9.5585640  65.5329120  13.6956300   8.7872880  65.8616290
  14.9700320   9.5851710  66.0381570   4.1334430   9.4985350  67.8263770
   4.4362470   8.6083090  67.6473990   4.8778020  10.0555570  67.5986020
  10.3838080  11.8443650  65.1533110   9.7649520  12.3001150  64.5827550
  11.2389860  11.9995110  64.7522810   9.5776330   7.8282640  66.7600150
   9.5084610   6.8872580  66.5989280  10.3396190   7.9184050  67.3322720
  11.2501430   6.7282890  62.5465020  10.6318700   7.1932340  61.9827740
  11.7624680   7.4210370  62.9634530   6.1133190   6.2558760  69.2248620
   5.7802570   6.8827680  69.8669690   6.2899870   6.7820640  68.4450290
   5.3252290   8.2239560  71.0397800   5.9426290   8.8990640  70.7582250
   4.4645410   8.6327540  70.9485300  16.2429880   9.6878970  68.9552440
  15.5593400  10.3578080  68.9469110  16.7824170   9.8859620  68.1897300
  13.7788620  11.5323100  67.6697620  13.7915780  11.1285390  66.8019880
  13.2263840  12.3070390  67.5659050  15.0734040   8.2539320  62.7587790
  14.9630370   7.3113650  62.8837210  15.0702290   8.6154960  63.6450550
  13.1774060   6.4352940  68.9980230  13.5942850   6.2213050  68.1633690
  13.9013880   6.6925730  69.5688850  10.6154320   3.8804640  62.1150280
   9.6883600   3.8142020  62.3438750  10.7679140   4.8184770  62.0005520
  17.1236160   4.8340160  69.0896470  16.2954790   4.9033250  68.6146600
  17.7186640   5.4194470  68.6212300  14.6451610   5.4424940  62.6185530
  14.0264030   5.1044490  61.9711830  14.6276060   4.7984700  63.3264720
   6.2210960   4.4069380  64.8970010   5.8167960   3.6946630  64.4015910
   6.3074080   4.0622620  65.7858050   6.6892660   8.0936940  67.0609220
   6.3920950   7.4882410  66.3817000   7.6392480   8.1314250  66.9498580
  14.7778270  11.6668810  70.7232320  14.3008830  12.4741000  70.5304930
  14.0940060  11.0147140  70.8758530   5.7811090   7.8318630  73.7117020
   4.8839620   8.0558600  73.9590420   5.8063960   7.9553570  72.7628420
  12.8216310   4.6811750  59.6258280  13.2609590   3.8434180  59.4796100
  13.5344730   5.3141150  59.7122420   4.6082310   4.7031950  72.2874390
   4.4690080   5.5754750  72.6561790   3.7263670   4.3604760  72.1422330
  10.9311690   9.6207820  63.5939520  11.3707600  10.3632150  63.1794910
  10.8698580   9.8634390  64.5178480   6.4062660  10.6453650  74.4959540
   6.3778090  11.0496600  73.6287970   6.2427630   9.7164010  74.3331140
   2.9215590   3.3014360  62.3976660   2.8013190   4.0276450  61.7857930
   2.6116480   2.5317270  61.9204570   1.8048590   8.1729690  64.6151480
   1.3976670   8.3144280  63.7605080   2.6961600   7.8889850  64.4122690
  17.7610730   8.6193600  72.9523720  17.8873790   8.3805480  72.0340900
  17.8032110   7.7878140  73.4245800  11.6227470  12.3221600  71.5218530
  12.1372140  12.2329610  72.3240960  10.7796550  12.6681300  71.8146440
  13.5981870  12.6076940  60.9502530  13.4383010  12.3179880  61.8484360
  13.4328580  11.8317070  60.4147760   6.0770250  12.3875470  62.7274150
   5.9012730  11.4711010  62.5141950   5.2225990  12.7462760  62.9671950
  13.3008000  10.1164500  59.5100530  12.6073160  10.1141790  58.8502810
  14.0430860   9.6923820  59.0794700  12.8657930  11.7427210  63.5849020
  13.3214880  10.9616590  63.8987640  13.2050450  12.4534030  64.1290200
  11.7703280   2.2328650  74.6131100  12.0956690   1.3992400  74.2733330
  12.5583610   2.7557170  74.7609430   5.1793470   1.7683000  63.5081580
   4.9534390   1.5520170  64.4128200   4.3986000   2.2011460  63.1627550
  12.4091230   1.7746370  62.1072230  11.8100120   2.4982170  61.9235850
  12.9570840   1.7123150  61.3248680   7.6192680   2.6668580  74.1741850
   7.5236280   1.7263310  74.0242250   8.4624660   2.8883650  73.7789920
  11.6011240   3.0015660  68.2326290  10.8692360   3.5102470  68.5816390
  11.2035580   2.1845640  67.9315070   7.1130280   2.9883080  59.0268840
   6.5447180   2.5401330  58.4004750   7.8219280   3.3475860  58.4933990
   2.1899460   6.8895100  72.9035570   1.8054250   6.2488770  73.5018530
   2.5011650   7.5931220  73.4730300   8.3396600   3.7371640  68.3844190
   8.7066730   3.2630210  69.1305530   8.1501660   4.6113210  68.7252530
   6.1295970   2.7780280  70.7028400   5.8253040   3.6572260  70.9278760
   7.0842430   2.8380070  70.7385840   4.6577760   6.9841270  61.2995250
   3.8840020   6.4438890  61.1393970   5.3872390   6.4647880  60.9613010
  15.4165740   5.9806630  67.0921640  16.1364860   6.4761920  66.7017750
  15.2147560   5.3024520  66.4475510  10.7984540   6.0515690  72.9790640
  10.7321850   5.1311360  72.7248230  10.1689680   6.1491130  73.6935280
   4.7015160   6.6521650  64.9374060   5.2193830   5.8489910  64.8830950
   4.2499180   6.5900790  65.7790890   9.5884660   7.9187930  60.2101360
   9.9300360   8.6630160  59.7144680   8.7597370   8.2319050  60.5726190
   2.1859700   3.6183020  71.8499760   1.8274640   4.2836870  72.4373100
   1.8914260   2.7866570  72.2212380   5.3872820   4.0767260  74.7339310
   5.0872960   4.2224440  73.8367130   6.1584060   3.5172550  74.6412700
  10.7301270   8.8736260  72.7294440  10.7445810   7.9417220  72.5113350
  10.0226370   8.9596020  73.3684210  15.8638340   3.0576080  58.9993050
  15.7802060   3.4890300  58.1489490  16.5832530   3.5174430  59.4319870
  16.9412480   5.5143600  72.0763020  16.2160670   6.1072380  71.8792410
  17.4687940   5.5067140  71.2776390  16.8925590   9.9118340  61.7275180
  16.2501750   9.2573960  62.0018900  16.5056250  10.3173430  60.9515850
  12.4712070   7.2403770  65.5746870  12.8235890   6.6431900  64.9148240
  11.5874400   6.9148000  65.7455120   8.5575350   8.0001460  62.9817280
   9.2446480   8.5470670  63.3624870   7.7707770   8.5442190  63.0166890
   7.8602560   5.0047490  62.5942640   8.3165340   5.8152740  62.8202830
   7.5090770   4.6870630  63.4261130  10.1635170  10.5153830  69.8234940
  10.8077390  10.7213210  70.5008360  10.5264610   9.7542230  69.3705790
  11.4367250   8.5186180  68.5412390  12.0789480   7.8179340  68.6544560
  11.9616600   9.2984620  68.3609280  15.2822970   8.8034800  58.2651530
  15.0560550   8.0865240  58.8576170  14.8919170   8.5547240  57.4273280
  13.2104870   9.3181080  71.7448450  13.5461110   9.9047770  72.4226370
  12.2905210   9.1873790  71.9746240  14.8639220   6.7206740  59.9265690
  14.5760920   7.1819430  60.7143570  15.6591390   6.2604510  60.1949910
   7.0807620  10.2132860  59.8569660   7.0717720  10.9462550  59.2414170
   6.1605980   9.9664440  59.9496620   2.6814260   5.4347750  60.6016420
   2.0742210   6.1746650  60.6111720   3.1563610   5.5247110  59.7754620
  10.0667220  10.2761100  58.5194850  10.1679200  10.0725090  57.5896830
   9.1668960  10.0219380  58.7242630   9.2149040   2.2538160  70.5011280
   9.7134290   2.7283980  71.1663130   9.3571990   1.3301680  70.7081310
   8.7085330  12.7947420  63.2142520   8.9626830  12.7568810  62.2921890
   7.7597810  12.6680750  63.2070770  14.7137910   3.7139300  64.7901030
  13.7728050   3.7289530  64.9648720  15.0281980   2.9275260  65.2361330
   4.6919550   5.3958900  58.3504990   5.4582820   5.2840260  58.9130420
   4.7694240   4.6996870  57.6981760   3.3866310   2.8283970  59.0337880
   3.4669900   1.8811480  59.1455280   4.2786060   3.1590850  59.1398540
  16.7163490  10.8848150  66.4655290  16.8410910  11.7079320  66.9379100
  17.5829050  10.6738880  66.1179440   4.1881020  12.9779360  66.1372420
   4.9243500  12.4294820  66.4080990   4.5721940  13.8435370  65.9978410
   7.2983330  12.1509670  57.9597990   8.0911940  12.4398500  57.5079780
   6.7787680  11.7201840  57.2810470  13.4604300  11.9985590  73.8842820
  14.4126050  11.9143610  73.8343060  13.3132520  12.6627300  74.5576610
  16.3513500  11.3779800  59.3834730  16.0655010  10.9644940  58.5688910
  16.1533050  12.3067510  59.2635250   7.8160730   7.3713080  57.8240340
   7.7111370   6.7565430  58.5501720   7.6484950   6.8478970  57.0403350
   7.9675050   6.0569880  73.8029570   7.2020720   6.6254880  73.7184240
   8.1491010   5.7646090  72.9097800  11.0563460   6.4333110  58.4282330
  10.5073560   6.8802410  59.0725070  11.6782720   5.9282360  58.9520000
  15.1098400   7.7875210  74.3604590  15.8507870   8.1250970  73.8572050
  14.3471080   7.9567270  73.8074360   6.7238580   5.3924030  60.3247630
   7.1455000   5.2263900  61.1679020   6.8489420   4.5824260  59.8302770
   9.2366220   4.4161640  57.5724730   9.7571880   3.7010660  57.2065880
   9.8834620   5.0547510  57.8725240  13.7844060   5.8390040  72.8959800
  14.1985080   5.9935120  73.7450220  12.8495060   5.9645260  73.0585580
  14.2566230   3.1786200  74.8998950  14.8387000   2.4238520  74.8119430
  14.4328000   3.7093640  74.1230430   8.5459290   5.7910520  70.8655730
   8.9647400   6.6343250  70.6931970   7.6267920   5.9282560  70.6362510
  10.8823190   3.5226700  72.2493570  11.0019400   2.9267840  72.9888410
  11.7417190   3.5596390  71.8294870  13.2211090   4.0763890  70.8256080
  12.6946310   4.6006510  70.2221220  13.5642430   4.7091280  71.4565810
   6.3966710  12.0963530  71.9813460   5.8587800  12.8209590  71.6622160
   6.6500670  11.6193870  71.1910800   9.2528920  13.3314740  72.2400110
   9.1787620  14.2349880  72.5472480   8.3507760  13.0126640  72.2122180
   9.8014250  12.4973250  59.8626470  10.6965040  12.8358220  59.8845230
   9.8331880  11.7752660  59.2350750   3.4410410   7.8700300  58.0913470
   3.8785280   8.4129970  58.7471050   3.9258140   7.0447250  58.1009810
   5.2518130   8.9898340  63.2035700   4.9513670   8.8663310  64.1039610
   5.1455620   8.1306930  62.7951430  16.7808600  11.0276920  72.5692670
  16.1810590  11.0869480  71.8256590  16.9102500  10.0881900  72.6989520
  18.0210050   8.7694740  57.9062380  17.1903010   8.8371390  58.3769610
  18.1981880   9.6598860  57.6029240  17.4766510   5.5142220  60.4096580
  18.2385420   6.0838870  60.5156270  17.4920880   4.9469420  61.1804890
  18.4826480   6.3692320  65.2538510  18.8535310   5.5859640  64.8474480
  19.1228410   7.0581420  65.0755810  15.4660240   7.7528900  70.6668830
  14.6520080   8.1826060  70.9294620  15.8734440   8.3647310  70.0537880
  17.5285680   5.8076590  57.5669100  17.8034520   6.7155470  57.4388320
  17.3396420   5.7439120  58.5031090  17.4251020   3.7445580  62.5598530
  17.0494620   2.9773510  62.1279820  16.6954140   4.1268280  63.0473460
   2.0146780   4.4232720  69.1807580   2.3819820   4.3360120  70.0603600
   1.4457600   3.6599270  69.0814440  16.8150640   2.8917100  72.1938050
  16.5836730   2.6629850  71.2936000  17.0755190   3.8116650  72.1482940
  16.7001980   1.9703070  65.8605770  17.2239460   1.4765720  65.2295940
  17.2861400   2.1053430  66.6053340  16.8791700   2.0542940  69.3825320
  15.9294410   2.0206480  69.4970310  17.0604710   2.9643050  69.1475090
  15.5236290  12.5047500  64.1937100  16.1195360  12.1832070  63.5171520
  15.7814440  12.0319320  64.9850370   7.1304890  10.4925000  69.9437450
   6.8896250  10.7599560  69.0567970   8.0707530  10.6630730  69.9988310
  18.3909050  12.5119380  70.7448090  17.8967330  12.9088250  70.0275220
  17.7822340  11.8868590  71.1385370   3.2686890  11.8827660  71.4625510
   2.6747210  11.7512360  72.2015550   3.2610730  11.0465800  70.9967610
  16.0748500  13.1542800  68.0234830  15.6151470  13.9058610  67.6492850
  15.4460960  12.4349270  67.9649630   2.8999120   9.2486040  70.4133550
   2.1733180   8.6291330  70.3459500   2.9608270   9.6426650  69.5431630
   6.5044220  11.4631040  67.1982960   7.0209240  10.8518400  66.6731220
   7.1541600  11.9659820  67.6893970   9.2439720  12.3539530  68.0251940
   9.5317530  12.0993830  67.1484950   9.7562940  11.8016890  68.6157510
   2.7891820  11.2593660  61.0680450   2.2639440  11.6401690  60.3642410
   2.7136400  11.8844430  61.7890160  17.5457140  12.8181200  62.3894390
  17.7209330  12.1318940  61.7455310  16.8478710  13.3428250  61.9971060
   5.3884790  13.2076040  59.9429700   6.1203610  12.9235320  59.3953590
   5.6478460  12.9689320  60.8329080   4.5499580   9.3240770  59.9476030
   3.9208460   9.7925870  60.4961860   4.6647410   8.4789990  60.3822220
  12.0049300   3.3746430  46.0977230  11.9243350   2.4601040  45.8268940
  11.5913720   3.8713500  45.3916940  10.1367340   5.1525450  47.9786500
   9.3609440   4.6725890  48.2685070  10.7880270   4.4731100  47.8042660
   4.1533170   5.4645260  48.8562260   3.3218050   5.2093970  49.2558770
   4.7614150   5.5356030  49.5920180  14.1574770   9.5585640  46.7585630
  13.6956300   8.7872880  47.0872800  14.9700320   9.5851710  47.2638080
   4.1334430   9.4985350  49.0520280   4.4362470   8.6083090  48.8730500
   4.8778020  10.0555570  48.8242530  10.3838080  11.8443650  46.3789620
   9.7649520  12.3001150  45.8084060  11.2389860  11.9995110  45.9779320
   9.5776330   7.8282640  47.9856660   9.5084610   6.8872580  47.8245790
  10.3396190   7.9184050  48.5579230  11.2501430   6.7282890  43.7721530
  10.6318700   7.1932340  43.2084250  11.7624680   7.4210370  44.1891040
   6.1133190   6.2558760  50.4505130   5.7802570   6.8827680  51.0926200
   6.2899870   6.7820640  49.6706800   5.3252290   8.2239560  52.2654310
   5.9426290   8.8990640  51.9838760   4.4645410   8.6327540  52.1741810
  16.2429880   9.6878970  50.1808950  15.5593400  10.3578080  50.1725620
  16.7824170   9.8859620  49.4153810  13.7788620  11.5323100  48.8954130
  13.7915780  11.1285390  48.0276390  13.2263840  12.3070390  48.7915560
  15.0734040   8.2539320  43.9844300  14.9630370   7.3113650  44.1093720
  15.0702290   8.6154960  44.8707060  13.1774060   6.4352940  50.2236740
  13.5942850   6.2213050  49.3890200  13.9013880   6.6925730  50.7945360
  10.6154320   3.8804640  43.3406790   9.6883600   3.8142020  43.5695260
  10.7679140   4.8184770  43.2262030  17.1236160   4.8340160  50.3152980
  16.2954790   4.9033250  49.8403110  17.7186640   5.4194470  49.8468810
  14.6451610   5.4424940  43.8442040  14.0264030   5.1044490  43.1968340
  14.6276060   4.7984700  44.5521230   6.2210960   4.4069380  46.1226520
   5.8167960   3.6946630  45.6272420   6.3074080   4.0622620  47.0114560
   6.6892660   8.0936940  48.2865730   6.3920950   7.4882410  47.6073510
   7.6392480   8.1314250  48.1755090  14.7778270  11.6668810  51.9488830
  14.3008830  12.4741000  51.7561440  14.0940060  11.0147140  52.1015040
   5.7811090   7.8318630  54.9373530   4.8839620   8.0558600  55.1846930
   5.8063960   7.9553570  53.9884930  12.8216310   4.6811750  40.8514790
  13.2609590   3.8434180  40.7052610  13.5344730   5.3141150  40.9378930
   4.6082310   4.7031950  53.5130900   4.4690080   5.5754750  53.8818300
   3.7263670   4.3604760  53.3678840  10.9311690   9.6207820  44.8196030
  11.3707600  10.3632150  44.4051420  10.8698580   9.8634390  45.7434990
   6.4062660  10.6453650  55.7216050   6.3778090  11.0496600  54.8544480
   6.2427630   9.7164010  55.5587650   2.9215590   3.3014360  43.6233170
   2.8013190   4.0276450  43.0114440   2.6116480   2.5317270  43.1461080
  18.3577480  11.4280750  57.0180220  18.8337200  11.9063640  57.6969300
  18.9784640  11.3598240  56.2925720   1.8048590   8.1729690  45.8407990
   1.3976670   8.3144280  44.9861590   2.6961600   7.8889850  45.6379200
  17.7610730   8.6193600  54.1780230  17.8873790   8.3805480  53.2597410
  17.8032110   7.7878140  54.6502310  11.6227470  12.3221600  52.7475040
  12.1372140  12.2329610  53.5497470  10.7796550  12.6681300  53.0402950
  13.5981870  12.6076940  42.1759040  13.4383010  12.3179880  43.0740870
  13.4328580  11.8317070  41.6404270   6.0770250  12.3875470  43.9530660
   5.9012730  11.4711010  43.7398460   5.2225990  12.7462760  44.1928460
  13.3008000  10.1164500  40.7357040  12.6073160  10.1141790  40.0759320
  14.0430860   9.6923820  40.3051210  12.8657930  11.7427210  44.8105530
  13.3214880  10.9616590  45.1244150  13.2050450  12.4534030  45.3546710
  11.7703280   2.2328650  55.8387610  12.0956690   1.3992400  55.4989840
  12.5583610   2.7557170  55.9865940   5.1793470   1.7683000  44.7338090
   4.9534390   1.5520170  45.6384710   4.3986000   2.2011460  44.3884060
  12.4091230   1.7746370  43.3328740  11.8100120   2.4982170  43.1492360
  12.9570840   1.7123150  42.5505190   7.6192680   2.6668580  55.3998360
   7.5236280   1.7263310  55.2498760   8.4624660   2.8883650  55.0046430
  11.6011240   3.0015660  49.4582800  10.8692360   3.5102470  49.8072900
  11.2035580   2.1845640  49.1571580   7.1130280   2.9883080  40.2525350
   6.5447180   2.5401330  39.6261260   7.8219280   3.3475860  39.7190500
   2.1899460   6.8895100  54.1292080   1.8054250   6.2488770  54.7275040
   2.5011650   7.5931220  54.6986810   8.3396600   3.7371640  49.6100700
   8.7066730   3.2630210  50.3562040   8.1501660   4.6113210  49.9509040
   6.1295970   2.7780280  51.9284910   5.8253040   3.6572260  52.1535270
   7.0842430   2.8380070  51.9642350   4.6577760   6.9841270  42.5251760
   3.8840020   6.4438890  42.3650480   5.3872390   6.4647880  42.1869520
  15.4165740   5.9806630  48.3178150  16.1364860   6.4761920  47.9274260
  15.2147560   5.3024520  47.6732020  10.7984540   6.0515690  54.2047150
  10.7321850   5.1311360  53.9504740  10.1689680   6.1491130  54.9191790
   4.7015160   6.6521650  46.1630570   5.2193830   5.8489910  46.1087460
   4.2499180   6.5900790  47.0047400   9.5884660   7.9187930  41.4357870
   9.9300360   8.6630160  40.9401190   8.7597370   8.2319050  41.7982700
   2.1859700   3.6183020  53.0756270   1.8274640   4.2836870  53.6629610
   1.8914260   2.7866570  53.4468890   5.3872820   4.0767260  55.9595820
   5.0872960   4.2224440  55.0623640   6.1584060   3.5172550  55.8669210
  10.7301270   8.8736260  53.9550950  10.7445810   7.9417220  53.7369860
  10.0226370   8.9596020  54.5940720  15.8638340   3.0576080  40.2249560
  15.7802060   3.4890300  39.3746000  16.5832530   3.5174430  40.6576380
  16.9412480   5.5143600  53.3019530  16.2160670   6.1072380  53.1048920
  17.4687940   5.5067140  52.5032900  16.8925590   9.9118340  42.9531690
  16.2501750   9.2573960  43.2275410  16.5056250  10.3173430  42.1772360
  12.4712070   7.2403770  46.8003380  12.8235890   6.6431900  46.1404750
  11.5874400   6.9148000  46.9711630   8.5575350   8.0001460  44.2073790
   9.2446480   8.5470670  44.5881380   7.7707770   8.5442190  44.2423400
   7.8602560   5.0047490  43.8199150   8.3165340   5.8152740  44.0459340
   7.5090770   4.6870630  44.6517640  10.1635170  10.5153830  51.0491450
  10.8077390  10.7213210  51.7264870  10.5264610   9.7542230  50.5962300
  11.4367250   8.5186180  49.7668900  12.0789480   7.8179340  49.8801070
  11.9616600   9.2984620  49.5865790  15.2822970   8.8034800  39.4908040
  15.0560550   8.0865240  40.0832680  14.8919170   8.5547240  38.6529790
  13.2104870   9.3181080  52.9704960  13.5461110   9.9047770  53.6482880
  12.2905210   9.1873790  53.2002750  14.8639220   6.7206740  41.1522200
  14.5760920   7.1819430  41.9400080  15.6591390   6.2604510  41.4206420
   9.0393450   9.3672410  56.1393020   8.7190320   8.6481650  56.6838710
   8.3651810  10.0427480  56.2129080   7.0807620  10.2132860  41.0826170
   7.0717720  10.9462550  40.4670680   6.1605980   9.9664440  41.1753130
   2.6814260   5.4347750  41.8272930   2.0742210   6.1746650  41.8368230
   3.1563610   5.5247110  41.0011130  10.0667220  10.2761100  39.7451360
  10.1679200  10.0725090  38.8153340   9.1668960  10.0219380  39.9499140
   9.2149040   2.2538160  51.7267790   9.7134290   2.7283980  52.3919640
   9.3571990   1.3301680  51.9337820   8.7085330  12.7947420  44.4399030
   8.9626830  12.7568810  43.5178400   7.7597810  12.6680750  44.4327280
  14.7137910   3.7139300  46.0157540  13.7728050   3.7289530  46.1905230
  15.0281980   2.9275260  46.4617840   4.6919550   5.3958900  39.5761500
   5.4582820   5.2840260  40.1386930   4.7694240   4.6996870  38.9238270
   3.3866310   2.8283970  40.2594390   3.4669900   1.8811480  40.3711790
   4.2786060   3.1590850  40.3655050  16.7163490  10.8848150  47.6911800
  16.8410910  11.7079320  48.1635610  17.5829050  10.6738880  47.3435950
   4.1881020  12.9779360  47.3628930   4.9243500  12.4294820  47.6337500
   4.5721940  13.8435370  47.2234920   3.1939300  12.1625430  56.5514510
   3.9952030  12.4837480  56.9649910   2.6791120  11.8021010  57.2734420
   7.2983330  12.1509670  39.1854500   8.0911940  12.4398500  38.7336290
   6.7787680  11.7201840  38.5066980  12.0303930   8.2705300  56.4989920
  11.4242090   8.2936900  55.7585670  11.7258040   7.5388340  57.0357170
  13.4604300  11.9985590  55.1099330  14.4126050  11.9143610  55.0599570
  13.3132520  12.6627300  55.7833120  16.3513500  11.3779800  40.6091240
  16.0655010  10.9644940  39.7945420  16.1533050  12.3067510  40.4891760
   7.8160730   7.3713080  39.0496850   7.7111370   6.7565430  39.7758230
   7.6484950   6.8478970  38.2659860   7.9675050   6.0569880  55.0286080
   7.2020720   6.6254880  54.9440750   8.1491010   5.7646090  54.1354310
  11.0563460   6.4333110  39.6538840  10.5073560   6.8802410  40.2981580
  11.6782720   5.9282360  40.1776510  15.1098400   7.7875210  55.5861100
  15.8507870   8.1250970  55.0828560  14.3471080   7.9567270  55.0330870
   2.9460190   2.7928480  56.3900630   2.9865530   2.4942350  57.2985860
   3.8005690   3.1936090  56.2308150   6.7238580   5.3924030  41.5504140
   7.1455000   5.2263900  42.3935530   6.8489420   4.5824260  41.0559280
   9.2366220   4.4161640  38.7981240   9.7571880   3.7010660  38.4322390
   9.8834620   5.0547510  39.0981750  13.7844060   5.8390040  54.1216310
  14.1985080   5.9935120  54.9706730  12.8495060   5.9645260  54.2842090
  14.2566230   3.1786200  56.1255460  14.8387000   2.4238520  56.0375940
  14.4328000   3.7093640  55.3486940   8.5459290   5.7910520  52.0912240
   8.9647400   6.6343250  51.9188480   7.6267920   5.9282560  51.8619020
  10.8823190   3.5226700  53.4750080  11.0019400   2.9267840  54.2144920
  11.7417190   3.5596390  53.0551380  13.2211090   4.0763890  52.0512590
  12.6946310   4.6006510  51.4477730  13.5642430   4.7091280  52.6822320
   6.3966710  12.0963530  53.2069970   5.8587800  12.8209590  52.8878670
   6.6500670  11.6193870  52.4167310   9.2528920  13.3314740  53.4656620
   9.1787620  14.2349880  53.7728990   8.3507760  13.0126640  53.4378690
   9.8014250  12.4973250  41.0882980  10.6965040  12.8358220  41.1101740
   9.8331880  11.7752660  40.4607260   3.4410410   7.8700300  39.3169980
   3.8785280   8.4129970  39.9727560   3.9258140   7.0447250  39.3266320
   5.2518130   8.9898340  44.4292210   4.9513670   8.8663310  45.3296120
   5.1455620   8.1306930  44.0207940  16.7808600  11.0276920  53.7949180
  16.1810590  11.0869480  53.0513100  16.9102500  10.0881900  53.9246030
  18.0210050   8.7694740  39.1318890  17.1903010   8.8371390  39.6026120
  18.1981880   9.6598860  38.8285750  17.4766510   5.5142220  41.6353090
  18.2385420   6.0838870  41.7412780  17.4920880   4.9469420  42.4061400
  18.4826480   6.3692320  46.4795020  18.8535310   5.5859640  46.0730990
  19.1228410   7.0581420  46.3012320  15.4660240   7.7528900  51.8925340
  14.6520080   8.1826060  52.1551130  15.8734440   8.3647310  51.2794390
  17.5285680   5.8076590  38.7925610  17.8034520   6.7155470  38.6644830
  17.3396420   5.7439120  39.7287600  17.4251020   3.7445580  43.7855040
  17.0494620   2.9773510  43.3536330  16.6954140   4.1268280  44.2729970
   2.0146780   4.4232720  50.4064090   2.3819820   4.3360120  51.2860110
   1.4457600   3.6599270  50.3070950  16.8150640   2.8917100  53.4194560
  16.5836730   2.6629850  52.5192510  17.0755190   3.8116650  53.3739450
  16.7001980   1.9703070  47.0862280  17.2239460   1.4765720  46.4552450
  17.2861400   2.1053430  47.8309850  16.8791700   2.0542940  50.6081830
  15.9294410   2.0206480  50.7226820  17.0604710   2.9643050  50.3731600
  15.5236290  12.5047500  45.4193610  16.1195360  12.1832070  44.7428030
  15.7814440  12.0319320  46.2106880   3.4298860   8.9365410  55.5684240
   3.3868490   8.5658320  56.4498700   3.5609870   9.8742980  55.7086060
   7.1304890  10.4925000  51.1693960   6.8896250  10.7599560  50.2824480
   8.0707530  10.6630730  51.2244820  18.3909050  12.5119380  51.9704600
  17.8967330  12.9088250  51.2531730  17.7822340  11.8868590  52.3641880
   3.2686890  11.8827660  52.6882020   2.6747210  11.7512360  53.4272060
   3.2610730  11.0465800  52.2224120  16.0748500  13.1542800  49.2491340
  15.6151470  13.9058610  48.8749360  15.4460960  12.4349270  49.1906140
   2.8999120   9.2486040  51.6390060   2.1733180   8.6291330  51.5716010
   2.9608270   9.6426650  50.7688140   6.5044220  11.4631040  48.4239470
   7.0209240  10.8518400  47.8987730   7.1541600  11.9659820  48.9150480
   9.2439720  12.3539530  49.2508450   9.5317530  12.0993830  48.3741460
   9.7562940  11.8016890  49.8414020   2.7891820  11.2593660  42.2936960
   2.2639440  11.6401690  41.5898920   2.7136400  11.8844430  43.0146670
   9.3112080  13.2755630  56.6176650  10.2379390  13.0399900  56.6612610
   9.2962510  14.1027630  56.1362680  17.5457140  12.8181200  43.6150900
  17.7209330  12.1318940  42.9711820  16.8478710  13.3428250  43.2227570
   5.3884790  13.2076040  41.1686210   6.1203610  12.9235320  40.6210100
   5.6478460  12.9689320  42.0585590   4.5499580   9.3240770  41.1732540
   3.9208460   9.7925870  41.7218370   4.6647410   8.4789990  41.6078730
  15.8789640  12.5025490  56.4417690  16.6714960  12.0074720  56.2343650
  16.1722790  13.1815630  57.0493300  12.0049300   3.3746430  27.3233740
  11.9243350   2.4601040  27.0525450  11.5913720   3.8713500  26.6173450
  10.1367340   5.1525450  29.2043010   9.3609440   4.6725890  29.4941580
  10.7880270   4.4731100  29.0299170   4.1533170   5.4645260  30.0818770
   3.3218050   5.2093970  30.4815280   4.7614150   5.5356030  30.8176690
  14.1574770   9.5585640  27.9842140  13.6956300   8.7872880  28.3129310
  14.9700320   9.5851710  28.4894590   4.1334430   9.4985350  30.2776790
   4.4362470   8.6083090  30.0987010   4.8778020  10.0555570  30.0499040
  10.3838080  11.8443650  27.6046130   9.7649520  12.3001150  27.0340570
  11.2389860  11.9995110  27.2035830   9.5776330   7.8282640  29.2113170
   9.5084610   6.8872580  29.0502300  10.3396190   7.9184050  29.7835740
  11.2501430   6.7282890  24.9978040  10.6318700   7.1932340  24.4340760
  11.7624680   7.4210370  25.4147550   6.1133190   6.2558760  31.6761640
   5.7802570   6.8827680  32.3182710   6.2899870   6.7820640  30.8963310
   5.3252290   8.2239560  33.4910820   5.9426290   8.8990640  33.2095270
   4.4645410   8.6327540  33.3998320  16.2429880   9.6878970  31.4065460
  15.5593400  10.3578080  31.3982130  16.7824170   9.8859620  30.6410320
  13.7788620  11.5323100  30.1210640  13.7915780  11.1285390  29.2532900
  13.2263840  12.3070390  30.0172070  15.0734040   8.2539320  25.2100810
  14.9630370   7.3113650  25.3350230  15.0702290   8.6154960  26.0963570
  13.1774060   6.4352940  31.4493250  13.5942850   6.2213050  30.6146710
  13.9013880   6.6925730  32.0201870  10.6154320   3.8804640  24.5663300
   9.6883600   3.8142020  24.7951770  10.7679140   4.8184770  24.4518540
  17.1236160   4.8340160  31.5409490  16.2954790   4.9033250  31.0659620
  17.7186640   5.4194470  31.0725320  14.6451610   5.4424940  25.0698550
  14.0264030   5.1044490  24.4224850  14.6276060   4.7984700  25.7777740
   6.2210960   4.4069380  27.3483030   5.8167960   3.6946630  26.8528930
   6.3074080   4.0622620  28.2371070   6.6892660   8.0936940  29.5122240
   6.3920950   7.4882410  28.8330020   7.6392480   8.1314250  29.4011600
  14.7778270  11.6668810  33.1745340  14.3008830  12.4741000  32.9817950
  14.0940060  11.0147140  33.3271550   5.7811090   7.8318630  36.1630040
   4.8839620   8.0558600  36.4103440   5.8063960   7.9553570  35.2141440
  12.8216310   4.6811750  22.0771300  13.2609590   3.8434180  21.9309120
  13.5344730   5.3141150  22.1635440   4.6082310   4.7031950  34.7387410
   4.4690080   5.5754750  35.1074810   3.7263670   4.3604760  34.5935350
  10.9311690   9.6207820  26.0452540  11.3707600  10.3632150  25.6307930
  10.8698580   9.8634390  26.9691500   6.4062660  10.6453650  36.9472560
   6.3778090  11.0496600  36.0800990   6.2427630   9.7164010  36.7844160
   2.9215590   3.3014360  24.8489680   2.8013190   4.0276450  24.2370950
   2.6116480   2.5317270  24.3717590  18.3577480  11.4280750  38.2436730
  18.8337200  11.9063640  38.9225810  18.9784640  11.3598240  37.5182230
   1.8048590   8.1729690  27.0664500   1.3976670   8.3144280  26.2118100
   2.6961600   7.8889850  26.8635710  17.7610730   8.6193600  35.4036740
  17.8873790   8.3805480  34.4853920  17.8032110   7.7878140  35.8758820
  11.6227470  12.3221600  33.9731550  12.1372140  12.2329610  34.7753980
  10.7796550  12.6681300  34.2659460  13.5981870  12.6076940  23.4015550
  13.4383010  12.3179880  24.2997380  13.4328580  11.8317070  22.8660780
   6.0770250  12.3875470  25.1787170   5.9012730  11.4711010  24.9654970
   5.2225990  12.7462760  25.4184970  13.3008000  10.1164500  21.9613550
  12.6073160  10.1141790  21.3015830  14.0430860   9.6923820  21.5307720
  12.8657930  11.7427210  26.0362040  13.3214880  10.9616590  26.3500660
  13.2050450  12.4534030  26.5803220  11.7703280   2.2328650  37.0644120
  12.0956690   1.3992400  36.7246350  12.5583610   2.7557170  37.2122450
   5.1793470   1.7683000  25.9594600   4.9534390   1.5520170  26.8641220
   4.3986000   2.2011460  25.6140570  12.4091230   1.7746370  24.5585250
  11.8100120   2.4982170  24.3748870  12.9570840   1.7123150  23.7761700
   7.6192680   2.6668580  36.6254870   7.5236280   1.7263310  36.4755270
   8.4624660   2.8883650  36.2302940  11.6011240   3.0015660  30.6839310
  10.8692360   3.5102470  31.0329410  11.2035580   2.1845640  30.3828090
   7.1130280   2.9883080  21.4781860   6.5447180   2.5401330  20.8517770
   7.8219280   3.3475860  20.9447010   2.1899460   6.8895100  35.3548590
   1.8054250   6.2488770  35.9531550   2.5011650   7.5931220  35.9243320
   8.3396600   3.7371640  30.8357210   8.7066730   3.2630210  31.5818550
   8.1501660   4.6113210  31.1765550   6.1295970   2.7780280  33.1541420
   5.8253040   3.6572260  33.3791780   7.0842430   2.8380070  33.1898860
   4.6577760   6.9841270  23.7508270   3.8840020   6.4438890  23.5906990
   5.3872390   6.4647880  23.4126030  15.4165740   5.9806630  29.5434660
  16.1364860   6.4761920  29.1530770  15.2147560   5.3024520  28.8988530
  10.7984540   6.0515690  35.4303660  10.7321850   5.1311360  35.1761250
  10.1689680   6.1491130  36.1448300   4.7015160   6.6521650  27.3887080
   5.2193830   5.8489910  27.3343970   4.2499180   6.5900790  28.2303910
   9.5884660   7.9187930  22.6614380   9.9300360   8.6630160  22.1657700
   8.7597370   8.2319050  23.0239210   2.1859700   3.6183020  34.3012780
   1.8274640   4.2836870  34.8886120   1.8914260   2.7866570  34.6725400
   5.3872820   4.0767260  37.1852330   5.0872960   4.2224440  36.2880150
   6.1584060   3.5172550  37.0925720  10.7301270   8.8736260  35.1807460
  10.7445810   7.9417220  34.9626370  10.0226370   8.9596020  35.8197230
  15.8638340   3.0576080  21.4506070  15.7802060   3.4890300  20.6002510
  16.5832530   3.5174430  21.8832890  16.9412480   5.5143600  34.5276040
  16.2160670   6.1072380  34.3305430  17.4687940   5.5067140  33.7289410
  16.8925590   9.9118340  24.1788200  16.2501750   9.2573960  24.4531920
  16.5056250  10.3173430  23.4028870  12.4712070   7.2403770  28.0259890
  12.8235890   6.6431900  27.3661260  11.5874400   6.9148000  28.1968140
   8.5575350   8.0001460  25.4330300   9.2446480   8.5470670  25.8137890
   7.7707770   8.5442190  25.4679910   7.8602560   5.0047490  25.0455660
   8.3165340   5.8152740  25.2715850   7.5090770   4.6870630  25.8774150
  10.1635170  10.5153830  32.2747960  10.8077390  10.7213210  32.9521380
  10.5264610   9.7542230  31.8218810  11.4367250   8.5186180  30.9925410
  12.0789480   7.8179340  31.1057580  11.9616600   9.2984620  30.8122300
  15.2822970   8.8034800  20.7164550  15.0560550   8.0865240  21.3089190
  14.8919170   8.5547240  19.8786300  13.2104870   9.3181080  34.1961470
  13.5461110   9.9047770  34.8739390  12.2905210   9.1873790  34.4259260
  14.8639220   6.7206740  22.3778710  14.5760920   7.1819430  23.1656590
  15.6591390   6.2604510  22.6462930   9.0393450   9.3672410  37.3649530
   8.7190320   8.6481650  37.9095220   8.3651810  10.0427480  37.4385590
   7.0807620  10.2132860  22.3082680   7.0717720  10.9462550  21.6927190
   6.1605980   9.9664440  22.4009640   2.6814260   5.4347750  23.0529440
   2.0742210   6.1746650  23.0624740   3.1563610   5.5247110  22.2267640
  10.0667220  10.2761100  20.9707870  10.1679200  10.0725090  20.0409850
   9.1668960  10.0219380  21.1755650   9.2149040   2.2538160  32.9524300
   9.7134290   2.7283980  33.6176150   9.3571990   1.3301680  33.1594330
   8.7085330  12.7947420  25.6655540   8.9626830  12.7568810  24.7434910
   7.7597810  12.6680750  25.6583790  14.7137910   3.7139300  27.2414050
  13.7728050   3.7289530  27.4161740  15.0281980   2.9275260  27.6874350
   4.6919550   5.3958900  20.8018010   5.4582820   5.2840260  21.3643440
   4.7694240   4.6996870  20.1494780   3.3866310   2.8283970  21.4850900
   3.4669900   1.8811480  21.5968300   4.2786060   3.1590850  21.5911560
  16.7163490  10.8848150  28.9168310  16.8410910  11.7079320  29.3892120
  17.5829050  10.6738880  28.5692460   4.1881020  12.9779360  28.5885440
   4.9243500  12.4294820  28.8594010   4.5721940  13.8435370  28.4491430
   3.1939300  12.1625430  37.7771020   3.9952030  12.4837480  38.1906420
   2.6791120  11.8021010  38.4990930   7.2983330  12.1509670  20.4111010
   8.0911940  12.4398500  19.9592800   6.7787680  11.7201840  19.7323490
  12.0303930   8.2705300  37.7246430  11.4242090   8.2936900  36.9842180
  11.7258040   7.5388340  38.2613680  13.4604300  11.9985590  36.3355840
  14.4126050  11.9143610  36.2856080  13.3132520  12.6627300  37.0089630
  16.3513500  11.3779800  21.8347750  16.0655010  10.9644940  21.0201930
  16.1533050  12.3067510  21.7148270   7.8160730   7.3713080  20.2753360
   7.7111370   6.7565430  21.0014740   7.6484950   6.8478970  19.4916370
   7.9675050   6.0569880  36.2542590   7.2020720   6.6254880  36.1697260
   8.1491010   5.7646090  35.3610820  11.0563460   6.4333110  20.8795350
  10.5073560   6.8802410  21.5238090  11.6782720   5.9282360  21.4033020
  15.1098400   7.7875210  36.8117610  15.8507870   8.1250970  36.3085070
  14.3471080   7.9567270  36.2587380   2.9460190   2.7928480  37.6157140
   2.9865530   2.4942350  38.5242370   3.8005690   3.1936090  37.4564660
   6.7238580   5.3924030  22.7760650   7.1455000   5.2263900  23.6192040
   6.8489420   4.5824260  22.2815790   9.2366220   4.4161640  20.0237750
   9.7571880   3.7010660  19.6578900   9.8834620   5.0547510  20.3238260
  13.7844060   5.8390040  35.3472820  14.1985080   5.9935120  36.1963240
  12.8495060   5.9645260  35.5098600  14.2566230   3.1786200  37.3511970
  14.8387000   2.4238520  37.2632450  14.4328000   3.7093640  36.5743450
   8.5459290   5.7910520  33.3168750   8.9647400   6.6343250  33.1444990
   7.6267920   5.9282560  33.0875530  10.8823190   3.5226700  34.7006590
  11.0019400   2.9267840  35.4401430  11.7417190   3.5596390  34.2807890
  13.2211090   4.0763890  33.2769100  12.6946310   4.6006510  32.6734240
  13.5642430   4.7091280  33.9078830   6.3966710  12.0963530  34.4326480
   5.8587800  12.8209590  34.1135180   6.6500670  11.6193870  33.6423820
   9.2528920  13.3314740  34.6913130   9.1787620  14.2349880  34.9985500
   8.3507760  13.0126640  34.6635200   9.8014250  12.4973250  22.3139490
  10.6965040  12.8358220  22.3358250   9.8331880  11.7752660  21.6863770
   3.4410410   7.8700300  20.5426490   3.8785280   8.4129970  21.1984070
   3.9258140   7.0447250  20.5522830   5.2518130   8.9898340  25.6548720
   4.9513670   8.8663310  26.5552630   5.1455620   8.1306930  25.2464450
  16.7808600  11.0276920  35.0205690  16.1810590  11.0869480  34.2769610
  16.9102500  10.0881900  35.1502540  18.0210050   8.7694740  20.3575400
  17.1903010   8.8371390  20.8282630  18.1981880   9.6598860  20.0542260
  17.4766510   5.5142220  22.8609600  18.2385420   6.0838870  22.9669290
  17.4920880   4.9469420  23.6317910  18.4826480   6.3692320  27.7051530
  18.8535310   5.5859640  27.2987500  19.1228410   7.0581420  27.5268830
  15.4660240   7.7528900  33.1181850  14.6520080   8.1826060  33.3807640
  15.8734440   8.3647310  32.5050900  17.5285680   5.8076590  20.0182120
  17.8034520   6.7155470  19.8901340  17.3396420   5.7439120  20.9544110
  17.4251020   3.7445580  25.0111550  17.0494620   2.9773510  24.5792840
  16.6954140   4.1268280  25.4986480   2.0146780   4.4232720  31.6320600
   2.3819820   4.3360120  32.5116620   1.4457600   3.6599270  31.5327460
  16.8150640   2.8917100  34.6451070  16.5836730   2.6629850  33.7449020
  17.0755190   3.8116650  34.5995960  16.7001980   1.9703070  28.3118790
  17.2239460   1.4765720  27.6808960  17.2861400   2.1053430  29.0566360
  16.8791700   2.0542940  31.8338340  15.9294410   2.0206480  31.9483330
  17.0604710   2.9643050  31.5988110  15.5236290  12.5047500  26.6450120
  16.1195360  12.1832070  25.9684540  15.7814440  12.0319320  27.4363390
   3.4298860   8.9365410  36.7940750   3.3868490   8.5658320  37.6755210
   3.5609870   9.8742980  36.9342570   7.1304890  10.4925000  32.3950470
   6.8896250  10.7599560  31.5080990   8.0707530  10.6630730  32.4501330
  18.3909050  12.5119380  33.1961110  17.8967330  12.9088250  32.4788240
  17.7822340  11.8868590  33.5898390   3.2686890  11.8827660  33.9138530
   2.6747210  11.7512360  34.6528570   3.2610730  11.0465800  33.4480630
  16.0748500  13.1542800  30.4747850  15.6151470  13.9058610  30.1005870
  15.4460960  12.4349270  30.4162650   2.8999120   9.2486040  32.8646570
   2.1733180   8.6291330  32.7972520   2.9608270   9.6426650  31.9944650
   6.5044220  11.4631040  29.6495980   7.0209240  10.8518400  29.1244240
   7.1541600  11.9659820  30.1406990   9.2439720  12.3539530  30.4764960
   9.5317530  12.0993830  29.5997970   9.7562940  11.8016890  31.0670530
   2.7891820  11.2593660  23.5193470   2.2639440  11.6401690  22.8155430
   2.7136400  11.8844430  24.2403180   9.3112080  13.2755630  37.8433160
  10.2379390  13.0399900  37.8869120   9.2962510  14.1027630  37.3619190
  17.5457140  12.8181200  24.8407410  17.7209330  12.1318940  24.1968330
  16.8478710  13.3428250  24.4484080   5.3884790  13.2076040  22.3942720
   6.1203610  12.9235320  21.8466610   5.6478460  12.9689320  23.2842100
   4.5499580   9.3240770  22.3989050   3.9208460   9.7925870  22.9474880
   4.6647410   8.4789990  22.8335240  15.8789640  12.5025490  37.6674200
  16.6714960  12.0074720  37.4600160  16.1722790  13.1815630  38.2749810
  12.0049300   3.3746430   8.5490250  11.9243350   2.4601040   8.2781960
  11.5913720   3.8713500   7.8429960  10.1367340   5.1525450  10.4299520
   9.3609440   4.6725890  10.7198090  10.7880270   4.4731100  10.2555680
   4.1533170   5.4645260  11.3075280   3.3218050   5.2093970  11.7071790
   4.7614150   5.5356030  12.0433200  14.1574770   9.5585640   9.2098650
  13.6956300   8.7872880   9.5385820  14.9700320   9.5851710   9.7151100
   4.1334430   9.4985350  11.5033300   4.4362470   8.6083090  11.3243520
   4.8778020  10.0555570  11.2755550  10.3838080  11.8443650   8.8302640
   9.7649520  12.3001150   8.2597080  11.2389860  11.9995110   8.4292340
   9.5776330   7.8282640  10.4369680   9.5084610   6.8872580  10.2758810
  10.3396190   7.9184050  11.0092250  11.2501430   6.7282890   6.2234550
  10.6318700   7.1932340   5.6597270  11.7624680   7.4210370   6.6404060
   6.1133190   6.2558760  12.9018150   5.7802570   6.8827680  13.5439220
   6.2899870   6.7820640  12.1219820   5.3252290   8.2239560  14.7167330
   5.9426290   8.8990640  14.4351780   4.4645410   8.6327540  14.6254830
  16.2429880   9.6878970  12.6321970  15.5593400  10.3578080  12.6238640
  16.7824170   9.8859620  11.8666830  13.7788620  11.5323100  11.3467150
  13.7915780  11.1285390  10.4789410  13.2263840  12.3070390  11.2428580
  15.0734040   8.2539320   6.4357320  14.9630370   7.3113650   6.5606740
  15.0702290   8.6154960   7.3220080  13.1774060   6.4352940  12.6749760
  13.5942850   6.2213050  11.8403220  13.9013880   6.6925730  13.2458380
  10.6154320   3.8804640   5.7919810   9.6883600   3.8142020   6.0208280
  10.7679140   4.8184770   5.6775050  17.1236160   4.8340160  12.7666000
  16.2954790   4.9033250  12.2916130  17.7186640   5.4194470  12.2981830
  14.6451610   5.4424940   6.2955060  14.0264030   5.1044490   5.6481360
  14.6276060   4.7984700   7.0034250   6.2210960   4.4069380   8.5739540
   5.8167960   3.6946630   8.0785440   6.3074080   4.0622620   9.4627580
   6.6892660   8.0936940  10.7378750   6.3920950   7.4882410  10.0586530
   7.6392480   8.1314250  10.6268110  14.7778270  11.6668810  14.4001850
  14.3008830  12.4741000  14.2074460  14.0940060  11.0147140  14.5528060
   5.7811090   7.8318630  17.3886550   4.8839620   8.0558600  17.6359950
   5.8063960   7.9553570  16.4397950  12.8216310   4.6811750   3.3027810
  13.2609590   3.8434180   3.1565630  13.5344730   5.3141150   3.3891950
   4.6082310   4.7031950  15.9643920   4.4690080   5.5754750  16.3331320
   3.7263670   4.3604760  15.8191860  10.9311690   9.6207820   7.2709050
  11.3707600  10.3632150   6.8564440  10.8698580   9.8634390   8.1948010
   6.4062660  10.6453650  18.1729070   6.3778090  11.0496600  17.3057500
   6.2427630   9.7164010  18.0100670   2.9215590   3.3014360   6.0746190
   2.8013190   4.0276450   5.4627460   2.6116480   2.5317270   5.5974100
  18.3577480  11.4280750  19.4693240  18.8337200  11.9063640  20.1482320
  18.9784640  11.3598240  18.7438740   1.8048590   8.1729690   8.2921010
   1.3976670   8.3144280   7.4374610   2.6961600   7.8889850   8.0892220
  17.7610730   8.6193600  16.6293250  17.8873790   8.3805480  15.7110430
  17.8032110   7.7878140  17.1015330  11.6227470  12.3221600  15.1988060
  12.1372140  12.2329610  16.0010490  10.7796550  12.6681300  15.4915970
  13.5981870  12.6076940   4.6272060  13.4383010  12.3179880   5.5253890
  13.4328580  11.8317070   4.0917290   6.0770250  12.3875470   6.4043680
   5.9012730  11.4711010   6.1911480   5.2225990  12.7462760   6.6441480
  13.3008000  10.1164500   3.1870060  12.6073160  10.1141790   2.5272340
  14.0430860   9.6923820   2.7564230  12.8657930  11.7427210   7.2618550
  13.3214880  10.9616590   7.5757170  13.2050450  12.4534030   7.8059730
  11.7703280   2.2328650  18.2900630  12.0956690   1.3992400  17.9502860
  12.5583610   2.7557170  18.4378960   5.1793470   1.7683000   7.1851110
   4.9534390   1.5520170   8.0897730   4.3986000   2.2011460   6.8397080
  12.4091230   1.7746370   5.7841760  11.8100120   2.4982170   5.6005380
  12.9570840   1.7123150   5.0018210   7.6192680   2.6668580  17.8511380
   7.5236280   1.7263310  17.7011780   8.4624660   2.8883650  17.4559450
  11.6011240   3.0015660  11.9095820  10.8692360   3.5102470  12.2585920
  11.2035580   2.1845640  11.6084600   7.1130280   2.9883080   2.7038370
   6.5447180   2.5401330   2.0774280   7.8219280   3.3475860   2.1703520
   2.1899460   6.8895100  16.5805100   1.8054250   6.2488770  17.1788060
   2.5011650   7.5931220  17.1499830   8.3396600   3.7371640  12.0613720
   8.7066730   3.2630210  12.8075060   8.1501660   4.6113210  12.4022060
   6.1295970   2.7780280  14.3797930   5.8253040   3.6572260  14.6048290
   7.0842430   2.8380070  14.4155370   4.6577760   6.9841270   4.9764780
   3.8840020   6.4438890   4.8163500   5.3872390   6.4647880   4.6382540
  15.4165740   5.9806630  10.7691170  16.1364860   6.4761920  10.3787280
  15.2147560   5.3024520  10.1245040  10.7984540   6.0515690  16.6560170
  10.7321850   5.1311360  16.4017760  10.1689680   6.1491130  17.3704810
   4.7015160   6.6521650   8.6143590   5.2193830   5.8489910   8.5600480
   4.2499180   6.5900790   9.4560420   9.5884660   7.9187930   3.8870890
   9.9300360   8.6630160   3.3914210   8.7597370   8.2319050   4.2495720
   2.1859700   3.6183020  15.5269290   1.8274640   4.2836870  16.1142630
   1.8914260   2.7866570  15.8981910   5.3872820   4.0767260  18.4108840
   5.0872960   4.2224440  17.5136660   6.1584060   3.5172550  18.3182230
  10.7301270   8.8736260  16.4063970  10.7445810   7.9417220  16.1882880
  10.0226370   8.9596020  17.0453740  15.8638340   3.0576080   2.6762580
  15.7802060   3.4890300   1.8259020  16.5832530   3.5174430   3.1089400
  16.9412480   5.5143600  15.7532550  16.2160670   6.1072380  15.5561940
  17.4687940   5.5067140  14.9545920  16.8925590   9.9118340   5.4044710
  16.2501750   9.2573960   5.6788430  16.5056250  10.3173430   4.6285380
  12.4712070   7.2403770   9.2516400  12.8235890   6.6431900   8.5917770
  11.5874400   6.9148000   9.4224650   8.5575350   8.0001460   6.6586810
   9.2446480   8.5470670   7.0394400   7.7707770   8.5442190   6.6936420
   7.8602560   5.0047490   6.2712170   8.3165340   5.8152740   6.4972360
   7.5090770   4.6870630   7.1030660  10.1635170  10.5153830  13.5004470
  10.8077390  10.7213210  14.1777890  10.5264610   9.7542230  13.0475320
  11.4367250   8.5186180  12.2181920  12.0789480   7.8179340  12.3314090
  11.9616600   9.2984620  12.0378810  13.2104870   9.3181080  15.4217980
  13.5461110   9.9047770  16.0995900  12.2905210   9.1873790  15.6515770
  14.8639220   6.7206740   3.6035220  14.5760920   7.1819430   4.3913100
  15.6591390   6.2604510   3.8719440   9.0393450   9.3672410  18.5906040
   8.7190320   8.6481650  19.1351730   8.3651810  10.0427480  18.6642100
   7.0807620  10.2132860   3.5339190   7.0717720  10.9462550   2.9183700
   6.1605980   9.9664440   3.6266150   2.6814260   5.4347750   4.2785950
   2.0742210   6.1746650   4.2881250   3.1563610   5.5247110   3.4524150
   9.2149040   2.2538160  14.1780810   9.7134290   2.7283980  14.8432660
   9.3571990   1.3301680  14.3850840   8.7085330  12.7947420   6.8912050
   8.9626830  12.7568810   5.9691420   7.7597810  12.6680750   6.8840300
  14.7137910   3.7139300   8.4670560  13.7728050   3.7289530   8.6418250
  15.0281980   2.9275260   8.9130860   3.3866310   2.8283970   2.7107410
   3.4669900   1.8811480   2.8224810   4.2786060   3.1590850   2.8168070
  16.7163490  10.8848150  10.1424820  16.8410910  11.7079320  10.6148630
  17.5829050  10.6738880   9.7948970   4.1881020  12.9779360   9.8141950
   4.9243500  12.4294820  10.0850520   4.5721940  13.8435370   9.6747940
   3.1939300  12.1625430  19.0027530   3.9952030  12.4837480  19.4162930
   2.6791120  11.8021010  19.7247440  12.0303930   8.2705300  18.9502940
  11.4242090   8.2936900  18.2098690  11.7258040   7.5388340  19.4870190
  13.4604300  11.9985590  17.5612350  14.4126050  11.9143610  17.5112590
  13.3132520  12.6627300  18.2346140  16.3513500  11.3779800   3.0604260
  16.0655010  10.9644940   2.2458440  16.1533050  12.3067510   2.9404780
   7.9675050   6.0569880  17.4799100   7.2020720   6.6254880  17.3953770
   8.1491010   5.7646090  16.5867330  11.0563460   6.4333110   2.1051860
  10.5073560   6.8802410   2.7494600  11.6782720   5.9282360   2.6289530
  15.1098400   7.7875210  18.0374120  15.8507870   8.1250970  17.5341580
  14.3471080   7.9567270  17.4843890   2.9460190   2.7928480  18.8413650
   2.9865530   2.4942350  19.7498880   3.8005690   3.1936090  18.6821170
   6.7238580   5.3924030   4.0017160   7.1455000   5.2263900   4.8448550
   6.8489420   4.5824260   3.5072300  13.7844060   5.8390040  16.5729330
  14.1985080   5.9935120  17.4219750  12.8495060   5.9645260  16.7355110
  14.2566230   3.1786200  18.5768480  14.8387000   2.4238520  18.4888960
  14.4328000   3.7093640  17.7999960   8.5459290   5.7910520  14.5425260
   8.9647400   6.6343250  14.3701500   7.6267920   5.9282560  14.3132040
  10.8823190   3.5226700  15.9263100  11.0019400   2.9267840  16.6657940
  11.7417190   3.5596390  15.5064400  13.2211090   4.0763890  14.5025610
  12.6946310   4.6006510  13.8990750  13.5642430   4.7091280  15.1335340
   6.3966710  12.0963530  15.6582990   5.8587800  12.8209590  15.3391690
   6.6500670  11.6193870  14.8680330   9.2528920  13.3314740  15.9169640
   9.1787620  14.2349880  16.2242010   8.3507760  13.0126640  15.8891710
   9.8014250  12.4973250   3.5396000  10.6965040  12.8358220   3.5614760
   9.8331880  11.7752660   2.9120280   3.4410410   7.8700300   1.7683000
   3.8785280   8.4129970   2.4240580   3.9258140   7.0447250   1.7779340
   5.2518130   8.9898340   6.8805230   4.9513670   8.8663310   7.7809140
   5.1455620   8.1306930   6.4720960  16.7808600  11.0276920  16.2462200
  16.1810590  11.0869480  15.5026120  16.9102500  10.0881900  16.3759050
  17.4766510   5.5142220   4.0866110  18.2385420   6.0838870   4.1925800
  17.4920880   4.9469420   4.8574420  18.4826480   6.3692320   8.9308040
  18.8535310   5.5859640   8.5244010  19.1228410   7.0581420   8.7525340
  15.4660240   7.7528900  14.3438360  14.6520080   8.1826060  14.6064150
  15.8734440   8.3647310  13.7307410  17.4251020   3.7445580   6.2368060
  17.0494620   2.9773510   5.8049350  16.6954140   4.1268280   6.7242990
   2.0146780   4.4232720  12.8577110   2.3819820   4.3360120  13.7373130
   1.4457600   3.6599270  12.7583970  16.8150640   2.8917100  15.8707580
  16.5836730   2.6629850  14.9705530  17.0755190   3.8116650  15.8252470
  16.7001980   1.9703070   9.5375300  17.2239460   1.4765720   8.9065470
  17.2861400   2.1053430  10.2822870  16.8791700   2.0542940  13.0594850
  15.9294410   2.0206480  13.1739840  17.0604710   2.9643050  12.8244620
  15.5236290  12.5047500   7.8706630  16.1195360  12.1832070   7.1941050
  15.7814440  12.0319320   8.6619900   3.4298860   8.9365410  18.0197260
   3.3868490   8.5658320  18.9011720   3.5609870   9.8742980  18.1599080
   7.1304890  10.4925000  13.6206980   6.8896250  10.7599560  12.7337500
   8.0707530  10.6630730  13.6757840  18.3909050  12.5119380  14.4217620
  17.8967330  12.9088250  13.7044750  17.7822340  11.8868590  14.8154900
   3.2686890  11.8827660  15.1395040   2.6747210  11.7512360  15.8785080
   3.2610730  11.0465800  14.6737140  16.0748500  13.1542800  11.7004360
  15.6151470  13.9058610  11.3262380  15.4460960  12.4349270  11.6419160
   2.8999120   9.2486040  14.0903080   2.1733180   8.6291330  14.0229030
   2.9608270   9.6426650  13.2201160   6.5044220  11.4631040  10.8752490
   7.0209240  10.8518400  10.3500750   7.1541600  11.9659820  11.3663500
   9.2439720  12.3539530  11.7021470   9.5317530  12.0993830  10.8254480
   9.7562940  11.8016890  12.2927040   2.7891820  11.2593660   4.7449980
   2.2639440  11.6401690   4.0411940   2.7136400  11.8844430   5.4659690
   9.3112080  13.2755630  19.0689670  10.2379390  13.0399900  19.1125630
   9.2962510  14.1027630  18.5875700  17.5457140  12.8181200   6.0663920
  17.7209330  12.1318940   5.4224840  16.8478710  13.3428250   5.6740590
   5.3884790  13.2076040   3.6199230   6.1203610  12.9235320   3.0723120
   5.6478460  12.9689320   4.5098610   4.5499580   9.3240770   3.6245560
   3.9208460   9.7925870   4.1731390   4.6647410   8.4789990   4.0591750
  15.8789640  12.5025490  18.8930710  16.6714960  12.0074720  18.6856670
  16.1722790  13.1815630  19.5006320
 112.5326040 102.6241720  76.6681950  90.0000000  90.0000000  90.0000000
