GROningen MAchine for Chemical Simulation
32629
    1PYR      C    1   5.088   3.882   1.548
    1PYR     C1    2   5.157   4.004   1.548
    1PYR     C2    3   5.297   4.007   1.547
    1PYR     C3    4   5.367   4.128   1.547
    1PYR     C4    5   5.507   4.130   1.547
    1PYR     C5    6   5.580   4.010   1.547
    1PYR     C6    7   5.720   4.010   1.547
    1PYR     C7    8   5.791   3.890   1.547
    1PYR     C8    9   5.723   3.768   1.547
    1PYR     C9   10   5.583   3.765   1.547
    1PYR    C10   11   5.512   3.644   1.547
    1PYR    C11   12   5.373   3.642   1.547
    1PYR    C12   13   5.300   3.762   1.547
    1PYR    C13   14   5.159   3.762   1.547
    1PYR    C14   15   5.369   3.885   1.547
    1PYR    C15   16   5.511   3.887   1.547
    1PYR      H   17   4.980   3.881   1.548
    1PYR     H1   18   5.100   4.096   1.549
    1PYR     H2   19   5.314   4.223   1.547
    1PYR     H3   20   5.559   4.226   1.546
    1PYR     H4   21   5.776   4.103   1.547
    1PYR     H5   22   5.900   3.891   1.548
    1PYR     H6   23   5.780   3.676   1.547
    1PYR     H7   24   5.566   3.549   1.547
    1PYR     H8   25   5.321   3.547   1.547
    1PYR     H9   26   5.104   3.669   1.547
    2CPH     CC   27   5.423   2.423   3.040
    2CPH    HC1   28   5.439   2.328   3.090
    2CPH    HC2   29   5.391   2.417   2.935
    3MNF      O   30   5.185   3.001   3.285
    3MNF      C   31   5.209   2.899   3.223
    3MNF     C1   32   5.317   2.879   3.119
    3MNF      H   33   5.312   2.959   3.044
    3MNF     C2   34   5.287   2.743   3.052
    3MNF     C3   35   5.425   2.674   3.031
    3MNF     C4   36   5.441   2.541   3.101
    3MNF     C6   37   5.532   2.776   3.080
    3MNF     C7   38   5.459   2.869   3.179
    3MNF     C8   39   5.516   3.008   3.205
    3MNF     H1   40   5.239   2.760   2.955
    3MNF      N   41   5.138   2.779   3.232
    3MNF    C10   42   5.005   2.774   3.296
    3MNF    C11   43   5.000   2.718   3.440
    3MNF    C12   44   5.111   2.765   3.538
    3MNF    C13   45   5.247   2.694   3.521
    3MNF     O1   46   5.225   2.553   3.533
    3MNF    C14   47   5.292   2.468   3.438
    3MNF    C15   48   5.203   2.342   3.420
    3MNF     O2   49   5.086   2.376   3.344
    3MNF    C16   50   5.278   2.225   3.351
    3MNF    C17   51   5.201   2.091   3.358
    3MNF     O3   52   5.082   2.098   3.281
    3MNF     O4   53   5.405   2.204   3.417
    3MNF    C18   54   5.494   2.315   3.412
    3MNF     O5   55   5.616   2.279   3.474
    3MNF    C19   56   5.433   2.432   3.492
    3MNF     O6   57   5.520   2.545   3.484
    3MNF    C20   58   5.183   2.679   3.145
    3MNF     O7   59   5.140   2.565   3.141
    3MNF     H2   60   5.440   2.658   2.924
    3MNF     H3   61   5.475   2.545   3.205
    3MNF     H6   62   5.569   2.834   2.995
    3MNF     H7   63   5.617   2.724   3.126
    3MNF     H8   64   5.451   2.816   3.275
    3MNF     H9   65   5.439   3.078   3.237
    3MNF    H12   66   4.938   2.714   3.233
    3MNF    H13   67   4.964   2.876   3.298
    3MNF    H14   68   4.903   2.746   3.483
    3MNF    H15   69   4.998   2.609   3.436
    3MNF    H16   70   5.125   2.873   3.530
    3MNF    H17   71   5.077   2.746   3.641
    3MNF    H18   72   5.317   2.729   3.598
    3MNF    H19   73   5.291   2.719   3.423
    3MNF    H20   74   5.302   2.516   3.341
    3MNF    H21   75   5.173   2.307   3.521
    3MNF    H22   76   5.113   2.434   3.269
    3MNF    H23   77   5.295   2.249   3.246
    3MNF    H24   78   5.266   2.011   3.321
    3MNF    H25   79   5.178   2.068   3.463
    3MNF    H26   80   5.042   2.186   3.298
    3MNF    H27   81   5.512   2.345   3.308
    3MNF    H28   82   5.660   2.365   3.489
    3MNF    H29   83   5.422   2.397   3.596
    3MNF    H30   84   5.521   2.588   3.573
    4MON      O   85   5.860   3.414   3.064
    4MON      C   86   5.840   3.298   3.033
    4MON     C1   87   5.919   3.175   3.081
    4MON      H   88   6.017   3.174   3.032
    4MON     C2   89   5.835   3.054   3.031
    4MON     C3   90   5.773   2.990   3.157
    4MON     C4   91   5.641   3.057   3.195
    4MON     C6   92   5.878   3.020   3.265
    4MON     C7   93   5.930   3.163   3.235
    4MON     C8   94   6.069   3.194   3.289
    4MON     H1   95   5.899   2.982   2.978
    4MON      N   96   5.741   3.252   2.946
    4MON    C10   97   5.670   3.343   2.854
    4MON    C11   98   5.557   3.427   2.918
    4MON    C12   99   5.458   3.352   3.011
    4MON    C13  100   5.388   3.228   2.953
    4MON     O1  101   5.348   3.254   2.818
    4MON    C14  102   5.267   3.152   2.754
    4MON    C15  103   5.355   3.040   2.693
    4MON     O2  104   5.412   2.959   2.796
    4MON    C16  105   5.271   2.950   2.598
    4MON    C17  106   5.356   2.846   2.520
    4MON     O3  107   5.404   2.746   2.609
    4MON     O4  108   5.205   3.032   2.500
    4MON    C18  109   5.110   3.125   2.555
    4MON     O5  110   5.050   3.198   2.450
    4MON    C19  111   5.187   3.225   2.644
    4MON     O6  112   5.096   3.317   2.704
    4MON    C20  113   5.734   3.114   2.933
    4MON     O7  114   5.661   3.052   2.857
    4MON     H2  115   5.763   2.882   3.144
    4MON     H3  116   5.652   3.162   3.219
    4MON     H6  117   5.961   2.948   3.255
    4MON     H7  118   5.836   3.010   3.365
    4MON     H8  119   5.860   3.235   3.280
    4MON     H9  120   6.141   3.227   3.214
    4MON    H12  121   5.626   3.284   2.772
    4MON    H13  122   5.743   3.411   2.808
    4MON    H14  123   5.604   3.506   2.978
    4MON    H15  124   5.501   3.477   2.839
    4MON    H16  125   5.511   3.321   3.101
    4MON    H17  126   5.381   3.423   3.043
    4MON    H18  127   5.301   3.203   3.015
    4MON    H19  128   5.456   3.143   2.958
    4MON    H20  129   5.195   3.108   2.825
    4MON    H21  130   5.434   3.087   2.633
    4MON    H22  131   5.500   2.998   2.819
    4MON    H23  132   5.196   2.895   2.656
    4MON    H24  133   5.294   2.800   2.442
    4MON    H25  134   5.439   2.897   2.470
    4MON    H26  135   5.434   2.793   2.690
    4MON    H27  136   5.034   3.073   2.613
    4MON    H28  137   5.015   3.277   2.496
    4MON    H29  138   5.259   3.278   2.579
    4MON    H30  139   5.148   3.369   2.769
    5MON      O  140   6.282   2.890   3.839
    5MON      C  141   6.218   2.914   3.738
    5MON     C1  142   6.087   2.991   3.729
    5MON      H  143   6.009   2.938   3.785
    5MON     C2  144   6.050   2.994   3.578
    5MON     C3  145   6.029   3.143   3.537
    5MON     C4  146   6.111   3.185   3.417
    5MON     C6  147   6.058   3.230   3.662
    5MON     C7  148   6.102   3.137   3.777
    5MON     C8  149   6.032   3.158   3.911
    5MON     H1  150   5.958   2.936   3.561
    5MON      N  151   6.255   2.879   3.608
    5MON    C10  152   6.367   2.787   3.580
    5MON    C11  153   6.508   2.846   3.602
    5MON    C12  154   6.531   2.992   3.555
    5MON    C13  155   6.494   3.025   3.409
    5MON     O1  156   6.545   2.921   3.323
    5MON    C14  157   6.535   2.946   3.181
    5MON    C15  158   6.395   2.907   3.127
    5MON     O2  159   6.297   3.001   3.170
    5MON    C16  160   6.395   2.903   2.971
    5MON    C17  161   6.263   2.848   2.911
    5MON     O3  162   6.156   2.939   2.939
    5MON     O4  163   6.501   2.817   2.925
    5MON    C18  164   6.633   2.861   2.962
    5MON     O5  165   6.729   2.772   2.910
    5MON    C19  166   6.644   2.858   3.116
    5MON     O6  167   6.773   2.904   3.157
    5MON    C20  168   6.165   2.920   3.510
    5MON     O7  169   6.176   2.895   3.390
    5MON     H2  170   5.923   3.156   3.514
    5MON     H3  171   6.215   3.211   3.439
    5MON     H6  172   5.969   3.289   3.689
    5MON     H7  173   6.137   3.303   3.641
    5MON     H8  174   6.209   3.156   3.793
    5MON     H9  175   6.103   3.170   3.993
    5MON    H12  176   6.359   2.753   3.476
    5MON    H13  177   6.355   2.697   3.643
    5MON    H14  178   6.531   2.841   3.709
    5MON    H15  179   6.581   2.780   3.553
    5MON    H16  180   6.475   3.060   3.621
    5MON    H17  181   6.637   3.016   3.570
    5MON    H18  182   6.538   3.122   3.382
    5MON    H19  183   6.386   3.033   3.400
    5MON    H20  184   6.556   3.051   3.157
    5MON    H21  185   6.370   2.806   3.163
    5MON    H22  186   6.259   2.967   3.255
    5MON    H23  187   6.411   3.004   2.932
    5MON    H24  188   6.275   2.835   2.803
    5MON    H25  189   6.242   2.749   2.954
    5MON    H26  190   6.177   2.977   3.027
    5MON    H27  191   6.651   2.963   2.925
    5MON    H28  192   6.806   2.788   2.968
    5MON    H29  193   6.628   2.753   3.148
    5MON    H30  194   6.768   2.913   3.254
    6MON      O  195   5.563   3.034   4.224
    6MON      C  196   5.613   3.014   4.115
    6MON     C1  197   5.584   3.091   3.986
    6MON      H  198   5.482   3.070   3.956
    6MON     C2  199   5.683   3.032   3.883
    6MON     C3  200   5.781   3.145   3.846
    6MON     C4  201   5.901   3.158   3.940
    6MON     C6  202   5.690   3.269   3.862
    6MON     C7  203   5.609   3.243   3.991
    6MON     C8  204   5.481   3.322   4.020
    6MON     H1  205   5.628   2.999   3.793
    6MON      N  206   5.704   2.913   4.084
    6MON    C10  207   5.732   2.801   4.176
    6MON    C11  208   5.836   2.832   4.286
    6MON    C12  209   5.963   2.912   4.244
    6MON    C13  210   6.048   2.855   4.129
    6MON     O1  211   6.062   2.713   4.145
    6MON    C14  212   6.163   2.653   4.061
    6MON    C15  213   6.099   2.584   3.937
    6MON     O2  214   6.039   2.681   3.850
    6MON    C16  215   6.209   2.506   3.860
    6MON    C17  216   6.157   2.429   3.737
    6MON     O3  217   6.121   2.521   3.633
    6MON     O4  218   6.270   2.410   3.950
    6MON    C18  219   6.338   2.469   4.062
    6MON     O5  220   6.392   2.367   4.143
    6MON    C19  221   6.235   2.547   4.147
    6MON     O6  222   6.301   2.611   4.256
    6MON    C20  223   5.744   2.910   3.951
    6MON     O7  224   5.810   2.823   3.897
    6MON     H2  225   5.813   3.133   3.742
    6MON     H3  226   5.874   3.172   4.045
    6MON     H6  227   5.623   3.269   3.775
    6MON     H7  228   5.747   3.363   3.864
    6MON     H8  229   5.676   3.264   4.076
    6MON     H9  230   5.441   3.296   4.118
    6MON    H12  231   5.769   2.715   4.118
    6MON    H13  232   5.638   2.770   4.224
    6MON    H14  233   5.786   2.890   4.365
    6MON    H15  234   5.867   2.738   4.333
    6MON    H16  235   5.933   3.015   4.218
    6MON    H17  236   6.027   2.922   4.332
    6MON    H18  237   6.146   2.904   4.131
    6MON    H19  238   6.003   2.878   4.032
    6MON    H20  239   6.237   2.726   4.027
    6MON    H21  240   6.024   2.512   3.971
    6MON    H22  241   5.960   2.719   3.894
    6MON    H23  242   6.286   2.577   3.826
    6MON    H24  243   6.236   2.361   3.701
    6MON    H25  244   6.071   2.367   3.766
    6MON    H26  245   6.070   2.591   3.678
    6MON    H27  246   6.417   2.537   4.027
    6MON    H28  247   6.405   2.413   4.228
    6MON    H29  248   6.161   2.474   4.183
    6MON    H30  249   6.235   2.674   4.293
    7MON      O  250   4.998   3.444   3.705
    7MON      C  251   5.114   3.406   3.707
    7MON     C1  252   5.236   3.490   3.668
    7MON      H  253   5.232   3.509   3.560
    7MON     C2  254   5.357   3.399   3.699
    7MON     C3  255   5.439   3.469   3.810
    7MON     C4  256   5.411   3.412   3.948
    7MON     C6  257   5.398   3.617   3.799
    7MON     C7  258   5.252   3.620   3.750
    7MON     C8  259   5.216   3.741   3.665
    7MON     H1  260   5.417   3.387   3.610
    7MON      N  261   5.158   3.279   3.742
    7MON    C10  262   5.066   3.165   3.753
    7MON    C11  263   4.985   3.158   3.885
    7MON    C12  264   5.064   3.183   4.016
    7MON    C13  265   5.189   3.097   4.039
    7MON     O1  266   5.162   2.961   4.001
    7MON    C14  267   5.265   2.867   4.037
    7MON    C15  268   5.311   2.791   3.910
    7MON     O2  269   5.381   2.881   3.823
    7MON    C16  270   5.404   2.672   3.947
    7MON    C17  271   5.439   2.582   3.827
    7MON     O3  272   5.521   2.655   3.734
    7MON     O4  273   5.337   2.589   4.044
    7MON    C18  274   5.304   2.654   4.168
    7MON     O5  275   5.241   2.562   4.254
    7MON    C19  276   5.205   2.768   4.139
    7MON     O6  277   5.173   2.836   4.260
    7MON    C20  278   5.296   3.263   3.735
    7MON     O7  279   5.357   3.158   3.747
    7MON     H2  280   5.546   3.466   3.788
    7MON     H3  281   5.320   3.452   3.993
    7MON     H6  282   5.463   3.664   3.724
    7MON     H7  283   5.412   3.672   3.893
    7MON     H8  284   5.184   3.615   3.837
    7MON     H9  285   5.127   3.728   3.603
    7MON    H12  286   5.123   3.072   3.743
    7MON    H13  287   4.996   3.168   3.668
    7MON    H14  288   4.905   3.233   3.879
    7MON    H15  289   4.936   3.060   3.890
    7MON    H16  290   5.093   3.289   4.020
    7MON    H17  291   4.995   3.168   4.100
    7MON    H18  292   5.218   3.103   4.145
    7MON    H19  293   5.272   3.137   3.980
    7MON    H20  294   5.352   2.916   4.084
    7MON    H21  295   5.222   2.750   3.860
    7MON    H22  296   5.327   2.962   3.811
    7MON    H23  297   5.497   2.710   3.990
    7MON    H24  298   5.493   2.493   3.862
    7MON    H25  299   5.346   2.548   3.779
    7MON    H26  300   5.494   2.749   3.744
    7MON    H27  301   5.395   2.694   4.216
    7MON    H28  302   5.194   2.620   4.316
    7MON    H29  303   5.115   2.722   4.094
    7MON    H30  304   5.118   2.913   4.235
    8MON      O  305   5.406   4.366   3.754
    8MON      C  306   5.335   4.270   3.728
    8MON     C1  307   5.316   4.205   3.591
    8MON      H  308   5.285   4.279   3.517
    8MON     C2  309   5.205   4.098   3.613
    8MON     C3  310   5.257   3.964   3.554
    8MON     C4  311   5.287   3.855   3.655
    8MON     C6  312   5.386   3.999   3.479
    8MON     C7  313   5.441   4.127   3.544
    8MON     C8  314   5.536   4.201   3.452
    8MON     H1  315   5.113   4.130   3.562
    8MON      N  316   5.258   4.199   3.820
    8MON    C10  317   5.239   4.244   3.959
    8MON    C11  318   5.357   4.218   4.056
    8MON    C12  319   5.443   4.090   4.034
    8MON    C13  320   5.368   3.956   4.021
    8MON     O1  321   5.268   3.946   4.124
    8MON    C14  322   5.174   3.838   4.105
    8MON    C15  323   5.034   3.883   4.153
    8MON     O2  324   4.986   3.990   4.071
    8MON    C16  325   4.933   3.765   4.153
    8MON    C17  326   4.799   3.799   4.222
    8MON     O3  327   4.728   3.897   4.147
    8MON     O4  328   4.990   3.652   4.224
    8MON    C18  329   5.114   3.604   4.172
    8MON     O5  330   5.158   3.493   4.249
    8MON    C19  331   5.218   3.716   4.189
    8MON     O6  332   5.348   3.669   4.151
    8MON    C20  333   5.179   4.098   3.763
    8MON     O7  334   5.101   4.026   3.823
    8MON     H2  335   5.183   3.925   3.482
    8MON     H3  336   5.377   3.872   3.715
    8MON     H6  337   5.362   4.016   3.373
    8MON     H7  338   5.461   3.919   3.484
    8MON     H8  339   5.497   4.095   3.633
    8MON     H9  340   5.635   4.219   3.494
    8MON    H12  341   5.150   4.194   4.000
    8MON    H13  342   5.217   4.352   3.959
    8MON    H14  343   5.425   4.304   4.050
    8MON    H15  344   5.318   4.217   4.159
    8MON    H16  345   5.503   4.104   3.943
    8MON    H17  346   5.514   4.082   4.117
    8MON    H18  347   5.440   3.874   4.027
    8MON    H19  348   5.321   3.951   3.922
    8MON    H20  349   5.167   3.809   3.999
    8MON    H21  350   5.044   3.919   4.257
    8MON    H22  351   5.032   3.988   3.984
    8MON    H23  352   4.912   3.735   4.049
    8MON    H24  353   4.739   3.707   4.231
    8MON    H25  354   4.819   3.835   4.324
    8MON    H26  355   4.795   3.963   4.117
    8MON    H27  356   5.104   3.575   4.067
    8MON    H28  357   5.255   3.503   4.246
    8MON    H29  358   5.218   3.745   4.295
    8MON    H30  359   5.409   3.743   4.169
    9MON      O  360   5.393   4.071   2.905
    9MON      C  361   5.485   4.085   2.983
    9MON     C1  362   5.572   4.209   2.999
    9MON      H  363   5.637   4.216   2.911
    9MON     C2  364   5.658   4.181   3.124
    9MON     C3  365   5.616   4.287   3.229
    9MON     C4  366   5.510   4.233   3.324
    9MON     C6  367   5.562   4.405   3.145
    9MON     C7  368   5.493   4.340   3.023
    9MON     C8  369   5.491   4.425   2.896
    9MON     H1  370   5.764   4.193   3.099
    9MON      N  371   5.533   3.987   3.069
    9MON    C10  372   5.538   3.846   3.023
    9MON    C11  373   5.406   3.766   3.035
    9MON    C12  374   5.343   3.760   3.176
    9MON    C13  375   5.438   3.726   3.292
    9MON     O1  376   5.507   3.603   3.267
    9MON    C14  377   5.584   3.556   3.380
    9MON    C15  378   5.728   3.615   3.380
    9MON     O2  379   5.725   3.752   3.422
    9MON    C16  380   5.822   3.538   3.480
    9MON    C17  381   5.971   3.568   3.456
    9MON     O3  382   6.004   3.696   3.510
    9MON     O4  383   5.805   3.395   3.470
    9MON    C18  384   5.671   3.349   3.488
    9MON     O5  385   5.667   3.207   3.485
    9MON    C19  386   5.590   3.403   3.369
    9MON     O6  387   5.457   3.349   3.368
    9MON    C20  388   5.631   4.034   3.158
    9MON     O7  389   5.691   3.966   3.240
    9MON     H2  390   5.704   4.319   3.287
    9MON     H3  391   5.413   4.214   3.280
    9MON     H6  392   5.647   4.466   3.112
    9MON     H7  393   5.494   4.469   3.202
    9MON     H8  394   5.391   4.313   3.050
    9MON     H9  395   5.488   4.367   2.804
    9MON    H12  396   5.616   3.792   3.079
    9MON    H13  397   5.569   3.845   2.918
    9MON    H14  398   5.332   3.808   2.966
    9MON    H15  399   5.424   3.664   3.001
    9MON    H16  400   5.299   3.858   3.198
    9MON    H17  401   5.260   3.688   3.175
    9MON    H18  402   5.378   3.718   3.384
    9MON    H19  403   5.509   3.808   3.304
    9MON    H20  404   5.534   3.582   3.475
    9MON    H21  405   5.770   3.604   3.279
    9MON    H22  406   5.708   3.810   3.344
    9MON    H23  407   5.797   3.568   3.582
    9MON    H24  408   6.032   3.491   3.506
    9MON    H25  409   5.994   3.563   3.349
    9MON    H26  410   5.933   3.758   3.481
    9MON    H27  411   5.631   3.386   3.583
    9MON    H28  412   5.576   3.189   3.454
    9MON    H29  413   5.644   3.378   3.277
    9MON    H30  414   5.408   3.401   3.302
   10MON      O  415   5.137   4.918   2.790
   10MON      C  416   5.198   4.816   2.764
   10MON     C1  417   5.335   4.808   2.696
   10MON      H  418   5.327   4.852   2.595
   10MON     C2  419   5.366   4.656   2.685
   10MON     C3  420   5.502   4.632   2.755
   10MON     C4  421   5.494   4.559   2.888
   10MON     C6  422   5.565   4.772   2.770
   10MON     C7  423   5.448   4.872   2.778
   10MON     C8  424   5.487   5.010   2.730
   10MON     H1  425   5.372   4.627   2.579
   10MON      N  426   5.157   4.686   2.790
   10MON    C10  427   5.019   4.656   2.835
   10MON    C11  428   4.992   4.683   2.985
   10MON    C12  429   5.102   4.640   3.086
   10MON    C13  430   5.156   4.496   3.073
   10MON     O1  431   5.047   4.407   3.044
   10MON    C14  432   5.085   4.270   3.017
   10MON    C15  433   4.994   4.214   2.905
   10MON     O2  434   5.021   4.280   2.781
   10MON    C16  435   5.015   4.060   2.889
   10MON    C17  436   4.913   3.994   2.793
   10MON     O3  437   4.937   4.037   2.659
   10MON     O4  438   5.000   3.996   3.018
   10MON    C18  439   5.091   4.040   3.118
   10MON     O5  440   5.067   3.971   3.239
   10MON    C19  441   5.063   4.189   3.146
   10MON     O6  442   5.145   4.236   3.254
   10MON    C20  443   5.244   4.587   2.746
   10MON     O7  444   5.223   4.466   2.749
   10MON     H2  445   5.566   4.572   2.688
   10MON     H3  446   5.496   4.621   2.978
   10MON     H6  447   5.625   4.793   2.681
   10MON     H7  448   5.632   4.780   2.857
   10MON     H8  449   5.416   4.877   2.883
   10MON     H9  450   5.474   5.089   2.805
   10MON    H12  451   4.997   4.551   2.814
   10MON    H13  452   4.949   4.716   2.775
   10MON    H14  453   4.975   4.790   2.999
   10MON    H15  454   4.898   4.634   3.013
   10MON    H16  455   5.187   4.709   3.077
   10MON    H17  456   5.063   4.653   3.187
   10MON    H18  457   5.208   4.469   3.165
   10MON    H19  458   5.230   4.493   2.992
   10MON    H20  459   5.189   4.262   2.984
   10MON    H21  460   4.889   4.230   2.934
   10MON    H22  461   5.098   4.340   2.791
   10MON    H23  462   5.116   4.041   2.851
   10MON    H24  463   4.923   3.885   2.800
   10MON    H25  464   4.812   4.020   2.825
   10MON    H26  465   4.958   4.133   2.664
   10MON    H27  466   5.195   4.026   3.085
   10MON    H28  467   5.085   4.043   3.304
   10MON    H29  468   4.956   4.197   3.173
   10MON    H30  469   5.124   4.331   3.261
   11MON      O  470   5.911   5.140   2.228
   11MON      C  471   5.856   5.135   2.337
   11MON     C1  472   5.739   5.221   2.384
   11MON      H  473   5.761   5.326   2.365
   11MON     C2  474   5.727   5.195   2.536
   11MON     C3  475   5.575   5.179   2.565
   11MON     C4  476   5.536   5.039   2.609
   11MON     C6  477   5.505   5.219   2.434
   11MON     C7  478   5.604   5.184   2.321
   11MON     C8  479   5.587   5.245   2.182
   11MON     H1  480   5.769   5.281   2.591
   11MON      N  481   5.892   5.053   2.443
   11MON    C10  482   6.024   4.986   2.447
   11MON    C11  483   6.038   4.861   2.358
   11MON    C12  484   5.916   4.765   2.352
   11MON    C13  485   5.855   4.724   2.487
   11MON     O1  486   5.961   4.689   2.579
   11MON    C14  487   5.917   4.657   2.712
   11MON    C15  488   6.018   4.714   2.814
   11MON     O2  489   6.013   4.858   2.813
   11MON    C16  490   5.988   4.663   2.958
   11MON    C17  491   6.098   4.700   3.060
   11MON     O3  492   6.093   4.840   3.089
   11MON     O4  493   5.977   4.519   2.958
   11MON    C18  494   5.874   4.467   2.872
   11MON     O5  495   5.872   4.326   2.881
   11MON    C19  496   5.910   4.503   2.727
   11MON     O6  497   5.812   4.446   2.638
   11MON    C20  498   5.818   5.074   2.560
   11MON     O7  499   5.831   5.011   2.664
   11MON     H2  500   5.547   5.251   2.644
   11MON     H3  501   5.550   4.961   2.534
   11MON     H6  502   5.488   5.327   2.437
   11MON     H7  503   5.408   5.168   2.422
   11MON     H8  504   5.602   5.074   2.309
   11MON     H9  505   5.666   5.214   2.115
   11MON    H12  506   6.046   4.956   2.550
   11MON    H13  507   6.101   5.059   2.418
   11MON    H14  508   6.059   4.894   2.255
   11MON    H15  509   6.127   4.805   2.390
   11MON    H16  510   5.837   4.811   2.292
   11MON    H17  511   5.946   4.674   2.298
   11MON    H18  512   5.786   4.640   2.472
   11MON    H19  513   5.797   4.807   2.527
   11MON    H20  514   5.818   4.700   2.734
   11MON    H21  515   6.118   4.680   2.786
   11MON    H22  516   5.948   4.889   2.747
   11MON    H23  517   5.893   4.706   2.993
   11MON    H24  518   6.083   4.642   3.152
   11MON    H25  519   6.197   4.673   3.019
   11MON    H26  520   6.084   4.886   3.003
   11MON    H27  521   5.776   4.508   2.900
   11MON    H28  522   5.844   4.302   2.790
   11MON    H29  523   6.010   4.462   2.707
   11MON    H30  524   5.843   4.467   2.548
   12MNL      O  525   5.457   5.798   1.996
   12MNL      C  526   5.458   5.714   2.084
   12MNL     C1  527   5.338   5.631   2.131
   12MNL      H  528   5.262   5.698   2.173
   12MNL     C2  529   5.395   5.538   2.242
   12MNL     C3  530   5.371   5.392   2.194
   12MNL     C4  531   5.495   5.330   2.130
   12MNL     C6  532   5.257   5.405   2.091
   12MNL     C7  533   5.280   5.541   2.021
   12MNL     C8  534   5.158   5.602   1.954
   12MNL     H1  535   5.342   5.557   2.336
   12MNL      N  536   5.568   5.676   2.160
   12MNL    C10  537   5.697   5.747   2.151
   12MNL    C11  538   5.782   5.710   2.027
   12MNL    C12  539   5.802   5.559   1.999
   12MNL    C13  540   5.865   5.476   2.113
   12MNL     O1  541   5.983   5.543   2.160
   12MNL    C14  542   6.057   5.472   2.261
   12MNL    C15  543   6.035   5.540   2.399
   12MNL     O2  544   5.900   5.520   2.443
   12MNL    C16  545   6.134   5.481   2.504
   12MNL    C17  546   6.129   5.554   2.640
   12MNL     O3  547   6.004   5.527   2.705
   12MNL     O4  548   6.268   5.494   2.454
   12MNL    C18  549   6.294   5.422   2.332
   12MNL     O5  550   6.429   5.441   2.295
   12MNL    C19  551   6.205   5.479   2.221
   12MNL     O6  552   6.226   5.406   2.100
   12MNL    C20  553   5.541   5.581   2.258
   12MNL     O7  554   5.619   5.543   2.344
   12MNL     H2  555   5.334   5.330   2.276
   12MNL     H3  556   5.508   5.358   2.026
   12MNL     H6  557   5.162   5.407   2.145
   12MNL     H7  558   5.254   5.321   2.020
   12MNL     H8  559   5.357   5.527   1.944
   12MNL     H9  560   5.175   5.703   1.915
   12MNL    H12  561   5.756   5.727   2.241
   12MNL    H13  562   5.678   5.855   2.149
   12MNL    H14  563   5.735   5.754   1.938
   12MNL    H15  564   5.880   5.758   2.036
   12MNL    H16  565   5.705   5.514   1.973
   12MNL    H17  566   5.865   5.548   1.910
   12MNL    H18  567   5.889   5.376   2.075
   12MNL    H19  568   5.792   5.464   2.194
   12MNL    H20  569   6.027   5.366   2.266
   12MNL    H21  570   6.056   5.647   2.388
   12MNL    H22  571   5.839   5.554   2.375
   12MNL    H23  572   6.111   5.375   2.521
   12MNL    H24  573   6.212   5.519   2.703
   12MNL    H25  574   6.142   5.662   2.624
   12MNL    H26  575   5.935   5.535   2.636
   12MNL    H27  576   6.274   5.315   2.347
   12MNL    H28  577   6.427   5.419   2.199
   12MNL    H29  578   6.233   5.585   2.208
   12MNL    H30  579   6.155   5.434   2.039
   13CPT     CC  580   5.037   5.546   1.940
   13CPT    HC1  581   5.014   5.445   1.975
   13CPT    HC2  582   4.956   5.599   1.890
   14CPH     CC  583   3.963   2.370   4.136
   14CPH    HC1  584   4.071   2.377   4.137
   14CPH    HC2  585   3.916   2.323   4.223
   15MNF      O  586   3.648   2.847   3.882
   15MNF      C  587   3.671   2.755   3.958
   15MNF     C1  588   3.617   2.612   3.948
   15MNF      H  589   3.507   2.615   3.948
   15MNF     C2  590   3.667   2.540   4.076
   15MNF     C3  591   3.738   2.410   4.028
   15MNF     C4  592   3.889   2.418   4.035
   15MNF     C6  593   3.692   2.392   3.882
   15MNF     C7  594   3.672   2.534   3.826
   15MNF     C8  595   3.580   2.553   3.706
   15MNF     H1  596   3.581   2.515   4.140
   15MNF      N  597   3.752   2.760   4.071
   15MNF    C10  598   3.815   2.886   4.117
   15MNF    C11  599   3.938   2.933   4.035
   15MNF    C12  600   4.035   2.825   3.982
   15MNF    C13  601   4.086   2.721   4.083
   15MNF     O1  602   4.121   2.786   4.206
   15MNF    C14  603   4.140   2.698   4.319
   15MNF    C15  604   4.089   2.771   4.446
   15MNF     O2  605   3.947   2.785   4.440
   15MNF    C16  606   4.130   2.697   4.576
   15MNF    C17  607   4.101   2.778   4.704
   15MNF     O3  608   3.960   2.793   4.723
   15MNF     O4  609   4.272   2.672   4.574
   15MNF    C18  610   4.317   2.590   4.465
   15MNF     O5  611   4.456   2.569   4.477
   15MNF    C19  612   4.290   2.664   4.333
   15MNF     O6  613   4.335   2.583   4.224
   15MNF    C20  614   3.754   2.643   4.148
   15MNF     O7  615   3.810   2.629   4.255
   15MNF     H2  616   3.703   2.325   4.089
   15MNF     H3  617   3.939   2.465   3.950
   15MNF     H6  618   3.597   2.336   3.880
   15MNF     H7  619   3.767   2.334   3.827
   15MNF     H8  620   3.770   2.576   3.801
   15MNF     H9  621   3.524   2.646   3.710
   15MNF    H12  622   3.847   2.872   4.221
   15MNF    H13  623   3.739   2.964   4.118
   15MNF    H14  624   3.901   2.989   3.948
   15MNF    H15  625   3.994   3.005   4.096
   15MNF    H16  626   3.986   2.771   3.900
   15MNF    H17  627   4.121   2.875   3.937
   15MNF    H18  628   4.172   2.667   4.041
   15MNF    H19  629   4.008   2.647   4.101
   15MNF    H20  630   4.083   2.604   4.307
   15MNF    H21  631   4.136   2.871   4.448
   15MNF    H22  632   3.910   2.719   4.376
   15MNF    H23  633   4.076   2.601   4.583
   15MNF    H24  634   4.145   2.726   4.791
   15MNF    H25  635   4.149   2.877   4.697
   15MNF    H26  636   3.922   2.810   4.635
   15MNF    H27  637   4.264   2.493   4.467
   15MNF    H28  638   4.481   2.542   4.386
   15MNF    H29  639   4.347   2.759   4.338
   15MNF    H30  640   4.322   2.636   4.143
   16MON      O  641   3.314   2.320   3.222
   16MON      C  642   3.364   2.295   3.330
   16MON     C1  643   3.510   2.255   3.355
   16MON      H  644   3.530   2.158   3.308
   16MON     C2  645   3.521   2.241   3.509
   16MON     C3  646   3.625   2.344   3.557
   16MON     C4  647   3.561   2.477   3.597
   16MON     C6  648   3.713   2.365   3.432
   16MON     C7  649   3.615   2.362   3.312
   16MON     C8  650   3.677   2.333   3.176
   16MON     H1  651   3.552   2.139   3.535
   16MON      N  652   3.299   2.298   3.453
   16MON    C10  653   3.152   2.310   3.465
   16MON    C11  654   3.094   2.451   3.443
   16MON    C12  655   3.174   2.572   3.499
   16MON    C13  656   3.213   2.567   3.648
   16MON     O1  657   3.100   2.524   3.727
   16MON    C14  658   3.116   2.536   3.870
   16MON    C15  659   3.194   2.417   3.931
   16MON     O2  660   3.332   2.421   3.891
   16MON    C16  661   3.186   2.420   4.087
   16MON    C17  662   3.251   2.297   4.154
   16MON     O3  663   3.393   2.302   4.137
   16MON     O4  664   3.047   2.422   4.126
   16MON    C18  665   2.975   2.538   4.082
   16MON     O5  666   2.841   2.530   4.127
   16MON    C19  667   2.973   2.540   3.928
   16MON     O6  668   2.906   2.657   3.881
   16MON    C20  669   3.379   2.264   3.562
   16MON     O7  670   3.343   2.253   3.678
   16MON     H2  671   3.685   2.301   3.636
   16MON     H3  672   3.491   2.515   3.523
   16MON     H6  673   3.784   2.282   3.424
   16MON     H7  674   3.770   2.458   3.441
   16MON     H8  675   3.563   2.459   3.306
   16MON     H9  676   3.627   2.253   3.121
   16MON    H12  677   3.123   2.277   3.566
   16MON    H13  678   3.106   2.240   3.394
   16MON    H14  679   3.084   2.466   3.334
   16MON    H15  680   2.992   2.453   3.483
   16MON    H16  681   3.265   2.585   3.440
   16MON    H17  682   3.114   2.662   3.482
   16MON    H18  683   3.245   2.667   3.679
   16MON    H19  684   3.297   2.500   3.660
   16MON    H20  685   3.166   2.630   3.896
   16MON    H21  686   3.148   2.323   3.896
   16MON    H22  687   3.339   2.368   3.809
   16MON    H23  688   3.236   2.510   4.124
   16MON    H24  689   3.226   2.298   4.261
   16MON    H25  690   3.210   2.205   4.111
   16MON    H26  691   3.408   2.326   4.043
   16MON    H27  692   3.022   2.629   4.121
   16MON    H28  693   2.795   2.591   4.067
   16MON    H29  694   2.920   2.449   3.895
   16MON    H30  695   2.921   2.659   3.784
   17MON      O  696   4.278   2.423   2.986
   17MON      C  697   4.190   2.414   3.070
   17MON     C1  698   4.109   2.529   3.128
   17MON      H  699   4.175   2.596   3.185
   17MON     C2  700   4.004   2.464   3.223
   17MON     C3  701   3.863   2.510   3.174
   17MON     C4  702   3.781   2.395   3.117
   17MON     C6  703   3.886   2.621   3.069
   17MON     C7  704   4.031   2.604   3.018
   17MON     C8  705   4.102   2.731   2.975
   17MON     H1  706   4.022   2.497   3.326
   17MON      N  707   4.140   2.297   3.124
   17MON    C10  708   4.202   2.166   3.097
   17MON    C11  709   4.184   2.113   2.952
   17MON    C12  710   4.045   2.135   2.887
   17MON    C13  711   3.923   2.080   2.964
   17MON     O1  712   3.952   1.945   3.004
   17MON    C14  713   3.843   1.873   3.066
   17MON    C15  714   3.837   1.900   3.219
   17MON     O2  715   3.786   2.032   3.243
   17MON    C16  716   3.746   1.797   3.291
   17MON    C17  717   3.755   1.805   3.445
   17MON     O3  718   3.705   1.932   3.490
   17MON     O4  719   3.786   1.663   3.254
   17MON    C18  720   3.774   1.634   3.115
   17MON     O5  721   3.812   1.499   3.092
   17MON    C19  722   3.873   1.724   3.038
   17MON     O6  723   3.863   1.699   2.898
   17MON    C20  724   4.035   2.314   3.214
   17MON     O7  725   3.980   2.224   3.275
   17MON     H2  726   3.809   2.557   3.257
   17MON     H3  727   3.811   2.363   3.018
   17MON     H6  728   3.870   2.719   3.114
   17MON     H7  729   3.814   2.614   2.986
   17MON     H8  730   4.025   2.538   2.931
   17MON     H9  731   4.141   2.725   2.873
   17MON    H12  732   4.160   2.092   3.166
   17MON    H13  733   4.309   2.173   3.120
   17MON    H14  734   4.259   2.162   2.889
   17MON    H15  735   4.209   2.006   2.950
   17MON    H16  736   4.030   2.243   2.870
   17MON    H17  737   4.047   2.090   2.787
   17MON    H18  738   3.835   2.083   2.899
   17MON    H19  739   3.903   2.143   3.051
   17MON    H20  740   3.747   1.899   3.020
   17MON    H21  741   3.939   1.891   3.260
   17MON    H22  742   3.861   2.096   3.241
   17MON    H23  743   3.642   1.813   3.261
   17MON    H24  744   3.695   1.724   3.489
   17MON    H25  745   3.859   1.791   3.477
   17MON    H26  746   3.733   1.996   3.422
   17MON    H27  747   3.671   1.650   3.080
   17MON    H28  748   3.835   1.500   2.997
   17MON    H29  749   3.974   1.701   3.075
   17MON    H30  750   3.918   1.768   2.855
   18MON      O  751   4.391   3.190   3.115
   18MON      C  752   4.347   3.090   3.170
   18MON     C1  753   4.215   3.079   3.246
   18MON      H  754   4.222   3.136   3.340
   18MON     C2  755   4.201   2.928   3.276
   18MON     C3  756   4.084   2.877   3.189
   18MON     C4  757   4.126   2.843   3.046
   18MON     C6  758   3.992   3.000   3.184
   18MON     C7  759   4.089   3.119   3.164
   18MON     C8  760   4.035   3.256   3.200
   18MON     H1  761   4.179   2.913   3.383
   18MON      N  762   4.409   2.966   3.176
   18MON    C10  763   4.551   2.946   3.138
   18MON    C11  764   4.578   2.930   2.987
   18MON    C12  765   4.487   2.831   2.909
   18MON    C13  766   4.474   2.687   2.963
   18MON     O1  767   4.602   2.642   3.009
   18MON    C14  768   4.610   2.501   3.040
   18MON    C15  769   4.591   2.476   3.193
   18MON     O2  770   4.456   2.501   3.231
   18MON    C16  771   4.629   2.329   3.229
   18MON    C17  772   4.627   2.301   3.381
   18MON     O3  773   4.493   2.305   3.430
   18MON     O4  774   4.762   2.301   3.181
   18MON    C18  775   4.777   2.310   3.039
   18MON     O5  776   4.910   2.278   3.004
   18MON    C19  777   4.750   2.455   2.996
   18MON     O6  778   4.761   2.467   2.854
   18MON    C20  779   4.337   2.868   3.243
   18MON     O7  780   4.375   2.756   3.273
   18MON     H2  781   4.036   2.791   3.238
   18MON     H3  782   4.183   2.921   2.996
   18MON     H6  783   3.940   3.010   3.280
   18MON     H7  784   3.916   2.993   3.106
   18MON     H8  785   4.119   3.123   3.058
   18MON     H9  786   4.110   3.334   3.203
   18MON    H12  787   4.589   2.857   3.190
   18MON    H13  788   4.609   3.032   3.175
   18MON    H14  789   4.568   3.028   2.940
   18MON    H15  790   4.682   2.900   2.973
   18MON    H16  791   4.386   2.874   2.900
   18MON    H17  792   4.525   2.825   2.806
   18MON    H18  793   4.437   2.622   2.882
   18MON    H19  794   4.400   2.683   3.043
   18MON    H20  795   4.535   2.443   2.984
   18MON    H21  796   4.660   2.543   3.247
   18MON    H22  797   4.440   2.598   3.229
   18MON    H23  798   4.557   2.261   3.180
   18MON    H24  799   4.671   2.201   3.399
   18MON    H25  800   4.690   2.374   3.432
   18MON    H26  801   4.450   2.379   3.382
   18MON    H27  802   4.708   2.241   2.988
   18MON    H28  803   4.919   2.320   2.916
   18MON    H29  804   4.825   2.519   3.046
   18MON    H30  805   4.725   2.555   2.832
   19MON      O  806   3.471   3.347   3.017
   19MON      C  807   3.585   3.387   3.035
   19MON     C1  808   3.633   3.471   3.153
   19MON      H  809   3.582   3.568   3.151
   19MON     C2  810   3.785   3.490   3.128
   19MON     C3  811   3.859   3.428   3.249
   19MON     C4  812   3.906   3.286   3.222
   19MON     C6  813   3.753   3.428   3.361
   19MON     C7  814   3.618   3.403   3.291
   19MON     C8  815   3.496   3.452   3.368
   19MON     H1  816   3.808   3.597   3.120
   19MON      N  817   3.693   3.367   2.949
   19MON    C10  818   3.673   3.329   2.808
   19MON    C11  819   3.653   3.178   2.781
   19MON    C12  820   3.746   3.079   2.855
   19MON    C13  821   3.898   3.108   2.851
   19MON     O1  822   3.936   3.153   2.720
   19MON    C14  823   4.072   3.200   2.711
   19MON    C15  824   4.077   3.322   2.614
   19MON     O2  825   4.006   3.433   2.670
   19MON    C16  826   4.224   3.363   2.583
   19MON    C17  827   4.234   3.469   2.470
   19MON     O3  828   4.178   3.593   2.513
   19MON     O4  829   4.298   3.248   2.538
   19MON    C18  830   4.304   3.140   2.632
   19MON     O5  831   4.381   3.034   2.577
   19MON    C19  832   4.161   3.087   2.653
   19MON     O6  833   4.162   2.973   2.739
   19MON    C20  834   3.812   3.424   2.993
   19MON     O7  835   3.918   3.428   2.932
   19MON     H2  836   3.944   3.491   3.277
   19MON     H3  837   3.828   3.210   3.216
   19MON     H6  838   3.754   3.527   3.408
   19MON     H7  839   3.774   3.353   3.438
   19MON     H8  840   3.607   3.294   3.275
   19MON     H9  841   3.404   3.453   3.309
   19MON    H12  842   3.760   3.362   2.750
   19MON    H13  843   3.586   3.383   2.769
   19MON    H14  844   3.550   3.152   2.807
   19MON    H15  845   3.662   3.161   2.673
   19MON    H16  846   3.715   3.073   2.960
   19MON    H17  847   3.729   2.978   2.814
   19MON    H18  848   3.952   3.018   2.879
   19MON    H19  849   3.920   3.185   2.926
   19MON    H20  850   4.111   3.232   2.809
   19MON    H21  851   4.029   3.292   2.520
   19MON    H22  852   3.985   3.414   2.765
   19MON    H23  853   4.270   3.404   2.673
   19MON    H24  854   4.340   3.483   2.444
   19MON    H25  855   4.182   3.432   2.381
   19MON    H26  856   4.098   3.571   2.565
   19MON    H27  857   4.348   3.173   2.727
   19MON    H28  858   4.345   2.956   2.624
   19MON    H29  859   4.122   3.060   2.554
   19MON    H30  860   4.069   2.945   2.746
   20MON      O  861   3.429   3.454   4.026
   20MON      C  862   3.407   3.436   3.908
   20MON     C1  863   3.335   3.532   3.813
   20MON      H  864   3.237   3.560   3.854
   20MON     C2  865   3.318   3.452   3.681
   20MON     C3  866   3.369   3.544   3.565
   20MON     C4  867   3.494   3.492   3.496
   20MON     C6  868   3.396   3.681   3.629
   20MON     C7  869   3.420   3.656   3.779
   20MON     C8  870   3.395   3.777   3.866
   20MON     H1  871   3.213   3.426   3.666
   20MON      N  872   3.443   3.324   3.834
   20MON    C10  873   3.507   3.205   3.897
   20MON    C11  874   3.656   3.224   3.936
   20MON    C12  875   3.748   3.294   3.832
   20MON    C13  876   3.755   3.230   3.692
   20MON     O1  877   3.781   3.090   3.706
   20MON    C14  878   3.790   3.014   3.583
   20MON    C15  879   3.649   2.971   3.534
   20MON     O2  880   3.585   3.082   3.468
   20MON    C16  881   3.654   2.853   3.433
   20MON    C17  882   3.515   2.790   3.407
   20MON     O3  883   3.438   2.875   3.323
   20MON     O4  884   3.740   2.748   3.481
   20MON    C18  885   3.875   2.789   3.503
   20MON     O5  886   3.953   2.677   3.540
   20MON    C19  887   3.876   2.890   3.618
   20MON     O6  888   4.011   2.933   3.643
   20MON    C20  889   3.397   3.322   3.703
   20MON     O7  890   3.412   3.231   3.623
   20MON     H2  891   3.289   3.554   3.490
   20MON     H3  892   3.583   3.491   3.558
   20MON     H6  893   3.309   3.746   3.614
   20MON     H7  894   3.483   3.731   3.584
   20MON     H8  895   3.526   3.628   3.789
   20MON     H9  896   3.477   3.801   3.934
   20MON    H12  897   3.500   3.121   3.828
   20MON    H13  898   3.450   3.178   3.986
   20MON    H14  899   3.660   3.282   4.028
   20MON    H15  900   3.697   3.126   3.960
   20MON    H16  901   3.717   3.398   3.821
   20MON    H17  902   3.849   3.297   3.874
   20MON    H18  903   3.836   3.278   3.636
   20MON    H19  904   3.661   3.248   3.639
   20MON    H20  905   3.841   3.071   3.504
   20MON    H21  906   3.591   2.939   3.622
   20MON    H22  907   3.531   3.132   3.534
   20MON    H23  908   3.693   2.890   3.337
   20MON    H24  909   3.529   2.693   3.358
   20MON    H25  910   3.464   2.772   3.502
   20MON    H26  911   3.451   2.967   3.354
   20MON    H27  912   3.916   2.834   3.412
   20MON    H28  913   4.024   2.718   3.594
   20MON    H29  914   3.833   2.842   3.706
   20MON    H30  915   4.003   3.006   3.708
   21MON      O  916   3.089   4.216   3.601
   21MON      C  917   3.181   4.180   3.672
   21MON     C1  918   3.180   4.178   3.825
   21MON      H  919   3.179   4.281   3.860
   21MON     C2  920   3.313   4.111   3.865
   21MON     C3  921   3.276   3.984   3.946
   21MON     C4  922   3.287   3.858   3.863
   21MON     C6  923   3.132   4.011   3.996
   21MON     C7  924   3.064   4.096   3.886
   21MON     C8  925   2.953   4.191   3.928
   21MON     H1  926   3.371   4.180   3.928
   21MON      N  927   3.307   4.141   3.629
   21MON    C10  928   3.369   4.215   3.517
   21MON    C11  929   3.329   4.170   3.374
   21MON    C12  930   3.338   4.018   3.344
   21MON    C13  931   3.462   3.946   3.401
   21MON     O1  932   3.581   4.022   3.371
   21MON    C14  933   3.701   3.971   3.433
   21MON    C15  934   3.787   4.091   3.482
   21MON     O2  935   3.722   4.159   3.590
   21MON    C16  936   3.929   4.044   3.527
   21MON    C17  937   4.026   4.161   3.555
   21MON     O3  938   3.985   4.231   3.673
   21MON     O4  939   3.989   3.963   3.423
   21MON    C18  940   3.915   3.846   3.386
   21MON     O5  941   3.985   3.777   3.284
   21MON    C19  942   3.780   3.893   3.327
   21MON     O6  943   3.705   3.780   3.281
   21MON    C20  944   3.388   4.092   3.733
   21MON     O7  945   3.503   4.052   3.720
   21MON     H2  946   3.343   3.976   4.033
   21MON     H3  947   3.204   3.838   3.795
   21MON     H6  948   3.137   4.070   4.089
   21MON     H7  949   3.077   3.919   4.018
   21MON     H8  950   3.027   4.027   3.809
   21MON     H9  951   2.935   4.270   3.855
   21MON    H12  952   3.478   4.208   3.525
   21MON    H13  953   3.344   4.321   3.527
   21MON    H14  954   3.226   4.202   3.354
   21MON    H15  955   3.393   4.223   3.303
   21MON    H16  956   3.249   3.969   3.385
   21MON    H17  957   3.335   4.003   3.236
   21MON    H18  958   3.467   3.845   3.360
   21MON    H19  959   3.449   3.937   3.509
   21MON    H20  960   3.679   3.906   3.519
   21MON    H21  961   3.800   4.160   3.398
   21MON    H22  962   3.649   4.103   3.625
   21MON    H23  963   3.920   3.984   3.619
   21MON    H24  964   4.127   4.121   3.569
   21MON    H25  965   4.028   4.228   3.468
   21MON    H26  966   3.888   4.241   3.667
   21MON    H27  967   3.900   3.781   3.473
   21MON    H28  968   3.912   3.746   3.228
   21MON    H29  969   3.803   3.961   3.244
   21MON    H30  970   3.618   3.818   3.256
   22MON      O  971   2.385   4.086   4.135
   22MON      C  972   2.474   4.143   4.075
   22MON     C1  973   2.545   4.271   4.119
   22MON      H  974   2.471   4.352   4.124
   22MON     C2  975   2.648   4.301   4.008
   22MON     C3  976   2.788   4.308   4.075
   22MON     C4  977   2.883   4.193   4.042
   22MON     C6  978   2.760   4.321   4.226
   22MON     C7  979   2.623   4.256   4.252
   22MON     C8  980   2.550   4.318   4.370
   22MON     H1  981   2.625   4.398   3.961
   22MON      N  982   2.528   4.106   3.953
   22MON    C10  983   2.463   4.003   3.868
   22MON    C11  984   2.490   3.856   3.908
   22MON    C12  985   2.633   3.821   3.956
   22MON    C13  986   2.750   3.868   3.867
   22MON     O1  987   2.716   3.847   3.728
   22MON    C14  988   2.808   3.906   3.634
   22MON    C15  989   2.729   3.957   3.510
   22MON     O2  990   2.642   4.065   3.548
   22MON    C16  991   2.827   4.004   3.398
   22MON    C17  992   2.756   4.036   3.265
   22MON     O3  993   2.672   4.150   3.279
   22MON     O4  994   2.923   3.899   3.371
   22MON    C18  995   3.003   3.860   3.483
   22MON     O5  996   3.092   3.757   3.446
   22MON    C19  997   2.909   3.799   3.588
   22MON     O6  998   2.984   3.745   3.697
   22MON    C20  999   2.627   4.192   3.904
   22MON     O7 1000   2.679   4.185   3.794
   22MON     H2 1001   2.838   4.401   4.042
   22MON     H3 1002   2.898   4.117   4.120
   22MON     H6 1003   2.756   4.427   4.252
   22MON     H7 1004   2.839   4.276   4.288
   22MON     H8 1005   2.639   4.149   4.271
   22MON     H9 1006   2.525   4.247   4.449
   22MON    H12 1007   2.497   4.017   3.765
   22MON    H13 1008   2.355   4.021   3.868
   22MON    H14 1009   2.421   3.830   3.989
   22MON    H15 1010   2.463   3.792   3.824
   22MON    H16 1011   2.648   3.862   4.057
   22MON    H17 1012   2.639   3.712   3.967
   22MON    H18 1013   2.841   3.813   3.895
   22MON    H19 1014   2.769   3.974   3.886
   22MON    H20 1015   2.861   3.992   3.678
   22MON    H21 1016   2.670   3.874   3.471
   22MON    H22 1017   2.671   4.101   3.635
   22MON    H23 1018   2.880   4.095   3.431
   22MON    H24 1019   2.832   4.054   3.187
   22MON    H25 1020   2.697   3.948   3.234
   22MON    H26 1021   2.629   4.143   3.367
   22MON    H27 1022   3.057   3.946   3.524
   22MON    H28 1023   3.094   3.705   3.528
   22MON    H29 1024   2.852   3.719   3.538
   22MON    H30 1025   2.917   3.714   3.761
   23MON      O 1026   2.558   4.966   4.532
   23MON      C 1027   2.569   4.845   4.537
   23MON     C1 1028   2.456   4.746   4.562
   23MON      H 1029   2.401   4.774   4.652
   23MON     C2 1030   2.525   4.609   4.583
   23MON     C3 1031   2.443   4.505   4.502
   23MON     C4 1032   2.517   4.447   4.382
   23MON     C6 1033   2.316   4.581   4.458
   23MON     C7 1034   2.359   4.728   4.444
   23MON     C8 1035   2.254   4.839   4.441
   23MON     H1 1036   2.524   4.584   4.690
   23MON      N 1037   2.686   4.772   4.526
   23MON    C10 1038   2.818   4.837   4.543
   23MON    C11 1039   2.868   4.921   4.424
   23MON    C12 1040   2.842   4.864   4.282
   23MON    C13 1041   2.879   4.716   4.261
   23MON     O1 1042   3.008   4.690   4.320
   23MON    C14 1043   3.046   4.551   4.324
   23MON    C15 1044   3.122   4.522   4.456
   23MON     O2 1045   3.035   4.537   4.568
   23MON    C16 1046   3.183   4.379   4.454
   23MON    C17 1047   3.278   4.352   4.574
   23MON     O3 1048   3.202   4.340   4.694
   23MON     O4 1049   3.260   4.359   4.334
   23MON    C18 1050   3.186   4.375   4.212
   23MON     O5 1051   3.272   4.355   4.101
   23MON    C19 1052   3.138   4.521   4.204
   23MON     O6 1053   3.072   4.543   4.079
   23MON    C20 1054   2.671   4.634   4.542
   23MON     O7 1055   2.759   4.550   4.532
   23MON     H2 1056   2.414   4.423   4.568
   23MON     H3 1057   2.541   4.519   4.303
   23MON     H6 1058   2.242   4.571   4.538
   23MON     H7 1059   2.273   4.540   4.365
   23MON     H8 1060   2.417   4.736   4.351
   23MON     H9 1061   2.300   4.938   4.432
   23MON    H12 1062   2.893   4.760   4.564
   23MON    H13 1063   2.813   4.901   4.632
   23MON    H14 1064   2.820   5.020   4.429
   23MON    H15 1065   2.976   4.939   4.436
   23MON    H16 1066   2.736   4.877   4.257
   23MON    H17 1067   2.898   4.925   4.210
   23MON    H18 1068   2.879   4.694   4.154
   23MON    H19 1069   2.803   4.653   4.307
   23MON    H20 1070   2.958   4.485   4.320
   23MON    H21 1071   3.205   4.594   4.464
   23MON    H22 1072   2.941   4.537   4.539
   23MON    H23 1073   3.102   4.305   4.458
   23MON    H24 1074   3.333   4.259   4.555
   23MON    H25 1075   3.351   4.434   4.581
   23MON    H26 1076   3.139   4.415   4.696
   23MON    H27 1077   3.102   4.305   4.207
   23MON    H28 1078   3.233   4.419   4.038
   23MON    H29 1079   3.227   4.585   4.213
   23MON    H30 1080   3.048   4.638   4.078
   24MNL      O 1081   1.766   4.948   4.769
   24MNL      C 1082   1.851   4.870   4.729
   24MNL     C1 1083   1.834   4.766   4.619
   24MNL      H 1084   1.759   4.692   4.649
   24MNL     C2 1085   1.973   4.697   4.606
   24MNL     C3 1086   2.022   4.721   4.460
   24MNL     C4 1087   2.119   4.838   4.449
   24MNL     C6 1088   1.892   4.751   4.383
   24MNL     C7 1089   1.801   4.828   4.481
   24MNL     C8 1090   1.652   4.824   4.451
   24MNL     H1 1091   1.963   4.590   4.626
   24MNL      N 1092   1.982   4.861   4.776
   24MNL    C10 1093   2.028   4.936   4.895
   24MNL    C11 1094   2.059   5.086   4.868
   24MNL    C12 1095   2.149   5.116   4.746
   24MNL    C13 1096   2.288   5.049   4.745
   24MNL     O1 1097   2.352   5.073   4.872
   24MNL    C14 1098   2.487   5.023   4.881
   24MNL    C15 1099   2.490   4.895   4.968
   24MNL     O2 1100   2.424   4.787   4.900
   24MNL    C16 1101   2.637   4.854   5.000
   24MNL    C17 1102   2.648   4.736   5.098
   24MNL     O3 1103   2.602   4.616   5.036
   24MNL     O4 1104   2.704   4.967   5.061
   24MNL    C18 1105   2.713   5.083   4.978
   24MNL     O5 1106   2.781   5.185   5.049
   24MNL    C19 1107   2.571   5.134   4.948
   24MNL     O6 1108   2.577   5.247   4.861
   24MNL    C20 1109   2.058   4.760   4.717
   24MNL     O7 1110   2.170   4.726   4.752
   24MNL     H2 1111   2.065   4.630   4.419
   24MNL     H3 1112   2.069   4.935   4.445
   24MNL     H6 1113   1.845   4.656   4.356
   24MNL     H7 1114   1.910   4.808   4.290
   24MNL     H8 1115   1.833   4.933   4.483
   24MNL     H9 1116   1.590   4.869   4.529
   24MNL    H12 1117   2.118   4.888   4.935
   24MNL    H13 1118   1.950   4.930   4.972
   24MNL    H14 1119   1.964   5.138   4.853
   24MNL    H15 1120   2.104   5.129   4.958
   24MNL    H16 1121   2.097   5.088   4.654
   24MNL    H17 1122   2.163   5.225   4.740
   24MNL    H18 1123   2.348   5.092   4.663
   24MNL    H19 1124   2.277   4.942   4.727
   24MNL    H20 1125   2.530   5.002   4.782
   24MNL    H21 1126   2.439   4.916   5.064
   24MNL    H22 1127   2.333   4.815   4.878
   24MNL    H23 1128   2.688   4.827   4.907
   24MNL    H24 1129   2.753   4.724   5.129
   24MNL    H25 1130   2.590   4.757   5.189
   24MNL    H26 1131   2.520   4.640   4.988
   24MNL    H27 1132   2.766   5.060   4.885
   24MNL    H28 1133   2.753   5.266   5.001
   24MNL    H29 1134   2.524   5.161   5.044
   24MNL    H30 1135   2.486   5.263   4.830
   25CPT     CC 1136   1.593   4.773   4.342
   25CPT    HC1 1137   1.650   4.728   4.260
   25CPT    HC2 1138   1.485   4.776   4.330
   26WAT      O 1139   7.987   6.568   6.186
   26WAT     H1 1140   7.910   6.520   6.215
   26WAT     H2 1141   8.052   6.501   6.169
   27WAT      O 1142   7.389   6.600   6.274
   27WAT     H1 1143   7.306   6.574   6.314
   27WAT     H2 1144   7.450   6.607   6.348
   28WAT      O 1145   7.387   7.003   6.294
   28WAT     H1 1146   7.417   6.914   6.276
   28WAT     H2 1147   7.461   7.059   6.271
   29WAT      O 1148   7.230   6.096   5.652
   29WAT     H1 1149   7.141   6.130   5.642
   29WAT     H2 1150   7.258   6.076   5.563
   30WAT      O 1151   7.026   6.356   6.241
   30WAT     H1 1152   7.083   6.279   6.241
   30WAT     H2 1153   7.026   6.386   6.150
   31WAT      O 1154   7.931   6.836   6.187
   31WAT     H1 1155   7.924   6.742   6.171
   31WAT     H2 1156   8.007   6.845   6.244
   32WAT      O 1157   7.150   5.897   6.420
   32WAT     H1 1158   7.132   5.807   6.448
   32WAT     H2 1159   7.110   5.951   6.487
   33WAT      O 1160   8.034   6.117   6.210
   33WAT     H1 1161   8.072   6.029   6.198
   33WAT     H2 1162   8.025   6.150   6.121
   34WAT      O 1163   7.447   5.954   5.756
   34WAT     H1 1164   7.458   6.044   5.787
   34WAT     H2 1165   7.356   5.949   5.727
   35WAT      O 1166   7.212   6.146   6.280
   35WAT     H1 1167   7.280   6.173   6.342
   35WAT     H2 1168   7.181   6.062   6.314
   36WAT      O 1169   7.631   6.251   6.189
   36WAT     H1 1170   7.682   6.301   6.253
   36WAT     H2 1171   7.685   6.173   6.171
   37WAT      O 1172   8.099   6.726   5.766
   37WAT     H1 1173   8.037   6.773   5.709
   37WAT     H2 1174   8.150   6.795   5.807
   38WAT      O 1175   7.585   6.679   6.433
   38WAT     H1 1176   7.552   6.741   6.498
   38WAT     H2 1177   7.603   6.731   6.355
   39WAT      O 1178   7.428   5.886   6.416
   39WAT     H1 1179   7.462   5.970   6.387
   39WAT     H2 1180   7.334   5.901   6.428
   40WAT      O 1181   7.035   6.795   5.503
   40WAT     H1 1182   6.998   6.843   5.430
   40WAT     H2 1183   7.061   6.862   5.566
   41WAT      O 1184   7.796   5.635   6.049
   41WAT     H1 1185   7.827   5.579   5.977
   41WAT     H2 1186   7.703   5.648   6.031
   42WAT      O 1187   8.035   6.441   5.722
   42WAT     H1 1188   7.942   6.435   5.745
   42WAT     H2 1189   8.050   6.535   5.711
   43WAT      O 1190   8.034   6.068   5.422
   43WAT     H1 1191   7.940   6.085   5.431
   43WAT     H2 1192   8.066   6.140   5.367
   44WAT      O 1193   7.596   6.494   6.001
   44WAT     H1 1194   7.555   6.423   5.951
   44WAT     H2 1195   7.604   6.459   6.090
   45WAT      O 1196   7.642   6.863   6.217
   45WAT     H1 1197   7.613   6.802   6.149
   45WAT     H2 1198   7.737   6.866   6.206
   46WAT      O 1199   7.467   6.171   6.379
   46WAT     H1 1200   7.522   6.182   6.301
   46WAT     H2 1201   7.518   6.209   6.450
   47WAT      O 1202   8.067   7.015   5.870
   47WAT     H1 1203   8.111   7.090   5.829
   47WAT     H2 1204   8.061   7.040   5.963
   48WAT      O 1205   7.266   6.383   5.751
   48WAT     H1 1206   7.254   6.456   5.690
   48WAT     H2 1207   7.235   6.306   5.703
   49WAT      O 1208   7.030   6.701   6.331
   49WAT     H1 1209   7.037   6.714   6.237
   49WAT     H2 1210   7.091   6.630   6.351
   50WAT      O 1211   7.154   6.871   5.972
   50WAT     H1 1212   7.113   6.885   5.887
   50WAT     H2 1213   7.243   6.842   5.952
   51WAT      O 1214   7.512   5.718   6.089
   51WAT     H1 1215   7.468   5.796   6.056
   51WAT     H2 1216   7.568   5.750   6.160
   52WAT      O 1217   7.824   5.680   5.577
   52WAT     H1 1218   7.761   5.679   5.650
   52WAT     H2 1219   7.815   5.593   5.537
   53WAT      O 1220   7.716   5.772   6.275
   53WAT     H1 1221   7.746   5.863   6.267
   53WAT     H2 1222   7.771   5.723   6.213
   54WAT      O 1223   7.491   6.230   5.862
   54WAT     H1 1224   7.469   6.208   5.952
   54WAT     H2 1225   7.413   6.273   5.827
   55WAT      O 1226   8.075   6.094   5.925
   55WAT     H1 1227   8.114   6.126   5.843
   55WAT     H2 1228   8.111   6.006   5.936
   56WAT      O 1229   6.979   5.753   6.147
   56WAT     H1 1230   6.950   5.810   6.218
   56WAT     H2 1231   7.053   5.705   6.183
   57WAT      O 1232   6.997   6.148   5.268
   57WAT     H1 1233   6.989   6.242   5.282
   57WAT     H2 1234   6.962   6.133   5.180
   58WAT      O 1235   8.134   6.353   6.334
   58WAT     H1 1236   8.060   6.404   6.369
   58WAT     H2 1237   8.094   6.272   6.304
   59WAT      O 1238   7.777   6.021   6.175
   59WAT     H1 1239   7.778   5.977   6.090
   59WAT     H2 1240   7.867   6.053   6.185
   60WAT      O 1241   7.362   6.009   6.071
   60WAT     H1 1242   7.328   6.057   6.146
   60WAT     H2 1243   7.286   5.964   6.035
   61WAT      O 1244   7.784   6.121   5.474
   61WAT     H1 1245   7.796   6.117   5.569
   61WAT     H2 1246   7.745   6.207   5.458
   62WAT      O 1247   7.685   6.352   5.414
   62WAT     H1 1248   7.628   6.307   5.351
   62WAT     H2 1249   7.756   6.388   5.360
   63WAT      O 1250   7.807   6.427   6.349
   63WAT     H1 1251   7.844   6.380   6.424
   63WAT     H2 1252   7.789   6.514   6.383
   64WAT      O 1253   7.094   5.901   5.962
   64WAT     H1 1254   7.065   5.865   6.046
   64WAT     H2 1255   7.088   5.828   5.901
   65WAT      O 1256   7.439   6.752   5.641
   65WAT     H1 1257   7.362   6.698   5.625
   65WAT     H2 1258   7.512   6.700   5.607
   66WAT      O 1259   8.061   5.791   5.634
   66WAT     H1 1260   7.980   5.741   5.627
   66WAT     H2 1261   8.042   5.875   5.593
   67WAT      O 1262   7.444   6.718   6.005
   67WAT     H1 1263   7.495   6.638   5.999
   67WAT     H2 1264   7.399   6.712   6.089
   68WAT      O 1265   7.932   6.845   5.532
   68WAT     H1 1266   7.967   6.920   5.482
   68WAT     H2 1267   7.849   6.876   5.568
   69WAT      O 1268   7.829   6.853   5.809
   69WAT     H1 1269   7.898   6.908   5.847
   69WAT     H2 1270   7.751   6.908   5.813
   70WAT      O 1271   7.043   6.415   5.358
   70WAT     H1 1272   7.130   6.443   5.387
   70WAT     H2 1273   6.994   6.496   5.347
   71WAT      O 1274   7.760   6.554   5.770
   71WAT     H1 1275   7.805   6.635   5.793
   71WAT     H2 1276   7.724   6.522   5.854
   72WAT      O 1277   7.350   5.588   5.818
   72WAT     H1 1278   7.337   5.587   5.912
   72WAT     H2 1279   7.267   5.622   5.783
   73WAT      O 1280   7.682   7.075   5.497
   73WAT     H1 1281   7.681   7.148   5.435
   73WAT     H2 1282   7.590   7.050   5.506
   74WAT      O 1283   7.242   6.597   5.571
   74WAT     H1 1284   7.181   6.671   5.572
   74WAT     H2 1285   7.289   6.606   5.489
   75WAT      O 1286   7.980   7.081   5.363
   75WAT     H1 1287   7.990   7.060   5.270
   75WAT     H2 1288   7.890   7.055   5.383
   76WAT      O 1289   7.732   6.137   5.761
   76WAT     H1 1290   7.662   6.183   5.805
   76WAT     H2 1291   7.761   6.071   5.825
   77WAT      O 1292   7.553   5.967   5.499
   77WAT     H1 1293   7.638   6.011   5.492
   77WAT     H2 1294   7.516   5.999   5.581
   78WAT      O 1295   7.443   6.593   5.346
   78WAT     H1 1296   7.519   6.582   5.402
   78WAT     H2 1297   7.450   6.523   5.281
   79WAT      O 1298   7.312   6.336   5.414
   79WAT     H1 1299   7.320   6.241   5.426
   79WAT     H2 1300   7.401   6.369   5.425
   80WAT      O 1301   7.081   6.958   5.712
   80WAT     H1 1302   6.988   6.982   5.711
   80WAT     H2 1303   7.127   7.040   5.700
   81WAT      O 1304   7.755   6.790   5.293
   81WAT     H1 1305   7.745   6.729   5.366
   81WAT     H2 1306   7.738   6.738   5.215
   82WAT      O 1307   8.079   6.697   5.354
   82WAT     H1 1308   8.024   6.741   5.418
   82WAT     H2 1309   8.141   6.646   5.406
   83WAT      O 1310   7.646   6.592   5.543
   83WAT     H1 1311   7.688   6.576   5.628
   83WAT     H2 1312   7.658   6.511   5.494
   84WAT      O 1313   7.897   6.495   5.268
   84WAT     H1 1314   7.949   6.423   5.232
   84WAT     H2 1315   7.962   6.559   5.298
   85WAT      O 1316   7.535   6.200   5.238
   85WAT     H1 1317   7.515   6.113   5.274
   85WAT     H2 1318   7.518   6.191   5.144
   86WAT      O 1319   7.415   5.910   5.237
   86WAT     H1 1320   7.446   5.910   5.146
   86WAT     H2 1321   7.489   5.875   5.286
   87WAT      O 1322   7.737   5.804   5.335
   87WAT     H1 1323   7.702   5.736   5.277
   87WAT     H2 1324   7.757   5.758   5.417
   88WAT      O 1325   7.318   6.840   5.320
   88WAT     H1 1326   7.361   6.895   5.386
   88WAT     H2 1327   7.366   6.758   5.321
   89WAT      O 1328   7.039   7.119   6.065
   89WAT     H1 1329   7.072   7.032   6.042
   89WAT     H2 1330   7.082   7.140   6.148
   90WAT      O 1331   7.499   6.952   5.831
   90WAT     H1 1332   7.469   6.940   5.921
   90WAT     H2 1333   7.488   6.866   5.790
   91WAT      O 1334   7.071   6.457   5.975
   91WAT     H1 1335   7.006   6.430   5.911
   91WAT     H2 1336   7.155   6.446   5.930
   92WAT      O 1337   7.175   6.496   6.429
   92WAT     H1 1338   7.212   6.487   6.517
   92WAT     H2 1339   7.118   6.419   6.419
   93WAT      O 1340   6.993   6.178   5.569
   93WAT     H1 1341   6.902   6.204   5.552
   93WAT     H2 1342   7.041   6.205   5.491
   94WAT      O 1343   7.247   6.084   5.360
   94WAT     H1 1344   7.318   6.041   5.312
   94WAT     H2 1345   7.175   6.090   5.297
   95WAT      O 1346   7.212   5.689   5.264
   95WAT     H1 1347   7.284   5.743   5.296
   95WAT     H2 1348   7.239   5.662   5.177
   96WAT      O 1349   7.181   5.614   6.254
   96WAT     H1 1350   7.245   5.559   6.210
   96WAT     H2 1351   7.223   5.640   6.337
   97WAT      O 1352   7.687   7.102   6.505
   97WAT     H1 1353   7.662   7.129   6.417
   97WAT     H2 1354   7.781   7.120   6.511
   98WAT      O 1355   8.020   5.663   6.371
   98WAT     H1 1356   7.941   5.710   6.399
   98WAT     H2 1357   7.990   5.572   6.361
   99WAT      O 1358   7.154   5.693   5.624
   99WAT     H1 1359   7.230   5.704   5.566
   99WAT     H2 1360   7.108   5.777   5.619
  100WAT      O 1361   7.808   5.904   5.923
  100WAT     H1 1362   7.727   5.867   5.889
  100WAT     H2 1363   7.859   5.829   5.953
  101WAT      O 1364   7.391   5.746   5.478
  101WAT     H1 1365   7.444   5.667   5.465
  101WAT     H2 1366   7.455   5.814   5.501
  102WAT      O 1367   7.611   5.719   5.783
  102WAT     H1 1368   7.548   5.649   5.800
  102WAT     H2 1369   7.557   5.795   5.761
  103WAT      O 1370   7.429   6.986   5.506
  103WAT     H1 1371   7.366   7.032   5.561
  103WAT     H2 1372   7.440   6.901   5.549
  104WAT      O 1373   7.987   6.568   4.309
  104WAT     H1 1374   7.910   6.520   4.338
  104WAT     H2 1375   8.052   6.501   4.291
  105WAT      O 1376   7.389   6.600   4.397
  105WAT     H1 1377   7.306   6.574   4.437
  105WAT     H2 1378   7.450   6.607   4.470
  106WAT      O 1379   7.387   7.003   4.416
  106WAT     H1 1380   7.417   6.914   4.398
  106WAT     H2 1381   7.461   7.059   4.393
  107WAT      O 1382   7.230   6.096   3.775
  107WAT     H1 1383   7.141   6.130   3.765
  107WAT     H2 1384   7.258   6.076   3.686
  108WAT      O 1385   7.026   6.356   4.363
  108WAT     H1 1386   7.083   6.279   4.363
  108WAT     H2 1387   7.026   6.386   4.272
  109WAT      O 1388   7.931   6.836   4.310
  109WAT     H1 1389   7.924   6.742   4.293
  109WAT     H2 1390   8.007   6.845   4.367
  110WAT      O 1391   7.150   5.897   4.542
  110WAT     H1 1392   7.132   5.807   4.570
  110WAT     H2 1393   7.110   5.951   4.610
  111WAT      O 1394   8.034   6.117   4.332
  111WAT     H1 1395   8.072   6.029   4.321
  111WAT     H2 1396   8.025   6.150   4.243
  112WAT      O 1397   7.447   5.954   3.878
  112WAT     H1 1398   7.458   6.044   3.909
  112WAT     H2 1399   7.356   5.949   3.849
  113WAT      O 1400   7.212   6.146   4.403
  113WAT     H1 1401   7.280   6.173   4.465
  113WAT     H2 1402   7.181   6.062   4.436
  114WAT      O 1403   7.631   6.251   4.312
  114WAT     H1 1404   7.682   6.301   4.376
  114WAT     H2 1405   7.685   6.173   4.294
  115WAT      O 1406   7.460   5.715   4.738
  115WAT     H1 1407   7.460   5.767   4.658
  115WAT     H2 1408   7.377   5.667   4.736
  116WAT      O 1409   8.099   6.726   3.888
  116WAT     H1 1410   8.037   6.773   3.832
  116WAT     H2 1411   8.150   6.795   3.930
  117WAT      O 1412   7.585   6.679   4.556
  117WAT     H1 1413   7.552   6.741   4.620
  117WAT     H2 1414   7.603   6.731   4.478
  118WAT      O 1415   7.428   5.886   4.539
  118WAT     H1 1416   7.462   5.970   4.510
  118WAT     H2 1417   7.334   5.901   4.551
  119WAT      O 1418   7.506   6.876   4.738
  119WAT     H1 1419   7.568   6.943   4.709
  119WAT     H2 1420   7.420   6.916   4.728
  120WAT      O 1421   7.035   6.795   3.626
  120WAT     H1 1422   6.998   6.843   3.552
  120WAT     H2 1423   7.061   6.862   3.689
  121WAT      O 1424   7.796   5.635   4.171
  121WAT     H1 1425   7.827   5.579   4.100
  121WAT     H2 1426   7.703   5.648   4.153
  122WAT      O 1427   8.035   6.441   3.845
  122WAT     H1 1428   7.942   6.435   3.868
  122WAT     H2 1429   8.050   6.535   3.834
  123WAT      O 1430   8.034   6.068   3.545
  123WAT     H1 1431   7.940   6.085   3.553
  123WAT     H2 1432   8.066   6.140   3.490
  124WAT      O 1433   7.596   6.494   4.123
  124WAT     H1 1434   7.555   6.423   4.074
  124WAT     H2 1435   7.604   6.459   4.212
  125WAT      O 1436   7.642   6.863   4.340
  125WAT     H1 1437   7.613   6.802   4.272
  125WAT     H2 1438   7.737   6.866   4.329
  126WAT      O 1439   7.467   6.171   4.501
  126WAT     H1 1440   7.522   6.182   4.424
  126WAT     H2 1441   7.518   6.209   4.573
  127WAT      O 1442   7.552   6.836   5.005
  127WAT     H1 1443   7.462   6.859   5.029
  127WAT     H2 1444   7.554   6.849   4.910
  128WAT      O 1445   7.434   6.524   4.862
  128WAT     H1 1446   7.420   6.611   4.899
  128WAT     H2 1447   7.346   6.489   4.848
  129WAT      O 1448   8.067   7.015   3.993
  129WAT     H1 1449   8.111   7.090   3.951
  129WAT     H2 1450   8.061   7.040   4.085
  130WAT      O 1451   7.614   7.118   5.083
  130WAT     H1 1452   7.611   7.158   4.996
  130WAT     H2 1453   7.598   7.025   5.067
  131WAT      O 1454   7.266   6.383   3.873
  131WAT     H1 1455   7.254   6.456   3.812
  131WAT     H2 1456   7.235   6.306   3.826
  132WAT      O 1457   7.030   6.701   4.454
  132WAT     H1 1458   7.037   6.714   4.360
  132WAT     H2 1459   7.091   6.630   4.473
  133WAT      O 1460   7.154   6.871   4.095
  133WAT     H1 1461   7.113   6.885   4.010
  133WAT     H2 1462   7.243   6.842   4.075
  134WAT      O 1463   7.035   6.805   4.708
  134WAT     H1 1464   7.051   6.758   4.626
  134WAT     H2 1465   7.082   6.754   4.774
  135WAT      O 1466   7.512   5.718   4.212
  135WAT     H1 1467   7.468   5.796   4.178
  135WAT     H2 1468   7.568   5.750   4.282
  136WAT      O 1469   7.941   6.004   4.772
  136WAT     H1 1470   7.895   6.025   4.853
  136WAT     H2 1471   7.901   5.923   4.742
  137WAT      O 1472   7.824   5.680   3.700
  137WAT     H1 1473   7.761   5.679   3.772
  137WAT     H2 1474   7.815   5.593   3.660
  138WAT      O 1475   7.716   5.772   4.397
  138WAT     H1 1476   7.746   5.863   4.389
  138WAT     H2 1477   7.771   5.723   4.336
  139WAT      O 1478   7.491   6.230   3.984
  139WAT     H1 1479   7.469   6.208   4.075
  139WAT     H2 1480   7.413   6.273   3.950
  140WAT      O 1481   7.735   6.320   5.051
  140WAT     H1 1482   7.726   6.226   5.036
  140WAT     H2 1483   7.820   6.342   5.011
  141WAT      O 1484   8.075   6.094   4.047
  141WAT     H1 1485   8.114   6.126   3.966
  141WAT     H2 1486   8.111   6.006   4.059
  142WAT      O 1487   7.249   5.961   4.866
  142WAT     H1 1488   7.209   6.046   4.887
  142WAT     H2 1489   7.180   5.897   4.885
  143WAT      O 1490   7.906   5.969   5.173
  143WAT     H1 1491   7.837   5.950   5.237
  143WAT     H2 1492   7.980   5.998   5.226
  144WAT      O 1493   6.979   5.753   4.270
  144WAT     H1 1494   6.950   5.810   4.341
  144WAT     H2 1495   7.053   5.705   4.306
  145WAT      O 1496   6.997   6.148   3.391
  145WAT     H1 1497   6.989   6.242   3.405
  145WAT     H2 1498   6.962   6.133   3.303
  146WAT      O 1499   8.134   6.353   4.457
  146WAT     H1 1500   8.060   6.404   4.492
  146WAT     H2 1501   8.094   6.272   4.427
  147WAT      O 1502   7.777   6.021   4.297
  147WAT     H1 1503   7.778   5.977   4.212
  147WAT     H2 1504   7.867   6.053   4.308
  148WAT      O 1505   7.362   6.009   4.193
  148WAT     H1 1506   7.328   6.057   4.269
  148WAT     H2 1507   7.286   5.964   4.157
  149WAT      O 1508   7.784   6.121   3.596
  149WAT     H1 1509   7.796   6.117   3.691
  149WAT     H2 1510   7.745   6.207   3.581
  150WAT      O 1511   7.685   6.352   3.536
  150WAT     H1 1512   7.628   6.307   3.474
  150WAT     H2 1513   7.756   6.388   3.483
  151WAT      O 1514   7.193   6.742   4.924
  151WAT     H1 1515   7.154   6.678   4.984
  151WAT     H2 1516   7.224   6.813   4.981
  152WAT      O 1517   7.807   6.427   4.472
  152WAT     H1 1518   7.844   6.380   4.547
  152WAT     H2 1519   7.789   6.514   4.506
  153WAT      O 1520   7.094   5.901   4.085
  153WAT     H1 1521   7.065   5.865   4.169
  153WAT     H2 1522   7.088   5.828   4.024
  154WAT      O 1523   7.586   6.331   4.704
  154WAT     H1 1524   7.556   6.419   4.726
  154WAT     H2 1525   7.682   6.337   4.707
  155WAT      O 1526   7.439   6.752   3.763
  155WAT     H1 1527   7.362   6.698   3.747
  155WAT     H2 1528   7.512   6.700   3.730
  156WAT      O 1529   8.061   5.791   3.757
  156WAT     H1 1530   7.980   5.741   3.749
  156WAT     H2 1531   8.042   5.875   3.715
  157WAT      O 1532   8.053   6.658   4.931
  157WAT     H1 1533   8.047   6.566   4.906
  157WAT     H2 1534   7.990   6.668   5.003
  158WAT      O 1535   7.444   6.718   4.127
  158WAT     H1 1536   7.495   6.638   4.122
  158WAT     H2 1537   7.399   6.712   4.211
  159WAT      O 1538   7.932   6.845   3.655
  159WAT     H1 1539   7.967   6.920   3.605
  159WAT     H2 1540   7.849   6.876   3.691
  160WAT      O 1541   7.192   6.415   4.819
  160WAT     H1 1542   7.156   6.482   4.877
  160WAT     H2 1543   7.163   6.332   4.856
  161WAT      O 1544   7.512   6.461   5.107
  161WAT     H1 1545   7.482   6.475   5.017
  161WAT     H2 1546   7.589   6.405   5.098
  162WAT      O 1547   8.047   6.941   4.906
  162WAT     H1 1548   8.048   6.847   4.885
  162WAT     H2 1549   7.976   6.949   4.970
  163WAT      O 1550   7.829   6.853   3.932
  163WAT     H1 1551   7.898   6.908   3.970
  163WAT     H2 1552   7.751   6.908   3.935
  164WAT      O 1553   7.043   6.415   3.481
  164WAT     H1 1554   7.130   6.443   3.509
  164WAT     H2 1555   6.994   6.496   3.469
  165WAT      O 1556   7.760   6.554   3.893
  165WAT     H1 1557   7.805   6.635   3.916
  165WAT     H2 1558   7.724   6.522   3.976
  166WAT      O 1559   7.990   7.105   4.616
  166WAT     H1 1560   8.054   7.125   4.684
  166WAT     H2 1561   8.026   7.029   4.571
  167WAT      O 1562   7.350   5.588   3.940
  167WAT     H1 1563   7.337   5.587   4.035
  167WAT     H2 1564   7.267   5.622   3.905
  168WAT      O 1565   7.050   5.764   4.886
  168WAT     H1 1566   6.978   5.784   4.947
  168WAT     H2 1567   7.092   5.686   4.923
  169WAT      O 1568   7.078   7.163   4.985
  169WAT     H1 1569   7.089   7.069   4.971
  169WAT     H2 1570   7.013   7.189   4.920
  170WAT      O 1571   7.877   6.990   5.125
  170WAT     H1 1572   7.845   6.918   5.179
  170WAT     H2 1573   7.810   7.057   5.132
  171WAT      O 1574   7.682   7.075   3.619
  171WAT     H1 1575   7.681   7.148   3.558
  171WAT     H2 1576   7.590   7.050   3.628
  172WAT      O 1577   7.242   6.597   3.694
  172WAT     H1 1578   7.181   6.671   3.695
  172WAT     H2 1579   7.289   6.606   3.611
  173WAT      O 1580   7.980   7.081   3.485
  173WAT     H1 1581   7.990   7.060   3.392
  173WAT     H2 1582   7.890   7.055   3.506
  174WAT      O 1583   7.732   6.137   3.884
  174WAT     H1 1584   7.662   6.183   3.928
  174WAT     H2 1585   7.761   6.071   3.947
  175WAT      O 1586   7.895   6.279   4.684
  175WAT     H1 1587   7.945   6.326   4.750
  175WAT     H2 1588   7.909   6.186   4.704
  176WAT      O 1589   7.553   5.967   3.621
  176WAT     H1 1590   7.638   6.011   3.615
  176WAT     H2 1591   7.516   5.999   3.704
  177WAT      O 1592   7.443   6.593   3.469
  177WAT     H1 1593   7.519   6.582   3.525
  177WAT     H2 1594   7.450   6.523   3.403
  178WAT      O 1595   7.312   6.336   3.537
  178WAT     H1 1596   7.320   6.241   3.548
  178WAT     H2 1597   7.401   6.369   3.548
  179WAT      O 1598   7.081   6.958   3.835
  179WAT     H1 1599   6.988   6.982   3.834
  179WAT     H2 1600   7.127   7.040   3.823
  180WAT      O 1601   7.065   6.518   5.060
  180WAT     H1 1602   7.115   6.460   5.118
  180WAT     H2 1603   6.991   6.547   5.114
  181WAT      O 1604   7.755   6.790   3.416
  181WAT     H1 1605   7.745   6.729   3.489
  181WAT     H2 1606   7.738   6.738   3.338
  182WAT      O 1607   7.770   6.659   5.014
  182WAT     H1 1608   7.694   6.716   5.005
  182WAT     H2 1609   7.788   6.630   4.925
  183WAT      O 1610   8.079   6.697   3.476
  183WAT     H1 1611   8.024   6.741   3.541
  183WAT     H2 1612   8.141   6.646   3.529
  184WAT      O 1613   7.268   6.332   5.150
  184WAT     H1 1614   7.272   6.303   5.241
  184WAT     H2 1615   7.354   6.373   5.134
  185WAT      O 1616   7.646   6.592   3.666
  185WAT     H1 1617   7.688   6.576   3.750
  185WAT     H2 1618   7.658   6.511   3.617
  186WAT      O 1619   7.462   6.190   4.947
  186WAT     H1 1620   7.409   6.141   4.884
  186WAT     H2 1621   7.529   6.233   4.893
  187WAT      O 1622   7.897   6.495   3.391
  187WAT     H1 1623   7.949   6.423   3.354
  187WAT     H2 1624   7.962   6.559   3.421
  188WAT      O 1625   7.511   5.887   4.955
  188WAT     H1 1626   7.501   5.825   4.882
  188WAT     H2 1627   7.453   5.960   4.932
  189WAT      O 1628   7.788   5.743   4.658
  189WAT     H1 1629   7.743   5.745   4.573
  189WAT     H2 1630   7.724   5.703   4.718
  190WAT      O 1631   7.828   6.632   4.720
  190WAT     H1 1632   7.870   6.717   4.703
  190WAT     H2 1633   7.736   6.646   4.697
  191WAT      O 1634   8.062   6.405   4.858
  191WAT     H1 1635   8.074   6.346   4.932
  191WAT     H2 1636   8.148   6.409   4.816
  192WAT      O 1637   7.535   6.200   3.361
  192WAT     H1 1638   7.515   6.113   3.397
  192WAT     H2 1639   7.518   6.191   3.267
  193WAT      O 1640   7.738   6.060   4.984
  193WAT     H1 1641   7.797   6.029   5.053
  193WAT     H2 1642   7.657   6.012   5.000
  194WAT      O 1643   7.415   5.910   3.359
  194WAT     H1 1644   7.446   5.910   3.269
  194WAT     H2 1645   7.489   5.875   3.409
  195WAT      O 1646   7.737   5.804   3.458
  195WAT     H1 1647   7.702   5.736   3.400
  195WAT     H2 1648   7.757   5.758   3.539
  196WAT      O 1649   7.318   6.840   3.443
  196WAT     H1 1650   7.361   6.895   3.508
  196WAT     H2 1651   7.366   6.758   3.444
  197WAT      O 1652   7.039   7.119   4.188
  197WAT     H1 1653   7.072   7.032   4.165
  197WAT     H2 1654   7.082   7.140   4.271
  198WAT      O 1655   7.499   6.952   3.954
  198WAT     H1 1656   7.469   6.940   4.044
  198WAT     H2 1657   7.488   6.866   3.913
  199WAT      O 1658   7.071   6.457   4.098
  199WAT     H1 1659   7.006   6.430   4.033
  199WAT     H2 1660   7.155   6.446   4.053
  200WAT      O 1661   7.175   6.496   4.552
  200WAT     H1 1662   7.212   6.487   4.640
  200WAT     H2 1663   7.118   6.419   4.542
  201WAT      O 1664   7.130   6.187   4.942
  201WAT     H1 1665   7.041   6.183   4.976
  201WAT     H2 1666   7.184   6.206   5.019
  202WAT      O 1667   6.993   6.178   3.692
  202WAT     H1 1668   6.902   6.204   3.674
  202WAT     H2 1669   7.041   6.205   3.614
  203WAT      O 1670   7.247   6.084   3.483
  203WAT     H1 1671   7.318   6.041   3.434
  203WAT     H2 1672   7.175   6.090   3.420
  204WAT      O 1673   7.212   5.689   3.387
  204WAT     H1 1674   7.284   5.743   3.419
  204WAT     H2 1675   7.239   5.662   3.299
  205WAT      O 1676   7.181   5.614   4.377
  205WAT     H1 1677   7.245   5.559   4.333
  205WAT     H2 1678   7.223   5.640   4.459
  206WAT      O 1679   7.156   5.630   4.651
  206WAT     H1 1680   7.121   5.675   4.728
  206WAT     H2 1681   7.123   5.540   4.659
  207WAT      O 1682   7.317   6.947   5.068
  207WAT     H1 1683   7.312   6.910   5.156
  207WAT     H2 1684   7.330   7.041   5.082
  208WAT      O 1685   7.687   7.102   4.628
  208WAT     H1 1686   7.662   7.129   4.539
  208WAT     H2 1687   7.781   7.120   4.633
  209WAT      O 1688   7.907   5.749   5.003
  209WAT     H1 1689   7.901   5.808   5.078
  209WAT     H2 1690   8.001   5.738   4.989
  210WAT      O 1691   7.223   5.582   4.979
  210WAT     H1 1692   7.278   5.564   4.902
  210WAT     H2 1693   7.230   5.503   5.032
  211WAT      O 1694   7.264   6.978   4.675
  211WAT     H1 1695   7.191   6.916   4.668
  211WAT     H2 1696   7.270   7.017   4.588
  212WAT      O 1697   8.020   5.663   4.494
  212WAT     H1 1698   7.941   5.710   4.522
  212WAT     H2 1699   7.990   5.572   4.483
  213WAT      O 1700   7.154   5.693   3.746
  213WAT     H1 1701   7.230   5.704   3.689
  213WAT     H2 1702   7.108   5.777   3.742
  214WAT      O 1703   7.808   5.904   4.045
  214WAT     H1 1704   7.727   5.867   4.011
  214WAT     H2 1705   7.859   5.829   4.075
  215WAT      O 1706   7.391   5.746   3.600
  215WAT     H1 1707   7.444   5.667   3.587
  215WAT     H2 1708   7.455   5.814   3.624
  216WAT      O 1709   7.611   5.719   3.906
  216WAT     H1 1710   7.548   5.649   3.922
  216WAT     H2 1711   7.557   5.795   3.884
  217WAT      O 1712   7.623   5.647   5.149
  217WAT     H1 1713   7.595   5.698   5.073
  217WAT     H2 1714   7.661   5.567   5.113
  218WAT      O 1715   7.429   6.986   3.628
  218WAT     H1 1716   7.366   7.032   3.683
  218WAT     H2 1717   7.440   6.901   3.672
  219WAT      O 1718   7.987   6.568   2.431
  219WAT     H1 1719   7.910   6.520   2.460
  219WAT     H2 1720   8.052   6.501   2.414
  220WAT      O 1721   7.389   6.600   2.519
  220WAT     H1 1722   7.306   6.574   2.559
  220WAT     H2 1723   7.450   6.607   2.593
  221WAT      O 1724   7.387   7.003   2.539
  221WAT     H1 1725   7.417   6.914   2.521
  221WAT     H2 1726   7.461   7.059   2.516
  222WAT      O 1727   7.230   6.096   1.898
  222WAT     H1 1728   7.141   6.130   1.887
  222WAT     H2 1729   7.258   6.076   1.808
  223WAT      O 1730   7.026   6.356   2.486
  223WAT     H1 1731   7.083   6.279   2.486
  223WAT     H2 1732   7.026   6.386   2.395
  224WAT      O 1733   7.931   6.836   2.432
  224WAT     H1 1734   7.924   6.742   2.416
  224WAT     H2 1735   8.007   6.845   2.489
  225WAT      O 1736   7.150   5.897   2.665
  225WAT     H1 1737   7.132   5.807   2.693
  225WAT     H2 1738   7.110   5.951   2.732
  226WAT      O 1739   8.034   6.117   2.455
  226WAT     H1 1740   8.072   6.029   2.444
  226WAT     H2 1741   8.025   6.150   2.366
  227WAT      O 1742   7.447   5.954   2.001
  227WAT     H1 1743   7.458   6.044   2.032
  227WAT     H2 1744   7.356   5.949   1.972
  228WAT      O 1745   7.212   6.146   2.525
  228WAT     H1 1746   7.280   6.173   2.587
  228WAT     H2 1747   7.181   6.062   2.559
  229WAT      O 1748   7.631   6.251   2.434
  229WAT     H1 1749   7.682   6.301   2.498
  229WAT     H2 1750   7.685   6.173   2.417
  230WAT      O 1751   7.460   5.715   2.861
  230WAT     H1 1752   7.460   5.767   2.780
  230WAT     H2 1753   7.377   5.667   2.859
  231WAT      O 1754   8.099   6.726   2.011
  231WAT     H1 1755   8.037   6.773   1.954
  231WAT     H2 1756   8.150   6.795   2.052
  232WAT      O 1757   7.585   6.679   2.679
  232WAT     H1 1758   7.552   6.741   2.743
  232WAT     H2 1759   7.603   6.731   2.601
  233WAT      O 1760   7.428   5.886   2.662
  233WAT     H1 1761   7.462   5.970   2.632
  233WAT     H2 1762   7.334   5.901   2.673
  234WAT      O 1763   7.506   6.876   2.860
  234WAT     H1 1764   7.568   6.943   2.832
  234WAT     H2 1765   7.420   6.916   2.851
  235WAT      O 1766   7.035   6.795   1.748
  235WAT     H1 1767   6.998   6.843   1.675
  235WAT     H2 1768   7.061   6.862   1.811
  236WAT      O 1769   7.796   5.635   2.294
  236WAT     H1 1770   7.827   5.579   2.222
  236WAT     H2 1771   7.703   5.648   2.276
  237WAT      O 1772   8.035   6.441   1.968
  237WAT     H1 1773   7.942   6.435   1.990
  237WAT     H2 1774   8.050   6.535   1.956
  238WAT      O 1775   8.034   6.068   1.667
  238WAT     H1 1776   7.940   6.085   1.676
  238WAT     H2 1777   8.066   6.140   1.613
  239WAT      O 1778   7.596   6.494   2.246
  239WAT     H1 1779   7.555   6.423   2.196
  239WAT     H2 1780   7.604   6.459   2.335
  240WAT      O 1781   7.642   6.863   2.462
  240WAT     H1 1782   7.613   6.802   2.394
  240WAT     H2 1783   7.737   6.866   2.451
  241WAT      O 1784   7.467   6.171   2.624
  241WAT     H1 1785   7.522   6.182   2.546
  241WAT     H2 1786   7.518   6.209   2.695
  242WAT      O 1787   7.552   6.836   3.127
  242WAT     H1 1788   7.462   6.859   3.152
  242WAT     H2 1789   7.554   6.849   3.032
  243WAT      O 1790   7.434   6.524   2.985
  243WAT     H1 1791   7.420   6.611   3.022
  243WAT     H2 1792   7.346   6.489   2.970
  244WAT      O 1793   8.067   7.015   2.115
  244WAT     H1 1794   8.111   7.090   2.074
  244WAT     H2 1795   8.061   7.040   2.208
  245WAT      O 1796   7.614   7.118   3.206
  245WAT     H1 1797   7.611   7.158   3.119
  245WAT     H2 1798   7.598   7.025   3.189
  246WAT      O 1799   7.266   6.383   1.996
  246WAT     H1 1800   7.254   6.456   1.935
  246WAT     H2 1801   7.235   6.306   1.948
  247WAT      O 1802   7.030   6.701   2.577
  247WAT     H1 1803   7.037   6.714   2.482
  247WAT     H2 1804   7.091   6.630   2.596
  248WAT      O 1805   7.154   6.871   2.218
  248WAT     H1 1806   7.113   6.885   2.132
  248WAT     H2 1807   7.243   6.842   2.197
  249WAT      O 1808   7.035   6.805   2.830
  249WAT     H1 1809   7.051   6.758   2.749
  249WAT     H2 1810   7.082   6.754   2.897
  250WAT      O 1811   7.512   5.718   2.334
  250WAT     H1 1812   7.468   5.796   2.301
  250WAT     H2 1813   7.568   5.750   2.405
  251WAT      O 1814   7.941   6.004   2.894
  251WAT     H1 1815   7.895   6.025   2.976
  251WAT     H2 1816   7.901   5.923   2.864
  252WAT      O 1817   7.824   5.680   1.822
  252WAT     H1 1818   7.761   5.679   1.895
  252WAT     H2 1819   7.815   5.593   1.783
  253WAT      O 1820   7.716   5.772   2.520
  253WAT     H1 1821   7.746   5.863   2.512
  253WAT     H2 1822   7.771   5.723   2.459
  254WAT      O 1823   7.491   6.230   2.107
  254WAT     H1 1824   7.469   6.208   2.197
  254WAT     H2 1825   7.413   6.273   2.072
  255WAT      O 1826   7.735   6.320   3.174
  255WAT     H1 1827   7.726   6.226   3.159
  255WAT     H2 1828   7.820   6.342   3.134
  256WAT      O 1829   8.075   6.094   2.170
  256WAT     H1 1830   8.114   6.126   2.089
  256WAT     H2 1831   8.111   6.006   2.181
  257WAT      O 1832   7.249   5.961   2.989
  257WAT     H1 1833   7.209   6.046   3.010
  257WAT     H2 1834   7.180   5.897   3.008
  258WAT      O 1835   7.906   5.969   3.296
  258WAT     H1 1836   7.837   5.950   3.359
  258WAT     H2 1837   7.980   5.998   3.349
  259WAT      O 1838   6.979   5.753   2.392
  259WAT     H1 1839   6.950   5.810   2.463
  259WAT     H2 1840   7.053   5.705   2.428
  260WAT      O 1841   6.997   6.148   1.513
  260WAT     H1 1842   6.989   6.242   1.527
  260WAT     H2 1843   6.962   6.133   1.425
  261WAT      O 1844   8.134   6.353   2.579
  261WAT     H1 1845   8.060   6.404   2.614
  261WAT     H2 1846   8.094   6.272   2.549
  262WAT      O 1847   7.777   6.021   2.420
  262WAT     H1 1848   7.778   5.977   2.335
  262WAT     H2 1849   7.867   6.053   2.431
  263WAT      O 1850   7.362   6.009   2.316
  263WAT     H1 1851   7.328   6.057   2.391
  263WAT     H2 1852   7.286   5.964   2.280
  264WAT      O 1853   7.784   6.121   1.719
  264WAT     H1 1854   7.796   6.117   1.814
  264WAT     H2 1855   7.745   6.207   1.703
  265WAT      O 1856   7.685   6.352   1.659
  265WAT     H1 1857   7.628   6.307   1.596
  265WAT     H2 1858   7.756   6.388   1.605
  266WAT      O 1859   7.193   6.742   3.046
  266WAT     H1 1860   7.154   6.678   3.106
  266WAT     H2 1861   7.224   6.813   3.103
  267WAT      O 1862   7.807   6.427   2.595
  267WAT     H1 1863   7.844   6.380   2.669
  267WAT     H2 1864   7.789   6.514   2.629
  268WAT      O 1865   7.094   5.901   2.207
  268WAT     H1 1866   7.065   5.865   2.291
  268WAT     H2 1867   7.088   5.828   2.146
  269WAT      O 1868   7.586   6.331   2.826
  269WAT     H1 1869   7.556   6.419   2.849
  269WAT     H2 1870   7.682   6.337   2.830
  270WAT      O 1871   7.439   6.752   1.886
  270WAT     H1 1872   7.362   6.698   1.870
  270WAT     H2 1873   7.512   6.700   1.852
  271WAT      O 1874   8.061   5.791   1.880
  271WAT     H1 1875   7.980   5.741   1.872
  271WAT     H2 1876   8.042   5.875   1.838
  272WAT      O 1877   8.053   6.658   3.054
  272WAT     H1 1878   8.047   6.566   3.029
  272WAT     H2 1879   7.990   6.668   3.125
  273WAT      O 1880   7.444   6.718   2.250
  273WAT     H1 1881   7.495   6.638   2.244
  273WAT     H2 1882   7.399   6.712   2.334
  274WAT      O 1883   7.932   6.845   1.777
  274WAT     H1 1884   7.967   6.920   1.728
  274WAT     H2 1885   7.849   6.876   1.813
  275WAT      O 1886   7.192   6.415   2.941
  275WAT     H1 1887   7.156   6.482   3.000
  275WAT     H2 1888   7.163   6.332   2.978
  276WAT      O 1889   7.512   6.461   3.229
  276WAT     H1 1890   7.482   6.475   3.140
  276WAT     H2 1891   7.589   6.405   3.220
  277WAT      O 1892   8.047   6.941   3.029
  277WAT     H1 1893   8.048   6.847   3.007
  277WAT     H2 1894   7.976   6.949   3.093
  278WAT      O 1895   7.829   6.853   2.054
  278WAT     H1 1896   7.898   6.908   2.092
  278WAT     H2 1897   7.751   6.908   2.058
  279WAT      O 1898   7.043   6.415   1.603
  279WAT     H1 1899   7.130   6.443   1.632
  279WAT     H2 1900   6.994   6.496   1.592
  280WAT      O 1901   7.760   6.554   2.016
  280WAT     H1 1902   7.805   6.635   2.038
  280WAT     H2 1903   7.724   6.522   2.099
  281WAT      O 1904   7.990   7.105   2.738
  281WAT     H1 1905   8.054   7.125   2.806
  281WAT     H2 1906   8.026   7.029   2.693
  282WAT      O 1907   7.350   5.588   2.063
  282WAT     H1 1908   7.337   5.587   2.158
  282WAT     H2 1909   7.267   5.622   2.028
  283WAT      O 1910   7.050   5.764   3.009
  283WAT     H1 1911   6.978   5.784   3.069
  283WAT     H2 1912   7.092   5.686   3.046
  284WAT      O 1913   7.078   7.163   3.107
  284WAT     H1 1914   7.089   7.069   3.093
  284WAT     H2 1915   7.013   7.189   3.043
  285WAT      O 1916   7.877   6.990   3.247
  285WAT     H1 1917   7.845   6.918   3.302
  285WAT     H2 1918   7.810   7.057   3.255
  286WAT      O 1919   7.682   7.075   1.742
  286WAT     H1 1920   7.681   7.148   1.680
  286WAT     H2 1921   7.590   7.050   1.751
  287WAT      O 1922   7.242   6.597   1.816
  287WAT     H1 1923   7.181   6.671   1.817
  287WAT     H2 1924   7.289   6.606   1.734
  288WAT      O 1925   7.980   7.081   1.608
  288WAT     H1 1926   7.990   7.060   1.515
  288WAT     H2 1927   7.890   7.055   1.629
  289WAT      O 1928   7.732   6.137   2.006
  289WAT     H1 1929   7.662   6.183   2.050
  289WAT     H2 1930   7.761   6.071   2.070
  290WAT      O 1931   7.895   6.279   2.806
  290WAT     H1 1932   7.945   6.326   2.873
  290WAT     H2 1933   7.909   6.186   2.827
  291WAT      O 1934   7.553   5.967   1.744
  291WAT     H1 1935   7.638   6.011   1.737
  291WAT     H2 1936   7.516   5.999   1.827
  292WAT      O 1937   7.443   6.593   1.591
  292WAT     H1 1938   7.519   6.582   1.647
  292WAT     H2 1939   7.450   6.523   1.526
  293WAT      O 1940   7.312   6.336   1.659
  293WAT     H1 1941   7.320   6.241   1.671
  293WAT     H2 1942   7.401   6.369   1.670
  294WAT      O 1943   7.081   6.958   1.957
  294WAT     H1 1944   6.988   6.982   1.956
  294WAT     H2 1945   7.127   7.040   1.945
  295WAT      O 1946   7.065   6.518   3.183
  295WAT     H1 1947   7.115   6.460   3.240
  295WAT     H2 1948   6.991   6.547   3.237
  296WAT      O 1949   7.755   6.790   1.538
  296WAT     H1 1950   7.745   6.729   1.611
  296WAT     H2 1951   7.738   6.738   1.460
  297WAT      O 1952   7.770   6.659   3.136
  297WAT     H1 1953   7.694   6.716   3.128
  297WAT     H2 1954   7.788   6.630   3.047
  298WAT      O 1955   8.079   6.697   1.599
  298WAT     H1 1956   8.024   6.741   1.663
  298WAT     H2 1957   8.141   6.646   1.651
  299WAT      O 1958   7.268   6.332   3.273
  299WAT     H1 1959   7.272   6.303   3.363
  299WAT     H2 1960   7.354   6.373   3.257
  300WAT      O 1961   7.646   6.592   1.789
  300WAT     H1 1962   7.688   6.576   1.873
  300WAT     H2 1963   7.658   6.511   1.739
  301WAT      O 1964   7.462   6.190   3.069
  301WAT     H1 1965   7.409   6.141   3.007
  301WAT     H2 1966   7.529   6.233   3.016
  302WAT      O 1967   7.897   6.495   1.513
  302WAT     H1 1968   7.949   6.423   1.477
  302WAT     H2 1969   7.962   6.559   1.543
  303WAT      O 1970   7.511   5.887   3.077
  303WAT     H1 1971   7.501   5.825   3.005
  303WAT     H2 1972   7.453   5.960   3.055
  304WAT      O 1973   7.788   5.743   2.781
  304WAT     H1 1974   7.743   5.745   2.696
  304WAT     H2 1975   7.724   5.703   2.840
  305WAT      O 1976   7.828   6.632   2.843
  305WAT     H1 1977   7.870   6.717   2.825
  305WAT     H2 1978   7.736   6.646   2.820
  306WAT      O 1979   8.062   6.405   2.981
  306WAT     H1 1980   8.074   6.346   3.055
  306WAT     H2 1981   8.148   6.409   2.939
  307WAT      O 1982   7.535   6.200   1.483
  307WAT     H1 1983   7.515   6.113   1.519
  307WAT     H2 1984   7.518   6.191   1.389
  308WAT      O 1985   7.738   6.060   3.107
  308WAT     H1 1986   7.797   6.029   3.176
  308WAT     H2 1987   7.657   6.012   3.122
  309WAT      O 1988   7.415   5.910   1.482
  309WAT     H1 1989   7.446   5.910   1.391
  309WAT     H2 1990   7.489   5.875   1.532
  310WAT      O 1991   7.737   5.804   1.580
  310WAT     H1 1992   7.702   5.736   1.523
  310WAT     H2 1993   7.757   5.758   1.662
  311WAT      O 1994   7.318   6.840   1.565
  311WAT     H1 1995   7.361   6.895   1.631
  311WAT     H2 1996   7.366   6.758   1.566
  312WAT      O 1997   7.039   7.119   2.310
  312WAT     H1 1998   7.072   7.032   2.287
  312WAT     H2 1999   7.082   7.140   2.393
  313WAT      O 2000   7.499   6.952   2.076
  313WAT     H1 2001   7.469   6.940   2.166
  313WAT     H2 2002   7.488   6.866   2.036
  314WAT      O 2003   7.071   6.457   2.220
  314WAT     H1 2004   7.006   6.430   2.156
  314WAT     H2 2005   7.155   6.446   2.175
  315WAT      O 2006   7.175   6.496   2.674
  315WAT     H1 2007   7.212   6.487   2.762
  315WAT     H2 2008   7.118   6.419   2.664
  316WAT      O 2009   7.130   6.187   3.065
  316WAT     H1 2010   7.041   6.183   3.099
  316WAT     H2 2011   7.184   6.206   3.141
  317WAT      O 2012   6.993   6.178   1.814
  317WAT     H1 2013   6.902   6.204   1.797
  317WAT     H2 2014   7.041   6.205   1.736
  318WAT      O 2015   7.247   6.084   1.605
  318WAT     H1 2016   7.318   6.041   1.557
  318WAT     H2 2017   7.175   6.090   1.542
  319WAT      O 2018   7.212   5.689   1.509
  319WAT     H1 2019   7.284   5.743   1.541
  319WAT     H2 2020   7.239   5.662   1.422
  320WAT      O 2021   7.181   5.614   2.500
  320WAT     H1 2022   7.245   5.559   2.456
  320WAT     H2 2023   7.223   5.640   2.582
  321WAT      O 2024   7.156   5.630   2.774
  321WAT     H1 2025   7.121   5.675   2.850
  321WAT     H2 2026   7.123   5.540   2.782
  322WAT      O 2027   7.317   6.947   3.190
  322WAT     H1 2028   7.312   6.910   3.279
  322WAT     H2 2029   7.330   7.041   3.204
  323WAT      O 2030   7.687   7.102   2.750
  323WAT     H1 2031   7.662   7.129   2.662
  323WAT     H2 2032   7.781   7.120   2.756
  324WAT      O 2033   7.907   5.749   3.126
  324WAT     H1 2034   7.901   5.808   3.201
  324WAT     H2 2035   8.001   5.738   3.112
  325WAT      O 2036   7.223   5.582   3.101
  325WAT     H1 2037   7.278   5.564   3.025
  325WAT     H2 2038   7.230   5.503   3.155
  326WAT      O 2039   7.264   6.978   2.797
  326WAT     H1 2040   7.191   6.916   2.791
  326WAT     H2 2041   7.270   7.017   2.710
  327WAT      O 2042   8.020   5.663   2.617
  327WAT     H1 2043   7.941   5.710   2.645
  327WAT     H2 2044   7.990   5.572   2.606
  328WAT      O 2045   7.154   5.693   1.869
  328WAT     H1 2046   7.230   5.704   1.811
  328WAT     H2 2047   7.108   5.777   1.864
  329WAT      O 2048   7.808   5.904   2.168
  329WAT     H1 2049   7.727   5.867   2.134
  329WAT     H2 2050   7.859   5.829   2.198
  330WAT      O 2051   7.391   5.746   1.723
  330WAT     H1 2052   7.444   5.667   1.710
  330WAT     H2 2053   7.455   5.814   1.746
  331WAT      O 2054   7.611   5.719   2.028
  331WAT     H1 2055   7.548   5.649   2.045
  331WAT     H2 2056   7.557   5.795   2.007
  332WAT      O 2057   7.623   5.647   3.272
  332WAT     H1 2058   7.595   5.698   3.195
  332WAT     H2 2059   7.661   5.567   3.235
  333WAT      O 2060   7.429   6.986   1.751
  333WAT     H1 2061   7.366   7.032   1.806
  333WAT     H2 2062   7.440   6.901   1.794
  334WAT      O 2063   7.987   6.568   0.554
  334WAT     H1 2064   7.910   6.520   0.583
  334WAT     H2 2065   8.052   6.501   0.537
  335WAT      O 2066   7.389   6.600   0.642
  335WAT     H1 2067   7.306   6.574   0.682
  335WAT     H2 2068   7.450   6.607   0.715
  336WAT      O 2069   7.387   7.003   0.661
  336WAT     H1 2070   7.417   6.914   0.643
  336WAT     H2 2071   7.461   7.059   0.639
  337WAT      O 2072   7.026   6.356   0.609
  337WAT     H1 2073   7.083   6.279   0.609
  337WAT     H2 2074   7.026   6.386   0.518
  338WAT      O 2075   7.931   6.836   0.555
  338WAT     H1 2076   7.924   6.742   0.539
  338WAT     H2 2077   8.007   6.845   0.612
  339WAT      O 2078   7.150   5.897   0.787
  339WAT     H1 2079   7.132   5.807   0.815
  339WAT     H2 2080   7.110   5.951   0.855
  340WAT      O 2081   8.034   6.117   0.577
  340WAT     H1 2082   8.072   6.029   0.566
  340WAT     H2 2083   8.025   6.150   0.488
  341WAT      O 2084   7.212   6.146   0.648
  341WAT     H1 2085   7.280   6.173   0.710
  341WAT     H2 2086   7.181   6.062   0.681
  342WAT      O 2087   7.631   6.251   0.557
  342WAT     H1 2088   7.682   6.301   0.621
  342WAT     H2 2089   7.685   6.173   0.539
  343WAT      O 2090   7.460   5.715   0.983
  343WAT     H1 2091   7.460   5.767   0.903
  343WAT     H2 2092   7.377   5.667   0.981
  344WAT      O 2093   7.585   6.679   0.801
  344WAT     H1 2094   7.552   6.741   0.865
  344WAT     H2 2095   7.603   6.731   0.723
  345WAT      O 2096   7.428   5.886   0.784
  345WAT     H1 2097   7.462   5.970   0.755
  345WAT     H2 2098   7.334   5.901   0.796
  346WAT      O 2099   7.506   6.876   0.983
  346WAT     H1 2100   7.568   6.943   0.954
  346WAT     H2 2101   7.420   6.916   0.974
  347WAT      O 2102   7.796   5.635   0.417
  347WAT     H1 2103   7.827   5.579   0.345
  347WAT     H2 2104   7.703   5.648   0.398
  348WAT      O 2105   7.596   6.494   0.368
  348WAT     H1 2106   7.555   6.423   0.319
  348WAT     H2 2107   7.604   6.459   0.457
  349WAT      O 2108   7.642   6.863   0.585
  349WAT     H1 2109   7.613   6.802   0.517
  349WAT     H2 2110   7.737   6.866   0.574
  350WAT      O 2111   7.467   6.171   0.746
  350WAT     H1 2112   7.522   6.182   0.669
  350WAT     H2 2113   7.518   6.209   0.818
  351WAT      O 2114   7.552   6.836   1.250
  351WAT     H1 2115   7.462   6.859   1.275
  351WAT     H2 2116   7.554   6.849   1.155
  352WAT      O 2117   7.434   6.524   1.107
  352WAT     H1 2118   7.420   6.611   1.144
  352WAT     H2 2119   7.346   6.489   1.093
  353WAT      O 2120   8.067   7.015   0.238
  353WAT     H1 2121   8.111   7.090   0.197
  353WAT     H2 2122   8.061   7.040   0.330
  354WAT      O 2123   7.614   7.118   1.328
  354WAT     H1 2124   7.611   7.158   1.242
  354WAT     H2 2125   7.598   7.025   1.312
  355WAT      O 2126   7.030   6.701   0.699
  355WAT     H1 2127   7.037   6.714   0.605
  355WAT     H2 2128   7.091   6.630   0.718
  356WAT      O 2129   7.154   6.871   0.340
  356WAT     H1 2130   7.113   6.885   0.255
  356WAT     H2 2131   7.243   6.842   0.320
  357WAT      O 2132   7.035   6.805   0.953
  357WAT     H1 2133   7.051   6.758   0.871
  357WAT     H2 2134   7.082   6.754   1.020
  358WAT      O 2135   7.512   5.718   0.457
  358WAT     H1 2136   7.468   5.796   0.424
  358WAT     H2 2137   7.568   5.750   0.527
  359WAT      O 2138   7.941   6.004   1.017
  359WAT     H1 2139   7.895   6.025   1.098
  359WAT     H2 2140   7.901   5.923   0.987
  360WAT      O 2141   7.716   5.772   0.643
  360WAT     H1 2142   7.746   5.863   0.634
  360WAT     H2 2143   7.771   5.723   0.581
  361WAT      O 2144   7.491   6.230   0.229
  361WAT     H1 2145   7.469   6.208   0.320
  361WAT     H2 2146   7.413   6.273   0.195
  362WAT      O 2147   7.735   6.320   1.296
  362WAT     H1 2148   7.726   6.226   1.281
  362WAT     H2 2149   7.820   6.342   1.257
  363WAT      O 2150   8.075   6.094   0.292
  363WAT     H1 2151   8.114   6.126   0.211
  363WAT     H2 2152   8.111   6.006   0.304
  364WAT      O 2153   7.249   5.961   1.111
  364WAT     H1 2154   7.209   6.046   1.132
  364WAT     H2 2155   7.180   5.897   1.130
  365WAT      O 2156   7.906   5.969   1.418
  365WAT     H1 2157   7.837   5.950   1.482
  365WAT     H2 2158   7.980   5.998   1.472
  366WAT      O 2159   6.979   5.753   0.515
  366WAT     H1 2160   6.950   5.810   0.586
  366WAT     H2 2161   7.053   5.705   0.551
  367WAT      O 2162   8.134   6.353   0.702
  367WAT     H1 2163   8.060   6.404   0.737
  367WAT     H2 2164   8.094   6.272   0.672
  368WAT      O 2165   7.777   6.021   0.542
  368WAT     H1 2166   7.778   5.977   0.457
  368WAT     H2 2167   7.867   6.053   0.553
  369WAT      O 2168   7.362   6.009   0.438
  369WAT     H1 2169   7.328   6.057   0.514
  369WAT     H2 2170   7.286   5.964   0.402
  370WAT      O 2171   7.193   6.742   1.169
  370WAT     H1 2172   7.154   6.678   1.229
  370WAT     H2 2173   7.224   6.813   1.226
  371WAT      O 2174   7.807   6.427   0.717
  371WAT     H1 2175   7.844   6.380   0.792
  371WAT     H2 2176   7.789   6.514   0.751
  372WAT      O 2177   7.094   5.901   0.330
  372WAT     H1 2178   7.065   5.865   0.414
  372WAT     H2 2179   7.088   5.828   0.269
  373WAT      O 2180   7.586   6.331   0.949
  373WAT     H1 2181   7.556   6.419   0.971
  373WAT     H2 2182   7.682   6.337   0.953
  374WAT      O 2183   8.053   6.658   1.177
  374WAT     H1 2184   8.047   6.566   1.151
  374WAT     H2 2185   7.990   6.668   1.248
  375WAT      O 2186   7.444   6.718   0.372
  375WAT     H1 2187   7.495   6.638   0.367
  375WAT     H2 2188   7.399   6.712   0.457
  376WAT      O 2189   7.192   6.415   1.064
  376WAT     H1 2190   7.156   6.482   1.122
  376WAT     H2 2191   7.163   6.332   1.101
  377WAT      O 2192   7.512   6.461   1.352
  377WAT     H1 2193   7.482   6.475   1.262
  377WAT     H2 2194   7.589   6.405   1.343
  378WAT      O 2195   8.047   6.941   1.152
  378WAT     H1 2196   8.048   6.847   1.130
  378WAT     H2 2197   7.976   6.949   1.215
  379WAT      O 2198   7.829   6.853   0.177
  379WAT     H1 2199   7.898   6.908   0.215
  379WAT     H2 2200   7.751   6.908   0.180
  380WAT      O 2201   7.990   7.105   0.861
  380WAT     H1 2202   8.054   7.125   0.929
  380WAT     H2 2203   8.026   7.029   0.816
  381WAT      O 2204   7.050   5.764   1.131
  381WAT     H1 2205   6.978   5.784   1.192
  381WAT     H2 2206   7.092   5.686   1.169
  382WAT      O 2207   7.078   7.163   1.230
  382WAT     H1 2208   7.089   7.069   1.216
  382WAT     H2 2209   7.013   7.189   1.165
  383WAT      O 2210   7.877   6.990   1.370
  383WAT     H1 2211   7.845   6.918   1.424
  383WAT     H2 2212   7.810   7.057   1.377
  384WAT      O 2213   7.895   6.279   0.929
  384WAT     H1 2214   7.945   6.326   0.995
  384WAT     H2 2215   7.909   6.186   0.949
  385WAT      O 2216   7.065   6.518   1.306
  385WAT     H1 2217   7.115   6.460   1.363
  385WAT     H2 2218   6.991   6.547   1.359
  386WAT      O 2219   7.770   6.659   1.259
  386WAT     H1 2220   7.694   6.716   1.250
  386WAT     H2 2221   7.788   6.630   1.170
  387WAT      O 2222   7.268   6.332   1.395
  387WAT     H1 2223   7.272   6.303   1.486
  387WAT     H2 2224   7.354   6.373   1.379
  388WAT      O 2225   7.462   6.190   1.192
  388WAT     H1 2226   7.409   6.141   1.129
  388WAT     H2 2227   7.529   6.233   1.138
  389WAT      O 2228   7.511   5.887   1.200
  389WAT     H1 2229   7.501   5.825   1.127
  389WAT     H2 2230   7.453   5.960   1.177
  390WAT      O 2231   7.788   5.743   0.903
  390WAT     H1 2232   7.743   5.745   0.819
  390WAT     H2 2233   7.724   5.703   0.963
  391WAT      O 2234   7.828   6.632   0.965
  391WAT     H1 2235   7.870   6.717   0.948
  391WAT     H2 2236   7.736   6.646   0.942
  392WAT      O 2237   8.062   6.405   1.104
  392WAT     H1 2238   8.074   6.346   1.178
  392WAT     H2 2239   8.148   6.409   1.062
  393WAT      O 2240   7.738   6.060   1.229
  393WAT     H1 2241   7.797   6.029   1.298
  393WAT     H2 2242   7.657   6.012   1.245
  394WAT      O 2243   7.039   7.119   0.433
  394WAT     H1 2244   7.072   7.032   0.410
  394WAT     H2 2245   7.082   7.140   0.516
  395WAT      O 2246   7.071   6.457   0.343
  395WAT     H1 2247   7.006   6.430   0.278
  395WAT     H2 2248   7.155   6.446   0.298
  396WAT      O 2249   7.175   6.496   0.797
  396WAT     H1 2250   7.212   6.487   0.885
  396WAT     H2 2251   7.118   6.419   0.787
  397WAT      O 2252   7.130   6.187   1.187
  397WAT     H1 2253   7.041   6.183   1.221
  397WAT     H2 2254   7.184   6.206   1.264
  398WAT      O 2255   7.181   5.614   0.622
  398WAT     H1 2256   7.245   5.559   0.578
  398WAT     H2 2257   7.223   5.640   0.704
  399WAT      O 2258   7.156   5.630   0.896
  399WAT     H1 2259   7.121   5.675   0.973
  399WAT     H2 2260   7.123   5.540   0.905
  400WAT      O 2261   7.317   6.947   1.313
  400WAT     H1 2262   7.312   6.910   1.401
  400WAT     H2 2263   7.330   7.041   1.327
  401WAT      O 2264   7.687   7.102   0.873
  401WAT     H1 2265   7.662   7.129   0.784
  401WAT     H2 2266   7.781   7.120   0.879
  402WAT      O 2267   7.907   5.749   1.249
  402WAT     H1 2268   7.901   5.808   1.324
  402WAT     H2 2269   8.001   5.738   1.234
  403WAT      O 2270   7.223   5.582   1.224
  403WAT     H1 2271   7.278   5.564   1.148
  403WAT     H2 2272   7.230   5.503   1.277
  404WAT      O 2273   7.264   6.978   0.920
  404WAT     H1 2274   7.191   6.916   0.913
  404WAT     H2 2275   7.270   7.017   0.833
  405WAT      O 2276   8.020   5.663   0.739
  405WAT     H1 2277   7.941   5.710   0.767
  405WAT     H2 2278   7.990   5.572   0.728
  406WAT      O 2279   7.808   5.904   0.290
  406WAT     H1 2280   7.727   5.867   0.256
  406WAT     H2 2281   7.859   5.829   0.321
  407WAT      O 2282   7.623   5.647   1.394
  407WAT     H1 2283   7.595   5.698   1.318
  407WAT     H2 2284   7.661   5.567   1.358
  408WAT      O 2285   7.987   4.691   6.186
  408WAT     H1 2286   7.910   4.643   6.215
  408WAT     H2 2287   8.052   4.623   6.169
  409WAT      O 2288   7.389   4.722   6.274
  409WAT     H1 2289   7.306   4.697   6.314
  409WAT     H2 2290   7.450   4.729   6.348
  410WAT      O 2291   7.387   5.126   6.294
  410WAT     H1 2292   7.417   5.037   6.276
  410WAT     H2 2293   7.461   5.181   6.271
  411WAT      O 2294   7.230   4.218   5.652
  411WAT     H1 2295   7.141   4.252   5.642
  411WAT     H2 2296   7.258   4.198   5.563
  412WAT      O 2297   7.026   4.478   6.241
  412WAT     H1 2298   7.083   4.402   6.241
  412WAT     H2 2299   7.026   4.508   6.150
  413WAT      O 2300   8.012   5.360   6.026
  413WAT     H1 2301   7.950   5.406   5.969
  413WAT     H2 2302   8.097   5.376   5.986
  414WAT      O 2303   7.931   4.959   6.187
  414WAT     H1 2304   7.924   4.865   6.171
  414WAT     H2 2305   8.007   4.968   6.244
  415WAT      O 2306   7.150   4.019   6.420
  415WAT     H1 2307   7.132   3.929   6.448
  415WAT     H2 2308   7.110   4.074   6.487
  416WAT      O 2309   8.034   4.239   6.210
  416WAT     H1 2310   8.072   4.152   6.198
  416WAT     H2 2311   8.025   4.273   6.121
  417WAT      O 2312   7.447   4.077   5.756
  417WAT     H1 2313   7.458   4.167   5.787
  417WAT     H2 2314   7.356   4.072   5.727
  418WAT      O 2315   7.212   4.269   6.280
  418WAT     H1 2316   7.280   4.295   6.342
  418WAT     H2 2317   7.181   4.185   6.314
  419WAT      O 2318   7.631   4.373   6.189
  419WAT     H1 2319   7.682   4.423   6.253
  419WAT     H2 2320   7.685   4.296   6.171
  420WAT      O 2321   8.099   4.849   5.766
  420WAT     H1 2322   8.037   4.895   5.709
  420WAT     H2 2323   8.150   4.918   5.807
  421WAT      O 2324   7.585   4.801   6.433
  421WAT     H1 2325   7.552   4.864   6.498
  421WAT     H2 2326   7.603   4.854   6.355
  422WAT      O 2327   7.428   4.009   6.416
  422WAT     H1 2328   7.462   4.093   6.387
  422WAT     H2 2329   7.334   4.023   6.428
  423WAT      O 2330   7.035   4.917   5.503
  423WAT     H1 2331   6.998   4.966   5.430
  423WAT     H2 2332   7.061   4.984   5.566
  424WAT      O 2333   7.796   3.757   6.049
  424WAT     H1 2334   7.827   3.702   5.977
  424WAT     H2 2335   7.703   3.771   6.031
  425WAT      O 2336   8.035   4.564   5.722
  425WAT     H1 2337   7.942   4.557   5.745
  425WAT     H2 2338   8.050   4.658   5.711
  426WAT      O 2339   8.034   4.191   5.422
  426WAT     H1 2340   7.940   4.207   5.431
  426WAT     H2 2341   8.066   4.263   5.367
  427WAT      O 2342   7.596   4.616   6.001
  427WAT     H1 2343   7.555   4.545   5.951
  427WAT     H2 2344   7.604   4.582   6.090
  428WAT      O 2345   7.642   4.985   6.217
  428WAT     H1 2346   7.613   4.925   6.149
  428WAT     H2 2347   7.737   4.989   6.206
  429WAT      O 2348   7.467   4.294   6.379
  429WAT     H1 2349   7.522   4.305   6.301
  429WAT     H2 2350   7.518   4.331   6.450
  430WAT      O 2351   8.067   5.138   5.870
  430WAT     H1 2352   8.111   5.212   5.829
  430WAT     H2 2353   8.061   5.162   5.963
  431WAT      O 2354   7.266   4.506   5.751
  431WAT     H1 2355   7.254   4.579   5.690
  431WAT     H2 2356   7.235   4.429   5.703
  432WAT      O 2357   7.030   4.823   6.331
  432WAT     H1 2358   7.037   4.837   6.237
  432WAT     H2 2359   7.091   4.752   6.351
  433WAT      O 2360   7.154   4.993   5.972
  433WAT     H1 2361   7.113   5.007   5.887
  433WAT     H2 2362   7.243   4.965   5.952
  434WAT      O 2363   7.581   5.415   5.784
  434WAT     H1 2364   7.564   5.323   5.762
  434WAT     H2 2365   7.496   5.450   5.808
  435WAT      O 2366   7.512   3.840   6.089
  435WAT     H1 2367   7.468   3.918   6.056
  435WAT     H2 2368   7.568   3.873   6.160
  436WAT      O 2369   7.824   3.802   5.577
  436WAT     H1 2370   7.761   3.802   5.650
  436WAT     H2 2371   7.815   3.716   5.537
  437WAT      O 2372   7.716   3.895   6.275
  437WAT     H1 2373   7.746   3.985   6.267
  437WAT     H2 2374   7.771   3.846   6.213
  438WAT      O 2375   7.491   4.353   5.862
  438WAT     H1 2376   7.469   4.331   5.952
  438WAT     H2 2377   7.413   4.396   5.827
  439WAT      O 2378   8.075   4.217   5.925
  439WAT     H1 2379   8.114   4.249   5.843
  439WAT     H2 2380   8.111   4.129   5.936
  440WAT      O 2381   6.979   3.876   6.147
  440WAT     H1 2382   6.950   3.933   6.218
  440WAT     H2 2383   7.053   3.828   6.183
  441WAT      O 2384   6.997   4.270   5.268
  441WAT     H1 2385   6.989   4.364   5.282
  441WAT     H2 2386   6.962   4.256   5.180
  442WAT      O 2387   8.134   4.476   6.334
  442WAT     H1 2388   8.060   4.527   6.369
  442WAT     H2 2389   8.094   4.394   6.304
  443WAT      O 2390   7.777   4.143   6.175
  443WAT     H1 2391   7.778   4.099   6.090
  443WAT     H2 2392   7.867   4.176   6.185
  444WAT      O 2393   7.362   4.132   6.071
  444WAT     H1 2394   7.328   4.179   6.146
  444WAT     H2 2395   7.286   4.086   6.035
  445WAT      O 2396   7.784   4.244   5.474
  445WAT     H1 2397   7.796   4.239   5.569
  445WAT     H2 2398   7.745   4.330   5.458
  446WAT      O 2399   7.685   4.475   5.414
  446WAT     H1 2400   7.628   4.430   5.351
  446WAT     H2 2401   7.756   4.511   5.360
  447WAT      O 2402   7.807   4.549   6.349
  447WAT     H1 2403   7.844   4.502   6.424
  447WAT     H2 2404   7.789   4.637   6.383
  448WAT      O 2405   7.094   4.024   5.962
  448WAT     H1 2406   7.065   3.987   6.046
  448WAT     H2 2407   7.088   3.951   5.901
  449WAT      O 2408   7.439   4.874   5.641
  449WAT     H1 2409   7.362   4.820   5.625
  449WAT     H2 2410   7.512   4.822   5.607
  450WAT      O 2411   8.061   3.913   5.634
  450WAT     H1 2412   7.980   3.863   5.627
  450WAT     H2 2413   8.042   3.997   5.593
  451WAT      O 2414   7.444   4.841   6.005
  451WAT     H1 2415   7.495   4.761   5.999
  451WAT     H2 2416   7.399   4.835   6.089
  452WAT      O 2417   7.932   4.968   5.532
  452WAT     H1 2418   7.967   5.042   5.482
  452WAT     H2 2419   7.849   4.999   5.568
  453WAT      O 2420   7.829   4.976   5.809
  453WAT     H1 2421   7.898   5.030   5.847
  453WAT     H2 2422   7.751   5.030   5.813
  454WAT      O 2423   7.043   4.538   5.358
  454WAT     H1 2424   7.130   4.566   5.387
  454WAT     H2 2425   6.994   4.619   5.347
  455WAT      O 2426   7.760   4.676   5.770
  455WAT     H1 2427   7.805   4.757   5.793
  455WAT     H2 2428   7.724   4.644   5.854
  456WAT      O 2429   7.350   3.711   5.818
  456WAT     H1 2430   7.337   3.710   5.912
  456WAT     H2 2431   7.267   3.744   5.783
  457WAT      O 2432   7.080   5.459   5.415
  457WAT     H1 2433   7.116   5.519   5.349
  457WAT     H2 2434   7.066   5.513   5.492
  458WAT      O 2435   7.682   5.197   5.497
  458WAT     H1 2436   7.681   5.270   5.435
  458WAT     H2 2437   7.590   5.172   5.506
  459WAT      O 2438   7.242   4.719   5.571
  459WAT     H1 2439   7.181   4.793   5.572
  459WAT     H2 2440   7.289   4.728   5.489
  460WAT      O 2441   7.980   5.203   5.363
  460WAT     H1 2442   7.990   5.183   5.270
  460WAT     H2 2443   7.890   5.178   5.383
  461WAT      O 2444   7.732   4.259   5.761
  461WAT     H1 2445   7.662   4.306   5.805
  461WAT     H2 2446   7.761   4.193   5.825
  462WAT      O 2447   7.844   5.455   5.832
  462WAT     H1 2448   7.870   5.451   5.740
  462WAT     H2 2449   7.749   5.443   5.832
  463WAT      O 2450   7.553   4.090   5.499
  463WAT     H1 2451   7.638   4.134   5.492
  463WAT     H2 2452   7.516   4.121   5.581
  464WAT      O 2453   7.443   4.715   5.346
  464WAT     H1 2454   7.519   4.704   5.402
  464WAT     H2 2455   7.450   4.646   5.281
  465WAT      O 2456   7.312   4.459   5.414
  465WAT     H1 2457   7.320   4.364   5.426
  465WAT     H2 2458   7.401   4.492   5.425
  466WAT      O 2459   7.392   5.474   6.125
  466WAT     H1 2460   7.466   5.419   6.152
  466WAT     H2 2461   7.431   5.560   6.111
  467WAT      O 2462   7.081   5.080   5.712
  467WAT     H1 2463   6.988   5.105   5.711
  467WAT     H2 2464   7.127   5.163   5.700
  468WAT      O 2465   7.703   5.391   5.307
  468WAT     H1 2466   7.783   5.420   5.262
  468WAT     H2 2467   7.651   5.348   5.239
  469WAT      O 2468   7.755   4.913   5.293
  469WAT     H1 2469   7.745   4.851   5.366
  469WAT     H2 2470   7.738   4.861   5.215
  470WAT      O 2471   8.079   4.819   5.354
  470WAT     H1 2472   8.024   4.864   5.418
  470WAT     H2 2473   8.141   4.769   5.406
  471WAT      O 2474   7.646   4.715   5.543
  471WAT     H1 2475   7.688   4.698   5.628
  471WAT     H2 2476   7.658   4.634   5.494
  472WAT      O 2477   7.897   4.617   5.268
  472WAT     H1 2478   7.949   4.546   5.232
  472WAT     H2 2479   7.962   4.681   5.298
  473WAT      O 2480   7.535   4.322   5.238
  473WAT     H1 2481   7.515   4.236   5.274
  473WAT     H2 2482   7.518   4.314   5.144
  474WAT      O 2483   7.415   4.032   5.237
  474WAT     H1 2484   7.446   4.033   5.146
  474WAT     H2 2485   7.489   3.997   5.286
  475WAT      O 2486   7.737   3.927   5.335
  475WAT     H1 2487   7.702   3.859   5.277
  475WAT     H2 2488   7.757   3.881   5.417
  476WAT      O 2489   7.954   5.426   5.497
  476WAT     H1 2490   8.043   5.459   5.499
  476WAT     H2 2491   7.957   5.353   5.434
  477WAT      O 2492   7.318   4.963   5.320
  477WAT     H1 2493   7.361   5.017   5.386
  477WAT     H2 2494   7.366   4.880   5.321
  478WAT      O 2495   7.039   5.242   6.065
  478WAT     H1 2496   7.072   5.155   6.042
  478WAT     H2 2497   7.082   5.262   6.148
  479WAT      O 2498   7.499   5.075   5.831
  479WAT     H1 2499   7.469   5.062   5.921
  479WAT     H2 2500   7.488   4.989   5.790
  480WAT      O 2501   7.088   5.328   6.339
  480WAT     H1 2502   7.044   5.346   6.422
  480WAT     H2 2503   7.145   5.404   6.325
  481WAT      O 2504   7.071   4.580   5.975
  481WAT     H1 2505   7.006   4.553   5.911
  481WAT     H2 2506   7.155   4.569   5.930
  482WAT      O 2507   7.175   4.618   6.429
  482WAT     H1 2508   7.212   4.609   6.517
  482WAT     H2 2509   7.118   4.542   6.419
  483WAT      O 2510   6.993   4.301   5.569
  483WAT     H1 2511   6.902   4.327   5.552
  483WAT     H2 2512   7.041   4.328   5.491
  484WAT      O 2513   7.247   4.206   5.360
  484WAT     H1 2514   7.318   4.164   5.312
  484WAT     H2 2515   7.175   4.213   5.297
  485WAT      O 2516   7.212   3.812   5.264
  485WAT     H1 2517   7.284   3.866   5.296
  485WAT     H2 2518   7.239   3.784   5.177
  486WAT      O 2519   7.181   3.737   6.254
  486WAT     H1 2520   7.245   3.682   6.210
  486WAT     H2 2521   7.223   3.762   6.337
  487WAT      O 2522   7.687   5.225   6.505
  487WAT     H1 2523   7.662   5.252   6.417
  487WAT     H2 2524   7.781   5.242   6.511
  488WAT      O 2525   7.624   5.322   6.231
  488WAT     H1 2526   7.676   5.261   6.178
  488WAT     H2 2527   7.689   5.372   6.280
  489WAT      O 2528   7.898   5.411   6.313
  489WAT     H1 2529   7.927   5.386   6.226
  489WAT     H2 2530   7.949   5.356   6.373
  490WAT      O 2531   8.020   3.785   6.371
  490WAT     H1 2532   7.941   3.833   6.399
  490WAT     H2 2533   7.990   3.695   6.361
  491WAT      O 2534   7.092   5.432   5.873
  491WAT     H1 2535   7.075   5.369   5.943
  491WAT     H2 2536   7.005   5.453   5.838
  492WAT      O 2537   7.154   3.816   5.624
  492WAT     H1 2538   7.230   3.827   5.566
  492WAT     H2 2539   7.108   3.899   5.619
  493WAT      O 2540   7.808   4.027   5.923
  493WAT     H1 2541   7.727   3.990   5.889
  493WAT     H2 2542   7.859   3.951   5.953
  494WAT      O 2543   7.252   5.302   5.618
  494WAT     H1 2544   7.200   5.340   5.547
  494WAT     H2 2545   7.245   5.364   5.690
  495WAT      O 2546   7.391   3.868   5.478
  495WAT     H1 2547   7.444   3.789   5.465
  495WAT     H2 2548   7.455   3.936   5.501
  496WAT      O 2549   7.611   3.842   5.783
  496WAT     H1 2550   7.548   3.772   5.800
  496WAT     H2 2551   7.557   3.918   5.761
  497WAT      O 2552   7.512   5.497   5.505
  497WAT     H1 2553   7.586   5.468   5.450
  497WAT     H2 2554   7.538   5.473   5.594
  498WAT      O 2555   7.429   5.108   5.506
  498WAT     H1 2556   7.366   5.155   5.561
  498WAT     H2 2557   7.440   5.024   5.549
  499WAT      O 2558   7.987   4.691   4.309
  499WAT     H1 2559   7.910   4.643   4.338
  499WAT     H2 2560   8.052   4.623   4.291
  500WAT      O 2561   7.389   4.722   4.397
  500WAT     H1 2562   7.306   4.697   4.437
  500WAT     H2 2563   7.450   4.729   4.470
  501WAT      O 2564   7.387   5.126   4.416
  501WAT     H1 2565   7.417   5.037   4.398
  501WAT     H2 2566   7.461   5.181   4.393
  502WAT      O 2567   7.230   4.218   3.775
  502WAT     H1 2568   7.141   4.252   3.765
  502WAT     H2 2569   7.258   4.198   3.686
  503WAT      O 2570   7.026   4.478   4.363
  503WAT     H1 2571   7.083   4.402   4.363
  503WAT     H2 2572   7.026   4.508   4.272
  504WAT      O 2573   8.012   5.360   4.149
  504WAT     H1 2574   7.950   5.406   4.092
  504WAT     H2 2575   8.097   5.376   4.109
  505WAT      O 2576   7.931   4.959   4.310
  505WAT     H1 2577   7.924   4.865   4.293
  505WAT     H2 2578   8.007   4.968   4.367
  506WAT      O 2579   7.150   4.019   4.542
  506WAT     H1 2580   7.132   3.929   4.570
  506WAT     H2 2581   7.110   4.074   4.610
  507WAT      O 2582   8.034   4.239   4.332
  507WAT     H1 2583   8.072   4.152   4.321
  507WAT     H2 2584   8.025   4.273   4.243
  508WAT      O 2585   7.447   4.077   3.878
  508WAT     H1 2586   7.458   4.167   3.909
  508WAT     H2 2587   7.356   4.072   3.849
  509WAT      O 2588   7.212   4.269   4.403
  509WAT     H1 2589   7.280   4.295   4.465
  509WAT     H2 2590   7.181   4.185   4.436
  510WAT      O 2591   7.631   4.373   4.312
  510WAT     H1 2592   7.682   4.423   4.376
  510WAT     H2 2593   7.685   4.296   4.294
  511WAT      O 2594   7.460   3.837   4.738
  511WAT     H1 2595   7.460   3.889   4.658
  511WAT     H2 2596   7.377   3.790   4.736
  512WAT      O 2597   8.099   4.849   3.888
  512WAT     H1 2598   8.037   4.895   3.832
  512WAT     H2 2599   8.150   4.918   3.930
  513WAT      O 2600   7.585   4.801   4.556
  513WAT     H1 2601   7.552   4.864   4.620
  513WAT     H2 2602   7.603   4.854   4.478
  514WAT      O 2603   7.428   4.009   4.539
  514WAT     H1 2604   7.462   4.093   4.510
  514WAT     H2 2605   7.334   4.023   4.551
  515WAT      O 2606   7.506   4.998   4.738
  515WAT     H1 2607   7.568   5.066   4.709
  515WAT     H2 2608   7.420   5.039   4.728
  516WAT      O 2609   7.035   4.917   3.626
  516WAT     H1 2610   6.998   4.966   3.552
  516WAT     H2 2611   7.061   4.984   3.689
  517WAT      O 2612   7.796   3.757   4.171
  517WAT     H1 2613   7.827   3.702   4.100
  517WAT     H2 2614   7.703   3.771   4.153
  518WAT      O 2615   8.035   4.564   3.845
  518WAT     H1 2616   7.942   4.557   3.868
  518WAT     H2 2617   8.050   4.658   3.834
  519WAT      O 2618   8.034   4.191   3.545
  519WAT     H1 2619   7.940   4.207   3.553
  519WAT     H2 2620   8.066   4.263   3.490
  520WAT      O 2621   7.596   4.616   4.123
  520WAT     H1 2622   7.555   4.545   4.074
  520WAT     H2 2623   7.604   4.582   4.212
  521WAT      O 2624   7.642   4.985   4.340
  521WAT     H1 2625   7.613   4.925   4.272
  521WAT     H2 2626   7.737   4.989   4.329
  522WAT      O 2627   7.467   4.294   4.501
  522WAT     H1 2628   7.522   4.305   4.424
  522WAT     H2 2629   7.518   4.331   4.573
  523WAT      O 2630   7.552   4.959   5.005
  523WAT     H1 2631   7.462   4.981   5.029
  523WAT     H2 2632   7.554   4.971   4.910
  524WAT      O 2633   7.434   4.646   4.862
  524WAT     H1 2634   7.420   4.733   4.899
  524WAT     H2 2635   7.346   4.612   4.848
  525WAT      O 2636   8.067   5.138   3.993
  525WAT     H1 2637   8.111   5.212   3.951
  525WAT     H2 2638   8.061   5.162   4.085
  526WAT      O 2639   7.614   5.240   5.083
  526WAT     H1 2640   7.611   5.281   4.996
  526WAT     H2 2641   7.598   5.147   5.067
  527WAT      O 2642   7.266   4.506   3.873
  527WAT     H1 2643   7.254   4.579   3.812
  527WAT     H2 2644   7.235   4.429   3.826
  528WAT      O 2645   7.030   4.823   4.454
  528WAT     H1 2646   7.037   4.837   4.360
  528WAT     H2 2647   7.091   4.752   4.473
  529WAT      O 2648   7.154   4.993   4.095
  529WAT     H1 2649   7.113   5.007   4.010
  529WAT     H2 2650   7.243   4.965   4.075
  530WAT      O 2651   7.581   5.415   3.906
  530WAT     H1 2652   7.564   5.323   3.885
  530WAT     H2 2653   7.496   5.450   3.930
  531WAT      O 2654   7.035   4.927   4.708
  531WAT     H1 2655   7.051   4.880   4.626
  531WAT     H2 2656   7.082   4.876   4.774
  532WAT      O 2657   7.512   3.840   4.212
  532WAT     H1 2658   7.468   3.918   4.178
  532WAT     H2 2659   7.568   3.873   4.282
  533WAT      O 2660   7.941   4.127   4.772
  533WAT     H1 2661   7.895   4.148   4.853
  533WAT     H2 2662   7.901   4.046   4.742
  534WAT      O 2663   7.824   3.802   3.700
  534WAT     H1 2664   7.761   3.802   3.772
  534WAT     H2 2665   7.815   3.716   3.660
  535WAT      O 2666   7.716   3.895   4.397
  535WAT     H1 2667   7.746   3.985   4.389
  535WAT     H2 2668   7.771   3.846   4.336
  536WAT      O 2669   7.491   4.353   3.984
  536WAT     H1 2670   7.469   4.331   4.075
  536WAT     H2 2671   7.413   4.396   3.950
  537WAT      O 2672   7.735   4.442   5.051
  537WAT     H1 2673   7.726   4.348   5.036
  537WAT     H2 2674   7.820   4.465   5.011
  538WAT      O 2675   8.075   4.217   4.047
  538WAT     H1 2676   8.114   4.249   3.966
  538WAT     H2 2677   8.111   4.129   4.059
  539WAT      O 2678   7.249   4.084   4.866
  539WAT     H1 2679   7.209   4.168   4.887
  539WAT     H2 2680   7.180   4.020   4.885
  540WAT      O 2681   7.906   4.092   5.173
  540WAT     H1 2682   7.837   4.073   5.237
  540WAT     H2 2683   7.980   4.120   5.226
  541WAT      O 2684   6.979   3.876   4.270
  541WAT     H1 2685   6.950   3.933   4.341
  541WAT     H2 2686   7.053   3.828   4.306
  542WAT      O 2687   6.997   4.270   3.391
  542WAT     H1 2688   6.989   4.364   3.405
  542WAT     H2 2689   6.962   4.256   3.303
  543WAT      O 2690   8.134   4.476   4.457
  543WAT     H1 2691   8.060   4.527   4.492
  543WAT     H2 2692   8.094   4.394   4.427
  544WAT      O 2693   7.777   4.143   4.297
  544WAT     H1 2694   7.778   4.099   4.212
  544WAT     H2 2695   7.867   4.176   4.308
  545WAT      O 2696   7.362   4.132   4.193
  545WAT     H1 2697   7.328   4.179   4.269
  545WAT     H2 2698   7.286   4.086   4.157
  546WAT      O 2699   7.784   4.244   3.596
  546WAT     H1 2700   7.796   4.239   3.691
  546WAT     H2 2701   7.745   4.330   3.581
  547WAT      O 2702   7.685   4.475   3.536
  547WAT     H1 2703   7.628   4.430   3.474
  547WAT     H2 2704   7.756   4.511   3.483
  548WAT      O 2705   7.193   4.865   4.924
  548WAT     H1 2706   7.154   4.801   4.984
  548WAT     H2 2707   7.224   4.935   4.981
  549WAT      O 2708   7.807   4.549   4.472
  549WAT     H1 2709   7.844   4.502   4.547
  549WAT     H2 2710   7.789   4.637   4.506
  550WAT      O 2711   7.094   4.024   4.085
  550WAT     H1 2712   7.065   3.987   4.169
  550WAT     H2 2713   7.088   3.951   4.024
  551WAT      O 2714   7.586   4.454   4.704
  551WAT     H1 2715   7.556   4.542   4.726
  551WAT     H2 2716   7.682   4.460   4.707
  552WAT      O 2717   7.439   4.874   3.763
  552WAT     H1 2718   7.362   4.820   3.747
  552WAT     H2 2719   7.512   4.822   3.730
  553WAT      O 2720   8.061   3.913   3.757
  553WAT     H1 2721   7.980   3.863   3.749
  553WAT     H2 2722   8.042   3.997   3.715
  554WAT      O 2723   8.053   4.781   4.931
  554WAT     H1 2724   8.047   4.689   4.906
  554WAT     H2 2725   7.990   4.791   5.003
  555WAT      O 2726   7.444   4.841   4.127
  555WAT     H1 2727   7.495   4.761   4.122
  555WAT     H2 2728   7.399   4.835   4.211
  556WAT      O 2729   7.932   4.968   3.655
  556WAT     H1 2730   7.967   5.042   3.605
  556WAT     H2 2731   7.849   4.999   3.691
  557WAT      O 2732   7.192   4.538   4.819
  557WAT     H1 2733   7.156   4.604   4.877
  557WAT     H2 2734   7.163   4.454   4.856
  558WAT      O 2735   7.512   4.583   5.107
  558WAT     H1 2736   7.482   4.598   5.017
  558WAT     H2 2737   7.589   4.528   5.098
  559WAT      O 2738   8.047   5.063   4.906
  559WAT     H1 2739   8.048   4.970   4.885
  559WAT     H2 2740   7.976   5.072   4.970
  560WAT      O 2741   7.829   4.976   3.932
  560WAT     H1 2742   7.898   5.030   3.970
  560WAT     H2 2743   7.751   5.030   3.935
  561WAT      O 2744   7.043   4.538   3.481
  561WAT     H1 2745   7.130   4.566   3.509
  561WAT     H2 2746   6.994   4.619   3.469
  562WAT      O 2747   7.760   4.676   3.893
  562WAT     H1 2748   7.805   4.757   3.916
  562WAT     H2 2749   7.724   4.644   3.976
  563WAT      O 2750   7.990   5.227   4.616
  563WAT     H1 2751   8.054   5.248   4.684
  563WAT     H2 2752   8.026   5.151   4.571
  564WAT      O 2753   7.350   3.711   3.940
  564WAT     H1 2754   7.337   3.710   4.035
  564WAT     H2 2755   7.267   3.744   3.905
  565WAT      O 2756   7.080   5.459   3.537
  565WAT     H1 2757   7.116   5.519   3.472
  565WAT     H2 2758   7.066   5.513   3.615
  566WAT      O 2759   7.050   3.887   4.886
  566WAT     H1 2760   6.978   3.907   4.947
  566WAT     H2 2761   7.092   3.809   4.923
  567WAT      O 2762   7.078   5.285   4.985
  567WAT     H1 2763   7.089   5.191   4.971
  567WAT     H2 2764   7.013   5.312   4.920
  568WAT      O 2765   7.877   5.113   5.125
  568WAT     H1 2766   7.845   5.041   5.179
  568WAT     H2 2767   7.810   5.180   5.132
  569WAT      O 2768   7.682   5.197   3.619
  569WAT     H1 2769   7.681   5.270   3.558
  569WAT     H2 2770   7.590   5.172   3.628
  570WAT      O 2771   7.242   4.719   3.694
  570WAT     H1 2772   7.181   4.793   3.695
  570WAT     H2 2773   7.289   4.728   3.611
  571WAT      O 2774   7.980   5.203   3.485
  571WAT     H1 2775   7.990   5.183   3.392
  571WAT     H2 2776   7.890   5.178   3.506
  572WAT      O 2777   7.732   4.259   3.884
  572WAT     H1 2778   7.662   4.306   3.928
  572WAT     H2 2779   7.761   4.193   3.947
  573WAT      O 2780   7.895   4.401   4.684
  573WAT     H1 2781   7.945   4.449   4.750
  573WAT     H2 2782   7.909   4.309   4.704
  574WAT      O 2783   7.844   5.455   3.955
  574WAT     H1 2784   7.870   5.451   3.863
  574WAT     H2 2785   7.749   5.443   3.954
  575WAT      O 2786   7.553   4.090   3.621
  575WAT     H1 2787   7.638   4.134   3.615
  575WAT     H2 2788   7.516   4.121   3.704
  576WAT      O 2789   7.443   4.715   3.469
  576WAT     H1 2790   7.519   4.704   3.525
  576WAT     H2 2791   7.450   4.646   3.403
  577WAT      O 2792   7.312   4.459   3.537
  577WAT     H1 2793   7.320   4.364   3.548
  577WAT     H2 2794   7.401   4.492   3.548
  578WAT      O 2795   7.392   5.474   4.247
  578WAT     H1 2796   7.466   5.419   4.274
  578WAT     H2 2797   7.431   5.560   4.233
  579WAT      O 2798   7.081   5.080   3.835
  579WAT     H1 2799   6.988   5.105   3.834
  579WAT     H2 2800   7.127   5.163   3.823
  580WAT      O 2801   7.293   5.392   5.166
  580WAT     H1 2802   7.373   5.424   5.207
  580WAT     H2 2803   7.241   5.356   5.238
  581WAT      O 2804   7.703   5.391   3.430
  581WAT     H1 2805   7.783   5.420   3.384
  581WAT     H2 2806   7.651   5.348   3.362
  582WAT      O 2807   7.065   4.641   5.060
  582WAT     H1 2808   7.115   4.583   5.118
  582WAT     H2 2809   6.991   4.669   5.114
  583WAT      O 2810   7.755   4.913   3.416
  583WAT     H1 2811   7.745   4.851   3.489
  583WAT     H2 2812   7.738   4.861   3.338
  584WAT      O 2813   7.770   4.781   5.014
  584WAT     H1 2814   7.694   4.838   5.005
  584WAT     H2 2815   7.788   4.752   4.925
  585WAT      O 2816   8.079   4.819   3.476
  585WAT     H1 2817   8.024   4.864   3.541
  585WAT     H2 2818   8.141   4.769   3.529
  586WAT      O 2819   7.268   4.455   5.150
  586WAT     H1 2820   7.272   4.425   5.241
  586WAT     H2 2821   7.354   4.495   5.134
  587WAT      O 2822   7.646   4.715   3.666
  587WAT     H1 2823   7.688   4.698   3.750
  587WAT     H2 2824   7.658   4.634   3.617
  588WAT      O 2825   7.462   4.313   4.947
  588WAT     H1 2826   7.409   4.264   4.884
  588WAT     H2 2827   7.529   4.356   4.893
  589WAT      O 2828   7.897   4.617   3.391
  589WAT     H1 2829   7.949   4.546   3.354
  589WAT     H2 2830   7.962   4.681   3.421
  590WAT      O 2831   7.511   4.010   4.955
  590WAT     H1 2832   7.501   3.948   4.882
  590WAT     H2 2833   7.453   4.082   4.932
  591WAT      O 2834   7.788   3.865   4.658
  591WAT     H1 2835   7.743   3.868   4.573
  591WAT     H2 2836   7.724   3.826   4.718
  592WAT      O 2837   7.828   4.755   4.720
  592WAT     H1 2838   7.870   4.839   4.703
  592WAT     H2 2839   7.736   4.769   4.697
  593WAT      O 2840   8.062   4.528   4.858
  593WAT     H1 2841   8.074   4.468   4.932
  593WAT     H2 2842   8.148   4.532   4.816
  594WAT      O 2843   7.535   4.322   3.361
  594WAT     H1 2844   7.515   4.236   3.397
  594WAT     H2 2845   7.518   4.314   3.267
  595WAT      O 2846   7.613   5.385   4.832
  595WAT     H1 2847   7.559   5.458   4.800
  595WAT     H2 2848   7.639   5.338   4.753
  596WAT      O 2849   7.738   4.182   4.984
  596WAT     H1 2850   7.797   4.151   5.053
  596WAT     H2 2851   7.657   4.135   5.000
  597WAT      O 2852   7.415   4.032   3.359
  597WAT     H1 2853   7.446   4.033   3.269
  597WAT     H2 2854   7.489   3.997   3.409
  598WAT      O 2855   7.899   5.509   4.858
  598WAT     H1 2856   7.891   5.599   4.888
  598WAT     H2 2857   7.809   5.477   4.855
  599WAT      O 2858   7.737   3.927   3.458
  599WAT     H1 2859   7.702   3.859   3.400
  599WAT     H2 2860   7.757   3.881   3.539
  600WAT      O 2861   7.954   5.426   3.620
  600WAT     H1 2862   8.043   5.459   3.622
  600WAT     H2 2863   7.957   5.353   3.557
  601WAT      O 2864   7.318   4.963   3.443
  601WAT     H1 2865   7.361   5.017   3.508
  601WAT     H2 2866   7.366   4.880   3.444
  602WAT      O 2867   7.039   5.242   4.188
  602WAT     H1 2868   7.072   5.155   4.165
  602WAT     H2 2869   7.082   5.262   4.271
  603WAT      O 2870   7.499   5.075   3.954
  603WAT     H1 2871   7.469   5.062   4.044
  603WAT     H2 2872   7.488   4.989   3.913
  604WAT      O 2873   7.088   5.328   4.462
  604WAT     H1 2874   7.044   5.346   4.545
  604WAT     H2 2875   7.145   5.404   4.447
  605WAT      O 2876   7.071   4.580   4.098
  605WAT     H1 2877   7.006   4.553   4.033
  605WAT     H2 2878   7.155   4.569   4.053
  606WAT      O 2879   7.175   4.618   4.552
  606WAT     H1 2880   7.212   4.609   4.640
  606WAT     H2 2881   7.118   4.542   4.542
  607WAT      O 2882   7.130   4.309   4.942
  607WAT     H1 2883   7.041   4.306   4.976
  607WAT     H2 2884   7.184   4.329   5.019
  608WAT      O 2885   6.993   4.301   3.692
  608WAT     H1 2886   6.902   4.327   3.674
  608WAT     H2 2887   7.041   4.328   3.614
  609WAT      O 2888   7.247   4.206   3.483
  609WAT     H1 2889   7.318   4.164   3.434
  609WAT     H2 2890   7.175   4.213   3.420
  610WAT      O 2891   7.212   3.812   3.387
  610WAT     H1 2892   7.284   3.866   3.419
  610WAT     H2 2893   7.239   3.784   3.299
  611WAT      O 2894   7.181   3.737   4.377
  611WAT     H1 2895   7.245   3.682   4.333
  611WAT     H2 2896   7.223   3.762   4.459
  612WAT      O 2897   7.156   3.752   4.651
  612WAT     H1 2898   7.121   3.798   4.728
  612WAT     H2 2899   7.123   3.663   4.659
  613WAT      O 2900   7.317   5.069   5.068
  613WAT     H1 2901   7.312   5.032   5.156
  613WAT     H2 2902   7.330   5.163   5.082
  614WAT      O 2903   7.687   5.225   4.628
  614WAT     H1 2904   7.662   5.252   4.539
  614WAT     H2 2905   7.781   5.242   4.633
  615WAT      O 2906   7.907   3.871   5.003
  615WAT     H1 2907   7.901   3.931   5.078
  615WAT     H2 2908   8.001   3.861   4.989
  616WAT      O 2909   7.223   3.705   4.979
  616WAT     H1 2910   7.278   3.687   4.902
  616WAT     H2 2911   7.230   3.626   5.032
  617WAT      O 2912   7.300   5.364   4.780
  617WAT     H1 2913   7.241   5.351   4.854
  617WAT     H2 2914   7.300   5.280   4.733
  618WAT      O 2915   7.264   5.101   4.675
  618WAT     H1 2916   7.191   5.039   4.668
  618WAT     H2 2917   7.270   5.140   4.588
  619WAT      O 2918   7.624   5.322   4.353
  619WAT     H1 2919   7.676   5.261   4.301
  619WAT     H2 2920   7.689   5.372   4.402
  620WAT      O 2921   7.898   5.411   4.436
  620WAT     H1 2922   7.927   5.386   4.348
  620WAT     H2 2923   7.949   5.356   4.495
  621WAT      O 2924   8.020   3.785   4.494
  621WAT     H1 2925   7.941   3.833   4.522
  621WAT     H2 2926   7.990   3.695   4.483
  622WAT      O 2927   7.092   5.432   3.996
  622WAT     H1 2928   7.075   5.369   4.066
  622WAT     H2 2929   7.005   5.453   3.961
  623WAT      O 2930   7.154   3.816   3.746
  623WAT     H1 2931   7.230   3.827   3.689
  623WAT     H2 2932   7.108   3.899   3.742
  624WAT      O 2933   7.808   4.027   4.045
  624WAT     H1 2934   7.727   3.990   4.011
  624WAT     H2 2935   7.859   3.951   4.075
  625WAT      O 2936   7.252   5.302   3.740
  625WAT     H1 2937   7.200   5.340   3.670
  625WAT     H2 2938   7.245   5.364   3.812
  626WAT      O 2939   7.391   3.868   3.600
  626WAT     H1 2940   7.444   3.789   3.587
  626WAT     H2 2941   7.455   3.936   3.624
  627WAT      O 2942   7.611   3.842   3.906
  627WAT     H1 2943   7.548   3.772   3.922
  627WAT     H2 2944   7.557   3.918   3.884
  628WAT      O 2945   7.905   5.503   5.173
  628WAT     H1 2946   7.997   5.480   5.177
  628WAT     H2 2947   7.903   5.586   5.125
  629WAT      O 2948   7.623   3.770   5.149
  629WAT     H1 2949   7.595   3.820   5.073
  629WAT     H2 2950   7.661   3.690   5.113
  630WAT      O 2951   7.512   5.497   3.628
  630WAT     H1 2952   7.586   5.468   3.573
  630WAT     H2 2953   7.538   5.473   3.717
  631WAT      O 2954   7.429   5.108   3.628
  631WAT     H1 2955   7.366   5.155   3.683
  631WAT     H2 2956   7.440   5.024   3.672
  632WAT      O 2957   7.987   4.691   2.431
  632WAT     H1 2958   7.910   4.643   2.460
  632WAT     H2 2959   8.052   4.623   2.414
  633WAT      O 2960   7.389   4.722   2.519
  633WAT     H1 2961   7.306   4.697   2.559
  633WAT     H2 2962   7.450   4.729   2.593
  634WAT      O 2963   7.387   5.126   2.539
  634WAT     H1 2964   7.417   5.037   2.521
  634WAT     H2 2965   7.461   5.181   2.516
  635WAT      O 2966   7.230   4.218   1.898
  635WAT     H1 2967   7.141   4.252   1.887
  635WAT     H2 2968   7.258   4.198   1.808
  636WAT      O 2969   7.026   4.478   2.486
  636WAT     H1 2970   7.083   4.402   2.486
  636WAT     H2 2971   7.026   4.508   2.395
  637WAT      O 2972   8.012   5.360   2.271
  637WAT     H1 2973   7.950   5.406   2.214
  637WAT     H2 2974   8.097   5.376   2.231
  638WAT      O 2975   7.931   4.959   2.432
  638WAT     H1 2976   7.924   4.865   2.416
  638WAT     H2 2977   8.007   4.968   2.489
  639WAT      O 2978   7.150   4.019   2.665
  639WAT     H1 2979   7.132   3.929   2.693
  639WAT     H2 2980   7.110   4.074   2.732
  640WAT      O 2981   8.034   4.239   2.455
  640WAT     H1 2982   8.072   4.152   2.444
  640WAT     H2 2983   8.025   4.273   2.366
  641WAT      O 2984   7.447   4.077   2.001
  641WAT     H1 2985   7.458   4.167   2.032
  641WAT     H2 2986   7.356   4.072   1.972
  642WAT      O 2987   7.212   4.269   2.525
  642WAT     H1 2988   7.280   4.295   2.587
  642WAT     H2 2989   7.181   4.185   2.559
  643WAT      O 2990   7.631   4.373   2.434
  643WAT     H1 2991   7.682   4.423   2.498
  643WAT     H2 2992   7.685   4.296   2.417
  644WAT      O 2993   7.460   3.837   2.861
  644WAT     H1 2994   7.460   3.889   2.780
  644WAT     H2 2995   7.377   3.790   2.859
  645WAT      O 2996   8.099   4.849   2.011
  645WAT     H1 2997   8.037   4.895   1.954
  645WAT     H2 2998   8.150   4.918   2.052
  646WAT      O 2999   7.585   4.801   2.679
  646WAT     H1 3000   7.552   4.864   2.743
  646WAT     H2 3001   7.603   4.854   2.601
  647WAT      O 3002   7.428   4.009   2.662
  647WAT     H1 3003   7.462   4.093   2.632
  647WAT     H2 3004   7.334   4.023   2.673
  648WAT      O 3005   7.506   4.998   2.860
  648WAT     H1 3006   7.568   5.066   2.832
  648WAT     H2 3007   7.420   5.039   2.851
  649WAT      O 3008   7.035   4.917   1.748
  649WAT     H1 3009   6.998   4.966   1.675
  649WAT     H2 3010   7.061   4.984   1.811
  650WAT      O 3011   7.796   3.757   2.294
  650WAT     H1 3012   7.827   3.702   2.222
  650WAT     H2 3013   7.703   3.771   2.276
  651WAT      O 3014   8.035   4.564   1.968
  651WAT     H1 3015   7.942   4.557   1.990
  651WAT     H2 3016   8.050   4.658   1.956
  652WAT      O 3017   8.034   4.191   1.667
  652WAT     H1 3018   7.940   4.207   1.676
  652WAT     H2 3019   8.066   4.263   1.613
  653WAT      O 3020   7.596   4.616   2.246
  653WAT     H1 3021   7.555   4.545   2.196
  653WAT     H2 3022   7.604   4.582   2.335
  654WAT      O 3023   7.642   4.985   2.462
  654WAT     H1 3024   7.613   4.925   2.394
  654WAT     H2 3025   7.737   4.989   2.451
  655WAT      O 3026   7.467   4.294   2.624
  655WAT     H1 3027   7.522   4.305   2.546
  655WAT     H2 3028   7.518   4.331   2.695
  656WAT      O 3029   7.552   4.959   3.127
  656WAT     H1 3030   7.462   4.981   3.152
  656WAT     H2 3031   7.554   4.971   3.032
  657WAT      O 3032   7.434   4.646   2.985
  657WAT     H1 3033   7.420   4.733   3.022
  657WAT     H2 3034   7.346   4.612   2.970
  658WAT      O 3035   8.067   5.138   2.115
  658WAT     H1 3036   8.111   5.212   2.074
  658WAT     H2 3037   8.061   5.162   2.208
  659WAT      O 3038   7.614   5.240   3.206
  659WAT     H1 3039   7.611   5.281   3.119
  659WAT     H2 3040   7.598   5.147   3.189
  660WAT      O 3041   7.266   4.506   1.996
  660WAT     H1 3042   7.254   4.579   1.935
  660WAT     H2 3043   7.235   4.429   1.948
  661WAT      O 3044   7.030   4.823   2.577
  661WAT     H1 3045   7.037   4.837   2.482
  661WAT     H2 3046   7.091   4.752   2.596
  662WAT      O 3047   7.154   4.993   2.218
  662WAT     H1 3048   7.113   5.007   2.132
  662WAT     H2 3049   7.243   4.965   2.197
  663WAT      O 3050   7.581   5.415   2.029
  663WAT     H1 3051   7.564   5.323   2.008
  663WAT     H2 3052   7.496   5.450   2.053
  664WAT      O 3053   7.035   4.927   2.830
  664WAT     H1 3054   7.051   4.880   2.749
  664WAT     H2 3055   7.082   4.876   2.897
  665WAT      O 3056   7.512   3.840   2.334
  665WAT     H1 3057   7.468   3.918   2.301
  665WAT     H2 3058   7.568   3.873   2.405
  666WAT      O 3059   7.941   4.127   2.894
  666WAT     H1 3060   7.895   4.148   2.976
  666WAT     H2 3061   7.901   4.046   2.864
  667WAT      O 3062   7.824   3.802   1.822
  667WAT     H1 3063   7.761   3.802   1.895
  667WAT     H2 3064   7.815   3.716   1.783
  668WAT      O 3065   7.716   3.895   2.520
  668WAT     H1 3066   7.746   3.985   2.512
  668WAT     H2 3067   7.771   3.846   2.459
  669WAT      O 3068   7.491   4.353   2.107
  669WAT     H1 3069   7.469   4.331   2.197
  669WAT     H2 3070   7.413   4.396   2.072
  670WAT      O 3071   7.735   4.442   3.174
  670WAT     H1 3072   7.726   4.348   3.159
  670WAT     H2 3073   7.820   4.465   3.134
  671WAT      O 3074   8.075   4.217   2.170
  671WAT     H1 3075   8.114   4.249   2.089
  671WAT     H2 3076   8.111   4.129   2.181
  672WAT      O 3077   7.249   4.084   2.989
  672WAT     H1 3078   7.209   4.168   3.010
  672WAT     H2 3079   7.180   4.020   3.008
  673WAT      O 3080   7.906   4.092   3.296
  673WAT     H1 3081   7.837   4.073   3.359
  673WAT     H2 3082   7.980   4.120   3.349
  674WAT      O 3083   6.979   3.876   2.392
  674WAT     H1 3084   6.950   3.933   2.463
  674WAT     H2 3085   7.053   3.828   2.428
  675WAT      O 3086   6.997   4.270   1.513
  675WAT     H1 3087   6.989   4.364   1.527
  675WAT     H2 3088   6.962   4.256   1.425
  676WAT      O 3089   8.134   4.476   2.579
  676WAT     H1 3090   8.060   4.527   2.614
  676WAT     H2 3091   8.094   4.394   2.549
  677WAT      O 3092   7.777   4.143   2.420
  677WAT     H1 3093   7.778   4.099   2.335
  677WAT     H2 3094   7.867   4.176   2.431
  678WAT      O 3095   7.362   4.132   2.316
  678WAT     H1 3096   7.328   4.179   2.391
  678WAT     H2 3097   7.286   4.086   2.280
  679WAT      O 3098   7.784   4.244   1.719
  679WAT     H1 3099   7.796   4.239   1.814
  679WAT     H2 3100   7.745   4.330   1.703
  680WAT      O 3101   7.685   4.475   1.659
  680WAT     H1 3102   7.628   4.430   1.596
  680WAT     H2 3103   7.756   4.511   1.605
  681WAT      O 3104   7.193   4.865   3.046
  681WAT     H1 3105   7.154   4.801   3.106
  681WAT     H2 3106   7.224   4.935   3.103
  682WAT      O 3107   7.807   4.549   2.595
  682WAT     H1 3108   7.844   4.502   2.669
  682WAT     H2 3109   7.789   4.637   2.629
  683WAT      O 3110   7.094   4.024   2.207
  683WAT     H1 3111   7.065   3.987   2.291
  683WAT     H2 3112   7.088   3.951   2.146
  684WAT      O 3113   7.586   4.454   2.826
  684WAT     H1 3114   7.556   4.542   2.849
  684WAT     H2 3115   7.682   4.460   2.830
  685WAT      O 3116   7.439   4.874   1.886
  685WAT     H1 3117   7.362   4.820   1.870
  685WAT     H2 3118   7.512   4.822   1.852
  686WAT      O 3119   8.061   3.913   1.880
  686WAT     H1 3120   7.980   3.863   1.872
  686WAT     H2 3121   8.042   3.997   1.838
  687WAT      O 3122   8.053   4.781   3.054
  687WAT     H1 3123   8.047   4.689   3.029
  687WAT     H2 3124   7.990   4.791   3.125
  688WAT      O 3125   7.444   4.841   2.250
  688WAT     H1 3126   7.495   4.761   2.244
  688WAT     H2 3127   7.399   4.835   2.334
  689WAT      O 3128   7.932   4.968   1.777
  689WAT     H1 3129   7.967   5.042   1.728
  689WAT     H2 3130   7.849   4.999   1.813
  690WAT      O 3131   7.192   4.538   2.941
  690WAT     H1 3132   7.156   4.604   3.000
  690WAT     H2 3133   7.163   4.454   2.978
  691WAT      O 3134   7.512   4.583   3.229
  691WAT     H1 3135   7.482   4.598   3.140
  691WAT     H2 3136   7.589   4.528   3.220
  692WAT      O 3137   8.047   5.063   3.029
  692WAT     H1 3138   8.048   4.970   3.007
  692WAT     H2 3139   7.976   5.072   3.093
  693WAT      O 3140   7.829   4.976   2.054
  693WAT     H1 3141   7.898   5.030   2.092
  693WAT     H2 3142   7.751   5.030   2.058
  694WAT      O 3143   7.043   4.538   1.603
  694WAT     H1 3144   7.130   4.566   1.632
  694WAT     H2 3145   6.994   4.619   1.592
  695WAT      O 3146   7.760   4.676   2.016
  695WAT     H1 3147   7.805   4.757   2.038
  695WAT     H2 3148   7.724   4.644   2.099
  696WAT      O 3149   7.990   5.227   2.738
  696WAT     H1 3150   8.054   5.248   2.806
  696WAT     H2 3151   8.026   5.151   2.693
  697WAT      O 3152   7.350   3.711   2.063
  697WAT     H1 3153   7.337   3.710   2.158
  697WAT     H2 3154   7.267   3.744   2.028
  698WAT      O 3155   7.080   5.459   1.660
  698WAT     H1 3156   7.116   5.519   1.595
  698WAT     H2 3157   7.066   5.513   1.737
  699WAT      O 3158   7.050   3.887   3.009
  699WAT     H1 3159   6.978   3.907   3.069
  699WAT     H2 3160   7.092   3.809   3.046
  700WAT      O 3161   7.078   5.285   3.107
  700WAT     H1 3162   7.089   5.191   3.093
  700WAT     H2 3163   7.013   5.312   3.043
  701WAT      O 3164   7.877   5.113   3.247
  701WAT     H1 3165   7.845   5.041   3.302
  701WAT     H2 3166   7.810   5.180   3.255
  702WAT      O 3167   7.682   5.197   1.742
  702WAT     H1 3168   7.681   5.270   1.680
  702WAT     H2 3169   7.590   5.172   1.751
  703WAT      O 3170   7.242   4.719   1.816
  703WAT     H1 3171   7.181   4.793   1.817
  703WAT     H2 3172   7.289   4.728   1.734
  704WAT      O 3173   7.980   5.203   1.608
  704WAT     H1 3174   7.990   5.183   1.515
  704WAT     H2 3175   7.890   5.178   1.629
  705WAT      O 3176   7.732   4.259   2.006
  705WAT     H1 3177   7.662   4.306   2.050
  705WAT     H2 3178   7.761   4.193   2.070
  706WAT      O 3179   7.895   4.401   2.806
  706WAT     H1 3180   7.945   4.449   2.873
  706WAT     H2 3181   7.909   4.309   2.827
  707WAT      O 3182   7.844   5.455   2.078
  707WAT     H1 3183   7.870   5.451   1.985
  707WAT     H2 3184   7.749   5.443   2.077
  708WAT      O 3185   7.553   4.090   1.744
  708WAT     H1 3186   7.638   4.134   1.737
  708WAT     H2 3187   7.516   4.121   1.827
  709WAT      O 3188   7.443   4.715   1.591
  709WAT     H1 3189   7.519   4.704   1.647
  709WAT     H2 3190   7.450   4.646   1.526
  710WAT      O 3191   7.312   4.459   1.659
  710WAT     H1 3192   7.320   4.364   1.671
  710WAT     H2 3193   7.401   4.492   1.670
  711WAT      O 3194   7.392   5.474   2.370
  711WAT     H1 3195   7.466   5.419   2.397
  711WAT     H2 3196   7.431   5.560   2.356
  712WAT      O 3197   7.081   5.080   1.957
  712WAT     H1 3198   6.988   5.105   1.956
  712WAT     H2 3199   7.127   5.163   1.945
  713WAT      O 3200   7.293   5.392   3.289
  713WAT     H1 3201   7.373   5.424   3.330
  713WAT     H2 3202   7.241   5.356   3.361
  714WAT      O 3203   7.703   5.391   1.552
  714WAT     H1 3204   7.783   5.420   1.507
  714WAT     H2 3205   7.651   5.348   1.484
  715WAT      O 3206   7.065   4.641   3.183
  715WAT     H1 3207   7.115   4.583   3.240
  715WAT     H2 3208   6.991   4.669   3.237
  716WAT      O 3209   7.755   4.913   1.538
  716WAT     H1 3210   7.745   4.851   1.611
  716WAT     H2 3211   7.738   4.861   1.460
  717WAT      O 3212   7.770   4.781   3.136
  717WAT     H1 3213   7.694   4.838   3.128
  717WAT     H2 3214   7.788   4.752   3.047
  718WAT      O 3215   8.079   4.819   1.599
  718WAT     H1 3216   8.024   4.864   1.663
  718WAT     H2 3217   8.141   4.769   1.651
  719WAT      O 3218   7.268   4.455   3.273
  719WAT     H1 3219   7.272   4.425   3.363
  719WAT     H2 3220   7.354   4.495   3.257
  720WAT      O 3221   7.646   4.715   1.789
  720WAT     H1 3222   7.688   4.698   1.873
  720WAT     H2 3223   7.658   4.634   1.739
  721WAT      O 3224   7.462   4.313   3.069
  721WAT     H1 3225   7.409   4.264   3.007
  721WAT     H2 3226   7.529   4.356   3.016
  722WAT      O 3227   7.897   4.617   1.513
  722WAT     H1 3228   7.949   4.546   1.477
  722WAT     H2 3229   7.962   4.681   1.543
  723WAT      O 3230   7.511   4.010   3.077
  723WAT     H1 3231   7.501   3.948   3.005
  723WAT     H2 3232   7.453   4.082   3.055
  724WAT      O 3233   7.788   3.865   2.781
  724WAT     H1 3234   7.743   3.868   2.696
  724WAT     H2 3235   7.724   3.826   2.840
  725WAT      O 3236   7.828   4.755   2.843
  725WAT     H1 3237   7.870   4.839   2.825
  725WAT     H2 3238   7.736   4.769   2.820
  726WAT      O 3239   8.062   4.528   2.981
  726WAT     H1 3240   8.074   4.468   3.055
  726WAT     H2 3241   8.148   4.532   2.939
  727WAT      O 3242   7.535   4.322   1.483
  727WAT     H1 3243   7.515   4.236   1.519
  727WAT     H2 3244   7.518   4.314   1.389
  728WAT      O 3245   7.613   5.385   2.954
  728WAT     H1 3246   7.559   5.458   2.922
  728WAT     H2 3247   7.639   5.338   2.875
  729WAT      O 3248   7.738   4.182   3.107
  729WAT     H1 3249   7.797   4.151   3.176
  729WAT     H2 3250   7.657   4.135   3.122
  730WAT      O 3251   7.415   4.032   1.482
  730WAT     H1 3252   7.446   4.033   1.391
  730WAT     H2 3253   7.489   3.997   1.532
  731WAT      O 3254   7.899   5.509   2.980
  731WAT     H1 3255   7.891   5.599   3.011
  731WAT     H2 3256   7.809   5.477   2.977
  732WAT      O 3257   7.737   3.927   1.580
  732WAT     H1 3258   7.702   3.859   1.523
  732WAT     H2 3259   7.757   3.881   1.662
  733WAT      O 3260   7.954   5.426   1.742
  733WAT     H1 3261   8.043   5.459   1.745
  733WAT     H2 3262   7.957   5.353   1.680
  734WAT      O 3263   7.318   4.963   1.565
  734WAT     H1 3264   7.361   5.017   1.631
  734WAT     H2 3265   7.366   4.880   1.566
  735WAT      O 3266   7.039   5.242   2.310
  735WAT     H1 3267   7.072   5.155   2.287
  735WAT     H2 3268   7.082   5.262   2.393
  736WAT      O 3269   7.499   5.075   2.076
  736WAT     H1 3270   7.469   5.062   2.166
  736WAT     H2 3271   7.488   4.989   2.036
  737WAT      O 3272   7.088   5.328   2.584
  737WAT     H1 3273   7.044   5.346   2.667
  737WAT     H2 3274   7.145   5.404   2.570
  738WAT      O 3275   7.071   4.580   2.220
  738WAT     H1 3276   7.006   4.553   2.156
  738WAT     H2 3277   7.155   4.569   2.175
  739WAT      O 3278   7.175   4.618   2.674
  739WAT     H1 3279   7.212   4.609   2.762
  739WAT     H2 3280   7.118   4.542   2.664
  740WAT      O 3281   7.130   4.309   3.065
  740WAT     H1 3282   7.041   4.306   3.099
  740WAT     H2 3283   7.184   4.329   3.141
  741WAT      O 3284   6.993   4.301   1.814
  741WAT     H1 3285   6.902   4.327   1.797
  741WAT     H2 3286   7.041   4.328   1.736
  742WAT      O 3287   7.247   4.206   1.605
  742WAT     H1 3288   7.318   4.164   1.557
  742WAT     H2 3289   7.175   4.213   1.542
  743WAT      O 3290   7.212   3.812   1.509
  743WAT     H1 3291   7.284   3.866   1.541
  743WAT     H2 3292   7.239   3.784   1.422
  744WAT      O 3293   7.181   3.737   2.500
  744WAT     H1 3294   7.245   3.682   2.456
  744WAT     H2 3295   7.223   3.762   2.582
  745WAT      O 3296   7.156   3.752   2.774
  745WAT     H1 3297   7.121   3.798   2.850
  745WAT     H2 3298   7.123   3.663   2.782
  746WAT      O 3299   7.317   5.069   3.190
  746WAT     H1 3300   7.312   5.032   3.279
  746WAT     H2 3301   7.330   5.163   3.204
  747WAT      O 3302   7.687   5.225   2.750
  747WAT     H1 3303   7.662   5.252   2.662
  747WAT     H2 3304   7.781   5.242   2.756
  748WAT      O 3305   7.907   3.871   3.126
  748WAT     H1 3306   7.901   3.931   3.201
  748WAT     H2 3307   8.001   3.861   3.112
  749WAT      O 3308   7.223   3.705   3.101
  749WAT     H1 3309   7.278   3.687   3.025
  749WAT     H2 3310   7.230   3.626   3.155
  750WAT      O 3311   7.300   5.364   2.902
  750WAT     H1 3312   7.241   5.351   2.976
  750WAT     H2 3313   7.300   5.280   2.856
  751WAT      O 3314   7.264   5.101   2.797
  751WAT     H1 3315   7.191   5.039   2.791
  751WAT     H2 3316   7.270   5.140   2.710
  752WAT      O 3317   7.624   5.322   2.476
  752WAT     H1 3318   7.676   5.261   2.423
  752WAT     H2 3319   7.689   5.372   2.525
  753WAT      O 3320   7.898   5.411   2.559
  753WAT     H1 3321   7.927   5.386   2.471
  753WAT     H2 3322   7.949   5.356   2.618
  754WAT      O 3323   8.020   3.785   2.617
  754WAT     H1 3324   7.941   3.833   2.645
  754WAT     H2 3325   7.990   3.695   2.606
  755WAT      O 3326   7.092   5.432   2.118
  755WAT     H1 3327   7.075   5.369   2.188
  755WAT     H2 3328   7.005   5.453   2.083
  756WAT      O 3329   7.154   3.816   1.869
  756WAT     H1 3330   7.230   3.827   1.811
  756WAT     H2 3331   7.108   3.899   1.864
  757WAT      O 3332   7.808   4.027   2.168
  757WAT     H1 3333   7.727   3.990   2.134
  757WAT     H2 3334   7.859   3.951   2.198
  758WAT      O 3335   7.252   5.302   1.863
  758WAT     H1 3336   7.200   5.340   1.793
  758WAT     H2 3337   7.245   5.364   1.935
  759WAT      O 3338   7.391   3.868   1.723
  759WAT     H1 3339   7.444   3.789   1.710
  759WAT     H2 3340   7.455   3.936   1.746
  760WAT      O 3341   7.611   3.842   2.028
  760WAT     H1 3342   7.548   3.772   2.045
  760WAT     H2 3343   7.557   3.918   2.007
  761WAT      O 3344   7.905   5.503   3.295
  761WAT     H1 3345   7.997   5.480   3.300
  761WAT     H2 3346   7.903   5.586   3.247
  762WAT      O 3347   7.623   3.770   3.272
  762WAT     H1 3348   7.595   3.820   3.195
  762WAT     H2 3349   7.661   3.690   3.235
  763WAT      O 3350   7.512   5.497   1.750
  763WAT     H1 3351   7.586   5.468   1.696
  763WAT     H2 3352   7.538   5.473   1.839
  764WAT      O 3353   7.429   5.108   1.751
  764WAT     H1 3354   7.366   5.155   1.806
  764WAT     H2 3355   7.440   5.024   1.794
  765WAT      O 3356   7.987   4.691   0.554
  765WAT     H1 3357   7.910   4.643   0.583
  765WAT     H2 3358   8.052   4.623   0.537
  766WAT      O 3359   7.389   4.722   0.642
  766WAT     H1 3360   7.306   4.697   0.682
  766WAT     H2 3361   7.450   4.729   0.715
  767WAT      O 3362   7.387   5.126   0.661
  767WAT     H1 3363   7.417   5.037   0.643
  767WAT     H2 3364   7.461   5.181   0.639
  768WAT      O 3365   7.026   4.478   0.609
  768WAT     H1 3366   7.083   4.402   0.609
  768WAT     H2 3367   7.026   4.508   0.518
  769WAT      O 3368   8.012   5.360   0.394
  769WAT     H1 3369   7.950   5.406   0.337
  769WAT     H2 3370   8.097   5.376   0.354
  770WAT      O 3371   7.931   4.959   0.555
  770WAT     H1 3372   7.924   4.865   0.539
  770WAT     H2 3373   8.007   4.968   0.612
  771WAT      O 3374   7.150   4.019   0.787
  771WAT     H1 3375   7.132   3.929   0.815
  771WAT     H2 3376   7.110   4.074   0.855
  772WAT      O 3377   8.034   4.239   0.577
  772WAT     H1 3378   8.072   4.152   0.566
  772WAT     H2 3379   8.025   4.273   0.488
  773WAT      O 3380   7.212   4.269   0.648
  773WAT     H1 3381   7.280   4.295   0.710
  773WAT     H2 3382   7.181   4.185   0.681
  774WAT      O 3383   7.631   4.373   0.557
  774WAT     H1 3384   7.682   4.423   0.621
  774WAT     H2 3385   7.685   4.296   0.539
  775WAT      O 3386   7.460   3.837   0.983
  775WAT     H1 3387   7.460   3.889   0.903
  775WAT     H2 3388   7.377   3.790   0.981
  776WAT      O 3389   7.585   4.801   0.801
  776WAT     H1 3390   7.552   4.864   0.865
  776WAT     H2 3391   7.603   4.854   0.723
  777WAT      O 3392   7.428   4.009   0.784
  777WAT     H1 3393   7.462   4.093   0.755
  777WAT     H2 3394   7.334   4.023   0.796
  778WAT      O 3395   7.506   4.998   0.983
  778WAT     H1 3396   7.568   5.066   0.954
  778WAT     H2 3397   7.420   5.039   0.974
  779WAT      O 3398   7.796   3.757   0.417
  779WAT     H1 3399   7.827   3.702   0.345
  779WAT     H2 3400   7.703   3.771   0.398
  780WAT      O 3401   7.596   4.616   0.368
  780WAT     H1 3402   7.555   4.545   0.319
  780WAT     H2 3403   7.604   4.582   0.457
  781WAT      O 3404   7.642   4.985   0.585
  781WAT     H1 3405   7.613   4.925   0.517
  781WAT     H2 3406   7.737   4.989   0.574
  782WAT      O 3407   7.467   4.294   0.746
  782WAT     H1 3408   7.522   4.305   0.669
  782WAT     H2 3409   7.518   4.331   0.818
  783WAT      O 3410   7.552   4.959   1.250
  783WAT     H1 3411   7.462   4.981   1.275
  783WAT     H2 3412   7.554   4.971   1.155
  784WAT      O 3413   7.434   4.646   1.107
  784WAT     H1 3414   7.420   4.733   1.144
  784WAT     H2 3415   7.346   4.612   1.093
  785WAT      O 3416   8.067   5.138   0.238
  785WAT     H1 3417   8.111   5.212   0.197
  785WAT     H2 3418   8.061   5.162   0.330
  786WAT      O 3419   7.614   5.240   1.328
  786WAT     H1 3420   7.611   5.281   1.242
  786WAT     H2 3421   7.598   5.147   1.312
  787WAT      O 3422   7.030   4.823   0.699
  787WAT     H1 3423   7.037   4.837   0.605
  787WAT     H2 3424   7.091   4.752   0.718
  788WAT      O 3425   7.154   4.993   0.340
  788WAT     H1 3426   7.113   5.007   0.255
  788WAT     H2 3427   7.243   4.965   0.320
  789WAT      O 3428   7.035   4.927   0.953
  789WAT     H1 3429   7.051   4.880   0.871
  789WAT     H2 3430   7.082   4.876   1.020
  790WAT      O 3431   7.512   3.840   0.457
  790WAT     H1 3432   7.468   3.918   0.424
  790WAT     H2 3433   7.568   3.873   0.527
  791WAT      O 3434   7.941   4.127   1.017
  791WAT     H1 3435   7.895   4.148   1.098
  791WAT     H2 3436   7.901   4.046   0.987
  792WAT      O 3437   7.716   3.895   0.643
  792WAT     H1 3438   7.746   3.985   0.634
  792WAT     H2 3439   7.771   3.846   0.581
  793WAT      O 3440   7.491   4.353   0.229
  793WAT     H1 3441   7.469   4.331   0.320
  793WAT     H2 3442   7.413   4.396   0.195
  794WAT      O 3443   7.735   4.442   1.296
  794WAT     H1 3444   7.726   4.348   1.281
  794WAT     H2 3445   7.820   4.465   1.257
  795WAT      O 3446   8.075   4.217   0.292
  795WAT     H1 3447   8.114   4.249   0.211
  795WAT     H2 3448   8.111   4.129   0.304
  796WAT      O 3449   7.249   4.084   1.111
  796WAT     H1 3450   7.209   4.168   1.132
  796WAT     H2 3451   7.180   4.020   1.130
  797WAT      O 3452   7.906   4.092   1.418
  797WAT     H1 3453   7.837   4.073   1.482
  797WAT     H2 3454   7.980   4.120   1.472
  798WAT      O 3455   6.979   3.876   0.515
  798WAT     H1 3456   6.950   3.933   0.586
  798WAT     H2 3457   7.053   3.828   0.551
  799WAT      O 3458   8.134   4.476   0.702
  799WAT     H1 3459   8.060   4.527   0.737
  799WAT     H2 3460   8.094   4.394   0.672
  800WAT      O 3461   7.777   4.143   0.542
  800WAT     H1 3462   7.778   4.099   0.457
  800WAT     H2 3463   7.867   4.176   0.553
  801WAT      O 3464   7.362   4.132   0.438
  801WAT     H1 3465   7.328   4.179   0.514
  801WAT     H2 3466   7.286   4.086   0.402
  802WAT      O 3467   7.193   4.865   1.169
  802WAT     H1 3468   7.154   4.801   1.229
  802WAT     H2 3469   7.224   4.935   1.226
  803WAT      O 3470   7.807   4.549   0.717
  803WAT     H1 3471   7.844   4.502   0.792
  803WAT     H2 3472   7.789   4.637   0.751
  804WAT      O 3473   7.094   4.024   0.330
  804WAT     H1 3474   7.065   3.987   0.414
  804WAT     H2 3475   7.088   3.951   0.269
  805WAT      O 3476   7.586   4.454   0.949
  805WAT     H1 3477   7.556   4.542   0.971
  805WAT     H2 3478   7.682   4.460   0.953
  806WAT      O 3479   8.053   4.781   1.177
  806WAT     H1 3480   8.047   4.689   1.151
  806WAT     H2 3481   7.990   4.791   1.248
  807WAT      O 3482   7.444   4.841   0.372
  807WAT     H1 3483   7.495   4.761   0.367
  807WAT     H2 3484   7.399   4.835   0.457
  808WAT      O 3485   7.192   4.538   1.064
  808WAT     H1 3486   7.156   4.604   1.122
  808WAT     H2 3487   7.163   4.454   1.101
  809WAT      O 3488   7.512   4.583   1.352
  809WAT     H1 3489   7.482   4.598   1.262
  809WAT     H2 3490   7.589   4.528   1.343
  810WAT      O 3491   8.047   5.063   1.152
  810WAT     H1 3492   8.048   4.970   1.130
  810WAT     H2 3493   7.976   5.072   1.215
  811WAT      O 3494   7.829   4.976   0.177
  811WAT     H1 3495   7.898   5.030   0.215
  811WAT     H2 3496   7.751   5.030   0.180
  812WAT      O 3497   7.990   5.227   0.861
  812WAT     H1 3498   8.054   5.248   0.929
  812WAT     H2 3499   8.026   5.151   0.816
  813WAT      O 3500   7.050   3.887   1.131
  813WAT     H1 3501   6.978   3.907   1.192
  813WAT     H2 3502   7.092   3.809   1.169
  814WAT      O 3503   7.078   5.285   1.230
  814WAT     H1 3504   7.089   5.191   1.216
  814WAT     H2 3505   7.013   5.312   1.165
  815WAT      O 3506   7.877   5.113   1.370
  815WAT     H1 3507   7.845   5.041   1.424
  815WAT     H2 3508   7.810   5.180   1.377
  816WAT      O 3509   7.895   4.401   0.929
  816WAT     H1 3510   7.945   4.449   0.995
  816WAT     H2 3511   7.909   4.309   0.949
  817WAT      O 3512   7.392   5.474   0.492
  817WAT     H1 3513   7.466   5.419   0.519
  817WAT     H2 3514   7.431   5.560   0.478
  818WAT      O 3515   7.293   5.392   1.411
  818WAT     H1 3516   7.373   5.424   1.453
  818WAT     H2 3517   7.241   5.356   1.483
  819WAT      O 3518   7.065   4.641   1.306
  819WAT     H1 3519   7.115   4.583   1.363
  819WAT     H2 3520   6.991   4.669   1.359
  820WAT      O 3521   7.770   4.781   1.259
  820WAT     H1 3522   7.694   4.838   1.250
  820WAT     H2 3523   7.788   4.752   1.170
  821WAT      O 3524   7.268   4.455   1.395
  821WAT     H1 3525   7.272   4.425   1.486
  821WAT     H2 3526   7.354   4.495   1.379
  822WAT      O 3527   7.462   4.313   1.192
  822WAT     H1 3528   7.409   4.264   1.129
  822WAT     H2 3529   7.529   4.356   1.138
  823WAT      O 3530   7.511   4.010   1.200
  823WAT     H1 3531   7.501   3.948   1.127
  823WAT     H2 3532   7.453   4.082   1.177
  824WAT      O 3533   7.788   3.865   0.903
  824WAT     H1 3534   7.743   3.868   0.819
  824WAT     H2 3535   7.724   3.826   0.963
  825WAT      O 3536   7.828   4.755   0.965
  825WAT     H1 3537   7.870   4.839   0.948
  825WAT     H2 3538   7.736   4.769   0.942
  826WAT      O 3539   8.062   4.528   1.104
  826WAT     H1 3540   8.074   4.468   1.178
  826WAT     H2 3541   8.148   4.532   1.062
  827WAT      O 3542   7.613   5.385   1.077
  827WAT     H1 3543   7.559   5.458   1.045
  827WAT     H2 3544   7.639   5.338   0.998
  828WAT      O 3545   7.738   4.182   1.229
  828WAT     H1 3546   7.797   4.151   1.298
  828WAT     H2 3547   7.657   4.135   1.245
  829WAT      O 3548   7.899   5.509   1.103
  829WAT     H1 3549   7.891   5.599   1.133
  829WAT     H2 3550   7.809   5.477   1.100
  830WAT      O 3551   7.039   5.242   0.433
  830WAT     H1 3552   7.072   5.155   0.410
  830WAT     H2 3553   7.082   5.262   0.516
  831WAT      O 3554   7.088   5.328   0.707
  831WAT     H1 3555   7.044   5.346   0.790
  831WAT     H2 3556   7.145   5.404   0.693
  832WAT      O 3557   7.071   4.580   0.343
  832WAT     H1 3558   7.006   4.553   0.278
  832WAT     H2 3559   7.155   4.569   0.298
  833WAT      O 3560   7.175   4.618   0.797
  833WAT     H1 3561   7.212   4.609   0.885
  833WAT     H2 3562   7.118   4.542   0.787
  834WAT      O 3563   7.130   4.309   1.187
  834WAT     H1 3564   7.041   4.306   1.221
  834WAT     H2 3565   7.184   4.329   1.264
  835WAT      O 3566   7.181   3.737   0.622
  835WAT     H1 3567   7.245   3.682   0.578
  835WAT     H2 3568   7.223   3.762   0.704
  836WAT      O 3569   7.156   3.752   0.896
  836WAT     H1 3570   7.121   3.798   0.973
  836WAT     H2 3571   7.123   3.663   0.905
  837WAT      O 3572   7.317   5.069   1.313
  837WAT     H1 3573   7.312   5.032   1.401
  837WAT     H2 3574   7.330   5.163   1.327
  838WAT      O 3575   7.687   5.225   0.873
  838WAT     H1 3576   7.662   5.252   0.784
  838WAT     H2 3577   7.781   5.242   0.879
  839WAT      O 3578   7.907   3.871   1.249
  839WAT     H1 3579   7.901   3.931   1.324
  839WAT     H2 3580   8.001   3.861   1.234
  840WAT      O 3581   7.223   3.705   1.224
  840WAT     H1 3582   7.278   3.687   1.148
  840WAT     H2 3583   7.230   3.626   1.277
  841WAT      O 3584   7.300   5.364   1.025
  841WAT     H1 3585   7.241   5.351   1.099
  841WAT     H2 3586   7.300   5.280   0.978
  842WAT      O 3587   7.264   5.101   0.920
  842WAT     H1 3588   7.191   5.039   0.913
  842WAT     H2 3589   7.270   5.140   0.833
  843WAT      O 3590   7.624   5.322   0.598
  843WAT     H1 3591   7.676   5.261   0.546
  843WAT     H2 3592   7.689   5.372   0.648
  844WAT      O 3593   7.898   5.411   0.681
  844WAT     H1 3594   7.927   5.386   0.594
  844WAT     H2 3595   7.949   5.356   0.740
  845WAT      O 3596   8.020   3.785   0.739
  845WAT     H1 3597   7.941   3.833   0.767
  845WAT     H2 3598   7.990   3.695   0.728
  846WAT      O 3599   7.092   5.432   0.241
  846WAT     H1 3600   7.075   5.369   0.311
  846WAT     H2 3601   7.005   5.453   0.206
  847WAT      O 3602   7.808   4.027   0.290
  847WAT     H1 3603   7.727   3.990   0.256
  847WAT     H2 3604   7.859   3.951   0.321
  848WAT      O 3605   7.905   5.503   1.418
  848WAT     H1 3606   7.997   5.480   1.422
  848WAT     H2 3607   7.903   5.586   1.370
  849WAT      O 3608   7.623   3.770   1.394
  849WAT     H1 3609   7.595   3.820   1.318
  849WAT     H2 3610   7.661   3.690   1.358
  850WAT      O 3611   7.987   2.814   6.186
  850WAT     H1 3612   7.910   2.766   6.215
  850WAT     H2 3613   8.052   2.746   6.169
  851WAT      O 3614   7.389   2.845   6.274
  851WAT     H1 3615   7.306   2.819   6.314
  851WAT     H2 3616   7.450   2.852   6.348
  852WAT      O 3617   7.387   3.248   6.294
  852WAT     H1 3618   7.417   3.159   6.276
  852WAT     H2 3619   7.461   3.304   6.271
  853WAT      O 3620   7.230   2.341   5.652
  853WAT     H1 3621   7.141   2.375   5.642
  853WAT     H2 3622   7.258   2.321   5.563
  854WAT      O 3623   7.026   2.601   6.241
  854WAT     H1 3624   7.083   2.524   6.241
  854WAT     H2 3625   7.026   2.631   6.150
  855WAT      O 3626   8.012   3.483   6.026
  855WAT     H1 3627   7.950   3.528   5.969
  855WAT     H2 3628   8.097   3.498   5.986
  856WAT      O 3629   7.931   3.081   6.187
  856WAT     H1 3630   7.924   2.987   6.171
  856WAT     H2 3631   8.007   3.090   6.244
  857WAT      O 3632   7.150   2.142   6.420
  857WAT     H1 3633   7.132   2.052   6.448
  857WAT     H2 3634   7.110   2.196   6.487
  858WAT      O 3635   8.034   2.362   6.210
  858WAT     H1 3636   8.072   2.275   6.198
  858WAT     H2 3637   8.025   2.395   6.121
  859WAT      O 3638   7.447   2.199   5.756
  859WAT     H1 3639   7.458   2.289   5.787
  859WAT     H2 3640   7.356   2.194   5.727
  860WAT      O 3641   7.212   2.391   6.280
  860WAT     H1 3642   7.280   2.418   6.342
  860WAT     H2 3643   7.181   2.307   6.314
  861WAT      O 3644   7.631   2.496   6.189
  861WAT     H1 3645   7.682   2.546   6.253
  861WAT     H2 3646   7.685   2.418   6.171
  862WAT      O 3647   8.099   2.971   5.766
  862WAT     H1 3648   8.037   3.018   5.709
  862WAT     H2 3649   8.150   3.040   5.807
  863WAT      O 3650   7.585   2.924   6.433
  863WAT     H1 3651   7.552   2.987   6.498
  863WAT     H2 3652   7.603   2.977   6.355
  864WAT      O 3653   7.428   2.131   6.416
  864WAT     H1 3654   7.462   2.215   6.387
  864WAT     H2 3655   7.334   2.146   6.428
  865WAT      O 3656   7.035   3.040   5.503
  865WAT     H1 3657   6.998   3.089   5.430
  865WAT     H2 3658   7.061   3.107   5.566
  866WAT      O 3659   7.796   1.880   6.049
  866WAT     H1 3660   7.827   1.824   5.977
  866WAT     H2 3661   7.703   1.893   6.031
  867WAT      O 3662   8.035   2.686   5.722
  867WAT     H1 3663   7.942   2.680   5.745
  867WAT     H2 3664   8.050   2.780   5.711
  868WAT      O 3665   8.034   2.314   5.422
  868WAT     H1 3666   7.940   2.330   5.431
  868WAT     H2 3667   8.066   2.385   5.367
  869WAT      O 3668   7.596   2.739   6.001
  869WAT     H1 3669   7.555   2.668   5.951
  869WAT     H2 3670   7.604   2.705   6.090
  870WAT      O 3671   7.642   3.108   6.217
  870WAT     H1 3672   7.613   3.047   6.149
  870WAT     H2 3673   7.737   3.111   6.206
  871WAT      O 3674   7.467   2.416   6.379
  871WAT     H1 3675   7.522   2.427   6.301
  871WAT     H2 3676   7.518   2.454   6.450
  872WAT      O 3677   8.067   3.260   5.870
  872WAT     H1 3678   8.111   3.335   5.829
  872WAT     H2 3679   8.061   3.285   5.963
  873WAT      O 3680   7.266   2.628   5.751
  873WAT     H1 3681   7.254   2.701   5.690
  873WAT     H2 3682   7.235   2.552   5.703
  874WAT      O 3683   7.030   2.946   6.331
  874WAT     H1 3684   7.037   2.959   6.237
  874WAT     H2 3685   7.091   2.875   6.351
  875WAT      O 3686   7.154   3.116   5.972
  875WAT     H1 3687   7.113   3.130   5.887
  875WAT     H2 3688   7.243   3.087   5.952
  876WAT      O 3689   7.581   3.537   5.784
  876WAT     H1 3690   7.564   3.445   5.762
  876WAT     H2 3691   7.496   3.573   5.808
  877WAT      O 3692   7.512   1.963   6.089
  877WAT     H1 3693   7.468   2.041   6.056
  877WAT     H2 3694   7.568   1.995   6.160
  878WAT      O 3695   7.824   1.925   5.577
  878WAT     H1 3696   7.761   1.925   5.650
  878WAT     H2 3697   7.815   1.838   5.537
  879WAT      O 3698   7.716   2.017   6.275
  879WAT     H1 3699   7.746   2.108   6.267
  879WAT     H2 3700   7.771   1.968   6.213
  880WAT      O 3701   7.491   2.475   5.862
  880WAT     H1 3702   7.469   2.454   5.952
  880WAT     H2 3703   7.413   2.518   5.827
  881WAT      O 3704   8.075   2.339   5.925
  881WAT     H1 3705   8.114   2.371   5.843
  881WAT     H2 3706   8.111   2.252   5.936
  882WAT      O 3707   6.979   1.998   6.147
  882WAT     H1 3708   6.950   2.055   6.218
  882WAT     H2 3709   7.053   1.950   6.183
  883WAT      O 3710   6.997   2.393   5.268
  883WAT     H1 3711   6.989   2.487   5.282
  883WAT     H2 3712   6.962   2.378   5.180
  884WAT      O 3713   8.134   2.599   6.334
  884WAT     H1 3714   8.060   2.649   6.369
  884WAT     H2 3715   8.094   2.517   6.304
  885WAT      O 3716   7.777   2.266   6.175
  885WAT     H1 3717   7.778   2.222   6.090
  885WAT     H2 3718   7.867   2.298   6.185
  886WAT      O 3719   7.362   2.254   6.071
  886WAT     H1 3720   7.328   2.302   6.146
  886WAT     H2 3721   7.286   2.209   6.035
  887WAT      O 3722   7.784   2.366   5.474
  887WAT     H1 3723   7.796   2.362   5.569
  887WAT     H2 3724   7.745   2.452   5.458
  888WAT      O 3725   7.685   2.597   5.414
  888WAT     H1 3726   7.628   2.552   5.351
  888WAT     H2 3727   7.756   2.633   5.360
  889WAT      O 3728   7.807   2.672   6.349
  889WAT     H1 3729   7.844   2.625   6.424
  889WAT     H2 3730   7.789   2.759   6.383
  890WAT      O 3731   7.094   2.146   5.962
  890WAT     H1 3732   7.065   2.110   6.046
  890WAT     H2 3733   7.088   2.073   5.901
  891WAT      O 3734   7.439   2.997   5.641
  891WAT     H1 3735   7.362   2.943   5.625
  891WAT     H2 3736   7.512   2.945   5.607
  892WAT      O 3737   8.061   2.036   5.634
  892WAT     H1 3738   7.980   1.986   5.627
  892WAT     H2 3739   8.042   2.120   5.593
  893WAT      O 3740   7.444   2.964   6.005
  893WAT     H1 3741   7.495   2.883   5.999
  893WAT     H2 3742   7.399   2.957   6.089
  894WAT      O 3743   7.932   3.090   5.532
  894WAT     H1 3744   7.967   3.165   5.482
  894WAT     H2 3745   7.849   3.122   5.568
  895WAT      O 3746   7.829   3.098   5.809
  895WAT     H1 3747   7.898   3.153   5.847
  895WAT     H2 3748   7.751   3.153   5.813
  896WAT      O 3749   7.043   2.660   5.358
  896WAT     H1 3750   7.130   2.688   5.387
  896WAT     H2 3751   6.994   2.741   5.347
  897WAT      O 3752   7.760   2.799   5.770
  897WAT     H1 3753   7.805   2.880   5.793
  897WAT     H2 3754   7.724   2.767   5.854
  898WAT      O 3755   7.350   1.833   5.818
  898WAT     H1 3756   7.337   1.832   5.912
  898WAT     H2 3757   7.267   1.867   5.783
  899WAT      O 3758   7.080   3.581   5.415
  899WAT     H1 3759   7.116   3.641   5.349
  899WAT     H2 3760   7.066   3.636   5.492
  900WAT      O 3761   7.682   3.320   5.497
  900WAT     H1 3762   7.681   3.393   5.435
  900WAT     H2 3763   7.590   3.295   5.506
  901WAT      O 3764   7.242   2.842   5.571
  901WAT     H1 3765   7.181   2.916   5.572
  901WAT     H2 3766   7.289   2.851   5.489
  902WAT      O 3767   7.980   3.326   5.363
  902WAT     H1 3768   7.990   3.306   5.270
  902WAT     H2 3769   7.890   3.301   5.383
  903WAT      O 3770   7.732   2.382   5.761
  903WAT     H1 3771   7.662   2.429   5.805
  903WAT     H2 3772   7.761   2.316   5.825
  904WAT      O 3773   7.844   3.578   5.832
  904WAT     H1 3774   7.870   3.574   5.740
  904WAT     H2 3775   7.749   3.565   5.832
  905WAT      O 3776   7.553   2.213   5.499
  905WAT     H1 3777   7.638   2.256   5.492
  905WAT     H2 3778   7.516   2.244   5.581
  906WAT      O 3779   7.443   2.838   5.346
  906WAT     H1 3780   7.519   2.827   5.402
  906WAT     H2 3781   7.450   2.768   5.281
  907WAT      O 3782   7.312   2.581   5.414
  907WAT     H1 3783   7.320   2.486   5.426
  907WAT     H2 3784   7.401   2.614   5.425
  908WAT      O 3785   7.392   3.596   6.125
  908WAT     H1 3786   7.466   3.541   6.152
  908WAT     H2 3787   7.431   3.683   6.111
  909WAT      O 3788   7.081   3.203   5.712
  909WAT     H1 3789   6.988   3.227   5.711
  909WAT     H2 3790   7.127   3.286   5.700
  910WAT      O 3791   7.703   3.513   5.307
  910WAT     H1 3792   7.783   3.542   5.262
  910WAT     H2 3793   7.651   3.470   5.239
  911WAT      O 3794   7.755   3.035   5.293
  911WAT     H1 3795   7.745   2.974   5.366
  911WAT     H2 3796   7.738   2.983   5.215
  912WAT      O 3797   8.079   2.942   5.354
  912WAT     H1 3798   8.024   2.986   5.418
  912WAT     H2 3799   8.141   2.891   5.406
  913WAT      O 3800   7.646   2.838   5.543
  913WAT     H1 3801   7.688   2.821   5.628
  913WAT     H2 3802   7.658   2.757   5.494
  914WAT      O 3803   7.897   2.740   5.268
  914WAT     H1 3804   7.949   2.668   5.232
  914WAT     H2 3805   7.962   2.804   5.298
  915WAT      O 3806   7.535   2.445   5.238
  915WAT     H1 3807   7.515   2.359   5.274
  915WAT     H2 3808   7.518   2.436   5.144
  916WAT      O 3809   7.415   2.155   5.237
  916WAT     H1 3810   7.446   2.156   5.146
  916WAT     H2 3811   7.489   2.120   5.286
  917WAT      O 3812   7.737   2.049   5.335
  917WAT     H1 3813   7.702   1.982   5.277
  917WAT     H2 3814   7.757   2.003   5.417
  918WAT      O 3815   7.954   3.548   5.497
  918WAT     H1 3816   8.043   3.582   5.499
  918WAT     H2 3817   7.957   3.476   5.434
  919WAT      O 3818   7.318   3.085   5.320
  919WAT     H1 3819   7.361   3.140   5.386
  919WAT     H2 3820   7.366   3.003   5.321
  920WAT      O 3821   7.039   3.364   6.065
  920WAT     H1 3822   7.072   3.277   6.042
  920WAT     H2 3823   7.082   3.385   6.148
  921WAT      O 3824   7.499   3.197   5.831
  921WAT     H1 3825   7.469   3.185   5.921
  921WAT     H2 3826   7.488   3.111   5.790
  922WAT      O 3827   7.088   3.451   6.339
  922WAT     H1 3828   7.044   3.469   6.422
  922WAT     H2 3829   7.145   3.527   6.325
  923WAT      O 3830   7.071   2.702   5.975
  923WAT     H1 3831   7.006   2.675   5.911
  923WAT     H2 3832   7.155   2.691   5.930
  924WAT      O 3833   7.175   2.741   6.429
  924WAT     H1 3834   7.212   2.732   6.517
  924WAT     H2 3835   7.118   2.664   6.419
  925WAT      O 3836   6.993   2.423   5.569
  925WAT     H1 3837   6.902   2.449   5.552
  925WAT     H2 3838   7.041   2.450   5.491
  926WAT      O 3839   7.247   2.329   5.360
  926WAT     H1 3840   7.318   2.287   5.312
  926WAT     H2 3841   7.175   2.336   5.297
  927WAT      O 3842   7.212   1.934   5.264
  927WAT     H1 3843   7.284   1.988   5.296
  927WAT     H2 3844   7.239   1.907   5.177
  928WAT      O 3845   7.181   1.859   6.254
  928WAT     H1 3846   7.245   1.804   6.210
  928WAT     H2 3847   7.223   1.885   6.337
  929WAT      O 3848   7.687   3.348   6.505
  929WAT     H1 3849   7.662   3.374   6.417
  929WAT     H2 3850   7.781   3.365   6.511
  930WAT      O 3851   7.624   3.445   6.231
  930WAT     H1 3852   7.676   3.384   6.178
  930WAT     H2 3853   7.689   3.495   6.280
  931WAT      O 3854   7.898   3.534   6.313
  931WAT     H1 3855   7.927   3.508   6.226
  931WAT     H2 3856   7.949   3.479   6.373
  932WAT      O 3857   8.020   1.908   6.371
  932WAT     H1 3858   7.941   1.955   6.399
  932WAT     H2 3859   7.990   1.817   6.361
  933WAT      O 3860   7.092   3.555   5.873
  933WAT     H1 3861   7.075   3.492   5.943
  933WAT     H2 3862   7.005   3.576   5.838
  934WAT      O 3863   7.154   1.938   5.624
  934WAT     H1 3864   7.230   1.949   5.566
  934WAT     H2 3865   7.108   2.022   5.619
  935WAT      O 3866   7.808   2.150   5.923
  935WAT     H1 3867   7.727   2.112   5.889
  935WAT     H2 3868   7.859   2.074   5.953
  936WAT      O 3869   7.252   3.424   5.618
  936WAT     H1 3870   7.200   3.462   5.547
  936WAT     H2 3871   7.245   3.487   5.690
  937WAT      O 3872   7.391   1.991   5.478
  937WAT     H1 3873   7.444   1.912   5.465
  937WAT     H2 3874   7.455   2.059   5.501
  938WAT      O 3875   7.611   1.965   5.783
  938WAT     H1 3876   7.548   1.894   5.800
  938WAT     H2 3877   7.557   2.041   5.761
  939WAT      O 3878   7.512   3.619   5.505
  939WAT     H1 3879   7.586   3.591   5.450
  939WAT     H2 3880   7.538   3.595   5.594
  940WAT      O 3881   7.429   3.231   5.506
  940WAT     H1 3882   7.366   3.278   5.561
  940WAT     H2 3883   7.440   3.146   5.549
  941WAT      O 3884   7.987   2.814   4.309
  941WAT     H1 3885   7.910   2.766   4.338
  941WAT     H2 3886   8.052   2.746   4.291
  942WAT      O 3887   7.389   2.845   4.397
  942WAT     H1 3888   7.306   2.819   4.437
  942WAT     H2 3889   7.450   2.852   4.470
  943WAT      O 3890   7.387   3.248   4.416
  943WAT     H1 3891   7.417   3.159   4.398
  943WAT     H2 3892   7.461   3.304   4.393
  944WAT      O 3893   7.230   2.341   3.775
  944WAT     H1 3894   7.141   2.375   3.765
  944WAT     H2 3895   7.258   2.321   3.686
  945WAT      O 3896   7.026   2.601   4.363
  945WAT     H1 3897   7.083   2.524   4.363
  945WAT     H2 3898   7.026   2.631   4.272
  946WAT      O 3899   8.012   3.483   4.149
  946WAT     H1 3900   7.950   3.528   4.092
  946WAT     H2 3901   8.097   3.498   4.109
  947WAT      O 3902   7.931   3.081   4.310
  947WAT     H1 3903   7.924   2.987   4.293
  947WAT     H2 3904   8.007   3.090   4.367
  948WAT      O 3905   7.150   2.142   4.542
  948WAT     H1 3906   7.132   2.052   4.570
  948WAT     H2 3907   7.110   2.196   4.610
  949WAT      O 3908   8.034   2.362   4.332
  949WAT     H1 3909   8.072   2.275   4.321
  949WAT     H2 3910   8.025   2.395   4.243
  950WAT      O 3911   7.447   2.199   3.878
  950WAT     H1 3912   7.458   2.289   3.909
  950WAT     H2 3913   7.356   2.194   3.849
  951WAT      O 3914   7.212   2.391   4.403
  951WAT     H1 3915   7.280   2.418   4.465
  951WAT     H2 3916   7.181   2.307   4.436
  952WAT      O 3917   7.631   2.496   4.312
  952WAT     H1 3918   7.682   2.546   4.376
  952WAT     H2 3919   7.685   2.418   4.294
  953WAT      O 3920   7.460   1.960   4.738
  953WAT     H1 3921   7.460   2.012   4.658
  953WAT     H2 3922   7.377   1.912   4.736
  954WAT      O 3923   8.099   2.971   3.888
  954WAT     H1 3924   8.037   3.018   3.832
  954WAT     H2 3925   8.150   3.040   3.930
  955WAT      O 3926   7.585   2.924   4.556
  955WAT     H1 3927   7.552   2.987   4.620
  955WAT     H2 3928   7.603   2.977   4.478
  956WAT      O 3929   7.428   2.131   4.539
  956WAT     H1 3930   7.462   2.215   4.510
  956WAT     H2 3931   7.334   2.146   4.551
  957WAT      O 3932   7.506   3.121   4.738
  957WAT     H1 3933   7.568   3.188   4.709
  957WAT     H2 3934   7.420   3.162   4.728
  958WAT      O 3935   7.035   3.040   3.626
  958WAT     H1 3936   6.998   3.089   3.552
  958WAT     H2 3937   7.061   3.107   3.689
  959WAT      O 3938   7.796   1.880   4.171
  959WAT     H1 3939   7.827   1.824   4.100
  959WAT     H2 3940   7.703   1.893   4.153
  960WAT      O 3941   8.035   2.686   3.845
  960WAT     H1 3942   7.942   2.680   3.868
  960WAT     H2 3943   8.050   2.780   3.834
  961WAT      O 3944   8.034   2.314   3.545
  961WAT     H1 3945   7.940   2.330   3.553
  961WAT     H2 3946   8.066   2.385   3.490
  962WAT      O 3947   7.596   2.739   4.123
  962WAT     H1 3948   7.555   2.668   4.074
  962WAT     H2 3949   7.604   2.705   4.212
  963WAT      O 3950   7.642   3.108   4.340
  963WAT     H1 3951   7.613   3.047   4.272
  963WAT     H2 3952   7.737   3.111   4.329
  964WAT      O 3953   7.467   2.416   4.501
  964WAT     H1 3954   7.522   2.427   4.424
  964WAT     H2 3955   7.518   2.454   4.573
  965WAT      O 3956   7.552   3.082   5.005
  965WAT     H1 3957   7.462   3.104   5.029
  965WAT     H2 3958   7.554   3.094   4.910
  966WAT      O 3959   7.434   2.769   4.862
  966WAT     H1 3960   7.420   2.856   4.899
  966WAT     H2 3961   7.346   2.734   4.848
  967WAT      O 3962   8.067   3.260   3.993
  967WAT     H1 3963   8.111   3.335   3.951
  967WAT     H2 3964   8.061   3.285   4.085
  968WAT      O 3965   7.614   3.363   5.083
  968WAT     H1 3966   7.611   3.403   4.996
  968WAT     H2 3967   7.598   3.270   5.067
  969WAT      O 3968   7.266   2.628   3.873
  969WAT     H1 3969   7.254   2.701   3.812
  969WAT     H2 3970   7.235   2.552   3.826
  970WAT      O 3971   7.030   2.946   4.454
  970WAT     H1 3972   7.037   2.959   4.360
  970WAT     H2 3973   7.091   2.875   4.473
  971WAT      O 3974   7.154   3.116   4.095
  971WAT     H1 3975   7.113   3.130   4.010
  971WAT     H2 3976   7.243   3.087   4.075
  972WAT      O 3977   7.581   3.537   3.906
  972WAT     H1 3978   7.564   3.445   3.885
  972WAT     H2 3979   7.496   3.573   3.930
  973WAT      O 3980   7.035   3.050   4.708
  973WAT     H1 3981   7.051   3.003   4.626
  973WAT     H2 3982   7.082   2.999   4.774
  974WAT      O 3983   7.512   1.963   4.212
  974WAT     H1 3984   7.468   2.041   4.178
  974WAT     H2 3985   7.568   1.995   4.282
  975WAT      O 3986   7.941   2.250   4.772
  975WAT     H1 3987   7.895   2.270   4.853
  975WAT     H2 3988   7.901   2.168   4.742
  976WAT      O 3989   7.824   1.925   3.700
  976WAT     H1 3990   7.761   1.925   3.772
  976WAT     H2 3991   7.815   1.838   3.660
  977WAT      O 3992   7.716   2.017   4.397
  977WAT     H1 3993   7.746   2.108   4.389
  977WAT     H2 3994   7.771   1.968   4.336
  978WAT      O 3995   7.491   2.475   3.984
  978WAT     H1 3996   7.469   2.454   4.075
  978WAT     H2 3997   7.413   2.518   3.950
  979WAT      O 3998   7.735   2.565   5.051
  979WAT     H1 3999   7.726   2.471   5.036
  979WAT     H2 4000   7.820   2.587   5.011
  980WAT      O 4001   8.075   2.339   4.047
  980WAT     H1 4002   8.114   2.371   3.966
  980WAT     H2 4003   8.111   2.252   4.059
  981WAT      O 4004   7.249   2.206   4.866
  981WAT     H1 4005   7.209   2.291   4.887
  981WAT     H2 4006   7.180   2.142   4.885
  982WAT      O 4007   7.906   2.215   5.173
  982WAT     H1 4008   7.837   2.195   5.237
  982WAT     H2 4009   7.980   2.243   5.226
  983WAT      O 4010   6.979   1.998   4.270
  983WAT     H1 4011   6.950   2.055   4.341
  983WAT     H2 4012   7.053   1.950   4.306
  984WAT      O 4013   6.997   2.393   3.391
  984WAT     H1 4014   6.989   2.487   3.405
  984WAT     H2 4015   6.962   2.378   3.303
  985WAT      O 4016   8.134   2.599   4.457
  985WAT     H1 4017   8.060   2.649   4.492
  985WAT     H2 4018   8.094   2.517   4.427
  986WAT      O 4019   7.777   2.266   4.297
  986WAT     H1 4020   7.778   2.222   4.212
  986WAT     H2 4021   7.867   2.298   4.308
  987WAT      O 4022   7.362   2.254   4.193
  987WAT     H1 4023   7.328   2.302   4.269
  987WAT     H2 4024   7.286   2.209   4.157
  988WAT      O 4025   7.784   2.366   3.596
  988WAT     H1 4026   7.796   2.362   3.691
  988WAT     H2 4027   7.745   2.452   3.581
  989WAT      O 4028   7.685   2.597   3.536
  989WAT     H1 4029   7.628   2.552   3.474
  989WAT     H2 4030   7.756   2.633   3.483
  990WAT      O 4031   7.193   2.987   4.924
  990WAT     H1 4032   7.154   2.923   4.984
  990WAT     H2 4033   7.224   3.058   4.981
  991WAT      O 4034   7.807   2.672   4.472
  991WAT     H1 4035   7.844   2.625   4.547
  991WAT     H2 4036   7.789   2.759   4.506
  992WAT      O 4037   7.094   2.146   4.085
  992WAT     H1 4038   7.065   2.110   4.169
  992WAT     H2 4039   7.088   2.073   4.024
  993WAT      O 4040   7.586   2.576   4.704
  993WAT     H1 4041   7.556   2.664   4.726
  993WAT     H2 4042   7.682   2.582   4.707
  994WAT      O 4043   7.439   2.997   3.763
  994WAT     H1 4044   7.362   2.943   3.747
  994WAT     H2 4045   7.512   2.945   3.730
  995WAT      O 4046   8.061   2.036   3.757
  995WAT     H1 4047   7.980   1.986   3.749
  995WAT     H2 4048   8.042   2.120   3.715
  996WAT      O 4049   8.053   2.904   4.931
  996WAT     H1 4050   8.047   2.811   4.906
  996WAT     H2 4051   7.990   2.913   5.003
  997WAT      O 4052   7.444   2.964   4.127
  997WAT     H1 4053   7.495   2.883   4.122
  997WAT     H2 4054   7.399   2.957   4.211
  998WAT      O 4055   7.932   3.090   3.655
  998WAT     H1 4056   7.967   3.165   3.605
  998WAT     H2 4057   7.849   3.122   3.691
  999WAT      O 4058   7.192   2.660   4.819
  999WAT     H1 4059   7.156   2.727   4.877
  999WAT     H2 4060   7.163   2.577   4.856
 1000WAT      O 4061   7.512   2.706   5.107
 1000WAT     H1 4062   7.482   2.721   5.017
 1000WAT     H2 4063   7.589   2.650   5.098
 1001WAT      O 4064   8.047   3.186   4.906
 1001WAT     H1 4065   8.048   3.093   4.885
 1001WAT     H2 4066   7.976   3.194   4.970
 1002WAT      O 4067   7.829   3.098   3.932
 1002WAT     H1 4068   7.898   3.153   3.970
 1002WAT     H2 4069   7.751   3.153   3.935
 1003WAT      O 4070   7.043   2.660   3.481
 1003WAT     H1 4071   7.130   2.688   3.509
 1003WAT     H2 4072   6.994   2.741   3.469
 1004WAT      O 4073   7.760   2.799   3.893
 1004WAT     H1 4074   7.805   2.880   3.916
 1004WAT     H2 4075   7.724   2.767   3.976
 1005WAT      O 4076   7.990   3.350   4.616
 1005WAT     H1 4077   8.054   3.370   4.684
 1005WAT     H2 4078   8.026   3.274   4.571
 1006WAT      O 4079   7.350   1.833   3.940
 1006WAT     H1 4080   7.337   1.832   4.035
 1006WAT     H2 4081   7.267   1.867   3.905
 1007WAT      O 4082   7.080   3.581   3.537
 1007WAT     H1 4083   7.116   3.641   3.472
 1007WAT     H2 4084   7.066   3.636   3.615
 1008WAT      O 4085   7.050   2.009   4.886
 1008WAT     H1 4086   6.978   2.029   4.947
 1008WAT     H2 4087   7.092   1.932   4.923
 1009WAT      O 4088   7.078   3.408   4.985
 1009WAT     H1 4089   7.089   3.314   4.971
 1009WAT     H2 4090   7.013   3.434   4.920
 1010WAT      O 4091   7.877   3.235   5.125
 1010WAT     H1 4092   7.845   3.163   5.179
 1010WAT     H2 4093   7.810   3.303   5.132
 1011WAT      O 4094   7.682   3.320   3.619
 1011WAT     H1 4095   7.681   3.393   3.558
 1011WAT     H2 4096   7.590   3.295   3.628
 1012WAT      O 4097   7.242   2.842   3.694
 1012WAT     H1 4098   7.181   2.916   3.695
 1012WAT     H2 4099   7.289   2.851   3.611
 1013WAT      O 4100   7.980   3.326   3.485
 1013WAT     H1 4101   7.990   3.306   3.392
 1013WAT     H2 4102   7.890   3.301   3.506
 1014WAT      O 4103   7.732   2.382   3.884
 1014WAT     H1 4104   7.662   2.429   3.928
 1014WAT     H2 4105   7.761   2.316   3.947
 1015WAT      O 4106   7.895   2.524   4.684
 1015WAT     H1 4107   7.945   2.571   4.750
 1015WAT     H2 4108   7.909   2.431   4.704
 1016WAT      O 4109   7.844   3.578   3.955
 1016WAT     H1 4110   7.870   3.574   3.863
 1016WAT     H2 4111   7.749   3.565   3.954
 1017WAT      O 4112   7.553   2.213   3.621
 1017WAT     H1 4113   7.638   2.256   3.615
 1017WAT     H2 4114   7.516   2.244   3.704
 1018WAT      O 4115   7.443   2.838   3.469
 1018WAT     H1 4116   7.519   2.827   3.525
 1018WAT     H2 4117   7.450   2.768   3.403
 1019WAT      O 4118   7.312   2.581   3.537
 1019WAT     H1 4119   7.320   2.486   3.548
 1019WAT     H2 4120   7.401   2.614   3.548
 1020WAT      O 4121   7.392   3.596   4.247
 1020WAT     H1 4122   7.466   3.541   4.274
 1020WAT     H2 4123   7.431   3.683   4.233
 1021WAT      O 4124   7.081   3.203   3.835
 1021WAT     H1 4125   6.988   3.227   3.834
 1021WAT     H2 4126   7.127   3.286   3.823
 1022WAT      O 4127   7.293   3.515   5.166
 1022WAT     H1 4128   7.373   3.547   5.207
 1022WAT     H2 4129   7.241   3.479   5.238
 1023WAT      O 4130   7.703   3.513   3.430
 1023WAT     H1 4131   7.783   3.542   3.384
 1023WAT     H2 4132   7.651   3.470   3.362
 1024WAT      O 4133   7.065   2.763   5.060
 1024WAT     H1 4134   7.115   2.705   5.118
 1024WAT     H2 4135   6.991   2.792   5.114
 1025WAT      O 4136   7.755   3.035   3.416
 1025WAT     H1 4137   7.745   2.974   3.489
 1025WAT     H2 4138   7.738   2.983   3.338
 1026WAT      O 4139   7.770   2.904   5.014
 1026WAT     H1 4140   7.694   2.961   5.005
 1026WAT     H2 4141   7.788   2.875   4.925
 1027WAT      O 4142   8.079   2.942   3.476
 1027WAT     H1 4143   8.024   2.986   3.541
 1027WAT     H2 4144   8.141   2.891   3.529
 1028WAT      O 4145   7.268   2.578   5.150
 1028WAT     H1 4146   7.272   2.548   5.241
 1028WAT     H2 4147   7.354   2.618   5.134
 1029WAT      O 4148   7.646   2.838   3.666
 1029WAT     H1 4149   7.688   2.821   3.750
 1029WAT     H2 4150   7.658   2.757   3.617
 1030WAT      O 4151   7.462   2.436   4.947
 1030WAT     H1 4152   7.409   2.386   4.884
 1030WAT     H2 4153   7.529   2.478   4.893
 1031WAT      O 4154   7.897   2.740   3.391
 1031WAT     H1 4155   7.949   2.668   3.354
 1031WAT     H2 4156   7.962   2.804   3.421
 1032WAT      O 4157   7.511   2.132   4.955
 1032WAT     H1 4158   7.501   2.070   4.882
 1032WAT     H2 4159   7.453   2.205   4.932
 1033WAT      O 4160   7.788   1.988   4.658
 1033WAT     H1 4161   7.743   1.990   4.573
 1033WAT     H2 4162   7.724   1.948   4.718
 1034WAT      O 4163   7.828   2.877   4.720
 1034WAT     H1 4164   7.870   2.962   4.703
 1034WAT     H2 4165   7.736   2.891   4.697
 1035WAT      O 4166   8.062   2.651   4.858
 1035WAT     H1 4167   8.074   2.591   4.932
 1035WAT     H2 4168   8.148   2.654   4.816
 1036WAT      O 4169   7.535   2.445   3.361
 1036WAT     H1 4170   7.515   2.359   3.397
 1036WAT     H2 4171   7.518   2.436   3.267
 1037WAT      O 4172   7.613   3.508   4.832
 1037WAT     H1 4173   7.559   3.580   4.800
 1037WAT     H2 4174   7.639   3.460   4.753
 1038WAT      O 4175   7.738   2.305   4.984
 1038WAT     H1 4176   7.797   2.274   5.053
 1038WAT     H2 4177   7.657   2.258   5.000
 1039WAT      O 4178   7.415   2.155   3.359
 1039WAT     H1 4179   7.446   2.156   3.269
 1039WAT     H2 4180   7.489   2.120   3.409
 1040WAT      O 4181   7.899   3.631   4.858
 1040WAT     H1 4182   7.891   3.722   4.888
 1040WAT     H2 4183   7.809   3.600   4.855
 1041WAT      O 4184   7.737   2.049   3.458
 1041WAT     H1 4185   7.702   1.982   3.400
 1041WAT     H2 4186   7.757   2.003   3.539
 1042WAT      O 4187   7.954   3.548   3.620
 1042WAT     H1 4188   8.043   3.582   3.622
 1042WAT     H2 4189   7.957   3.476   3.557
 1043WAT      O 4190   7.318   3.085   3.443
 1043WAT     H1 4191   7.361   3.140   3.508
 1043WAT     H2 4192   7.366   3.003   3.444
 1044WAT      O 4193   7.039   3.364   4.188
 1044WAT     H1 4194   7.072   3.277   4.165
 1044WAT     H2 4195   7.082   3.385   4.271
 1045WAT      O 4196   7.499   3.197   3.954
 1045WAT     H1 4197   7.469   3.185   4.044
 1045WAT     H2 4198   7.488   3.111   3.913
 1046WAT      O 4199   7.088   3.451   4.462
 1046WAT     H1 4200   7.044   3.469   4.545
 1046WAT     H2 4201   7.145   3.527   4.447
 1047WAT      O 4202   7.071   2.702   4.098
 1047WAT     H1 4203   7.006   2.675   4.033
 1047WAT     H2 4204   7.155   2.691   4.053
 1048WAT      O 4205   7.175   2.741   4.552
 1048WAT     H1 4206   7.212   2.732   4.640
 1048WAT     H2 4207   7.118   2.664   4.542
 1049WAT      O 4208   7.130   2.432   4.942
 1049WAT     H1 4209   7.041   2.428   4.976
 1049WAT     H2 4210   7.184   2.452   5.019
 1050WAT      O 4211   6.993   2.423   3.692
 1050WAT     H1 4212   6.902   2.449   3.674
 1050WAT     H2 4213   7.041   2.450   3.614
 1051WAT      O 4214   7.247   2.329   3.483
 1051WAT     H1 4215   7.318   2.287   3.434
 1051WAT     H2 4216   7.175   2.336   3.420
 1052WAT      O 4217   7.212   1.934   3.387
 1052WAT     H1 4218   7.284   1.988   3.419
 1052WAT     H2 4219   7.239   1.907   3.299
 1053WAT      O 4220   7.181   1.859   4.377
 1053WAT     H1 4221   7.245   1.804   4.333
 1053WAT     H2 4222   7.223   1.885   4.459
 1054WAT      O 4223   7.156   1.875   4.651
 1054WAT     H1 4224   7.121   1.920   4.728
 1054WAT     H2 4225   7.123   1.785   4.659
 1055WAT      O 4226   7.317   3.192   5.068
 1055WAT     H1 4227   7.312   3.155   5.156
 1055WAT     H2 4228   7.330   3.286   5.082
 1056WAT      O 4229   7.687   3.348   4.628
 1056WAT     H1 4230   7.662   3.374   4.539
 1056WAT     H2 4231   7.781   3.365   4.633
 1057WAT      O 4232   7.907   1.994   5.003
 1057WAT     H1 4233   7.901   2.053   5.078
 1057WAT     H2 4234   8.001   1.983   4.989
 1058WAT      O 4235   7.223   1.828   4.979
 1058WAT     H1 4236   7.278   1.809   4.902
 1058WAT     H2 4237   7.230   1.749   5.032
 1059WAT      O 4238   7.300   3.487   4.780
 1059WAT     H1 4239   7.241   3.473   4.854
 1059WAT     H2 4240   7.300   3.403   4.733
 1060WAT      O 4241   7.264   3.223   4.675
 1060WAT     H1 4242   7.191   3.161   4.668
 1060WAT     H2 4243   7.270   3.263   4.588
 1061WAT      O 4244   7.624   3.445   4.353
 1061WAT     H1 4245   7.676   3.384   4.301
 1061WAT     H2 4246   7.689   3.495   4.402
 1062WAT      O 4247   7.898   3.534   4.436
 1062WAT     H1 4248   7.927   3.508   4.348
 1062WAT     H2 4249   7.949   3.479   4.495
 1063WAT      O 4250   8.020   1.908   4.494
 1063WAT     H1 4251   7.941   1.955   4.522
 1063WAT     H2 4252   7.990   1.817   4.483
 1064WAT      O 4253   7.092   3.555   3.996
 1064WAT     H1 4254   7.075   3.492   4.066
 1064WAT     H2 4255   7.005   3.576   3.961
 1065WAT      O 4256   7.154   1.938   3.746
 1065WAT     H1 4257   7.230   1.949   3.689
 1065WAT     H2 4258   7.108   2.022   3.742
 1066WAT      O 4259   7.808   2.150   4.045
 1066WAT     H1 4260   7.727   2.112   4.011
 1066WAT     H2 4261   7.859   2.074   4.075
 1067WAT      O 4262   7.252   3.424   3.740
 1067WAT     H1 4263   7.200   3.462   3.670
 1067WAT     H2 4264   7.245   3.487   3.812
 1068WAT      O 4265   7.391   1.991   3.600
 1068WAT     H1 4266   7.444   1.912   3.587
 1068WAT     H2 4267   7.455   2.059   3.624
 1069WAT      O 4268   7.611   1.965   3.906
 1069WAT     H1 4269   7.548   1.894   3.922
 1069WAT     H2 4270   7.557   2.041   3.884
 1070WAT      O 4271   7.905   3.626   5.173
 1070WAT     H1 4272   7.997   3.602   5.177
 1070WAT     H2 4273   7.903   3.709   5.125
 1071WAT      O 4274   7.623   1.892   5.149
 1071WAT     H1 4275   7.595   1.943   5.073
 1071WAT     H2 4276   7.661   1.813   5.113
 1072WAT      O 4277   7.512   3.619   3.628
 1072WAT     H1 4278   7.586   3.591   3.573
 1072WAT     H2 4279   7.538   3.595   3.717
 1073WAT      O 4280   7.429   3.231   3.628
 1073WAT     H1 4281   7.366   3.278   3.683
 1073WAT     H2 4282   7.440   3.146   3.672
 1074WAT      O 4283   7.987   2.814   2.431
 1074WAT     H1 4284   7.910   2.766   2.460
 1074WAT     H2 4285   8.052   2.746   2.414
 1075WAT      O 4286   7.389   2.845   2.519
 1075WAT     H1 4287   7.306   2.819   2.559
 1075WAT     H2 4288   7.450   2.852   2.593
 1076WAT      O 4289   7.387   3.248   2.539
 1076WAT     H1 4290   7.417   3.159   2.521
 1076WAT     H2 4291   7.461   3.304   2.516
 1077WAT      O 4292   7.230   2.341   1.898
 1077WAT     H1 4293   7.141   2.375   1.887
 1077WAT     H2 4294   7.258   2.321   1.808
 1078WAT      O 4295   7.026   2.601   2.486
 1078WAT     H1 4296   7.083   2.524   2.486
 1078WAT     H2 4297   7.026   2.631   2.395
 1079WAT      O 4298   8.012   3.483   2.271
 1079WAT     H1 4299   7.950   3.528   2.214
 1079WAT     H2 4300   8.097   3.498   2.231
 1080WAT      O 4301   7.931   3.081   2.432
 1080WAT     H1 4302   7.924   2.987   2.416
 1080WAT     H2 4303   8.007   3.090   2.489
 1081WAT      O 4304   7.150   2.142   2.665
 1081WAT     H1 4305   7.132   2.052   2.693
 1081WAT     H2 4306   7.110   2.196   2.732
 1082WAT      O 4307   8.034   2.362   2.455
 1082WAT     H1 4308   8.072   2.275   2.444
 1082WAT     H2 4309   8.025   2.395   2.366
 1083WAT      O 4310   7.447   2.199   2.001
 1083WAT     H1 4311   7.458   2.289   2.032
 1083WAT     H2 4312   7.356   2.194   1.972
 1084WAT      O 4313   7.212   2.391   2.525
 1084WAT     H1 4314   7.280   2.418   2.587
 1084WAT     H2 4315   7.181   2.307   2.559
 1085WAT      O 4316   7.631   2.496   2.434
 1085WAT     H1 4317   7.682   2.546   2.498
 1085WAT     H2 4318   7.685   2.418   2.417
 1086WAT      O 4319   7.460   1.960   2.861
 1086WAT     H1 4320   7.460   2.012   2.780
 1086WAT     H2 4321   7.377   1.912   2.859
 1087WAT      O 4322   8.099   2.971   2.011
 1087WAT     H1 4323   8.037   3.018   1.954
 1087WAT     H2 4324   8.150   3.040   2.052
 1088WAT      O 4325   7.585   2.924   2.679
 1088WAT     H1 4326   7.552   2.987   2.743
 1088WAT     H2 4327   7.603   2.977   2.601
 1089WAT      O 4328   7.428   2.131   2.662
 1089WAT     H1 4329   7.462   2.215   2.632
 1089WAT     H2 4330   7.334   2.146   2.673
 1090WAT      O 4331   7.506   3.121   2.860
 1090WAT     H1 4332   7.568   3.188   2.832
 1090WAT     H2 4333   7.420   3.162   2.851
 1091WAT      O 4334   7.035   3.040   1.748
 1091WAT     H1 4335   6.998   3.089   1.675
 1091WAT     H2 4336   7.061   3.107   1.811
 1092WAT      O 4337   7.796   1.880   2.294
 1092WAT     H1 4338   7.827   1.824   2.222
 1092WAT     H2 4339   7.703   1.893   2.276
 1093WAT      O 4340   8.035   2.686   1.968
 1093WAT     H1 4341   7.942   2.680   1.990
 1093WAT     H2 4342   8.050   2.780   1.956
 1094WAT      O 4343   8.034   2.314   1.667
 1094WAT     H1 4344   7.940   2.330   1.676
 1094WAT     H2 4345   8.066   2.385   1.613
 1095WAT      O 4346   7.596   2.739   2.246
 1095WAT     H1 4347   7.555   2.668   2.196
 1095WAT     H2 4348   7.604   2.705   2.335
 1096WAT      O 4349   7.642   3.108   2.462
 1096WAT     H1 4350   7.613   3.047   2.394
 1096WAT     H2 4351   7.737   3.111   2.451
 1097WAT      O 4352   7.467   2.416   2.624
 1097WAT     H1 4353   7.522   2.427   2.546
 1097WAT     H2 4354   7.518   2.454   2.695
 1098WAT      O 4355   7.552   3.082   3.127
 1098WAT     H1 4356   7.462   3.104   3.152
 1098WAT     H2 4357   7.554   3.094   3.032
 1099WAT      O 4358   7.434   2.769   2.985
 1099WAT     H1 4359   7.420   2.856   3.022
 1099WAT     H2 4360   7.346   2.734   2.970
 1100WAT      O 4361   8.067   3.260   2.115
 1100WAT     H1 4362   8.111   3.335   2.074
 1100WAT     H2 4363   8.061   3.285   2.208
 1101WAT      O 4364   7.614   3.363   3.206
 1101WAT     H1 4365   7.611   3.403   3.119
 1101WAT     H2 4366   7.598   3.270   3.189
 1102WAT      O 4367   7.266   2.628   1.996
 1102WAT     H1 4368   7.254   2.701   1.935
 1102WAT     H2 4369   7.235   2.552   1.948
 1103WAT      O 4370   7.030   2.946   2.577
 1103WAT     H1 4371   7.037   2.959   2.482
 1103WAT     H2 4372   7.091   2.875   2.596
 1104WAT      O 4373   7.154   3.116   2.218
 1104WAT     H1 4374   7.113   3.130   2.132
 1104WAT     H2 4375   7.243   3.087   2.197
 1105WAT      O 4376   7.581   3.537   2.029
 1105WAT     H1 4377   7.564   3.445   2.008
 1105WAT     H2 4378   7.496   3.573   2.053
 1106WAT      O 4379   7.035   3.050   2.830
 1106WAT     H1 4380   7.051   3.003   2.749
 1106WAT     H2 4381   7.082   2.999   2.897
 1107WAT      O 4382   7.512   1.963   2.334
 1107WAT     H1 4383   7.468   2.041   2.301
 1107WAT     H2 4384   7.568   1.995   2.405
 1108WAT      O 4385   7.941   2.250   2.894
 1108WAT     H1 4386   7.895   2.270   2.976
 1108WAT     H2 4387   7.901   2.168   2.864
 1109WAT      O 4388   7.824   1.925   1.822
 1109WAT     H1 4389   7.761   1.925   1.895
 1109WAT     H2 4390   7.815   1.838   1.783
 1110WAT      O 4391   7.716   2.017   2.520
 1110WAT     H1 4392   7.746   2.108   2.512
 1110WAT     H2 4393   7.771   1.968   2.459
 1111WAT      O 4394   7.491   2.475   2.107
 1111WAT     H1 4395   7.469   2.454   2.197
 1111WAT     H2 4396   7.413   2.518   2.072
 1112WAT      O 4397   7.735   2.565   3.174
 1112WAT     H1 4398   7.726   2.471   3.159
 1112WAT     H2 4399   7.820   2.587   3.134
 1113WAT      O 4400   8.075   2.339   2.170
 1113WAT     H1 4401   8.114   2.371   2.089
 1113WAT     H2 4402   8.111   2.252   2.181
 1114WAT      O 4403   7.249   2.206   2.989
 1114WAT     H1 4404   7.209   2.291   3.010
 1114WAT     H2 4405   7.180   2.142   3.008
 1115WAT      O 4406   7.906   2.215   3.296
 1115WAT     H1 4407   7.837   2.195   3.359
 1115WAT     H2 4408   7.980   2.243   3.349
 1116WAT      O 4409   6.979   1.998   2.392
 1116WAT     H1 4410   6.950   2.055   2.463
 1116WAT     H2 4411   7.053   1.950   2.428
 1117WAT      O 4412   6.997   2.393   1.513
 1117WAT     H1 4413   6.989   2.487   1.527
 1117WAT     H2 4414   6.962   2.378   1.425
 1118WAT      O 4415   8.134   2.599   2.579
 1118WAT     H1 4416   8.060   2.649   2.614
 1118WAT     H2 4417   8.094   2.517   2.549
 1119WAT      O 4418   7.777   2.266   2.420
 1119WAT     H1 4419   7.778   2.222   2.335
 1119WAT     H2 4420   7.867   2.298   2.431
 1120WAT      O 4421   7.362   2.254   2.316
 1120WAT     H1 4422   7.328   2.302   2.391
 1120WAT     H2 4423   7.286   2.209   2.280
 1121WAT      O 4424   7.784   2.366   1.719
 1121WAT     H1 4425   7.796   2.362   1.814
 1121WAT     H2 4426   7.745   2.452   1.703
 1122WAT      O 4427   7.685   2.597   1.659
 1122WAT     H1 4428   7.628   2.552   1.596
 1122WAT     H2 4429   7.756   2.633   1.605
 1123WAT      O 4430   7.193   2.987   3.046
 1123WAT     H1 4431   7.154   2.923   3.106
 1123WAT     H2 4432   7.224   3.058   3.103
 1124WAT      O 4433   7.807   2.672   2.595
 1124WAT     H1 4434   7.844   2.625   2.669
 1124WAT     H2 4435   7.789   2.759   2.629
 1125WAT      O 4436   7.094   2.146   2.207
 1125WAT     H1 4437   7.065   2.110   2.291
 1125WAT     H2 4438   7.088   2.073   2.146
 1126WAT      O 4439   7.586   2.576   2.826
 1126WAT     H1 4440   7.556   2.664   2.849
 1126WAT     H2 4441   7.682   2.582   2.830
 1127WAT      O 4442   7.439   2.997   1.886
 1127WAT     H1 4443   7.362   2.943   1.870
 1127WAT     H2 4444   7.512   2.945   1.852
 1128WAT      O 4445   8.061   2.036   1.880
 1128WAT     H1 4446   7.980   1.986   1.872
 1128WAT     H2 4447   8.042   2.120   1.838
 1129WAT      O 4448   8.053   2.904   3.054
 1129WAT     H1 4449   8.047   2.811   3.029
 1129WAT     H2 4450   7.990   2.913   3.125
 1130WAT      O 4451   7.444   2.964   2.250
 1130WAT     H1 4452   7.495   2.883   2.244
 1130WAT     H2 4453   7.399   2.957   2.334
 1131WAT      O 4454   7.932   3.090   1.777
 1131WAT     H1 4455   7.967   3.165   1.728
 1131WAT     H2 4456   7.849   3.122   1.813
 1132WAT      O 4457   7.192   2.660   2.941
 1132WAT     H1 4458   7.156   2.727   3.000
 1132WAT     H2 4459   7.163   2.577   2.978
 1133WAT      O 4460   7.512   2.706   3.229
 1133WAT     H1 4461   7.482   2.721   3.140
 1133WAT     H2 4462   7.589   2.650   3.220
 1134WAT      O 4463   8.047   3.186   3.029
 1134WAT     H1 4464   8.048   3.093   3.007
 1134WAT     H2 4465   7.976   3.194   3.093
 1135WAT      O 4466   7.829   3.098   2.054
 1135WAT     H1 4467   7.898   3.153   2.092
 1135WAT     H2 4468   7.751   3.153   2.058
 1136WAT      O 4469   7.043   2.660   1.603
 1136WAT     H1 4470   7.130   2.688   1.632
 1136WAT     H2 4471   6.994   2.741   1.592
 1137WAT      O 4472   7.760   2.799   2.016
 1137WAT     H1 4473   7.805   2.880   2.038
 1137WAT     H2 4474   7.724   2.767   2.099
 1138WAT      O 4475   7.990   3.350   2.738
 1138WAT     H1 4476   8.054   3.370   2.806
 1138WAT     H2 4477   8.026   3.274   2.693
 1139WAT      O 4478   7.350   1.833   2.063
 1139WAT     H1 4479   7.337   1.832   2.158
 1139WAT     H2 4480   7.267   1.867   2.028
 1140WAT      O 4481   7.080   3.581   1.660
 1140WAT     H1 4482   7.116   3.641   1.595
 1140WAT     H2 4483   7.066   3.636   1.737
 1141WAT      O 4484   7.050   2.009   3.009
 1141WAT     H1 4485   6.978   2.029   3.069
 1141WAT     H2 4486   7.092   1.932   3.046
 1142WAT      O 4487   7.078   3.408   3.107
 1142WAT     H1 4488   7.089   3.314   3.093
 1142WAT     H2 4489   7.013   3.434   3.043
 1143WAT      O 4490   7.877   3.235   3.247
 1143WAT     H1 4491   7.845   3.163   3.302
 1143WAT     H2 4492   7.810   3.303   3.255
 1144WAT      O 4493   7.682   3.320   1.742
 1144WAT     H1 4494   7.681   3.393   1.680
 1144WAT     H2 4495   7.590   3.295   1.751
 1145WAT      O 4496   7.242   2.842   1.816
 1145WAT     H1 4497   7.181   2.916   1.817
 1145WAT     H2 4498   7.289   2.851   1.734
 1146WAT      O 4499   7.980   3.326   1.608
 1146WAT     H1 4500   7.990   3.306   1.515
 1146WAT     H2 4501   7.890   3.301   1.629
 1147WAT      O 4502   7.732   2.382   2.006
 1147WAT     H1 4503   7.662   2.429   2.050
 1147WAT     H2 4504   7.761   2.316   2.070
 1148WAT      O 4505   7.895   2.524   2.806
 1148WAT     H1 4506   7.945   2.571   2.873
 1148WAT     H2 4507   7.909   2.431   2.827
 1149WAT      O 4508   7.844   3.578   2.078
 1149WAT     H1 4509   7.870   3.574   1.985
 1149WAT     H2 4510   7.749   3.565   2.077
 1150WAT      O 4511   7.553   2.213   1.744
 1150WAT     H1 4512   7.638   2.256   1.737
 1150WAT     H2 4513   7.516   2.244   1.827
 1151WAT      O 4514   7.443   2.838   1.591
 1151WAT     H1 4515   7.519   2.827   1.647
 1151WAT     H2 4516   7.450   2.768   1.526
 1152WAT      O 4517   7.312   2.581   1.659
 1152WAT     H1 4518   7.320   2.486   1.671
 1152WAT     H2 4519   7.401   2.614   1.670
 1153WAT      O 4520   7.392   3.596   2.370
 1153WAT     H1 4521   7.466   3.541   2.397
 1153WAT     H2 4522   7.431   3.683   2.356
 1154WAT      O 4523   7.081   3.203   1.957
 1154WAT     H1 4524   6.988   3.227   1.956
 1154WAT     H2 4525   7.127   3.286   1.945
 1155WAT      O 4526   7.293   3.515   3.289
 1155WAT     H1 4527   7.373   3.547   3.330
 1155WAT     H2 4528   7.241   3.479   3.361
 1156WAT      O 4529   7.703   3.513   1.552
 1156WAT     H1 4530   7.783   3.542   1.507
 1156WAT     H2 4531   7.651   3.470   1.484
 1157WAT      O 4532   7.755   3.035   1.538
 1157WAT     H1 4533   7.745   2.974   1.611
 1157WAT     H2 4534   7.738   2.983   1.460
 1158WAT      O 4535   7.770   2.904   3.136
 1158WAT     H1 4536   7.694   2.961   3.128
 1158WAT     H2 4537   7.788   2.875   3.047
 1159WAT      O 4538   8.079   2.942   1.599
 1159WAT     H1 4539   8.024   2.986   1.663
 1159WAT     H2 4540   8.141   2.891   1.651
 1160WAT      O 4541   7.268   2.578   3.273
 1160WAT     H1 4542   7.272   2.548   3.363
 1160WAT     H2 4543   7.354   2.618   3.257
 1161WAT      O 4544   7.646   2.838   1.789
 1161WAT     H1 4545   7.688   2.821   1.873
 1161WAT     H2 4546   7.658   2.757   1.739
 1162WAT      O 4547   7.462   2.436   3.069
 1162WAT     H1 4548   7.409   2.386   3.007
 1162WAT     H2 4549   7.529   2.478   3.016
 1163WAT      O 4550   7.897   2.740   1.513
 1163WAT     H1 4551   7.949   2.668   1.477
 1163WAT     H2 4552   7.962   2.804   1.543
 1164WAT      O 4553   7.511   2.132   3.077
 1164WAT     H1 4554   7.501   2.070   3.005
 1164WAT     H2 4555   7.453   2.205   3.055
 1165WAT      O 4556   7.788   1.988   2.781
 1165WAT     H1 4557   7.743   1.990   2.696
 1165WAT     H2 4558   7.724   1.948   2.840
 1166WAT      O 4559   7.828   2.877   2.843
 1166WAT     H1 4560   7.870   2.962   2.825
 1166WAT     H2 4561   7.736   2.891   2.820
 1167WAT      O 4562   8.062   2.651   2.981
 1167WAT     H1 4563   8.074   2.591   3.055
 1167WAT     H2 4564   8.148   2.654   2.939
 1168WAT      O 4565   7.535   2.445   1.483
 1168WAT     H1 4566   7.515   2.359   1.519
 1168WAT     H2 4567   7.518   2.436   1.389
 1169WAT      O 4568   7.613   3.508   2.954
 1169WAT     H1 4569   7.559   3.580   2.922
 1169WAT     H2 4570   7.639   3.460   2.875
 1170WAT      O 4571   7.738   2.305   3.107
 1170WAT     H1 4572   7.797   2.274   3.176
 1170WAT     H2 4573   7.657   2.258   3.122
 1171WAT      O 4574   7.415   2.155   1.482
 1171WAT     H1 4575   7.446   2.156   1.391
 1171WAT     H2 4576   7.489   2.120   1.532
 1172WAT      O 4577   7.899   3.631   2.980
 1172WAT     H1 4578   7.891   3.722   3.011
 1172WAT     H2 4579   7.809   3.600   2.977
 1173WAT      O 4580   7.737   2.049   1.580
 1173WAT     H1 4581   7.702   1.982   1.523
 1173WAT     H2 4582   7.757   2.003   1.662
 1174WAT      O 4583   7.954   3.548   1.742
 1174WAT     H1 4584   8.043   3.582   1.745
 1174WAT     H2 4585   7.957   3.476   1.680
 1175WAT      O 4586   7.318   3.085   1.565
 1175WAT     H1 4587   7.361   3.140   1.631
 1175WAT     H2 4588   7.366   3.003   1.566
 1176WAT      O 4589   7.039   3.364   2.310
 1176WAT     H1 4590   7.072   3.277   2.287
 1176WAT     H2 4591   7.082   3.385   2.393
 1177WAT      O 4592   7.499   3.197   2.076
 1177WAT     H1 4593   7.469   3.185   2.166
 1177WAT     H2 4594   7.488   3.111   2.036
 1178WAT      O 4595   7.088   3.451   2.584
 1178WAT     H1 4596   7.044   3.469   2.667
 1178WAT     H2 4597   7.145   3.527   2.570
 1179WAT      O 4598   7.071   2.702   2.220
 1179WAT     H1 4599   7.006   2.675   2.156
 1179WAT     H2 4600   7.155   2.691   2.175
 1180WAT      O 4601   7.175   2.741   2.674
 1180WAT     H1 4602   7.212   2.732   2.762
 1180WAT     H2 4603   7.118   2.664   2.664
 1181WAT      O 4604   7.130   2.432   3.065
 1181WAT     H1 4605   7.041   2.428   3.099
 1181WAT     H2 4606   7.184   2.452   3.141
 1182WAT      O 4607   6.993   2.423   1.814
 1182WAT     H1 4608   6.902   2.449   1.797
 1182WAT     H2 4609   7.041   2.450   1.736
 1183WAT      O 4610   7.247   2.329   1.605
 1183WAT     H1 4611   7.318   2.287   1.557
 1183WAT     H2 4612   7.175   2.336   1.542
 1184WAT      O 4613   7.212   1.934   1.509
 1184WAT     H1 4614   7.284   1.988   1.541
 1184WAT     H2 4615   7.239   1.907   1.422
 1185WAT      O 4616   7.181   1.859   2.500
 1185WAT     H1 4617   7.245   1.804   2.456
 1185WAT     H2 4618   7.223   1.885   2.582
 1186WAT      O 4619   7.156   1.875   2.774
 1186WAT     H1 4620   7.121   1.920   2.850
 1186WAT     H2 4621   7.123   1.785   2.782
 1187WAT      O 4622   7.317   3.192   3.190
 1187WAT     H1 4623   7.312   3.155   3.279
 1187WAT     H2 4624   7.330   3.286   3.204
 1188WAT      O 4625   7.687   3.348   2.750
 1188WAT     H1 4626   7.662   3.374   2.662
 1188WAT     H2 4627   7.781   3.365   2.756
 1189WAT      O 4628   7.907   1.994   3.126
 1189WAT     H1 4629   7.901   2.053   3.201
 1189WAT     H2 4630   8.001   1.983   3.112
 1190WAT      O 4631   7.223   1.828   3.101
 1190WAT     H1 4632   7.278   1.809   3.025
 1190WAT     H2 4633   7.230   1.749   3.155
 1191WAT      O 4634   7.300   3.487   2.902
 1191WAT     H1 4635   7.241   3.473   2.976
 1191WAT     H2 4636   7.300   3.403   2.856
 1192WAT      O 4637   7.264   3.223   2.797
 1192WAT     H1 4638   7.191   3.161   2.791
 1192WAT     H2 4639   7.270   3.263   2.710
 1193WAT      O 4640   7.624   3.445   2.476
 1193WAT     H1 4641   7.676   3.384   2.423
 1193WAT     H2 4642   7.689   3.495   2.525
 1194WAT      O 4643   7.898   3.534   2.559
 1194WAT     H1 4644   7.927   3.508   2.471
 1194WAT     H2 4645   7.949   3.479   2.618
 1195WAT      O 4646   8.020   1.908   2.617
 1195WAT     H1 4647   7.941   1.955   2.645
 1195WAT     H2 4648   7.990   1.817   2.606
 1196WAT      O 4649   7.092   3.555   2.118
 1196WAT     H1 4650   7.075   3.492   2.188
 1196WAT     H2 4651   7.005   3.576   2.083
 1197WAT      O 4652   7.154   1.938   1.869
 1197WAT     H1 4653   7.230   1.949   1.811
 1197WAT     H2 4654   7.108   2.022   1.864
 1198WAT      O 4655   7.808   2.150   2.168
 1198WAT     H1 4656   7.727   2.112   2.134
 1198WAT     H2 4657   7.859   2.074   2.198
 1199WAT      O 4658   7.252   3.424   1.863
 1199WAT     H1 4659   7.200   3.462   1.793
 1199WAT     H2 4660   7.245   3.487   1.935
 1200WAT      O 4661   7.391   1.991   1.723
 1200WAT     H1 4662   7.444   1.912   1.710
 1200WAT     H2 4663   7.455   2.059   1.746
 1201WAT      O 4664   7.611   1.965   2.028
 1201WAT     H1 4665   7.548   1.894   2.045
 1201WAT     H2 4666   7.557   2.041   2.007
 1202WAT      O 4667   7.905   3.626   3.295
 1202WAT     H1 4668   7.997   3.602   3.300
 1202WAT     H2 4669   7.903   3.709   3.247
 1203WAT      O 4670   7.623   1.892   3.272
 1203WAT     H1 4671   7.595   1.943   3.195
 1203WAT     H2 4672   7.661   1.813   3.235
 1204WAT      O 4673   7.512   3.619   1.750
 1204WAT     H1 4674   7.586   3.591   1.696
 1204WAT     H2 4675   7.538   3.595   1.839
 1205WAT      O 4676   7.429   3.231   1.751
 1205WAT     H1 4677   7.366   3.278   1.806
 1205WAT     H2 4678   7.440   3.146   1.794
 1206WAT      O 4679   7.987   2.814   0.554
 1206WAT     H1 4680   7.910   2.766   0.583
 1206WAT     H2 4681   8.052   2.746   0.537
 1207WAT      O 4682   7.389   2.845   0.642
 1207WAT     H1 4683   7.306   2.819   0.682
 1207WAT     H2 4684   7.450   2.852   0.715
 1208WAT      O 4685   7.387   3.248   0.661
 1208WAT     H1 4686   7.417   3.159   0.643
 1208WAT     H2 4687   7.461   3.304   0.639
 1209WAT      O 4688   7.026   2.601   0.609
 1209WAT     H1 4689   7.083   2.524   0.609
 1209WAT     H2 4690   7.026   2.631   0.518
 1210WAT      O 4691   8.012   3.483   0.394
 1210WAT     H1 4692   7.950   3.528   0.337
 1210WAT     H2 4693   8.097   3.498   0.354
 1211WAT      O 4694   7.931   3.081   0.555
 1211WAT     H1 4695   7.924   2.987   0.539
 1211WAT     H2 4696   8.007   3.090   0.612
 1212WAT      O 4697   7.150   2.142   0.787
 1212WAT     H1 4698   7.132   2.052   0.815
 1212WAT     H2 4699   7.110   2.196   0.855
 1213WAT      O 4700   8.034   2.362   0.577
 1213WAT     H1 4701   8.072   2.275   0.566
 1213WAT     H2 4702   8.025   2.395   0.488
 1214WAT      O 4703   7.212   2.391   0.648
 1214WAT     H1 4704   7.280   2.418   0.710
 1214WAT     H2 4705   7.181   2.307   0.681
 1215WAT      O 4706   7.631   2.496   0.557
 1215WAT     H1 4707   7.682   2.546   0.621
 1215WAT     H2 4708   7.685   2.418   0.539
 1216WAT      O 4709   7.460   1.960   0.983
 1216WAT     H1 4710   7.460   2.012   0.903
 1216WAT     H2 4711   7.377   1.912   0.981
 1217WAT      O 4712   7.585   2.924   0.801
 1217WAT     H1 4713   7.552   2.987   0.865
 1217WAT     H2 4714   7.603   2.977   0.723
 1218WAT      O 4715   7.428   2.131   0.784
 1218WAT     H1 4716   7.462   2.215   0.755
 1218WAT     H2 4717   7.334   2.146   0.796
 1219WAT      O 4718   7.506   3.121   0.983
 1219WAT     H1 4719   7.568   3.188   0.954
 1219WAT     H2 4720   7.420   3.162   0.974
 1220WAT      O 4721   7.796   1.880   0.417
 1220WAT     H1 4722   7.827   1.824   0.345
 1220WAT     H2 4723   7.703   1.893   0.398
 1221WAT      O 4724   7.596   2.739   0.368
 1221WAT     H1 4725   7.555   2.668   0.319
 1221WAT     H2 4726   7.604   2.705   0.457
 1222WAT      O 4727   7.642   3.108   0.585
 1222WAT     H1 4728   7.613   3.047   0.517
 1222WAT     H2 4729   7.737   3.111   0.574
 1223WAT      O 4730   7.467   2.416   0.746
 1223WAT     H1 4731   7.522   2.427   0.669
 1223WAT     H2 4732   7.518   2.454   0.818
 1224WAT      O 4733   7.552   3.082   1.250
 1224WAT     H1 4734   7.462   3.104   1.275
 1224WAT     H2 4735   7.554   3.094   1.155
 1225WAT      O 4736   7.434   2.769   1.107
 1225WAT     H1 4737   7.420   2.856   1.144
 1225WAT     H2 4738   7.346   2.734   1.093
 1226WAT      O 4739   8.067   3.260   0.238
 1226WAT     H1 4740   8.111   3.335   0.197
 1226WAT     H2 4741   8.061   3.285   0.330
 1227WAT      O 4742   7.614   3.363   1.328
 1227WAT     H1 4743   7.611   3.403   1.242
 1227WAT     H2 4744   7.598   3.270   1.312
 1228WAT      O 4745   7.030   2.946   0.699
 1228WAT     H1 4746   7.037   2.959   0.605
 1228WAT     H2 4747   7.091   2.875   0.718
 1229WAT      O 4748   7.154   3.116   0.340
 1229WAT     H1 4749   7.113   3.130   0.255
 1229WAT     H2 4750   7.243   3.087   0.320
 1230WAT      O 4751   7.035   3.050   0.953
 1230WAT     H1 4752   7.051   3.003   0.871
 1230WAT     H2 4753   7.082   2.999   1.020
 1231WAT      O 4754   7.512   1.963   0.457
 1231WAT     H1 4755   7.468   2.041   0.424
 1231WAT     H2 4756   7.568   1.995   0.527
 1232WAT      O 4757   7.941   2.250   1.017
 1232WAT     H1 4758   7.895   2.270   1.098
 1232WAT     H2 4759   7.901   2.168   0.987
 1233WAT      O 4760   7.716   2.017   0.643
 1233WAT     H1 4761   7.746   2.108   0.634
 1233WAT     H2 4762   7.771   1.968   0.581
 1234WAT      O 4763   7.491   2.475   0.229
 1234WAT     H1 4764   7.469   2.454   0.320
 1234WAT     H2 4765   7.413   2.518   0.195
 1235WAT      O 4766   7.735   2.565   1.296
 1235WAT     H1 4767   7.726   2.471   1.281
 1235WAT     H2 4768   7.820   2.587   1.257
 1236WAT      O 4769   8.075   2.339   0.292
 1236WAT     H1 4770   8.114   2.371   0.211
 1236WAT     H2 4771   8.111   2.252   0.304
 1237WAT      O 4772   7.249   2.206   1.111
 1237WAT     H1 4773   7.209   2.291   1.132
 1237WAT     H2 4774   7.180   2.142   1.130
 1238WAT      O 4775   7.906   2.215   1.418
 1238WAT     H1 4776   7.837   2.195   1.482
 1238WAT     H2 4777   7.980   2.243   1.472
 1239WAT      O 4778   6.979   1.998   0.515
 1239WAT     H1 4779   6.950   2.055   0.586
 1239WAT     H2 4780   7.053   1.950   0.551
 1240WAT      O 4781   8.134   2.599   0.702
 1240WAT     H1 4782   8.060   2.649   0.737
 1240WAT     H2 4783   8.094   2.517   0.672
 1241WAT      O 4784   7.777   2.266   0.542
 1241WAT     H1 4785   7.778   2.222   0.457
 1241WAT     H2 4786   7.867   2.298   0.553
 1242WAT      O 4787   7.362   2.254   0.438
 1242WAT     H1 4788   7.328   2.302   0.514
 1242WAT     H2 4789   7.286   2.209   0.402
 1243WAT      O 4790   7.193   2.987   1.169
 1243WAT     H1 4791   7.154   2.923   1.229
 1243WAT     H2 4792   7.224   3.058   1.226
 1244WAT      O 4793   7.807   2.672   0.717
 1244WAT     H1 4794   7.844   2.625   0.792
 1244WAT     H2 4795   7.789   2.759   0.751
 1245WAT      O 4796   7.094   2.146   0.330
 1245WAT     H1 4797   7.065   2.110   0.414
 1245WAT     H2 4798   7.088   2.073   0.269
 1246WAT      O 4799   7.586   2.576   0.949
 1246WAT     H1 4800   7.556   2.664   0.971
 1246WAT     H2 4801   7.682   2.582   0.953
 1247WAT      O 4802   8.053   2.904   1.177
 1247WAT     H1 4803   8.047   2.811   1.151
 1247WAT     H2 4804   7.990   2.913   1.248
 1248WAT      O 4805   7.444   2.964   0.372
 1248WAT     H1 4806   7.495   2.883   0.367
 1248WAT     H2 4807   7.399   2.957   0.457
 1249WAT      O 4808   7.192   2.660   1.064
 1249WAT     H1 4809   7.156   2.727   1.122
 1249WAT     H2 4810   7.163   2.577   1.101
 1250WAT      O 4811   7.512   2.706   1.352
 1250WAT     H1 4812   7.482   2.721   1.262
 1250WAT     H2 4813   7.589   2.650   1.343
 1251WAT      O 4814   8.047   3.186   1.152
 1251WAT     H1 4815   8.048   3.093   1.130
 1251WAT     H2 4816   7.976   3.194   1.215
 1252WAT      O 4817   7.829   3.098   0.177
 1252WAT     H1 4818   7.898   3.153   0.215
 1252WAT     H2 4819   7.751   3.153   0.180
 1253WAT      O 4820   7.990   3.350   0.861
 1253WAT     H1 4821   8.054   3.370   0.929
 1253WAT     H2 4822   8.026   3.274   0.816
 1254WAT      O 4823   7.050   2.009   1.131
 1254WAT     H1 4824   6.978   2.029   1.192
 1254WAT     H2 4825   7.092   1.932   1.169
 1255WAT      O 4826   7.078   3.408   1.230
 1255WAT     H1 4827   7.089   3.314   1.216
 1255WAT     H2 4828   7.013   3.434   1.165
 1256WAT      O 4829   7.877   3.235   1.370
 1256WAT     H1 4830   7.845   3.163   1.424
 1256WAT     H2 4831   7.810   3.303   1.377
 1257WAT      O 4832   7.895   2.524   0.929
 1257WAT     H1 4833   7.945   2.571   0.995
 1257WAT     H2 4834   7.909   2.431   0.949
 1258WAT      O 4835   7.392   3.596   0.492
 1258WAT     H1 4836   7.466   3.541   0.519
 1258WAT     H2 4837   7.431   3.683   0.478
 1259WAT      O 4838   7.293   3.515   1.411
 1259WAT     H1 4839   7.373   3.547   1.453
 1259WAT     H2 4840   7.241   3.479   1.483
 1260WAT      O 4841   7.065   2.763   1.306
 1260WAT     H1 4842   7.115   2.705   1.363
 1260WAT     H2 4843   6.991   2.792   1.359
 1261WAT      O 4844   7.770   2.904   1.259
 1261WAT     H1 4845   7.694   2.961   1.250
 1261WAT     H2 4846   7.788   2.875   1.170
 1262WAT      O 4847   7.268   2.578   1.395
 1262WAT     H1 4848   7.272   2.548   1.486
 1262WAT     H2 4849   7.354   2.618   1.379
 1263WAT      O 4850   7.462   2.436   1.192
 1263WAT     H1 4851   7.409   2.386   1.129
 1263WAT     H2 4852   7.529   2.478   1.138
 1264WAT      O 4853   7.511   2.132   1.200
 1264WAT     H1 4854   7.501   2.070   1.127
 1264WAT     H2 4855   7.453   2.205   1.177
 1265WAT      O 4856   7.788   1.988   0.903
 1265WAT     H1 4857   7.743   1.990   0.819
 1265WAT     H2 4858   7.724   1.948   0.963
 1266WAT      O 4859   7.828   2.877   0.965
 1266WAT     H1 4860   7.870   2.962   0.948
 1266WAT     H2 4861   7.736   2.891   0.942
 1267WAT      O 4862   8.062   2.651   1.104
 1267WAT     H1 4863   8.074   2.591   1.178
 1267WAT     H2 4864   8.148   2.654   1.062
 1268WAT      O 4865   7.613   3.508   1.077
 1268WAT     H1 4866   7.559   3.580   1.045
 1268WAT     H2 4867   7.639   3.460   0.998
 1269WAT      O 4868   7.738   2.305   1.229
 1269WAT     H1 4869   7.797   2.274   1.298
 1269WAT     H2 4870   7.657   2.258   1.245
 1270WAT      O 4871   7.899   3.631   1.103
 1270WAT     H1 4872   7.891   3.722   1.133
 1270WAT     H2 4873   7.809   3.600   1.100
 1271WAT      O 4874   7.039   3.364   0.433
 1271WAT     H1 4875   7.072   3.277   0.410
 1271WAT     H2 4876   7.082   3.385   0.516
 1272WAT      O 4877   7.088   3.451   0.707
 1272WAT     H1 4878   7.044   3.469   0.790
 1272WAT     H2 4879   7.145   3.527   0.693
 1273WAT      O 4880   7.071   2.702   0.343
 1273WAT     H1 4881   7.006   2.675   0.278
 1273WAT     H2 4882   7.155   2.691   0.298
 1274WAT      O 4883   7.175   2.741   0.797
 1274WAT     H1 4884   7.212   2.732   0.885
 1274WAT     H2 4885   7.118   2.664   0.787
 1275WAT      O 4886   7.130   2.432   1.187
 1275WAT     H1 4887   7.041   2.428   1.221
 1275WAT     H2 4888   7.184   2.452   1.264
 1276WAT      O 4889   7.181   1.859   0.622
 1276WAT     H1 4890   7.245   1.804   0.578
 1276WAT     H2 4891   7.223   1.885   0.704
 1277WAT      O 4892   7.156   1.875   0.896
 1277WAT     H1 4893   7.121   1.920   0.973
 1277WAT     H2 4894   7.123   1.785   0.905
 1278WAT      O 4895   7.317   3.192   1.313
 1278WAT     H1 4896   7.312   3.155   1.401
 1278WAT     H2 4897   7.330   3.286   1.327
 1279WAT      O 4898   7.687   3.348   0.873
 1279WAT     H1 4899   7.662   3.374   0.784
 1279WAT     H2 4900   7.781   3.365   0.879
 1280WAT      O 4901   7.907   1.994   1.249
 1280WAT     H1 4902   7.901   2.053   1.324
 1280WAT     H2 4903   8.001   1.983   1.234
 1281WAT      O 4904   7.223   1.828   1.224
 1281WAT     H1 4905   7.278   1.809   1.148
 1281WAT     H2 4906   7.230   1.749   1.277
 1282WAT      O 4907   7.300   3.487   1.025
 1282WAT     H1 4908   7.241   3.473   1.099
 1282WAT     H2 4909   7.300   3.403   0.978
 1283WAT      O 4910   7.264   3.223   0.920
 1283WAT     H1 4911   7.191   3.161   0.913
 1283WAT     H2 4912   7.270   3.263   0.833
 1284WAT      O 4913   7.624   3.445   0.598
 1284WAT     H1 4914   7.676   3.384   0.546
 1284WAT     H2 4915   7.689   3.495   0.648
 1285WAT      O 4916   7.898   3.534   0.681
 1285WAT     H1 4917   7.927   3.508   0.594
 1285WAT     H2 4918   7.949   3.479   0.740
 1286WAT      O 4919   8.020   1.908   0.739
 1286WAT     H1 4920   7.941   1.955   0.767
 1286WAT     H2 4921   7.990   1.817   0.728
 1287WAT      O 4922   7.092   3.555   0.241
 1287WAT     H1 4923   7.075   3.492   0.311
 1287WAT     H2 4924   7.005   3.576   0.206
 1288WAT      O 4925   7.808   2.150   0.290
 1288WAT     H1 4926   7.727   2.112   0.256
 1288WAT     H2 4927   7.859   2.074   0.321
 1289WAT      O 4928   7.905   3.626   1.418
 1289WAT     H1 4929   7.997   3.602   1.422
 1289WAT     H2 4930   7.903   3.709   1.370
 1290WAT      O 4931   7.623   1.892   1.394
 1290WAT     H1 4932   7.595   1.943   1.318
 1290WAT     H2 4933   7.661   1.813   1.358
 1291WAT      O 4934   7.987   0.936   6.186
 1291WAT     H1 4935   7.910   0.888   6.215
 1291WAT     H2 4936   8.052   0.868   6.169
 1292WAT      O 4937   7.389   0.967   6.274
 1292WAT     H1 4938   7.306   0.942   6.314
 1292WAT     H2 4939   7.450   0.974   6.348
 1293WAT      O 4940   7.387   1.371   6.294
 1293WAT     H1 4941   7.417   1.282   6.276
 1293WAT     H2 4942   7.461   1.426   6.271
 1294WAT      O 4943   7.230   0.463   5.652
 1294WAT     H1 4944   7.141   0.498   5.642
 1294WAT     H2 4945   7.258   0.443   5.563
 1295WAT      O 4946   7.026   0.723   6.241
 1295WAT     H1 4947   7.083   0.647   6.241
 1295WAT     H2 4948   7.026   0.753   6.150
 1296WAT      O 4949   8.012   1.605   6.026
 1296WAT     H1 4950   7.950   1.651   5.969
 1296WAT     H2 4951   8.097   1.621   5.986
 1297WAT      O 4952   7.931   1.204   6.187
 1297WAT     H1 4953   7.924   1.110   6.171
 1297WAT     H2 4954   8.007   1.213   6.244
 1298WAT      O 4955   7.150   0.264   6.420
 1298WAT     H1 4956   7.132   0.175   6.448
 1298WAT     H2 4957   7.110   0.319   6.487
 1299WAT      O 4958   8.034   0.484   6.210
 1299WAT     H1 4959   8.072   0.397   6.198
 1299WAT     H2 4960   8.025   0.518   6.121
 1300WAT      O 4961   7.447   0.322   5.756
 1300WAT     H1 4962   7.458   0.412   5.787
 1300WAT     H2 4963   7.356   0.317   5.727
 1301WAT      O 4964   7.212   0.514   6.280
 1301WAT     H1 4965   7.280   0.540   6.342
 1301WAT     H2 4966   7.181   0.430   6.314
 1302WAT      O 4967   7.631   0.619   6.189
 1302WAT     H1 4968   7.682   0.668   6.253
 1302WAT     H2 4969   7.685   0.541   6.171
 1303WAT      O 4970   8.099   1.094   5.766
 1303WAT     H1 4971   8.037   1.140   5.709
 1303WAT     H2 4972   8.150   1.163   5.807
 1304WAT      O 4973   7.585   1.046   6.433
 1304WAT     H1 4974   7.552   1.109   6.498
 1304WAT     H2 4975   7.603   1.099   6.355
 1305WAT      O 4976   7.428   0.254   6.416
 1305WAT     H1 4977   7.462   0.338   6.387
 1305WAT     H2 4978   7.334   0.268   6.428
 1306WAT      O 4979   7.035   1.162   5.503
 1306WAT     H1 4980   6.998   1.211   5.430
 1306WAT     H2 4981   7.061   1.230   5.566
 1307WAT      O 4982   8.035   0.809   5.722
 1307WAT     H1 4983   7.942   0.802   5.745
 1307WAT     H2 4984   8.050   0.903   5.711
 1308WAT      O 4985   8.034   0.436   5.422
 1308WAT     H1 4986   7.940   0.452   5.431
 1308WAT     H2 4987   8.066   0.508   5.367
 1309WAT      O 4988   7.596   0.862   6.001
 1309WAT     H1 4989   7.555   0.790   5.951
 1309WAT     H2 4990   7.604   0.827   6.090
 1310WAT      O 4991   7.642   1.230   6.217
 1310WAT     H1 4992   7.613   1.170   6.149
 1310WAT     H2 4993   7.737   1.234   6.206
 1311WAT      O 4994   7.467   0.539   6.379
 1311WAT     H1 4995   7.522   0.550   6.301
 1311WAT     H2 4996   7.518   0.576   6.450
 1312WAT      O 4997   8.067   1.383   5.870
 1312WAT     H1 4998   8.111   1.457   5.829
 1312WAT     H2 4999   8.061   1.407   5.963
 1313WAT      O 5000   7.266   0.751   5.751
 1313WAT     H1 5001   7.254   0.824   5.690
 1313WAT     H2 5002   7.235   0.674   5.703
 1314WAT      O 5003   7.030   1.068   6.331
 1314WAT     H1 5004   7.037   1.082   6.237
 1314WAT     H2 5005   7.091   0.997   6.351
 1315WAT      O 5006   7.154   1.238   5.972
 1315WAT     H1 5007   7.113   1.252   5.887
 1315WAT     H2 5008   7.243   1.210   5.952
 1316WAT      O 5009   7.581   1.660   5.784
 1316WAT     H1 5010   7.564   1.568   5.762
 1316WAT     H2 5011   7.496   1.696   5.808
 1317WAT      O 5012   7.491   0.598   5.862
 1317WAT     H1 5013   7.469   0.576   5.952
 1317WAT     H2 5014   7.413   0.641   5.827
 1318WAT      O 5015   8.075   0.462   5.925
 1318WAT     H1 5016   8.114   0.494   5.843
 1318WAT     H2 5017   8.111   0.374   5.936
 1319WAT      O 5018   6.997   0.515   5.268
 1319WAT     H1 5019   6.989   0.610   5.282
 1319WAT     H2 5020   6.962   0.501   5.180
 1320WAT      O 5021   8.134   0.721   6.334
 1320WAT     H1 5022   8.060   0.772   6.369
 1320WAT     H2 5023   8.094   0.639   6.304
 1321WAT      O 5024   7.777   0.389   6.175
 1321WAT     H1 5025   7.778   0.345   6.090
 1321WAT     H2 5026   7.867   0.421   6.185
 1322WAT      O 5027   7.362   0.377   6.071
 1322WAT     H1 5028   7.328   0.425   6.146
 1322WAT     H2 5029   7.286   0.332   6.035
 1323WAT      O 5030   7.784   0.489   5.474
 1323WAT     H1 5031   7.796   0.485   5.569
 1323WAT     H2 5032   7.745   0.575   5.458
 1324WAT      O 5033   7.685   0.720   5.414
 1324WAT     H1 5034   7.628   0.675   5.351
 1324WAT     H2 5035   7.756   0.756   5.360
 1325WAT      O 5036   7.807   0.795   6.349
 1325WAT     H1 5037   7.844   0.747   6.424
 1325WAT     H2 5038   7.789   0.882   6.383
 1326WAT      O 5039   7.094   0.269   5.962
 1326WAT     H1 5040   7.065   0.233   6.046
 1326WAT     H2 5041   7.088   0.196   5.901
 1327WAT      O 5042   7.439   1.119   5.641
 1327WAT     H1 5043   7.362   1.065   5.625
 1327WAT     H2 5044   7.512   1.067   5.607
 1328WAT      O 5045   7.444   1.086   6.005
 1328WAT     H1 5046   7.495   1.006   5.999
 1328WAT     H2 5047   7.399   1.080   6.089
 1329WAT      O 5048   7.932   1.213   5.532
 1329WAT     H1 5049   7.967   1.287   5.482
 1329WAT     H2 5050   7.849   1.244   5.568
 1330WAT      O 5051   7.829   1.221   5.809
 1330WAT     H1 5052   7.898   1.276   5.847
 1330WAT     H2 5053   7.751   1.275   5.813
 1331WAT      O 5054   7.043   0.783   5.358
 1331WAT     H1 5055   7.130   0.811   5.387
 1331WAT     H2 5056   6.994   0.864   5.347
 1332WAT      O 5057   7.760   0.921   5.770
 1332WAT     H1 5058   7.805   1.002   5.793
 1332WAT     H2 5059   7.724   0.890   5.854
 1333WAT      O 5060   7.080   1.704   5.415
 1333WAT     H1 5061   7.116   1.764   5.349
 1333WAT     H2 5062   7.066   1.759   5.492
 1334WAT      O 5063   7.682   1.442   5.497
 1334WAT     H1 5064   7.681   1.516   5.435
 1334WAT     H2 5065   7.590   1.418   5.506
 1335WAT      O 5066   7.242   0.964   5.571
 1335WAT     H1 5067   7.181   1.038   5.572
 1335WAT     H2 5068   7.289   0.973   5.489
 1336WAT      O 5069   7.980   1.449   5.363
 1336WAT     H1 5070   7.990   1.428   5.270
 1336WAT     H2 5071   7.890   1.423   5.383
 1337WAT      O 5072   7.732   0.504   5.761
 1337WAT     H1 5073   7.662   0.551   5.805
 1337WAT     H2 5074   7.761   0.439   5.825
 1338WAT      O 5075   7.844   1.700   5.832
 1338WAT     H1 5076   7.870   1.697   5.740
 1338WAT     H2 5077   7.749   1.688   5.832
 1339WAT      O 5078   7.553   0.335   5.499
 1339WAT     H1 5079   7.638   0.379   5.492
 1339WAT     H2 5080   7.516   0.366   5.581
 1340WAT      O 5081   7.443   0.960   5.346
 1340WAT     H1 5082   7.519   0.949   5.402
 1340WAT     H2 5083   7.450   0.891   5.281
 1341WAT      O 5084   7.312   0.704   5.414
 1341WAT     H1 5085   7.320   0.609   5.426
 1341WAT     H2 5086   7.401   0.737   5.425
 1342WAT      O 5087   7.392   1.719   6.125
 1342WAT     H1 5088   7.466   1.664   6.152
 1342WAT     H2 5089   7.431   1.805   6.111
 1343WAT      O 5090   7.081   1.325   5.712
 1343WAT     H1 5091   6.988   1.350   5.711
 1343WAT     H2 5092   7.127   1.408   5.700
 1344WAT      O 5093   7.703   1.636   5.307
 1344WAT     H1 5094   7.783   1.665   5.262
 1344WAT     H2 5095   7.651   1.593   5.239
 1345WAT      O 5096   7.755   1.158   5.293
 1345WAT     H1 5097   7.745   1.097   5.366
 1345WAT     H2 5098   7.738   1.106   5.215
 1346WAT      O 5099   8.079   1.064   5.354
 1346WAT     H1 5100   8.024   1.109   5.418
 1346WAT     H2 5101   8.141   1.014   5.406
 1347WAT      O 5102   7.646   0.960   5.543
 1347WAT     H1 5103   7.688   0.944   5.628
 1347WAT     H2 5104   7.658   0.879   5.494
 1348WAT      O 5105   7.897   0.863   5.268
 1348WAT     H1 5106   7.949   0.791   5.232
 1348WAT     H2 5107   7.962   0.926   5.298
 1349WAT      O 5108   7.535   0.567   5.238
 1349WAT     H1 5109   7.515   0.481   5.274
 1349WAT     H2 5110   7.518   0.559   5.144
 1350WAT      O 5111   7.415   0.277   5.237
 1350WAT     H1 5112   7.446   0.278   5.146
 1350WAT     H2 5113   7.489   0.242   5.286
 1351WAT      O 5114   7.954   1.671   5.497
 1351WAT     H1 5115   8.043   1.704   5.499
 1351WAT     H2 5116   7.957   1.598   5.434
 1352WAT      O 5117   7.318   1.208   5.320
 1352WAT     H1 5118   7.361   1.262   5.386
 1352WAT     H2 5119   7.366   1.125   5.321
 1353WAT      O 5120   7.039   1.487   6.065
 1353WAT     H1 5121   7.072   1.400   6.042
 1353WAT     H2 5122   7.082   1.507   6.148
 1354WAT      O 5123   7.499   1.320   5.831
 1354WAT     H1 5124   7.469   1.308   5.921
 1354WAT     H2 5125   7.488   1.234   5.790
 1355WAT      O 5126   7.088   1.574   6.339
 1355WAT     H1 5127   7.044   1.592   6.422
 1355WAT     H2 5128   7.145   1.649   6.325
 1356WAT      O 5129   7.071   0.825   5.975
 1356WAT     H1 5130   7.006   0.798   5.911
 1356WAT     H2 5131   7.155   0.814   5.930
 1357WAT      O 5132   7.175   0.863   6.429
 1357WAT     H1 5133   7.212   0.855   6.517
 1357WAT     H2 5134   7.118   0.787   6.419
 1358WAT      O 5135   6.993   0.546   5.569
 1358WAT     H1 5136   6.902   0.572   5.552
 1358WAT     H2 5137   7.041   0.573   5.491
 1359WAT      O 5138   7.247   0.451   5.360
 1359WAT     H1 5139   7.318   0.409   5.312
 1359WAT     H2 5140   7.175   0.458   5.297
 1360WAT      O 5141   7.687   1.470   6.505
 1360WAT     H1 5142   7.662   1.497   6.417
 1360WAT     H2 5143   7.781   1.487   6.511
 1361WAT      O 5144   7.624   1.567   6.231
 1361WAT     H1 5145   7.676   1.506   6.178
 1361WAT     H2 5146   7.689   1.618   6.280
 1362WAT      O 5147   7.898   1.656   6.313
 1362WAT     H1 5148   7.927   1.631   6.226
 1362WAT     H2 5149   7.949   1.601   6.373
 1363WAT      O 5150   7.092   1.678   5.873
 1363WAT     H1 5151   7.075   1.614   5.943
 1363WAT     H2 5152   7.005   1.698   5.838
 1364WAT      O 5153   7.808   0.272   5.923
 1364WAT     H1 5154   7.727   0.235   5.889
 1364WAT     H2 5155   7.859   0.197   5.953
 1365WAT      O 5156   7.252   1.547   5.618
 1365WAT     H1 5157   7.200   1.585   5.547
 1365WAT     H2 5158   7.245   1.609   5.690
 1366WAT      O 5159   7.512   1.742   5.505
 1366WAT     H1 5160   7.586   1.713   5.450
 1366WAT     H2 5161   7.538   1.718   5.594
 1367WAT      O 5162   7.429   1.353   5.506
 1367WAT     H1 5163   7.366   1.400   5.561
 1367WAT     H2 5164   7.440   1.269   5.549
 1368WAT      O 5165   7.987   0.936   4.309
 1368WAT     H1 5166   7.910   0.888   4.338
 1368WAT     H2 5167   8.052   0.868   4.291
 1369WAT      O 5168   7.389   0.967   4.397
 1369WAT     H1 5169   7.306   0.942   4.437
 1369WAT     H2 5170   7.450   0.974   4.470
 1370WAT      O 5171   7.387   1.371   4.416
 1370WAT     H1 5172   7.417   1.282   4.398
 1370WAT     H2 5173   7.461   1.426   4.393
 1371WAT      O 5174   7.230   0.463   3.775
 1371WAT     H1 5175   7.141   0.498   3.765
 1371WAT     H2 5176   7.258   0.443   3.686
 1372WAT      O 5177   7.026   0.723   4.363
 1372WAT     H1 5178   7.083   0.647   4.363
 1372WAT     H2 5179   7.026   0.753   4.272
 1373WAT      O 5180   8.012   1.605   4.149
 1373WAT     H1 5181   7.950   1.651   4.092
 1373WAT     H2 5182   8.097   1.621   4.109
 1374WAT      O 5183   7.931   1.204   4.310
 1374WAT     H1 5184   7.924   1.110   4.293
 1374WAT     H2 5185   8.007   1.213   4.367
 1375WAT      O 5186   7.150   0.264   4.542
 1375WAT     H1 5187   7.132   0.175   4.570
 1375WAT     H2 5188   7.110   0.319   4.610
 1376WAT      O 5189   8.034   0.484   4.332
 1376WAT     H1 5190   8.072   0.397   4.321
 1376WAT     H2 5191   8.025   0.518   4.243
 1377WAT      O 5192   7.447   0.322   3.878
 1377WAT     H1 5193   7.458   0.412   3.909
 1377WAT     H2 5194   7.356   0.317   3.849
 1378WAT      O 5195   7.212   0.514   4.403
 1378WAT     H1 5196   7.280   0.540   4.465
 1378WAT     H2 5197   7.181   0.430   4.436
 1379WAT      O 5198   7.631   0.619   4.312
 1379WAT     H1 5199   7.682   0.668   4.376
 1379WAT     H2 5200   7.685   0.541   4.294
 1380WAT      O 5201   8.099   1.094   3.888
 1380WAT     H1 5202   8.037   1.140   3.832
 1380WAT     H2 5203   8.150   1.163   3.930
 1381WAT      O 5204   7.585   1.046   4.556
 1381WAT     H1 5205   7.552   1.109   4.620
 1381WAT     H2 5206   7.603   1.099   4.478
 1382WAT      O 5207   7.428   0.254   4.539
 1382WAT     H1 5208   7.462   0.338   4.510
 1382WAT     H2 5209   7.334   0.268   4.551
 1383WAT      O 5210   7.506   1.243   4.738
 1383WAT     H1 5211   7.568   1.311   4.709
 1383WAT     H2 5212   7.420   1.284   4.728
 1384WAT      O 5213   7.035   1.162   3.626
 1384WAT     H1 5214   6.998   1.211   3.552
 1384WAT     H2 5215   7.061   1.230   3.689
 1385WAT      O 5216   8.035   0.809   3.845
 1385WAT     H1 5217   7.942   0.802   3.868
 1385WAT     H2 5218   8.050   0.903   3.834
 1386WAT      O 5219   8.034   0.436   3.545
 1386WAT     H1 5220   7.940   0.452   3.553
 1386WAT     H2 5221   8.066   0.508   3.490
 1387WAT      O 5222   7.596   0.862   4.123
 1387WAT     H1 5223   7.555   0.790   4.074
 1387WAT     H2 5224   7.604   0.827   4.212
 1388WAT      O 5225   7.642   1.230   4.340
 1388WAT     H1 5226   7.613   1.170   4.272
 1388WAT     H2 5227   7.737   1.234   4.329
 1389WAT      O 5228   7.467   0.539   4.501
 1389WAT     H1 5229   7.522   0.550   4.424
 1389WAT     H2 5230   7.518   0.576   4.573
 1390WAT      O 5231   7.552   1.204   5.005
 1390WAT     H1 5232   7.462   1.226   5.029
 1390WAT     H2 5233   7.554   1.216   4.910
 1391WAT      O 5234   7.434   0.891   4.862
 1391WAT     H1 5235   7.420   0.978   4.899
 1391WAT     H2 5236   7.346   0.857   4.848
 1392WAT      O 5237   8.067   1.383   3.993
 1392WAT     H1 5238   8.111   1.457   3.951
 1392WAT     H2 5239   8.061   1.407   4.085
 1393WAT      O 5240   7.614   1.485   5.083
 1393WAT     H1 5241   7.611   1.526   4.996
 1393WAT     H2 5242   7.598   1.393   5.067
 1394WAT      O 5243   7.266   0.751   3.873
 1394WAT     H1 5244   7.254   0.824   3.812
 1394WAT     H2 5245   7.235   0.674   3.826
 1395WAT      O 5246   7.030   1.068   4.454
 1395WAT     H1 5247   7.037   1.082   4.360
 1395WAT     H2 5248   7.091   0.997   4.473
 1396WAT      O 5249   7.154   1.238   4.095
 1396WAT     H1 5250   7.113   1.252   4.010
 1396WAT     H2 5251   7.243   1.210   4.075
 1397WAT      O 5252   7.581   1.660   3.906
 1397WAT     H1 5253   7.564   1.568   3.885
 1397WAT     H2 5254   7.496   1.696   3.930
 1398WAT      O 5255   7.035   1.172   4.708
 1398WAT     H1 5256   7.051   1.125   4.626
 1398WAT     H2 5257   7.082   1.122   4.774
 1399WAT      O 5258   7.941   0.372   4.772
 1399WAT     H1 5259   7.895   0.393   4.853
 1399WAT     H2 5260   7.901   0.291   4.742
 1400WAT      O 5261   7.491   0.598   3.984
 1400WAT     H1 5262   7.469   0.576   4.075
 1400WAT     H2 5263   7.413   0.641   3.950
 1401WAT      O 5264   7.735   0.688   5.051
 1401WAT     H1 5265   7.726   0.594   5.036
 1401WAT     H2 5266   7.820   0.710   5.011
 1402WAT      O 5267   8.075   0.462   4.047
 1402WAT     H1 5268   8.114   0.494   3.966
 1402WAT     H2 5269   8.111   0.374   4.059
 1403WAT      O 5270   7.249   0.329   4.866
 1403WAT     H1 5271   7.209   0.413   4.887
 1403WAT     H2 5272   7.180   0.265   4.885
 1404WAT      O 5273   7.906   0.337   5.173
 1404WAT     H1 5274   7.837   0.318   5.237
 1404WAT     H2 5275   7.980   0.365   5.226
 1405WAT      O 5276   6.997   0.515   3.391
 1405WAT     H1 5277   6.989   0.610   3.405
 1405WAT     H2 5278   6.962   0.501   3.303
 1406WAT      O 5279   8.134   0.721   4.457
 1406WAT     H1 5280   8.060   0.772   4.492
 1406WAT     H2 5281   8.094   0.639   4.427
 1407WAT      O 5282   7.777   0.389   4.297
 1407WAT     H1 5283   7.778   0.345   4.212
 1407WAT     H2 5284   7.867   0.421   4.308
 1408WAT      O 5285   7.362   0.377   4.193
 1408WAT     H1 5286   7.328   0.425   4.269
 1408WAT     H2 5287   7.286   0.332   4.157
 1409WAT      O 5288   7.784   0.489   3.596
 1409WAT     H1 5289   7.796   0.485   3.691
 1409WAT     H2 5290   7.745   0.575   3.581
 1410WAT      O 5291   7.685   0.720   3.536
 1410WAT     H1 5292   7.628   0.675   3.474
 1410WAT     H2 5293   7.756   0.756   3.483
 1411WAT      O 5294   7.193   1.110   4.924
 1411WAT     H1 5295   7.154   1.046   4.984
 1411WAT     H2 5296   7.224   1.180   4.981
 1412WAT      O 5297   7.807   0.795   4.472
 1412WAT     H1 5298   7.844   0.747   4.547
 1412WAT     H2 5299   7.789   0.882   4.506
 1413WAT      O 5300   7.094   0.269   4.085
 1413WAT     H1 5301   7.065   0.233   4.169
 1413WAT     H2 5302   7.088   0.196   4.024
 1414WAT      O 5303   7.586   0.699   4.704
 1414WAT     H1 5304   7.556   0.787   4.726
 1414WAT     H2 5305   7.682   0.705   4.707
 1415WAT      O 5306   7.439   1.119   3.763
 1415WAT     H1 5307   7.362   1.065   3.747
 1415WAT     H2 5308   7.512   1.067   3.730
 1416WAT      O 5309   8.053   1.026   4.931
 1416WAT     H1 5310   8.047   0.934   4.906
 1416WAT     H2 5311   7.990   1.036   5.003
 1417WAT      O 5312   7.444   1.086   4.127
 1417WAT     H1 5313   7.495   1.006   4.122
 1417WAT     H2 5314   7.399   1.080   4.211
 1418WAT      O 5315   7.932   1.213   3.655
 1418WAT     H1 5316   7.967   1.287   3.605
 1418WAT     H2 5317   7.849   1.244   3.691
 1419WAT      O 5318   7.192   0.783   4.819
 1419WAT     H1 5319   7.156   0.849   4.877
 1419WAT     H2 5320   7.163   0.700   4.856
 1420WAT      O 5321   7.512   0.829   5.107
 1420WAT     H1 5322   7.482   0.843   5.017
 1420WAT     H2 5323   7.589   0.773   5.098
 1421WAT      O 5324   8.047   1.308   4.906
 1421WAT     H1 5325   8.048   1.215   4.885
 1421WAT     H2 5326   7.976   1.317   4.970
 1422WAT      O 5327   7.829   1.221   3.932
 1422WAT     H1 5328   7.898   1.276   3.970
 1422WAT     H2 5329   7.751   1.275   3.935
 1423WAT      O 5330   7.043   0.783   3.481
 1423WAT     H1 5331   7.130   0.811   3.509
 1423WAT     H2 5332   6.994   0.864   3.469
 1424WAT      O 5333   7.760   0.921   3.893
 1424WAT     H1 5334   7.805   1.002   3.916
 1424WAT     H2 5335   7.724   0.890   3.976
 1425WAT      O 5336   7.990   1.472   4.616
 1425WAT     H1 5337   8.054   1.493   4.684
 1425WAT     H2 5338   8.026   1.396   4.571
 1426WAT      O 5339   7.080   1.704   3.537
 1426WAT     H1 5340   7.116   1.764   3.472
 1426WAT     H2 5341   7.066   1.759   3.615
 1427WAT      O 5342   7.078   1.530   4.985
 1427WAT     H1 5343   7.089   1.436   4.971
 1427WAT     H2 5344   7.013   1.557   4.920
 1428WAT      O 5345   7.877   1.358   5.125
 1428WAT     H1 5346   7.845   1.286   5.179
 1428WAT     H2 5347   7.810   1.425   5.132
 1429WAT      O 5348   7.682   1.442   3.619
 1429WAT     H1 5349   7.681   1.516   3.558
 1429WAT     H2 5350   7.590   1.418   3.628
 1430WAT      O 5351   7.242   0.964   3.694
 1430WAT     H1 5352   7.181   1.038   3.695
 1430WAT     H2 5353   7.289   0.973   3.611
 1431WAT      O 5354   7.980   1.449   3.485
 1431WAT     H1 5355   7.990   1.428   3.392
 1431WAT     H2 5356   7.890   1.423   3.506
 1432WAT      O 5357   7.732   0.504   3.884
 1432WAT     H1 5358   7.662   0.551   3.928
 1432WAT     H2 5359   7.761   0.439   3.947
 1433WAT      O 5360   7.895   0.646   4.684
 1433WAT     H1 5361   7.945   0.694   4.750
 1433WAT     H2 5362   7.909   0.554   4.704
 1434WAT      O 5363   7.844   1.700   3.955
 1434WAT     H1 5364   7.870   1.697   3.863
 1434WAT     H2 5365   7.749   1.688   3.954
 1435WAT      O 5366   7.553   0.335   3.621
 1435WAT     H1 5367   7.638   0.379   3.615
 1435WAT     H2 5368   7.516   0.366   3.704
 1436WAT      O 5369   7.443   0.960   3.469
 1436WAT     H1 5370   7.519   0.949   3.525
 1436WAT     H2 5371   7.450   0.891   3.403
 1437WAT      O 5372   7.312   0.704   3.537
 1437WAT     H1 5373   7.320   0.609   3.548
 1437WAT     H2 5374   7.401   0.737   3.548
 1438WAT      O 5375   7.392   1.719   4.247
 1438WAT     H1 5376   7.466   1.664   4.274
 1438WAT     H2 5377   7.431   1.805   4.233
 1439WAT      O 5378   7.081   1.325   3.835
 1439WAT     H1 5379   6.988   1.350   3.834
 1439WAT     H2 5380   7.127   1.408   3.823
 1440WAT      O 5381   7.293   1.637   5.166
 1440WAT     H1 5382   7.373   1.669   5.207
 1440WAT     H2 5383   7.241   1.601   5.238
 1441WAT      O 5384   7.703   1.636   3.430
 1441WAT     H1 5385   7.783   1.665   3.384
 1441WAT     H2 5386   7.651   1.593   3.362
 1442WAT      O 5387   7.065   0.886   5.060
 1442WAT     H1 5388   7.115   0.828   5.118
 1442WAT     H2 5389   6.991   0.914   5.114
 1443WAT      O 5390   7.755   1.158   3.416
 1443WAT     H1 5391   7.745   1.097   3.489
 1443WAT     H2 5392   7.738   1.106   3.338
 1444WAT      O 5393   7.770   1.027   5.014
 1444WAT     H1 5394   7.694   1.083   5.005
 1444WAT     H2 5395   7.788   0.997   4.925
 1445WAT      O 5396   8.079   1.064   3.476
 1445WAT     H1 5397   8.024   1.109   3.541
 1445WAT     H2 5398   8.141   1.014   3.529
 1446WAT      O 5399   7.268   0.700   5.150
 1446WAT     H1 5400   7.272   0.670   5.241
 1446WAT     H2 5401   7.354   0.740   5.134
 1447WAT      O 5402   7.646   0.960   3.666
 1447WAT     H1 5403   7.688   0.944   3.750
 1447WAT     H2 5404   7.658   0.879   3.617
 1448WAT      O 5405   7.462   0.558   4.947
 1448WAT     H1 5406   7.409   0.509   4.884
 1448WAT     H2 5407   7.529   0.601   4.893
 1449WAT      O 5408   7.897   0.863   3.391
 1449WAT     H1 5409   7.949   0.791   3.354
 1449WAT     H2 5410   7.962   0.926   3.421
 1450WAT      O 5411   7.511   0.255   4.955
 1450WAT     H1 5412   7.501   0.193   4.882
 1450WAT     H2 5413   7.453   0.327   4.932
 1451WAT      O 5414   7.828   1.000   4.720
 1451WAT     H1 5415   7.870   1.084   4.703
 1451WAT     H2 5416   7.736   1.014   4.697
 1452WAT      O 5417   8.062   0.773   4.858
 1452WAT     H1 5418   8.074   0.714   4.932
 1452WAT     H2 5419   8.148   0.777   4.816
 1453WAT      O 5420   7.535   0.567   3.361
 1453WAT     H1 5421   7.515   0.481   3.397
 1453WAT     H2 5422   7.518   0.559   3.267
 1454WAT      O 5423   7.613   1.631   4.832
 1454WAT     H1 5424   7.559   1.703   4.800
 1454WAT     H2 5425   7.639   1.583   4.753
 1455WAT      O 5426   7.738   0.427   4.984
 1455WAT     H1 5427   7.797   0.397   5.053
 1455WAT     H2 5428   7.657   0.380   5.000
 1456WAT      O 5429   7.415   0.277   3.359
 1456WAT     H1 5430   7.446   0.278   3.269
 1456WAT     H2 5431   7.489   0.242   3.409
 1457WAT      O 5432   7.899   1.754   4.858
 1457WAT     H1 5433   7.891   1.844   4.888
 1457WAT     H2 5434   7.809   1.722   4.855
 1458WAT      O 5435   7.954   1.671   3.620
 1458WAT     H1 5436   8.043   1.704   3.622
 1458WAT     H2 5437   7.957   1.598   3.557
 1459WAT      O 5438   7.318   1.208   3.443
 1459WAT     H1 5439   7.361   1.262   3.508
 1459WAT     H2 5440   7.366   1.125   3.444
 1460WAT      O 5441   7.039   1.487   4.188
 1460WAT     H1 5442   7.072   1.400   4.165
 1460WAT     H2 5443   7.082   1.507   4.271
 1461WAT      O 5444   7.499   1.320   3.954
 1461WAT     H1 5445   7.469   1.308   4.044
 1461WAT     H2 5446   7.488   1.234   3.913
 1462WAT      O 5447   7.088   1.574   4.462
 1462WAT     H1 5448   7.044   1.592   4.545
 1462WAT     H2 5449   7.145   1.649   4.447
 1463WAT      O 5450   7.071   0.825   4.098
 1463WAT     H1 5451   7.006   0.798   4.033
 1463WAT     H2 5452   7.155   0.814   4.053
 1464WAT      O 5453   7.175   0.863   4.552
 1464WAT     H1 5454   7.212   0.855   4.640
 1464WAT     H2 5455   7.118   0.787   4.542
 1465WAT      O 5456   7.130   0.554   4.942
 1465WAT     H1 5457   7.041   0.551   4.976
 1465WAT     H2 5458   7.184   0.574   5.019
 1466WAT      O 5459   6.993   0.546   3.692
 1466WAT     H1 5460   6.902   0.572   3.674
 1466WAT     H2 5461   7.041   0.573   3.614
 1467WAT      O 5462   7.247   0.451   3.483
 1467WAT     H1 5463   7.318   0.409   3.434
 1467WAT     H2 5464   7.175   0.458   3.420
 1468WAT      O 5465   7.317   1.315   5.068
 1468WAT     H1 5466   7.312   1.277   5.156
 1468WAT     H2 5467   7.330   1.408   5.082
 1469WAT      O 5468   7.687   1.470   4.628
 1469WAT     H1 5469   7.662   1.497   4.539
 1469WAT     H2 5470   7.781   1.487   4.633
 1470WAT      O 5471   7.300   1.609   4.780
 1470WAT     H1 5472   7.241   1.596   4.854
 1470WAT     H2 5473   7.300   1.526   4.733
 1471WAT      O 5474   7.264   1.346   4.675
 1471WAT     H1 5475   7.191   1.284   4.668
 1471WAT     H2 5476   7.270   1.385   4.588
 1472WAT      O 5477   7.624   1.567   4.353
 1472WAT     H1 5478   7.676   1.506   4.301
 1472WAT     H2 5479   7.689   1.618   4.402
 1473WAT      O 5480   7.898   1.656   4.436
 1473WAT     H1 5481   7.927   1.631   4.348
 1473WAT     H2 5482   7.949   1.601   4.495
 1474WAT      O 5483   7.092   1.678   3.996
 1474WAT     H1 5484   7.075   1.614   4.066
 1474WAT     H2 5485   7.005   1.698   3.961
 1475WAT      O 5486   7.808   0.272   4.045
 1475WAT     H1 5487   7.727   0.235   4.011
 1475WAT     H2 5488   7.859   0.197   4.075
 1476WAT      O 5489   7.252   1.547   3.740
 1476WAT     H1 5490   7.200   1.585   3.670
 1476WAT     H2 5491   7.245   1.609   3.812
 1477WAT      O 5492   7.905   1.748   5.173
 1477WAT     H1 5493   7.997   1.725   5.177
 1477WAT     H2 5494   7.903   1.831   5.125
 1478WAT      O 5495   7.512   1.742   3.628
 1478WAT     H1 5496   7.586   1.713   3.573
 1478WAT     H2 5497   7.538   1.718   3.717
 1479WAT      O 5498   7.429   1.353   3.628
 1479WAT     H1 5499   7.366   1.400   3.683
 1479WAT     H2 5500   7.440   1.269   3.672
 1480WAT      O 5501   7.987   0.936   2.431
 1480WAT     H1 5502   7.910   0.888   2.460
 1480WAT     H2 5503   8.052   0.868   2.414
 1481WAT      O 5504   7.389   0.967   2.519
 1481WAT     H1 5505   7.306   0.942   2.559
 1481WAT     H2 5506   7.450   0.974   2.593
 1482WAT      O 5507   7.387   1.371   2.539
 1482WAT     H1 5508   7.417   1.282   2.521
 1482WAT     H2 5509   7.461   1.426   2.516
 1483WAT      O 5510   7.230   0.463   1.898
 1483WAT     H1 5511   7.141   0.498   1.887
 1483WAT     H2 5512   7.258   0.443   1.808
 1484WAT      O 5513   7.026   0.723   2.486
 1484WAT     H1 5514   7.083   0.647   2.486
 1484WAT     H2 5515   7.026   0.753   2.395
 1485WAT      O 5516   8.012   1.605   2.271
 1485WAT     H1 5517   7.950   1.651   2.214
 1485WAT     H2 5518   8.097   1.621   2.231
 1486WAT      O 5519   7.931   1.204   2.432
 1486WAT     H1 5520   7.924   1.110   2.416
 1486WAT     H2 5521   8.007   1.213   2.489
 1487WAT      O 5522   7.150   0.264   2.665
 1487WAT     H1 5523   7.132   0.175   2.693
 1487WAT     H2 5524   7.110   0.319   2.732
 1488WAT      O 5525   8.034   0.484   2.455
 1488WAT     H1 5526   8.072   0.397   2.444
 1488WAT     H2 5527   8.025   0.518   2.366
 1489WAT      O 5528   7.447   0.322   2.001
 1489WAT     H1 5529   7.458   0.412   2.032
 1489WAT     H2 5530   7.356   0.317   1.972
 1490WAT      O 5531   7.212   0.514   2.525
 1490WAT     H1 5532   7.280   0.540   2.587
 1490WAT     H2 5533   7.181   0.430   2.559
 1491WAT      O 5534   7.631   0.619   2.434
 1491WAT     H1 5535   7.682   0.668   2.498
 1491WAT     H2 5536   7.685   0.541   2.417
 1492WAT      O 5537   8.099   1.094   2.011
 1492WAT     H1 5538   8.037   1.140   1.954
 1492WAT     H2 5539   8.150   1.163   2.052
 1493WAT      O 5540   7.585   1.046   2.679
 1493WAT     H1 5541   7.552   1.109   2.743
 1493WAT     H2 5542   7.603   1.099   2.601
 1494WAT      O 5543   7.428   0.254   2.662
 1494WAT     H1 5544   7.462   0.338   2.632
 1494WAT     H2 5545   7.334   0.268   2.673
 1495WAT      O 5546   7.506   1.243   2.860
 1495WAT     H1 5547   7.568   1.311   2.832
 1495WAT     H2 5548   7.420   1.284   2.851
 1496WAT      O 5549   7.035   1.162   1.748
 1496WAT     H1 5550   6.998   1.211   1.675
 1496WAT     H2 5551   7.061   1.230   1.811
 1497WAT      O 5552   8.035   0.809   1.968
 1497WAT     H1 5553   7.942   0.802   1.990
 1497WAT     H2 5554   8.050   0.903   1.956
 1498WAT      O 5555   8.034   0.436   1.667
 1498WAT     H1 5556   7.940   0.452   1.676
 1498WAT     H2 5557   8.066   0.508   1.613
 1499WAT      O 5558   7.596   0.862   2.246
 1499WAT     H1 5559   7.555   0.790   2.196
 1499WAT     H2 5560   7.604   0.827   2.335
 1500WAT      O 5561   7.642   1.230   2.462
 1500WAT     H1 5562   7.613   1.170   2.394
 1500WAT     H2 5563   7.737   1.234   2.451
 1501WAT      O 5564   7.467   0.539   2.624
 1501WAT     H1 5565   7.522   0.550   2.546
 1501WAT     H2 5566   7.518   0.576   2.695
 1502WAT      O 5567   7.552   1.204   3.127
 1502WAT     H1 5568   7.462   1.226   3.152
 1502WAT     H2 5569   7.554   1.216   3.032
 1503WAT      O 5570   7.434   0.891   2.985
 1503WAT     H1 5571   7.420   0.978   3.022
 1503WAT     H2 5572   7.346   0.857   2.970
 1504WAT      O 5573   8.067   1.383   2.115
 1504WAT     H1 5574   8.111   1.457   2.074
 1504WAT     H2 5575   8.061   1.407   2.208
 1505WAT      O 5576   7.614   1.485   3.206
 1505WAT     H1 5577   7.611   1.526   3.119
 1505WAT     H2 5578   7.598   1.393   3.189
 1506WAT      O 5579   7.266   0.751   1.996
 1506WAT     H1 5580   7.254   0.824   1.935
 1506WAT     H2 5581   7.235   0.674   1.948
 1507WAT      O 5582   7.030   1.068   2.577
 1507WAT     H1 5583   7.037   1.082   2.482
 1507WAT     H2 5584   7.091   0.997   2.596
 1508WAT      O 5585   7.154   1.238   2.218
 1508WAT     H1 5586   7.113   1.252   2.132
 1508WAT     H2 5587   7.243   1.210   2.197
 1509WAT      O 5588   7.581   1.660   2.029
 1509WAT     H1 5589   7.564   1.568   2.008
 1509WAT     H2 5590   7.496   1.696   2.053
 1510WAT      O 5591   7.035   1.172   2.830
 1510WAT     H1 5592   7.051   1.125   2.749
 1510WAT     H2 5593   7.082   1.122   2.897
 1511WAT      O 5594   7.941   0.372   2.894
 1511WAT     H1 5595   7.895   0.393   2.976
 1511WAT     H2 5596   7.901   0.291   2.864
 1512WAT      O 5597   7.491   0.598   2.107
 1512WAT     H1 5598   7.469   0.576   2.197
 1512WAT     H2 5599   7.413   0.641   2.072
 1513WAT      O 5600   7.735   0.688   3.174
 1513WAT     H1 5601   7.726   0.594   3.159
 1513WAT     H2 5602   7.820   0.710   3.134
 1514WAT      O 5603   8.075   0.462   2.170
 1514WAT     H1 5604   8.114   0.494   2.089
 1514WAT     H2 5605   8.111   0.374   2.181
 1515WAT      O 5606   7.249   0.329   2.989
 1515WAT     H1 5607   7.209   0.413   3.010
 1515WAT     H2 5608   7.180   0.265   3.008
 1516WAT      O 5609   7.906   0.337   3.296
 1516WAT     H1 5610   7.837   0.318   3.359
 1516WAT     H2 5611   7.980   0.365   3.349
 1517WAT      O 5612   6.997   0.515   1.513
 1517WAT     H1 5613   6.989   0.610   1.527
 1517WAT     H2 5614   6.962   0.501   1.425
 1518WAT      O 5615   8.134   0.721   2.579
 1518WAT     H1 5616   8.060   0.772   2.614
 1518WAT     H2 5617   8.094   0.639   2.549
 1519WAT      O 5618   7.777   0.389   2.420
 1519WAT     H1 5619   7.778   0.345   2.335
 1519WAT     H2 5620   7.867   0.421   2.431
 1520WAT      O 5621   7.362   0.377   2.316
 1520WAT     H1 5622   7.328   0.425   2.391
 1520WAT     H2 5623   7.286   0.332   2.280
 1521WAT      O 5624   7.784   0.489   1.719
 1521WAT     H1 5625   7.796   0.485   1.814
 1521WAT     H2 5626   7.745   0.575   1.703
 1522WAT      O 5627   7.685   0.720   1.659
 1522WAT     H1 5628   7.628   0.675   1.596
 1522WAT     H2 5629   7.756   0.756   1.605
 1523WAT      O 5630   7.193   1.110   3.046
 1523WAT     H1 5631   7.154   1.046   3.106
 1523WAT     H2 5632   7.224   1.180   3.103
 1524WAT      O 5633   7.807   0.795   2.595
 1524WAT     H1 5634   7.844   0.747   2.669
 1524WAT     H2 5635   7.789   0.882   2.629
 1525WAT      O 5636   7.094   0.269   2.207
 1525WAT     H1 5637   7.065   0.233   2.291
 1525WAT     H2 5638   7.088   0.196   2.146
 1526WAT      O 5639   7.586   0.699   2.826
 1526WAT     H1 5640   7.556   0.787   2.849
 1526WAT     H2 5641   7.682   0.705   2.830
 1527WAT      O 5642   7.439   1.119   1.886
 1527WAT     H1 5643   7.362   1.065   1.870
 1527WAT     H2 5644   7.512   1.067   1.852
 1528WAT      O 5645   8.053   1.026   3.054
 1528WAT     H1 5646   8.047   0.934   3.029
 1528WAT     H2 5647   7.990   1.036   3.125
 1529WAT      O 5648   7.444   1.086   2.250
 1529WAT     H1 5649   7.495   1.006   2.244
 1529WAT     H2 5650   7.399   1.080   2.334
 1530WAT      O 5651   7.932   1.213   1.777
 1530WAT     H1 5652   7.967   1.287   1.728
 1530WAT     H2 5653   7.849   1.244   1.813
 1531WAT      O 5654   7.192   0.783   2.941
 1531WAT     H1 5655   7.156   0.849   3.000
 1531WAT     H2 5656   7.163   0.700   2.978
 1532WAT      O 5657   7.512   0.829   3.229
 1532WAT     H1 5658   7.482   0.843   3.140
 1532WAT     H2 5659   7.589   0.773   3.220
 1533WAT      O 5660   8.047   1.308   3.029
 1533WAT     H1 5661   8.048   1.215   3.007
 1533WAT     H2 5662   7.976   1.317   3.093
 1534WAT      O 5663   7.829   1.221   2.054
 1534WAT     H1 5664   7.898   1.276   2.092
 1534WAT     H2 5665   7.751   1.275   2.058
 1535WAT      O 5666   7.043   0.783   1.603
 1535WAT     H1 5667   7.130   0.811   1.632
 1535WAT     H2 5668   6.994   0.864   1.592
 1536WAT      O 5669   7.760   0.921   2.016
 1536WAT     H1 5670   7.805   1.002   2.038
 1536WAT     H2 5671   7.724   0.890   2.099
 1537WAT      O 5672   7.990   1.472   2.738
 1537WAT     H1 5673   8.054   1.493   2.806
 1537WAT     H2 5674   8.026   1.396   2.693
 1538WAT      O 5675   7.080   1.704   1.660
 1538WAT     H1 5676   7.116   1.764   1.595
 1538WAT     H2 5677   7.066   1.759   1.737
 1539WAT      O 5678   7.078   1.530   3.107
 1539WAT     H1 5679   7.089   1.436   3.093
 1539WAT     H2 5680   7.013   1.557   3.043
 1540WAT      O 5681   7.877   1.358   3.247
 1540WAT     H1 5682   7.845   1.286   3.302
 1540WAT     H2 5683   7.810   1.425   3.255
 1541WAT      O 5684   7.682   1.442   1.742
 1541WAT     H1 5685   7.681   1.516   1.680
 1541WAT     H2 5686   7.590   1.418   1.751
 1542WAT      O 5687   7.242   0.964   1.816
 1542WAT     H1 5688   7.181   1.038   1.817
 1542WAT     H2 5689   7.289   0.973   1.734
 1543WAT      O 5690   7.980   1.449   1.608
 1543WAT     H1 5691   7.990   1.428   1.515
 1543WAT     H2 5692   7.890   1.423   1.629
 1544WAT      O 5693   7.732   0.504   2.006
 1544WAT     H1 5694   7.662   0.551   2.050
 1544WAT     H2 5695   7.761   0.439   2.070
 1545WAT      O 5696   7.895   0.646   2.806
 1545WAT     H1 5697   7.945   0.694   2.873
 1545WAT     H2 5698   7.909   0.554   2.827
 1546WAT      O 5699   7.844   1.700   2.078
 1546WAT     H1 5700   7.870   1.697   1.985
 1546WAT     H2 5701   7.749   1.688   2.077
 1547WAT      O 5702   7.553   0.335   1.744
 1547WAT     H1 5703   7.638   0.379   1.737
 1547WAT     H2 5704   7.516   0.366   1.827
 1548WAT      O 5705   7.443   0.960   1.591
 1548WAT     H1 5706   7.519   0.949   1.647
 1548WAT     H2 5707   7.450   0.891   1.526
 1549WAT      O 5708   7.312   0.704   1.659
 1549WAT     H1 5709   7.320   0.609   1.671
 1549WAT     H2 5710   7.401   0.737   1.670
 1550WAT      O 5711   7.392   1.719   2.370
 1550WAT     H1 5712   7.466   1.664   2.397
 1550WAT     H2 5713   7.431   1.805   2.356
 1551WAT      O 5714   7.081   1.325   1.957
 1551WAT     H1 5715   6.988   1.350   1.956
 1551WAT     H2 5716   7.127   1.408   1.945
 1552WAT      O 5717   7.293   1.637   3.289
 1552WAT     H1 5718   7.373   1.669   3.330
 1552WAT     H2 5719   7.241   1.601   3.361
 1553WAT      O 5720   7.703   1.636   1.552
 1553WAT     H1 5721   7.783   1.665   1.507
 1553WAT     H2 5722   7.651   1.593   1.484
 1554WAT      O 5723   7.065   0.886   3.183
 1554WAT     H1 5724   7.115   0.828   3.240
 1554WAT     H2 5725   6.991   0.914   3.237
 1555WAT      O 5726   7.755   1.158   1.538
 1555WAT     H1 5727   7.745   1.097   1.611
 1555WAT     H2 5728   7.738   1.106   1.460
 1556WAT      O 5729   7.770   1.027   3.136
 1556WAT     H1 5730   7.694   1.083   3.128
 1556WAT     H2 5731   7.788   0.997   3.047
 1557WAT      O 5732   8.079   1.064   1.599
 1557WAT     H1 5733   8.024   1.109   1.663
 1557WAT     H2 5734   8.141   1.014   1.651
 1558WAT      O 5735   7.268   0.700   3.273
 1558WAT     H1 5736   7.272   0.670   3.363
 1558WAT     H2 5737   7.354   0.740   3.257
 1559WAT      O 5738   7.646   0.960   1.789
 1559WAT     H1 5739   7.688   0.944   1.873
 1559WAT     H2 5740   7.658   0.879   1.739
 1560WAT      O 5741   7.462   0.558   3.069
 1560WAT     H1 5742   7.409   0.509   3.007
 1560WAT     H2 5743   7.529   0.601   3.016
 1561WAT      O 5744   7.897   0.863   1.513
 1561WAT     H1 5745   7.949   0.791   1.477
 1561WAT     H2 5746   7.962   0.926   1.543
 1562WAT      O 5747   7.511   0.255   3.077
 1562WAT     H1 5748   7.501   0.193   3.005
 1562WAT     H2 5749   7.453   0.327   3.055
 1563WAT      O 5750   7.828   1.000   2.843
 1563WAT     H1 5751   7.870   1.084   2.825
 1563WAT     H2 5752   7.736   1.014   2.820
 1564WAT      O 5753   8.062   0.773   2.981
 1564WAT     H1 5754   8.074   0.714   3.055
 1564WAT     H2 5755   8.148   0.777   2.939
 1565WAT      O 5756   7.535   0.567   1.483
 1565WAT     H1 5757   7.515   0.481   1.519
 1565WAT     H2 5758   7.518   0.559   1.389
 1566WAT      O 5759   7.613   1.631   2.954
 1566WAT     H1 5760   7.559   1.703   2.922
 1566WAT     H2 5761   7.639   1.583   2.875
 1567WAT      O 5762   7.738   0.427   3.107
 1567WAT     H1 5763   7.797   0.397   3.176
 1567WAT     H2 5764   7.657   0.380   3.122
 1568WAT      O 5765   7.415   0.277   1.482
 1568WAT     H1 5766   7.446   0.278   1.391
 1568WAT     H2 5767   7.489   0.242   1.532
 1569WAT      O 5768   7.899   1.754   2.980
 1569WAT     H1 5769   7.891   1.844   3.011
 1569WAT     H2 5770   7.809   1.722   2.977
 1570WAT      O 5771   7.954   1.671   1.742
 1570WAT     H1 5772   8.043   1.704   1.745
 1570WAT     H2 5773   7.957   1.598   1.680
 1571WAT      O 5774   7.318   1.208   1.565
 1571WAT     H1 5775   7.361   1.262   1.631
 1571WAT     H2 5776   7.366   1.125   1.566
 1572WAT      O 5777   7.039   1.487   2.310
 1572WAT     H1 5778   7.072   1.400   2.287
 1572WAT     H2 5779   7.082   1.507   2.393
 1573WAT      O 5780   7.499   1.320   2.076
 1573WAT     H1 5781   7.469   1.308   2.166
 1573WAT     H2 5782   7.488   1.234   2.036
 1574WAT      O 5783   7.088   1.574   2.584
 1574WAT     H1 5784   7.044   1.592   2.667
 1574WAT     H2 5785   7.145   1.649   2.570
 1575WAT      O 5786   7.071   0.825   2.220
 1575WAT     H1 5787   7.006   0.798   2.156
 1575WAT     H2 5788   7.155   0.814   2.175
 1576WAT      O 5789   7.175   0.863   2.674
 1576WAT     H1 5790   7.212   0.855   2.762
 1576WAT     H2 5791   7.118   0.787   2.664
 1577WAT      O 5792   7.130   0.554   3.065
 1577WAT     H1 5793   7.041   0.551   3.099
 1577WAT     H2 5794   7.184   0.574   3.141
 1578WAT      O 5795   6.993   0.546   1.814
 1578WAT     H1 5796   6.902   0.572   1.797
 1578WAT     H2 5797   7.041   0.573   1.736
 1579WAT      O 5798   7.247   0.451   1.605
 1579WAT     H1 5799   7.318   0.409   1.557
 1579WAT     H2 5800   7.175   0.458   1.542
 1580WAT      O 5801   7.317   1.315   3.190
 1580WAT     H1 5802   7.312   1.277   3.279
 1580WAT     H2 5803   7.330   1.408   3.204
 1581WAT      O 5804   7.687   1.470   2.750
 1581WAT     H1 5805   7.662   1.497   2.662
 1581WAT     H2 5806   7.781   1.487   2.756
 1582WAT      O 5807   7.300   1.609   2.902
 1582WAT     H1 5808   7.241   1.596   2.976
 1582WAT     H2 5809   7.300   1.526   2.856
 1583WAT      O 5810   7.264   1.346   2.797
 1583WAT     H1 5811   7.191   1.284   2.791
 1583WAT     H2 5812   7.270   1.385   2.710
 1584WAT      O 5813   7.624   1.567   2.476
 1584WAT     H1 5814   7.676   1.506   2.423
 1584WAT     H2 5815   7.689   1.618   2.525
 1585WAT      O 5816   7.898   1.656   2.559
 1585WAT     H1 5817   7.927   1.631   2.471
 1585WAT     H2 5818   7.949   1.601   2.618
 1586WAT      O 5819   7.092   1.678   2.118
 1586WAT     H1 5820   7.075   1.614   2.188
 1586WAT     H2 5821   7.005   1.698   2.083
 1587WAT      O 5822   7.808   0.272   2.168
 1587WAT     H1 5823   7.727   0.235   2.134
 1587WAT     H2 5824   7.859   0.197   2.198
 1588WAT      O 5825   7.252   1.547   1.863
 1588WAT     H1 5826   7.200   1.585   1.793
 1588WAT     H2 5827   7.245   1.609   1.935
 1589WAT      O 5828   7.905   1.748   3.295
 1589WAT     H1 5829   7.997   1.725   3.300
 1589WAT     H2 5830   7.903   1.831   3.247
 1590WAT      O 5831   7.512   1.742   1.750
 1590WAT     H1 5832   7.586   1.713   1.696
 1590WAT     H2 5833   7.538   1.718   1.839
 1591WAT      O 5834   7.429   1.353   1.751
 1591WAT     H1 5835   7.366   1.400   1.806
 1591WAT     H2 5836   7.440   1.269   1.794
 1592WAT      O 5837   7.987   0.936   0.554
 1592WAT     H1 5838   7.910   0.888   0.583
 1592WAT     H2 5839   8.052   0.868   0.537
 1593WAT      O 5840   7.389   0.967   0.642
 1593WAT     H1 5841   7.306   0.942   0.682
 1593WAT     H2 5842   7.450   0.974   0.715
 1594WAT      O 5843   7.387   1.371   0.661
 1594WAT     H1 5844   7.417   1.282   0.643
 1594WAT     H2 5845   7.461   1.426   0.639
 1595WAT      O 5846   7.026   0.723   0.609
 1595WAT     H1 5847   7.083   0.647   0.609
 1595WAT     H2 5848   7.026   0.753   0.518
 1596WAT      O 5849   8.012   1.605   0.394
 1596WAT     H1 5850   7.950   1.651   0.337
 1596WAT     H2 5851   8.097   1.621   0.354
 1597WAT      O 5852   7.931   1.204   0.555
 1597WAT     H1 5853   7.924   1.110   0.539
 1597WAT     H2 5854   8.007   1.213   0.612
 1598WAT      O 5855   7.150   0.264   0.787
 1598WAT     H1 5856   7.132   0.175   0.815
 1598WAT     H2 5857   7.110   0.319   0.855
 1599WAT      O 5858   8.034   0.484   0.577
 1599WAT     H1 5859   8.072   0.397   0.566
 1599WAT     H2 5860   8.025   0.518   0.488
 1600WAT      O 5861   7.212   0.514   0.648
 1600WAT     H1 5862   7.280   0.540   0.710
 1600WAT     H2 5863   7.181   0.430   0.681
 1601WAT      O 5864   7.631   0.619   0.557
 1601WAT     H1 5865   7.682   0.668   0.621
 1601WAT     H2 5866   7.685   0.541   0.539
 1602WAT      O 5867   7.585   1.046   0.801
 1602WAT     H1 5868   7.552   1.109   0.865
 1602WAT     H2 5869   7.603   1.099   0.723
 1603WAT      O 5870   7.428   0.254   0.784
 1603WAT     H1 5871   7.462   0.338   0.755
 1603WAT     H2 5872   7.334   0.268   0.796
 1604WAT      O 5873   7.506   1.243   0.983
 1604WAT     H1 5874   7.568   1.311   0.954
 1604WAT     H2 5875   7.420   1.284   0.974
 1605WAT      O 5876   7.596   0.862   0.368
 1605WAT     H1 5877   7.555   0.790   0.319
 1605WAT     H2 5878   7.604   0.827   0.457
 1606WAT      O 5879   7.642   1.230   0.585
 1606WAT     H1 5880   7.613   1.170   0.517
 1606WAT     H2 5881   7.737   1.234   0.574
 1607WAT      O 5882   7.467   0.539   0.746
 1607WAT     H1 5883   7.522   0.550   0.669
 1607WAT     H2 5884   7.518   0.576   0.818
 1608WAT      O 5885   7.552   1.204   1.250
 1608WAT     H1 5886   7.462   1.226   1.275
 1608WAT     H2 5887   7.554   1.216   1.155
 1609WAT      O 5888   7.434   0.891   1.107
 1609WAT     H1 5889   7.420   0.978   1.144
 1609WAT     H2 5890   7.346   0.857   1.093
 1610WAT      O 5891   8.067   1.383   0.238
 1610WAT     H1 5892   8.111   1.457   0.197
 1610WAT     H2 5893   8.061   1.407   0.330
 1611WAT      O 5894   7.614   1.485   1.328
 1611WAT     H1 5895   7.611   1.526   1.242
 1611WAT     H2 5896   7.598   1.393   1.312
 1612WAT      O 5897   7.030   1.068   0.699
 1612WAT     H1 5898   7.037   1.082   0.605
 1612WAT     H2 5899   7.091   0.997   0.718
 1613WAT      O 5900   7.154   1.238   0.340
 1613WAT     H1 5901   7.113   1.252   0.255
 1613WAT     H2 5902   7.243   1.210   0.320
 1614WAT      O 5903   7.035   1.172   0.953
 1614WAT     H1 5904   7.051   1.125   0.871
 1614WAT     H2 5905   7.082   1.122   1.020
 1615WAT      O 5906   7.941   0.372   1.017
 1615WAT     H1 5907   7.895   0.393   1.098
 1615WAT     H2 5908   7.901   0.291   0.987
 1616WAT      O 5909   7.491   0.598   0.229
 1616WAT     H1 5910   7.469   0.576   0.320
 1616WAT     H2 5911   7.413   0.641   0.195
 1617WAT      O 5912   7.735   0.688   1.296
 1617WAT     H1 5913   7.726   0.594   1.281
 1617WAT     H2 5914   7.820   0.710   1.257
 1618WAT      O 5915   8.075   0.462   0.292
 1618WAT     H1 5916   8.114   0.494   0.211
 1618WAT     H2 5917   8.111   0.374   0.304
 1619WAT      O 5918   7.249   0.329   1.111
 1619WAT     H1 5919   7.209   0.413   1.132
 1619WAT     H2 5920   7.180   0.265   1.130
 1620WAT      O 5921   7.906   0.337   1.418
 1620WAT     H1 5922   7.837   0.318   1.482
 1620WAT     H2 5923   7.980   0.365   1.472
 1621WAT      O 5924   8.134   0.721   0.702
 1621WAT     H1 5925   8.060   0.772   0.737
 1621WAT     H2 5926   8.094   0.639   0.672
 1622WAT      O 5927   7.777   0.389   0.542
 1622WAT     H1 5928   7.778   0.345   0.457
 1622WAT     H2 5929   7.867   0.421   0.553
 1623WAT      O 5930   7.362   0.377   0.438
 1623WAT     H1 5931   7.328   0.425   0.514
 1623WAT     H2 5932   7.286   0.332   0.402
 1624WAT      O 5933   7.193   1.110   1.169
 1624WAT     H1 5934   7.154   1.046   1.229
 1624WAT     H2 5935   7.224   1.180   1.226
 1625WAT      O 5936   7.807   0.795   0.717
 1625WAT     H1 5937   7.844   0.747   0.792
 1625WAT     H2 5938   7.789   0.882   0.751
 1626WAT      O 5939   7.094   0.269   0.330
 1626WAT     H1 5940   7.065   0.233   0.414
 1626WAT     H2 5941   7.088   0.196   0.269
 1627WAT      O 5942   7.586   0.699   0.949
 1627WAT     H1 5943   7.556   0.787   0.971
 1627WAT     H2 5944   7.682   0.705   0.953
 1628WAT      O 5945   8.053   1.026   1.177
 1628WAT     H1 5946   8.047   0.934   1.151
 1628WAT     H2 5947   7.990   1.036   1.248
 1629WAT      O 5948   7.444   1.086   0.372
 1629WAT     H1 5949   7.495   1.006   0.367
 1629WAT     H2 5950   7.399   1.080   0.457
 1630WAT      O 5951   7.192   0.783   1.064
 1630WAT     H1 5952   7.156   0.849   1.122
 1630WAT     H2 5953   7.163   0.700   1.101
 1631WAT      O 5954   7.512   0.829   1.352
 1631WAT     H1 5955   7.482   0.843   1.262
 1631WAT     H2 5956   7.589   0.773   1.343
 1632WAT      O 5957   8.047   1.308   1.152
 1632WAT     H1 5958   8.048   1.215   1.130
 1632WAT     H2 5959   7.976   1.317   1.215
 1633WAT      O 5960   7.829   1.221   0.177
 1633WAT     H1 5961   7.898   1.276   0.215
 1633WAT     H2 5962   7.751   1.275   0.180
 1634WAT      O 5963   7.990   1.472   0.861
 1634WAT     H1 5964   8.054   1.493   0.929
 1634WAT     H2 5965   8.026   1.396   0.816
 1635WAT      O 5966   7.078   1.530   1.230
 1635WAT     H1 5967   7.089   1.436   1.216
 1635WAT     H2 5968   7.013   1.557   1.165
 1636WAT      O 5969   7.877   1.358   1.370
 1636WAT     H1 5970   7.845   1.286   1.424
 1636WAT     H2 5971   7.810   1.425   1.377
 1637WAT      O 5972   7.895   0.646   0.929
 1637WAT     H1 5973   7.945   0.694   0.995
 1637WAT     H2 5974   7.909   0.554   0.949
 1638WAT      O 5975   7.392   1.719   0.492
 1638WAT     H1 5976   7.466   1.664   0.519
 1638WAT     H2 5977   7.431   1.805   0.478
 1639WAT      O 5978   7.293   1.637   1.411
 1639WAT     H1 5979   7.373   1.669   1.453
 1639WAT     H2 5980   7.241   1.601   1.483
 1640WAT      O 5981   7.065   0.886   1.306
 1640WAT     H1 5982   7.115   0.828   1.363
 1640WAT     H2 5983   6.991   0.914   1.359
 1641WAT      O 5984   7.770   1.027   1.259
 1641WAT     H1 5985   7.694   1.083   1.250
 1641WAT     H2 5986   7.788   0.997   1.170
 1642WAT      O 5987   7.268   0.700   1.395
 1642WAT     H1 5988   7.272   0.670   1.486
 1642WAT     H2 5989   7.354   0.740   1.379
 1643WAT      O 5990   7.462   0.558   1.192
 1643WAT     H1 5991   7.409   0.509   1.129
 1643WAT     H2 5992   7.529   0.601   1.138
 1644WAT      O 5993   7.511   0.255   1.200
 1644WAT     H1 5994   7.501   0.193   1.127
 1644WAT     H2 5995   7.453   0.327   1.177
 1645WAT      O 5996   7.828   1.000   0.965
 1645WAT     H1 5997   7.870   1.084   0.948
 1645WAT     H2 5998   7.736   1.014   0.942
 1646WAT      O 5999   8.062   0.773   1.104
 1646WAT     H1 6000   8.074   0.714   1.178
 1646WAT     H2 6001   8.148   0.777   1.062
 1647WAT      O 6002   7.613   1.631   1.077
 1647WAT     H1 6003   7.559   1.703   1.045
 1647WAT     H2 6004   7.639   1.583   0.998
 1648WAT      O 6005   7.738   0.427   1.229
 1648WAT     H1 6006   7.797   0.397   1.298
 1648WAT     H2 6007   7.657   0.380   1.245
 1649WAT      O 6008   7.899   1.754   1.103
 1649WAT     H1 6009   7.891   1.844   1.133
 1649WAT     H2 6010   7.809   1.722   1.100
 1650WAT      O 6011   7.039   1.487   0.433
 1650WAT     H1 6012   7.072   1.400   0.410
 1650WAT     H2 6013   7.082   1.507   0.516
 1651WAT      O 6014   7.088   1.574   0.707
 1651WAT     H1 6015   7.044   1.592   0.790
 1651WAT     H2 6016   7.145   1.649   0.693
 1652WAT      O 6017   7.071   0.825   0.343
 1652WAT     H1 6018   7.006   0.798   0.278
 1652WAT     H2 6019   7.155   0.814   0.298
 1653WAT      O 6020   7.175   0.863   0.797
 1653WAT     H1 6021   7.212   0.855   0.885
 1653WAT     H2 6022   7.118   0.787   0.787
 1654WAT      O 6023   7.130   0.554   1.187
 1654WAT     H1 6024   7.041   0.551   1.221
 1654WAT     H2 6025   7.184   0.574   1.264
 1655WAT      O 6026   7.317   1.315   1.313
 1655WAT     H1 6027   7.312   1.277   1.401
 1655WAT     H2 6028   7.330   1.408   1.327
 1656WAT      O 6029   7.687   1.470   0.873
 1656WAT     H1 6030   7.662   1.497   0.784
 1656WAT     H2 6031   7.781   1.487   0.879
 1657WAT      O 6032   7.300   1.609   1.025
 1657WAT     H1 6033   7.241   1.596   1.099
 1657WAT     H2 6034   7.300   1.526   0.978
 1658WAT      O 6035   7.264   1.346   0.920
 1658WAT     H1 6036   7.191   1.284   0.913
 1658WAT     H2 6037   7.270   1.385   0.833
 1659WAT      O 6038   7.624   1.567   0.598
 1659WAT     H1 6039   7.676   1.506   0.546
 1659WAT     H2 6040   7.689   1.618   0.648
 1660WAT      O 6041   7.898   1.656   0.681
 1660WAT     H1 6042   7.927   1.631   0.594
 1660WAT     H2 6043   7.949   1.601   0.740
 1661WAT      O 6044   7.092   1.678   0.241
 1661WAT     H1 6045   7.075   1.614   0.311
 1661WAT     H2 6046   7.005   1.698   0.206
 1662WAT      O 6047   7.808   0.272   0.290
 1662WAT     H1 6048   7.727   0.235   0.256
 1662WAT     H2 6049   7.859   0.197   0.321
 1663WAT      O 6050   7.905   1.748   1.418
 1663WAT     H1 6051   7.997   1.725   1.422
 1663WAT     H2 6052   7.903   1.831   1.370
 1664WAT      O 6053   6.297   6.391   5.998
 1664WAT     H1 6054   6.289   6.299   5.971
 1664WAT     H2 6055   6.255   6.440   5.928
 1665WAT      O 6056   6.110   6.568   6.186
 1665WAT     H1 6057   6.032   6.520   6.215
 1665WAT     H2 6058   6.175   6.501   6.169
 1666WAT      O 6059   5.511   6.600   6.274
 1666WAT     H1 6060   5.428   6.574   6.314
 1666WAT     H2 6061   5.572   6.607   6.348
 1667WAT      O 6062   6.512   7.009   6.064
 1667WAT     H1 6063   6.466   6.932   6.097
 1667WAT     H2 6064   6.593   7.012   6.115
 1668WAT      O 6065   5.509   7.003   6.294
 1668WAT     H1 6066   5.540   6.914   6.276
 1668WAT     H2 6067   5.584   7.059   6.271
 1669WAT      O 6068   5.352   6.096   5.652
 1669WAT     H1 6069   5.264   6.130   5.642
 1669WAT     H2 6070   5.381   6.076   5.563
 1670WAT      O 6071   5.149   6.356   6.241
 1670WAT     H1 6072   5.206   6.279   6.241
 1670WAT     H2 6073   5.149   6.386   6.150
 1671WAT      O 6074   6.054   6.836   6.187
 1671WAT     H1 6075   6.047   6.742   6.171
 1671WAT     H2 6076   6.130   6.845   6.244
 1672WAT      O 6077   5.273   5.897   6.420
 1672WAT     H1 6078   5.255   5.807   6.448
 1672WAT     H2 6079   5.233   5.951   6.487
 1673WAT      O 6080   6.157   6.117   6.210
 1673WAT     H1 6081   6.195   6.029   6.198
 1673WAT     H2 6082   6.147   6.150   6.121
 1674WAT      O 6083   5.570   5.954   5.756
 1674WAT     H1 6084   5.581   6.044   5.787
 1674WAT     H2 6085   5.479   5.949   5.727
 1675WAT      O 6086   6.535   5.866   5.903
 1675WAT     H1 6087   6.617   5.817   5.907
 1675WAT     H2 6088   6.538   5.925   5.978
 1676WAT      O 6089   5.335   6.146   6.280
 1676WAT     H1 6090   5.403   6.173   6.342
 1676WAT     H2 6091   5.303   6.062   6.314
 1677WAT      O 6092   5.754   6.251   6.189
 1677WAT     H1 6093   5.805   6.301   6.253
 1677WAT     H2 6094   5.807   6.173   6.171
 1678WAT      O 6095   6.221   6.726   5.766
 1678WAT     H1 6096   6.159   6.773   5.709
 1678WAT     H2 6097   6.272   6.795   5.807
 1679WAT      O 6098   5.707   6.679   6.433
 1679WAT     H1 6099   5.674   6.741   6.498
 1679WAT     H2 6100   5.725   6.731   6.355
 1680WAT      O 6101   6.559   6.060   6.180
 1680WAT     H1 6102   6.488   6.089   6.238
 1680WAT     H2 6103   6.595   6.141   6.144
 1681WAT      O 6104   5.551   5.886   6.416
 1681WAT     H1 6105   5.585   5.970   6.387
 1681WAT     H2 6106   5.457   5.901   6.428
 1682WAT      O 6107   5.158   6.795   5.503
 1682WAT     H1 6108   5.120   6.843   5.430
 1682WAT     H2 6109   5.184   6.862   5.566
 1683WAT      O 6110   6.720   7.022   6.406
 1683WAT     H1 6111   6.652   7.089   6.406
 1683WAT     H2 6112   6.774   7.042   6.330
 1684WAT      O 6113   6.866   6.005   6.219
 1684WAT     H1 6114   6.771   6.008   6.232
 1684WAT     H2 6115   6.898   6.086   6.258
 1685WAT      O 6116   5.919   5.635   6.049
 1685WAT     H1 6117   5.950   5.579   5.977
 1685WAT     H2 6118   5.826   5.648   6.031
 1686WAT      O 6119   6.603   6.879   5.787
 1686WAT     H1 6120   6.592   6.784   5.799
 1686WAT     H2 6121   6.603   6.915   5.875
 1687WAT      O 6122   6.414   6.697   6.411
 1687WAT     H1 6123   6.456   6.675   6.327
 1687WAT     H2 6124   6.486   6.722   6.468
 1688WAT      O 6125   6.158   6.441   5.722
 1688WAT     H1 6126   6.065   6.435   5.745
 1688WAT     H2 6127   6.173   6.535   5.711
 1689WAT      O 6128   6.156   6.068   5.422
 1689WAT     H1 6129   6.062   6.085   5.431
 1689WAT     H2 6130   6.188   6.140   5.367
 1690WAT      O 6131   6.808   6.537   6.420
 1690WAT     H1 6132   6.726   6.544   6.372
 1690WAT     H2 6133   6.868   6.595   6.373
 1691WAT      O 6134   6.561   6.597   5.773
 1691WAT     H1 6135   6.499   6.564   5.708
 1691WAT     H2 6136   6.559   6.533   5.844
 1692WAT      O 6137   5.718   6.494   6.001
 1692WAT     H1 6138   5.678   6.423   5.951
 1692WAT     H2 6139   5.727   6.459   6.090
 1693WAT      O 6140   5.765   6.863   6.217
 1693WAT     H1 6141   5.735   6.802   6.149
 1693WAT     H2 6142   5.860   6.866   6.206
 1694WAT      O 6143   5.589   6.171   6.379
 1694WAT     H1 6144   5.645   6.182   6.301
 1694WAT     H2 6145   5.641   6.209   6.450
 1695WAT      O 6146   6.378   6.521   5.474
 1695WAT     H1 6147   6.422   6.438   5.459
 1695WAT     H2 6148   6.450   6.585   5.482
 1696WAT      O 6149   6.189   7.015   5.870
 1696WAT     H1 6150   6.233   7.090   5.829
 1696WAT     H2 6151   6.183   7.040   5.963
 1697WAT      O 6152   6.736   5.647   5.305
 1697WAT     H1 6153   6.705   5.656   5.395
 1697WAT     H2 6154   6.813   5.705   5.300
 1698WAT      O 6155   5.388   6.383   5.751
 1698WAT     H1 6156   5.376   6.456   5.690
 1698WAT     H2 6157   5.357   6.306   5.703
 1699WAT      O 6158   5.152   6.701   6.331
 1699WAT     H1 6159   5.160   6.714   6.237
 1699WAT     H2 6160   5.214   6.630   6.351
 1700WAT      O 6161   5.277   6.871   5.972
 1700WAT     H1 6162   5.236   6.885   5.887
 1700WAT     H2 6163   5.366   6.842   5.952
 1701WAT      O 6164   6.426   7.065   5.462
 1701WAT     H1 6165   6.357   7.065   5.396
 1701WAT     H2 6166   6.500   7.022   5.419
 1702WAT      O 6167   5.635   5.718   6.089
 1702WAT     H1 6168   5.591   5.796   6.056
 1702WAT     H2 6169   5.691   5.750   6.160
 1703WAT      O 6170   5.946   5.680   5.577
 1703WAT     H1 6171   5.884   5.679   5.650
 1703WAT     H2 6172   5.938   5.593   5.537
 1704WAT      O 6173   5.839   5.772   6.275
 1704WAT     H1 6174   5.868   5.863   6.267
 1704WAT     H2 6175   5.893   5.723   6.213
 1705WAT      O 6176   5.614   6.230   5.862
 1705WAT     H1 6177   5.591   6.208   5.952
 1705WAT     H2 6178   5.536   6.273   5.827
 1706WAT      O 6179   6.337   6.231   5.722
 1706WAT     H1 6180   6.277   6.303   5.703
 1706WAT     H2 6181   6.392   6.224   5.643
 1707WAT      O 6182   6.198   6.094   5.925
 1707WAT     H1 6183   6.237   6.126   5.843
 1707WAT     H2 6184   6.234   6.006   5.936
 1708WAT      O 6185   5.101   5.753   6.147
 1708WAT     H1 6186   5.072   5.810   6.218
 1708WAT     H2 6187   5.176   5.705   6.183
 1709WAT      O 6188   5.120   6.148   5.268
 1709WAT     H1 6189   5.112   6.242   5.282
 1709WAT     H2 6190   5.085   6.133   5.180
 1710WAT      O 6191   6.256   6.353   6.334
 1710WAT     H1 6192   6.183   6.404   6.369
 1710WAT     H2 6193   6.216   6.272   6.304
 1711WAT      O 6194   5.900   6.021   6.175
 1711WAT     H1 6195   5.900   5.977   6.090
 1711WAT     H2 6196   5.989   6.053   6.185
 1712WAT      O 6197   5.485   6.009   6.071
 1712WAT     H1 6198   5.451   6.057   6.146
 1712WAT     H2 6199   5.409   5.964   6.035
 1713WAT      O 6200   5.906   6.121   5.474
 1713WAT     H1 6201   5.918   6.117   5.569
 1713WAT     H2 6202   5.868   6.207   5.458
 1714WAT      O 6203   6.302   5.899   6.275
 1714WAT     H1 6204   6.304   5.944   6.360
 1714WAT     H2 6205   6.278   5.809   6.297
 1715WAT      O 6206   5.807   6.352   5.414
 1715WAT     H1 6207   5.751   6.307   5.351
 1715WAT     H2 6208   5.878   6.388   5.360
 1716WAT      O 6209   5.930   6.427   6.349
 1716WAT     H1 6210   5.967   6.380   6.424
 1716WAT     H2 6211   5.911   6.514   6.383
 1717WAT      O 6212   5.216   5.901   5.962
 1717WAT     H1 6213   5.188   5.865   6.046
 1717WAT     H2 6214   5.210   5.828   5.901
 1718WAT      O 6215   5.562   6.752   5.641
 1718WAT     H1 6216   5.484   6.698   5.625
 1718WAT     H2 6217   5.635   6.700   5.607
 1719WAT      O 6218   6.638   6.651   6.220
 1719WAT     H1 6219   6.710   6.701   6.181
 1719WAT     H2 6220   6.618   6.583   6.156
 1720WAT      O 6221   6.184   5.791   5.634
 1720WAT     H1 6222   6.102   5.741   5.627
 1720WAT     H2 6223   6.164   5.875   5.593
 1721WAT      O 6224   6.455   6.228   5.464
 1721WAT     H1 6225   6.544   6.259   5.447
 1721WAT     H2 6226   6.452   6.141   5.425
 1722WAT      O 6227   5.566   6.718   6.005
 1722WAT     H1 6228   5.618   6.638   5.999
 1722WAT     H2 6229   5.521   6.712   6.089
 1723WAT      O 6230   6.055   6.845   5.532
 1723WAT     H1 6231   6.089   6.920   5.482
 1723WAT     H2 6232   5.972   6.876   5.568
 1724WAT      O 6233   6.682   6.359   5.411
 1724WAT     H1 6234   6.674   6.402   5.326
 1724WAT     H2 6235   6.754   6.405   5.454
 1725WAT      O 6236   6.785   7.044   5.684
 1725WAT     H1 6237   6.721   6.979   5.711
 1725WAT     H2 6238   6.747   7.085   5.606
 1726WAT      O 6239   6.343   6.777   6.068
 1726WAT     H1 6240   6.378   6.718   6.002
 1726WAT     H2 6241   6.255   6.745   6.086
 1727WAT      O 6242   5.952   6.853   5.809
 1727WAT     H1 6243   6.021   6.908   5.847
 1727WAT     H2 6244   5.873   6.908   5.813
 1728WAT      O 6245   5.166   6.415   5.358
 1728WAT     H1 6246   5.253   6.443   5.387
 1728WAT     H2 6247   5.117   6.496   5.347
 1729WAT      O 6248   5.882   6.554   5.770
 1729WAT     H1 6249   5.928   6.635   5.793
 1729WAT     H2 6250   5.847   6.522   5.854
 1730WAT      O 6251   5.472   5.588   5.818
 1730WAT     H1 6252   5.459   5.587   5.912
 1730WAT     H2 6253   5.390   5.622   5.783
 1731WAT      O 6254   6.240   6.905   6.365
 1731WAT     H1 6255   6.304   6.835   6.376
 1731WAT     H2 6256   6.292   6.983   6.347
 1732WAT      O 6257   6.624   6.934   5.337
 1732WAT     H1 6258   6.602   6.862   5.397
 1732WAT     H2 6259   6.585   6.909   5.254
 1733WAT      O 6260   6.582   6.725   5.504
 1733WAT     H1 6261   6.554   6.771   5.582
 1733WAT     H2 6262   6.662   6.679   5.530
 1734WAT      O 6263   5.804   7.075   5.497
 1734WAT     H1 6264   5.803   7.148   5.435
 1734WAT     H2 6265   5.712   7.050   5.506
 1735WAT      O 6266   5.364   6.597   5.571
 1735WAT     H1 6267   5.304   6.671   5.572
 1735WAT     H2 6268   5.412   6.606   5.489
 1736WAT      O 6269   6.658   5.909   5.620
 1736WAT     H1 6270   6.595   5.919   5.548
 1736WAT     H2 6271   6.609   5.931   5.699
 1737WAT      O 6272   6.103   7.081   5.363
 1737WAT     H1 6273   6.113   7.060   5.270
 1737WAT     H2 6274   6.013   7.055   5.383
 1738WAT      O 6275   5.855   6.137   5.761
 1738WAT     H1 6276   5.784   6.183   5.805
 1738WAT     H2 6277   5.883   6.071   5.825
 1739WAT      O 6278   6.258   5.809   5.905
 1739WAT     H1 6279   6.246   5.811   5.810
 1739WAT     H2 6280   6.353   5.814   5.917
 1740WAT      O 6281   5.675   5.967   5.499
 1740WAT     H1 6282   5.760   6.011   5.492
 1740WAT     H2 6283   5.639   5.999   5.581
 1741WAT      O 6284   6.567   6.425   5.990
 1741WAT     H1 6285   6.473   6.426   6.007
 1741WAT     H2 6286   6.599   6.346   6.035
 1742WAT      O 6287   5.565   6.593   5.346
 1742WAT     H1 6288   5.642   6.582   5.402
 1742WAT     H2 6289   5.573   6.523   5.281
 1743WAT      O 6290   5.435   6.336   5.414
 1743WAT     H1 6291   5.443   6.241   5.426
 1743WAT     H2 6292   5.524   6.369   5.425
 1744WAT      O 6293   5.203   6.958   5.712
 1744WAT     H1 6294   5.111   6.982   5.711
 1744WAT     H2 6295   5.250   7.040   5.700
 1745WAT      O 6296   5.878   6.790   5.293
 1745WAT     H1 6297   5.867   6.729   5.366
 1745WAT     H2 6298   5.861   6.738   5.215
 1746WAT      O 6299   6.202   6.697   5.354
 1746WAT     H1 6300   6.147   6.741   5.418
 1746WAT     H2 6301   6.264   6.646   5.406
 1747WAT      O 6302   5.768   6.592   5.543
 1747WAT     H1 6303   5.811   6.576   5.628
 1747WAT     H2 6304   5.781   6.511   5.494
 1748WAT      O 6305   6.020   6.495   5.268
 1748WAT     H1 6306   6.072   6.423   5.232
 1748WAT     H2 6307   6.084   6.559   5.298
 1749WAT      O 6308   5.658   6.200   5.238
 1749WAT     H1 6309   5.638   6.113   5.274
 1749WAT     H2 6310   5.641   6.191   5.144
 1750WAT      O 6311   6.406   5.681   5.491
 1750WAT     H1 6312   6.434   5.597   5.526
 1750WAT     H2 6313   6.329   5.704   5.542
 1751WAT      O 6314   5.538   5.910   5.237
 1751WAT     H1 6315   5.568   5.910   5.146
 1751WAT     H2 6316   5.612   5.875   5.286
 1752WAT      O 6317   5.860   5.804   5.335
 1752WAT     H1 6318   5.825   5.736   5.277
 1752WAT     H2 6319   5.880   5.758   5.417
 1753WAT      O 6320   5.440   6.840   5.320
 1753WAT     H1 6321   5.484   6.895   5.386
 1753WAT     H2 6322   5.489   6.758   5.321
 1754WAT      O 6323   5.162   7.119   6.065
 1754WAT     H1 6324   5.195   7.032   6.042
 1754WAT     H2 6325   5.205   7.140   6.148
 1755WAT      O 6326   5.621   6.952   5.831
 1755WAT     H1 6327   5.591   6.940   5.921
 1755WAT     H2 6328   5.611   6.866   5.790
 1756WAT      O 6329   6.898   6.930   5.302
 1756WAT     H1 6330   6.815   6.937   5.349
 1756WAT     H2 6331   6.916   7.019   5.271
 1757WAT      O 6332   6.844   6.605   5.552
 1757WAT     H1 6333   6.920   6.662   5.563
 1757WAT     H2 6334   6.845   6.548   5.629
 1758WAT      O 6335   5.194   6.457   5.975
 1758WAT     H1 6336   5.128   6.430   5.911
 1758WAT     H2 6337   5.278   6.446   5.930
 1759WAT      O 6338   6.944   6.690   6.036
 1759WAT     H1 6339   6.981   6.612   5.996
 1759WAT     H2 6340   7.008   6.759   6.019
 1760WAT      O 6341   6.849   6.634   5.268
 1760WAT     H1 6342   6.876   6.725   5.255
 1760WAT     H2 6343   6.830   6.628   5.361
 1761WAT      O 6344   6.489   5.936   5.397
 1761WAT     H1 6345   6.531   5.918   5.313
 1761WAT     H2 6346   6.458   5.851   5.428
 1762WAT      O 6347   6.839   6.428   5.767
 1762WAT     H1 6348   6.801   6.351   5.724
 1762WAT     H2 6349   6.766   6.466   5.816
 1763WAT      O 6350   5.298   6.496   6.429
 1763WAT     H1 6351   5.334   6.487   6.517
 1763WAT     H2 6352   5.241   6.419   6.419
 1764WAT      O 6353   5.115   6.178   5.569
 1764WAT     H1 6354   5.025   6.204   5.552
 1764WAT     H2 6355   5.164   6.205   5.491
 1765WAT      O 6356   6.766   6.250   6.097
 1765WAT     H1 6357   6.818   6.201   6.034
 1765WAT     H2 6358   6.825   6.264   6.171
 1766WAT      O 6359   6.784   6.259   6.449
 1766WAT     H1 6360   6.689   6.255   6.461
 1766WAT     H2 6361   6.802   6.350   6.426
 1767WAT      O 6362   5.369   6.084   5.360
 1767WAT     H1 6363   5.440   6.041   5.312
 1767WAT     H2 6364   5.298   6.090   5.297
 1768WAT      O 6365   5.334   5.689   5.264
 1768WAT     H1 6366   5.406   5.743   5.296
 1768WAT     H2 6367   5.361   5.662   5.177
 1769WAT      O 6368   6.715   6.176   5.691
 1769WAT     H1 6369   6.765   6.153   5.769
 1769WAT     H2 6370   6.695   6.092   5.649
 1770WAT      O 6371   5.303   5.614   6.254
 1770WAT     H1 6372   5.368   5.559   6.210
 1770WAT     H2 6373   5.345   5.640   6.337
 1771WAT      O 6374   6.858   6.040   5.944
 1771WAT     H1 6375   6.847   6.024   6.038
 1771WAT     H2 6376   6.934   5.987   5.920
 1772WAT      O 6377   6.947   5.823   5.268
 1772WAT     H1 6378   7.039   5.809   5.248
 1772WAT     H2 6379   6.945   5.831   5.364
 1773WAT      O 6380   6.954   5.900   5.531
 1773WAT     H1 6381   6.875   5.893   5.584
 1773WAT     H2 6382   6.975   5.993   5.530
 1774WAT      O 6383   5.809   7.102   6.505
 1774WAT     H1 6384   5.785   7.129   6.417
 1774WAT     H2 6385   5.903   7.120   6.511
 1775WAT      O 6386   6.142   5.663   6.371
 1775WAT     H1 6387   6.064   5.710   6.399
 1775WAT     H2 6388   6.113   5.572   6.361
 1776WAT      O 6389   6.597   5.733   6.176
 1776WAT     H1 6390   6.642   5.727   6.091
 1776WAT     H2 6391   6.571   5.824   6.183
 1777WAT      O 6392   6.784   5.696   5.977
 1777WAT     H1 6393   6.778   5.602   5.962
 1777WAT     H2 6394   6.862   5.707   6.032
 1778WAT      O 6395   5.277   5.693   5.624
 1778WAT     H1 6396   5.352   5.704   5.566
 1778WAT     H2 6397   5.230   5.777   5.619
 1779WAT      O 6398   5.931   5.904   5.923
 1779WAT     H1 6399   5.850   5.867   5.889
 1779WAT     H2 6400   5.981   5.829   5.953
 1780WAT      O 6401   6.381   5.571   6.046
 1780WAT     H1 6402   6.441   5.628   6.094
 1780WAT     H2 6403   6.307   5.627   6.024
 1781WAT      O 6404   6.695   5.611   5.574
 1781WAT     H1 6405   6.715   5.701   5.601
 1781WAT     H2 6406   6.617   5.588   5.623
 1782WAT      O 6407   5.514   5.746   5.478
 1782WAT     H1 6408   5.567   5.667   5.465
 1782WAT     H2 6409   5.577   5.814   5.501
 1783WAT      O 6410   5.733   5.719   5.783
 1783WAT     H1 6411   5.670   5.649   5.800
 1783WAT     H2 6412   5.679   5.795   5.761
 1784WAT      O 6413   5.551   6.986   5.506
 1784WAT     H1 6414   5.488   7.032   5.561
 1784WAT     H2 6415   5.563   6.901   5.549
 1785WAT      O 6416   6.297   6.391   4.121
 1785WAT     H1 6417   6.289   6.299   4.094
 1785WAT     H2 6418   6.255   6.440   4.050
 1786WAT      O 6419   6.110   6.568   4.309
 1786WAT     H1 6420   6.032   6.520   4.338
 1786WAT     H2 6421   6.175   6.501   4.291
 1787WAT      O 6422   5.511   6.600   4.397
 1787WAT     H1 6423   5.428   6.574   4.437
 1787WAT     H2 6424   5.572   6.607   4.470
 1788WAT      O 6425   6.512   7.009   4.187
 1788WAT     H1 6426   6.466   6.932   4.220
 1788WAT     H2 6427   6.593   7.012   4.237
 1789WAT      O 6428   5.509   7.003   4.416
 1789WAT     H1 6429   5.540   6.914   4.398
 1789WAT     H2 6430   5.584   7.059   4.393
 1790WAT      O 6431   5.352   6.096   3.775
 1790WAT     H1 6432   5.264   6.130   3.765
 1790WAT     H2 6433   5.381   6.076   3.686
 1791WAT      O 6434   5.149   6.356   4.363
 1791WAT     H1 6435   5.206   6.279   4.363
 1791WAT     H2 6436   5.149   6.386   4.272
 1792WAT      O 6437   6.054   6.836   4.310
 1792WAT     H1 6438   6.047   6.742   4.293
 1792WAT     H2 6439   6.130   6.845   4.367
 1793WAT      O 6440   5.273   5.897   4.542
 1793WAT     H1 6441   5.255   5.807   4.570
 1793WAT     H2 6442   5.233   5.951   4.610
 1794WAT      O 6443   6.157   6.117   4.332
 1794WAT     H1 6444   6.195   6.029   4.321
 1794WAT     H2 6445   6.147   6.150   4.243
 1795WAT      O 6446   5.570   5.954   3.878
 1795WAT     H1 6447   5.581   6.044   3.909
 1795WAT     H2 6448   5.479   5.949   3.849
 1796WAT      O 6449   6.535   5.866   4.026
 1796WAT     H1 6450   6.617   5.817   4.030
 1796WAT     H2 6451   6.538   5.925   4.101
 1797WAT      O 6452   5.335   6.146   4.403
 1797WAT     H1 6453   5.403   6.173   4.465
 1797WAT     H2 6454   5.303   6.062   4.436
 1798WAT      O 6455   5.754   6.251   4.312
 1798WAT     H1 6456   5.805   6.301   4.376
 1798WAT     H2 6457   5.807   6.173   4.294
 1799WAT      O 6458   6.964   6.068   4.682
 1799WAT     H1 6459   6.894   6.107   4.630
 1799WAT     H2 6460   6.991   6.137   4.742
 1800WAT      O 6461   5.582   5.715   4.738
 1800WAT     H1 6462   5.583   5.767   4.658
 1800WAT     H2 6463   5.499   5.667   4.736
 1801WAT      O 6464   6.221   6.726   3.888
 1801WAT     H1 6465   6.159   6.773   3.832
 1801WAT     H2 6466   6.272   6.795   3.930
 1802WAT      O 6467   5.707   6.679   4.556
 1802WAT     H1 6468   5.674   6.741   4.620
 1802WAT     H2 6469   5.725   6.731   4.478
 1803WAT      O 6470   6.559   6.060   4.303
 1803WAT     H1 6471   6.488   6.089   4.361
 1803WAT     H2 6472   6.595   6.141   4.267
 1804WAT      O 6473   5.551   5.886   4.539
 1804WAT     H1 6474   5.585   5.970   4.510
 1804WAT     H2 6475   5.457   5.901   4.551
 1805WAT      O 6476   5.629   6.876   4.738
 1805WAT     H1 6477   5.690   6.943   4.709
 1805WAT     H2 6478   5.543   6.916   4.728
 1806WAT      O 6479   5.158   6.795   3.626
 1806WAT     H1 6480   5.120   6.843   3.552
 1806WAT     H2 6481   5.184   6.862   3.689
 1807WAT      O 6482   6.720   7.022   4.529
 1807WAT     H1 6483   6.652   7.089   4.528
 1807WAT     H2 6484   6.774   7.042   4.452
 1808WAT      O 6485   6.866   6.005   4.342
 1808WAT     H1 6486   6.771   6.008   4.355
 1808WAT     H2 6487   6.898   6.086   4.380
 1809WAT      O 6488   5.919   5.635   4.171
 1809WAT     H1 6489   5.950   5.579   4.100
 1809WAT     H2 6490   5.826   5.648   4.153
 1810WAT      O 6491   6.603   6.879   3.909
 1810WAT     H1 6492   6.592   6.784   3.922
 1810WAT     H2 6493   6.603   6.915   3.998
 1811WAT      O 6494   6.414   6.697   4.533
 1811WAT     H1 6495   6.456   6.675   4.450
 1811WAT     H2 6496   6.486   6.722   4.590
 1812WAT      O 6497   6.158   6.441   3.845
 1812WAT     H1 6498   6.065   6.435   3.868
 1812WAT     H2 6499   6.173   6.535   3.834
 1813WAT      O 6500   6.156   6.068   3.545
 1813WAT     H1 6501   6.062   6.085   3.553
 1813WAT     H2 6502   6.188   6.140   3.490
 1814WAT      O 6503   6.808   6.537   4.542
 1814WAT     H1 6504   6.726   6.544   4.495
 1814WAT     H2 6505   6.868   6.595   4.496
 1815WAT      O 6506   6.561   6.597   3.895
 1815WAT     H1 6507   6.499   6.564   3.831
 1815WAT     H2 6508   6.559   6.533   3.966
 1816WAT      O 6509   6.505   6.215   4.637
 1816WAT     H1 6510   6.464   6.298   4.662
 1816WAT     H2 6511   6.432   6.157   4.618
 1817WAT      O 6512   5.718   6.494   4.123
 1817WAT     H1 6513   5.678   6.423   4.074
 1817WAT     H2 6514   5.727   6.459   4.212
 1818WAT      O 6515   5.765   6.863   4.340
 1818WAT     H1 6516   5.735   6.802   4.272
 1818WAT     H2 6517   5.860   6.866   4.329
 1819WAT      O 6518   5.589   6.171   4.501
 1819WAT     H1 6519   5.645   6.182   4.424
 1819WAT     H2 6520   5.641   6.209   4.573
 1820WAT      O 6521   5.674   6.836   5.005
 1820WAT     H1 6522   5.584   6.859   5.029
 1820WAT     H2 6523   5.677   6.849   4.910
 1821WAT      O 6524   6.378   6.521   3.596
 1821WAT     H1 6525   6.422   6.438   3.581
 1821WAT     H2 6526   6.450   6.585   3.605
 1822WAT      O 6527   5.557   6.524   4.862
 1822WAT     H1 6528   5.543   6.611   4.899
 1822WAT     H2 6529   5.469   6.489   4.848
 1823WAT      O 6530   6.189   7.015   3.993
 1823WAT     H1 6531   6.233   7.090   3.951
 1823WAT     H2 6532   6.183   7.040   4.085
 1824WAT      O 6533   5.737   7.118   5.083
 1824WAT     H1 6534   5.734   7.158   4.996
 1824WAT     H2 6535   5.720   7.025   5.067
 1825WAT      O 6536   6.736   5.647   3.428
 1825WAT     H1 6537   6.705   5.656   3.518
 1825WAT     H2 6538   6.813   5.705   3.422
 1826WAT      O 6539   5.388   6.383   3.873
 1826WAT     H1 6540   5.376   6.456   3.812
 1826WAT     H2 6541   5.357   6.306   3.826
 1827WAT      O 6542   5.152   6.701   4.454
 1827WAT     H1 6543   5.160   6.714   4.360
 1827WAT     H2 6544   5.214   6.630   4.473
 1828WAT      O 6545   5.277   6.871   4.095
 1828WAT     H1 6546   5.236   6.885   4.010
 1828WAT     H2 6547   5.366   6.842   4.075
 1829WAT      O 6548   6.872   6.915   4.929
 1829WAT     H1 6549   6.885   6.891   4.837
 1829WAT     H2 6550   6.876   6.832   4.976
 1830WAT      O 6551   6.426   7.065   3.585
 1830WAT     H1 6552   6.357   7.065   3.519
 1830WAT     H2 6553   6.500   7.022   3.541
 1831WAT      O 6554   6.857   6.120   5.025
 1831WAT     H1 6555   6.796   6.171   4.972
 1831WAT     H2 6556   6.825   6.030   5.020
 1832WAT      O 6557   5.158   6.805   4.708
 1832WAT     H1 6558   5.174   6.758   4.626
 1832WAT     H2 6559   5.204   6.754   4.774
 1833WAT      O 6560   5.635   5.718   4.212
 1833WAT     H1 6561   5.591   5.796   4.178
 1833WAT     H2 6562   5.691   5.750   4.282
 1834WAT      O 6563   6.064   6.004   4.772
 1834WAT     H1 6564   6.017   6.025   4.853
 1834WAT     H2 6565   6.023   5.923   4.742
 1835WAT      O 6566   6.564   6.126   4.885
 1835WAT     H1 6567   6.479   6.097   4.917
 1835WAT     H2 6568   6.548   6.151   4.794
 1836WAT      O 6569   6.273   6.277   5.095
 1836WAT     H1 6570   6.306   6.193   5.061
 1836WAT     H2 6571   6.352   6.329   5.110
 1837WAT      O 6572   5.946   5.680   3.700
 1837WAT     H1 6573   5.884   5.679   3.772
 1837WAT     H2 6574   5.938   5.593   3.660
 1838WAT      O 6575   5.839   5.772   4.397
 1838WAT     H1 6576   5.868   5.863   4.389
 1838WAT     H2 6577   5.893   5.723   4.336
 1839WAT      O 6578   5.614   6.230   3.984
 1839WAT     H1 6579   5.591   6.208   4.075
 1839WAT     H2 6580   5.536   6.273   3.950
 1840WAT      O 6581   6.337   6.231   3.844
 1840WAT     H1 6582   6.277   6.303   3.826
 1840WAT     H2 6583   6.392   6.224   3.766
 1841WAT      O 6584   5.858   6.320   5.051
 1841WAT     H1 6585   5.848   6.226   5.036
 1841WAT     H2 6586   5.942   6.342   5.011
 1842WAT      O 6587   6.198   6.094   4.047
 1842WAT     H1 6588   6.237   6.126   3.966
 1842WAT     H2 6589   6.234   6.006   4.059
 1843WAT      O 6590   5.371   5.961   4.866
 1843WAT     H1 6591   5.332   6.046   4.887
 1843WAT     H2 6592   5.302   5.897   4.885
 1844WAT      O 6593   6.029   5.969   5.173
 1844WAT     H1 6594   5.960   5.950   5.237
 1844WAT     H2 6595   6.103   5.998   5.226
 1845WAT      O 6596   5.101   5.753   4.270
 1845WAT     H1 6597   5.072   5.810   4.341
 1845WAT     H2 6598   5.176   5.705   4.306
 1846WAT      O 6599   5.120   6.148   3.391
 1846WAT     H1 6600   5.112   6.242   3.405
 1846WAT     H2 6601   5.085   6.133   3.303
 1847WAT      O 6602   6.256   6.353   4.457
 1847WAT     H1 6603   6.183   6.404   4.492
 1847WAT     H2 6604   6.216   6.272   4.427
 1848WAT      O 6605   5.900   6.021   4.297
 1848WAT     H1 6606   5.900   5.977   4.212
 1848WAT     H2 6607   5.989   6.053   4.308
 1849WAT      O 6608   5.485   6.009   4.193
 1849WAT     H1 6609   5.451   6.057   4.269
 1849WAT     H2 6610   5.409   5.964   4.157
 1850WAT      O 6611   5.906   6.121   3.596
 1850WAT     H1 6612   5.918   6.117   3.691
 1850WAT     H2 6613   5.868   6.207   3.581
 1851WAT      O 6614   6.302   5.899   4.398
 1851WAT     H1 6615   6.304   5.944   4.482
 1851WAT     H2 6616   6.278   5.809   4.419
 1852WAT      O 6617   5.807   6.352   3.536
 1852WAT     H1 6618   5.751   6.307   3.474
 1852WAT     H2 6619   5.878   6.388   3.483
 1853WAT      O 6620   6.645   5.640   4.982
 1853WAT     H1 6621   6.678   5.567   5.034
 1853WAT     H2 6622   6.649   5.608   4.892
 1854WAT      O 6623   5.315   6.742   4.924
 1854WAT     H1 6624   5.277   6.678   4.984
 1854WAT     H2 6625   5.346   6.813   4.981
 1855WAT      O 6626   5.930   6.427   4.472
 1855WAT     H1 6627   5.967   6.380   4.547
 1855WAT     H2 6628   5.911   6.514   4.506
 1856WAT      O 6629   5.216   5.901   4.085
 1856WAT     H1 6630   5.188   5.865   4.169
 1856WAT     H2 6631   5.210   5.828   4.024
 1857WAT      O 6632   5.709   6.331   4.704
 1857WAT     H1 6633   5.679   6.419   4.726
 1857WAT     H2 6634   5.805   6.337   4.707
 1858WAT      O 6635   5.562   6.752   3.763
 1858WAT     H1 6636   5.484   6.698   3.747
 1858WAT     H2 6637   5.635   6.700   3.730
 1859WAT      O 6638   6.638   6.651   4.343
 1859WAT     H1 6639   6.710   6.701   4.304
 1859WAT     H2 6640   6.618   6.583   4.278
 1860WAT      O 6641   6.184   5.791   3.757
 1860WAT     H1 6642   6.102   5.741   3.749
 1860WAT     H2 6643   6.164   5.875   3.715
 1861WAT      O 6644   6.176   6.658   4.931
 1861WAT     H1 6645   6.169   6.566   4.906
 1861WAT     H2 6646   6.113   6.668   5.003
 1862WAT      O 6647   6.455   6.228   3.587
 1862WAT     H1 6648   6.544   6.259   3.569
 1862WAT     H2 6649   6.452   6.141   3.547
 1863WAT      O 6650   5.566   6.718   4.127
 1863WAT     H1 6651   5.618   6.638   4.122
 1863WAT     H2 6652   5.521   6.712   4.211
 1864WAT      O 6653   6.055   6.845   3.655
 1864WAT     H1 6654   6.089   6.920   3.605
 1864WAT     H2 6655   5.972   6.876   3.691
 1865WAT      O 6656   5.315   6.415   4.819
 1865WAT     H1 6657   5.279   6.482   4.877
 1865WAT     H2 6658   5.285   6.332   4.856
 1866WAT      O 6659   5.635   6.461   5.107
 1866WAT     H1 6660   5.605   6.475   5.017
 1866WAT     H2 6661   5.712   6.405   5.098
 1867WAT      O 6662   6.169   6.941   4.906
 1867WAT     H1 6663   6.171   6.847   4.885
 1867WAT     H2 6664   6.098   6.949   4.970
 1868WAT      O 6665   6.682   6.359   3.533
 1868WAT     H1 6666   6.674   6.402   3.448
 1868WAT     H2 6667   6.754   6.405   3.577
 1869WAT      O 6668   6.790   6.605   4.841
 1869WAT     H1 6669   6.718   6.664   4.821
 1869WAT     H2 6670   6.843   6.604   4.761
 1870WAT      O 6671   6.785   7.044   3.806
 1870WAT     H1 6672   6.721   6.979   3.834
 1870WAT     H2 6673   6.747   7.085   3.729
 1871WAT      O 6674   6.343   6.777   4.191
 1871WAT     H1 6675   6.378   6.718   4.125
 1871WAT     H2 6676   6.255   6.745   4.208
 1872WAT      O 6677   5.952   6.853   3.932
 1872WAT     H1 6678   6.021   6.908   3.970
 1872WAT     H2 6679   5.873   6.908   3.935
 1873WAT      O 6680   5.166   6.415   3.481
 1873WAT     H1 6681   5.253   6.443   3.509
 1873WAT     H2 6682   5.117   6.496   3.469
 1874WAT      O 6683   5.882   6.554   3.893
 1874WAT     H1 6684   5.928   6.635   3.916
 1874WAT     H2 6685   5.847   6.522   3.976
 1875WAT      O 6686   6.112   7.105   4.616
 1875WAT     H1 6687   6.177   7.125   4.684
 1875WAT     H2 6688   6.149   7.029   4.571
 1876WAT      O 6689   5.472   5.588   3.940
 1876WAT     H1 6690   5.459   5.587   4.035
 1876WAT     H2 6691   5.390   5.622   3.905
 1877WAT      O 6692   6.240   6.905   4.488
 1877WAT     H1 6693   6.304   6.835   4.499
 1877WAT     H2 6694   6.292   6.983   4.470
 1878WAT      O 6695   6.624   6.934   3.460
 1878WAT     H1 6696   6.602   6.862   3.519
 1878WAT     H2 6697   6.585   6.909   3.376
 1879WAT      O 6698   6.417   6.985   4.808
 1879WAT     H1 6699   6.451   7.044   4.876
 1879WAT     H2 6700   6.325   6.972   4.831
 1880WAT      O 6701   5.172   5.764   4.886
 1880WAT     H1 6702   5.101   5.784   4.947
 1880WAT     H2 6703   5.214   5.686   4.923
 1881WAT      O 6704   6.582   6.725   3.626
 1881WAT     H1 6705   6.554   6.771   3.705
 1881WAT     H2 6706   6.662   6.679   3.653
 1882WAT      O 6707   5.201   7.163   4.985
 1882WAT     H1 6708   5.212   7.069   4.971
 1882WAT     H2 6709   5.136   7.189   4.920
 1883WAT      O 6710   6.000   6.990   5.125
 1883WAT     H1 6711   5.968   6.918   5.179
 1883WAT     H2 6712   5.933   7.057   5.132
 1884WAT      O 6713   5.804   7.075   3.619
 1884WAT     H1 6714   5.803   7.148   3.558
 1884WAT     H2 6715   5.712   7.050   3.628
 1885WAT      O 6716   5.364   6.597   3.694
 1885WAT     H1 6717   5.304   6.671   3.695
 1885WAT     H2 6718   5.412   6.606   3.611
 1886WAT      O 6719   6.322   6.013   4.661
 1886WAT     H1 6720   6.358   5.931   4.694
 1886WAT     H2 6721   6.236   6.019   4.703
 1887WAT      O 6722   6.658   5.909   3.742
 1887WAT     H1 6723   6.595   5.919   3.671
 1887WAT     H2 6724   6.609   5.931   3.821
 1888WAT      O 6725   6.103   7.081   3.485
 1888WAT     H1 6726   6.113   7.060   3.392
 1888WAT     H2 6727   6.013   7.055   3.506
 1889WAT      O 6728   5.855   6.137   3.884
 1889WAT     H1 6729   5.784   6.183   3.928
 1889WAT     H2 6730   5.883   6.071   3.947
 1890WAT      O 6731   6.018   6.279   4.684
 1890WAT     H1 6732   6.067   6.326   4.750
 1890WAT     H2 6733   6.032   6.186   4.704
 1891WAT      O 6734   6.258   5.809   4.028
 1891WAT     H1 6735   6.246   5.811   3.933
 1891WAT     H2 6736   6.353   5.814   4.040
 1892WAT      O 6737   5.675   5.967   3.621
 1892WAT     H1 6738   5.760   6.011   3.615
 1892WAT     H2 6739   5.639   5.999   3.704
 1893WAT      O 6740   6.738   5.900   4.768
 1893WAT     H1 6741   6.688   5.974   4.802
 1893WAT     H2 6742   6.820   5.939   4.736
 1894WAT      O 6743   6.567   6.425   4.113
 1894WAT     H1 6744   6.473   6.426   4.130
 1894WAT     H2 6745   6.599   6.346   4.157
 1895WAT      O 6746   5.565   6.593   3.469
 1895WAT     H1 6747   5.642   6.582   3.525
 1895WAT     H2 6748   5.573   6.523   3.403
 1896WAT      O 6749   5.435   6.336   3.537
 1896WAT     H1 6750   5.443   6.241   3.548
 1896WAT     H2 6751   5.524   6.369   3.548
 1897WAT      O 6752   5.203   6.958   3.835
 1897WAT     H1 6753   5.111   6.982   3.834
 1897WAT     H2 6754   5.250   7.040   3.823
 1898WAT      O 6755   6.299   6.880   5.161
 1898WAT     H1 6756   6.239   6.883   5.087
 1898WAT     H2 6757   6.269   6.807   5.215
 1899WAT      O 6758   5.187   6.518   5.060
 1899WAT     H1 6759   5.238   6.460   5.118
 1899WAT     H2 6760   5.114   6.547   5.114
 1900WAT      O 6761   5.878   6.790   3.416
 1900WAT     H1 6762   5.867   6.729   3.489
 1900WAT     H2 6763   5.861   6.738   3.338
 1901WAT      O 6764   5.893   6.659   5.014
 1901WAT     H1 6765   5.816   6.716   5.005
 1901WAT     H2 6766   5.911   6.630   4.925
 1902WAT      O 6767   6.202   6.697   3.476
 1902WAT     H1 6768   6.147   6.741   3.541
 1902WAT     H2 6769   6.264   6.646   3.529
 1903WAT      O 6770   6.607   6.832   5.070
 1903WAT     H1 6771   6.681   6.866   5.019
 1903WAT     H2 6772   6.531   6.849   5.014
 1904WAT      O 6773   5.391   6.332   5.150
 1904WAT     H1 6774   5.395   6.303   5.241
 1904WAT     H2 6775   5.476   6.373   5.134
 1905WAT      O 6776   5.768   6.592   3.666
 1905WAT     H1 6777   5.811   6.576   3.750
 1905WAT     H2 6778   5.781   6.511   3.617
 1906WAT      O 6779   5.585   6.190   4.947
 1906WAT     H1 6780   5.532   6.141   4.884
 1906WAT     H2 6781   5.652   6.233   4.893
 1907WAT      O 6782   6.020   6.495   3.391
 1907WAT     H1 6783   6.072   6.423   3.354
 1907WAT     H2 6784   6.084   6.559   3.421
 1908WAT      O 6785   6.475   6.637   4.923
 1908WAT     H1 6786   6.516   6.653   5.008
 1908WAT     H2 6787   6.381   6.650   4.939
 1909WAT      O 6788   6.522   6.371   5.124
 1909WAT     H1 6789   6.580   6.296   5.115
 1909WAT     H2 6790   6.539   6.424   5.046
 1910WAT      O 6791   5.633   5.887   4.955
 1910WAT     H1 6792   5.624   5.825   4.882
 1910WAT     H2 6793   5.575   5.960   4.932
 1911WAT      O 6794   5.910   5.743   4.658
 1911WAT     H1 6795   5.865   5.745   4.573
 1911WAT     H2 6796   5.847   5.703   4.718
 1912WAT      O 6797   5.951   6.632   4.720
 1912WAT     H1 6798   5.993   6.717   4.703
 1912WAT     H2 6799   5.859   6.646   4.697
 1913WAT      O 6800   6.184   6.405   4.858
 1913WAT     H1 6801   6.196   6.346   4.932
 1913WAT     H2 6802   6.270   6.409   4.816
 1914WAT      O 6803   6.418   6.461   4.716
 1914WAT     H1 6804   6.366   6.513   4.656
 1914WAT     H2 6805   6.453   6.524   4.779
 1915WAT      O 6806   5.658   6.200   3.361
 1915WAT     H1 6807   5.638   6.113   3.397
 1915WAT     H2 6808   5.641   6.191   3.267
 1916WAT      O 6809   5.861   6.060   4.984
 1916WAT     H1 6810   5.920   6.029   5.053
 1916WAT     H2 6811   5.779   6.012   5.000
 1917WAT      O 6812   6.343   6.021   5.008
 1917WAT     H1 6813   6.274   5.955   5.001
 1917WAT     H2 6814   6.415   5.977   5.052
 1918WAT      O 6815   6.406   5.681   3.613
 1918WAT     H1 6816   6.434   5.597   3.649
 1918WAT     H2 6817   6.329   5.704   3.665
 1919WAT      O 6818   5.538   5.910   3.359
 1919WAT     H1 6819   5.568   5.910   3.269
 1919WAT     H2 6820   5.612   5.875   3.409
 1920WAT      O 6821   5.860   5.804   3.458
 1920WAT     H1 6822   5.825   5.736   3.400
 1920WAT     H2 6823   5.880   5.758   3.539
 1921WAT      O 6824   5.440   6.840   3.443
 1921WAT     H1 6825   5.484   6.895   3.508
 1921WAT     H2 6826   5.489   6.758   3.444
 1922WAT      O 6827   5.162   7.119   4.188
 1922WAT     H1 6828   5.195   7.032   4.165
 1922WAT     H2 6829   5.205   7.140   4.271
 1923WAT      O 6830   5.621   6.952   3.954
 1923WAT     H1 6831   5.591   6.940   4.044
 1923WAT     H2 6832   5.611   6.866   3.913
 1924WAT      O 6833   6.774   7.156   4.890
 1924WAT     H1 6834   6.714   7.162   4.816
 1924WAT     H2 6835   6.787   7.062   4.903
 1925WAT      O 6836   6.898   6.930   3.424
 1925WAT     H1 6837   6.815   6.937   3.471
 1925WAT     H2 6838   6.916   7.019   3.394
 1926WAT      O 6839   6.844   6.605   3.674
 1926WAT     H1 6840   6.920   6.662   3.685
 1926WAT     H2 6841   6.845   6.548   3.752
 1927WAT      O 6842   5.194   6.457   4.098
 1927WAT     H1 6843   5.128   6.430   4.033
 1927WAT     H2 6844   5.278   6.446   4.053
 1928WAT      O 6845   6.944   6.690   4.159
 1928WAT     H1 6846   6.981   6.612   4.118
 1928WAT     H2 6847   7.008   6.759   4.141
 1929WAT      O 6848   6.643   6.829   4.700
 1929WAT     H1 6849   6.561   6.871   4.726
 1929WAT     H2 6850   6.683   6.890   4.639
 1930WAT      O 6851   6.849   6.634   3.390
 1930WAT     H1 6852   6.876   6.725   3.377
 1930WAT     H2 6853   6.830   6.628   3.484
 1931WAT      O 6854   6.489   5.936   3.520
 1931WAT     H1 6855   6.531   5.918   3.436
 1931WAT     H2 6856   6.458   5.851   3.551
 1932WAT      O 6857   6.839   6.428   3.890
 1932WAT     H1 6858   6.801   6.351   3.846
 1932WAT     H2 6859   6.766   6.466   3.938
 1933WAT      O 6860   5.298   6.496   4.552
 1933WAT     H1 6861   5.334   6.487   4.640
 1933WAT     H2 6862   5.241   6.419   4.542
 1934WAT      O 6863   6.778   6.342   4.853
 1934WAT     H1 6864   6.754   6.320   4.763
 1934WAT     H2 6865   6.804   6.434   4.848
 1935WAT      O 6866   5.253   6.187   4.942
 1935WAT     H1 6867   5.163   6.183   4.976
 1935WAT     H2 6868   5.307   6.206   5.019
 1936WAT      O 6869   6.621   5.865   5.131
 1936WAT     H1 6870   6.709   5.866   5.169
 1936WAT     H2 6871   6.623   5.791   5.070
 1937WAT      O 6872   5.115   6.178   3.692
 1937WAT     H1 6873   5.025   6.204   3.674
 1937WAT     H2 6874   5.164   6.205   3.614
 1938WAT      O 6875   6.766   6.250   4.220
 1938WAT     H1 6876   6.818   6.201   4.156
 1938WAT     H2 6877   6.825   6.264   4.294
 1939WAT      O 6878   6.784   6.259   4.572
 1939WAT     H1 6879   6.689   6.255   4.583
 1939WAT     H2 6880   6.802   6.350   4.548
 1940WAT      O 6881   5.369   6.084   3.483
 1940WAT     H1 6882   5.440   6.041   3.434
 1940WAT     H2 6883   5.298   6.090   3.420
 1941WAT      O 6884   5.334   5.689   3.387
 1941WAT     H1 6885   5.406   5.743   3.419
 1941WAT     H2 6886   5.361   5.662   3.299
 1942WAT      O 6887   6.715   6.176   3.814
 1942WAT     H1 6888   6.765   6.153   3.892
 1942WAT     H2 6889   6.695   6.092   3.772
 1943WAT      O 6890   5.303   5.614   4.377
 1943WAT     H1 6891   5.368   5.559   4.333
 1943WAT     H2 6892   5.345   5.640   4.459
 1944WAT      O 6893   6.858   6.040   4.067
 1944WAT     H1 6894   6.847   6.024   4.161
 1944WAT     H2 6895   6.934   5.987   4.043
 1945WAT      O 6896   6.693   5.634   4.713
 1945WAT     H1 6897   6.756   5.695   4.749
 1945WAT     H2 6898   6.707   5.637   4.618
 1946WAT      O 6899   6.947   5.823   3.391
 1946WAT     H1 6900   7.039   5.809   3.370
 1946WAT     H2 6901   6.945   5.831   3.486
 1947WAT      O 6902   6.954   5.900   3.654
 1947WAT     H1 6903   6.875   5.893   3.706
 1947WAT     H2 6904   6.975   5.993   3.652
 1948WAT      O 6905   5.278   5.630   4.651
 1948WAT     H1 6906   5.244   5.675   4.728
 1948WAT     H2 6907   5.245   5.540   4.659
 1949WAT      O 6908   5.439   6.947   5.068
 1949WAT     H1 6909   5.435   6.910   5.156
 1949WAT     H2 6910   5.452   7.041   5.082
 1950WAT      O 6911   5.809   7.102   4.628
 1950WAT     H1 6912   5.785   7.129   4.539
 1950WAT     H2 6913   5.903   7.120   4.633
 1951WAT      O 6914   6.030   5.749   5.003
 1951WAT     H1 6915   6.024   5.808   5.078
 1951WAT     H2 6916   6.124   5.738   4.989
 1952WAT      O 6917   6.293   5.714   4.967
 1952WAT     H1 6918   6.355   5.746   4.901
 1952WAT     H2 6919   6.348   5.666   5.029
 1953WAT      O 6920   5.346   5.582   4.979
 1953WAT     H1 6921   5.400   5.564   4.902
 1953WAT     H2 6922   5.352   5.503   5.032
 1954WAT      O 6923   6.368   5.571   4.600
 1954WAT     H1 6924   6.280   5.604   4.580
 1954WAT     H2 6925   6.357   5.524   4.683
 1955WAT      O 6926   6.458   5.792   4.738
 1955WAT     H1 6927   6.425   5.710   4.701
 1955WAT     H2 6928   6.553   5.787   4.726
 1956WAT      O 6929   5.386   6.978   4.675
 1956WAT     H1 6930   5.313   6.916   4.668
 1956WAT     H2 6931   5.392   7.017   4.588
 1957WAT      O 6932   6.142   5.663   4.494
 1957WAT     H1 6933   6.064   5.710   4.522
 1957WAT     H2 6934   6.113   5.572   4.483
 1958WAT      O 6935   6.597   5.733   4.299
 1958WAT     H1 6936   6.642   5.727   4.214
 1958WAT     H2 6937   6.571   5.824   4.306
 1959WAT      O 6938   6.784   5.696   4.100
 1959WAT     H1 6939   6.778   5.602   4.085
 1959WAT     H2 6940   6.862   5.707   4.154
 1960WAT      O 6941   5.277   5.693   3.746
 1960WAT     H1 6942   5.352   5.704   3.689
 1960WAT     H2 6943   5.230   5.777   3.742
 1961WAT      O 6944   5.931   5.904   4.045
 1961WAT     H1 6945   5.850   5.867   4.011
 1961WAT     H2 6946   5.981   5.829   4.075
 1962WAT      O 6947   6.381   5.571   4.169
 1962WAT     H1 6948   6.441   5.628   4.216
 1962WAT     H2 6949   6.307   5.627   4.147
 1963WAT      O 6950   6.695   5.611   3.696
 1963WAT     H1 6951   6.715   5.701   3.723
 1963WAT     H2 6952   6.617   5.588   3.746
 1964WAT      O 6953   5.514   5.746   3.600
 1964WAT     H1 6954   5.567   5.667   3.587
 1964WAT     H2 6955   5.577   5.814   3.624
 1965WAT      O 6956   5.733   5.719   3.906
 1965WAT     H1 6957   5.670   5.649   3.922
 1965WAT     H2 6958   5.679   5.795   3.884
 1966WAT      O 6959   5.746   5.647   5.149
 1966WAT     H1 6960   5.718   5.698   5.073
 1966WAT     H2 6961   5.784   5.567   5.113
 1967WAT      O 6962   5.551   6.986   3.628
 1967WAT     H1 6963   5.488   7.032   3.683
 1967WAT     H2 6964   5.563   6.901   3.672
 1968WAT      O 6965   6.406   5.589   5.207
 1968WAT     H1 6966   6.395   5.621   5.296
 1968WAT     H2 6967   6.488   5.629   5.177
 1969WAT      O 6968   6.297   6.391   2.243
 1969WAT     H1 6969   6.289   6.299   2.216
 1969WAT     H2 6970   6.255   6.440   2.173
 1970WAT      O 6971   6.110   6.568   2.431
 1970WAT     H1 6972   6.032   6.520   2.460
 1970WAT     H2 6973   6.175   6.501   2.414
 1971WAT      O 6974   5.511   6.600   2.519
 1971WAT     H1 6975   5.428   6.574   2.559
 1971WAT     H2 6976   5.572   6.607   2.593
 1972WAT      O 6977   6.512   7.009   2.309
 1972WAT     H1 6978   6.466   6.932   2.342
 1972WAT     H2 6979   6.593   7.012   2.360
 1973WAT      O 6980   5.509   7.003   2.539
 1973WAT     H1 6981   5.540   6.914   2.521
 1973WAT     H2 6982   5.584   7.059   2.516
 1974WAT      O 6983   5.149   6.356   2.486
 1974WAT     H1 6984   5.206   6.279   2.486
 1974WAT     H2 6985   5.149   6.386   2.395
 1975WAT      O 6986   6.054   6.836   2.432
 1975WAT     H1 6987   6.047   6.742   2.416
 1975WAT     H2 6988   6.130   6.845   2.489
 1976WAT      O 6989   5.273   5.897   2.665
 1976WAT     H1 6990   5.255   5.807   2.693
 1976WAT     H2 6991   5.233   5.951   2.732
 1977WAT      O 6992   6.157   6.117   2.455
 1977WAT     H1 6993   6.195   6.029   2.444
 1977WAT     H2 6994   6.147   6.150   2.366
 1978WAT      O 6995   6.535   5.866   2.148
 1978WAT     H1 6996   6.617   5.817   2.152
 1978WAT     H2 6997   6.538   5.925   2.223
 1979WAT      O 6998   5.335   6.146   2.525
 1979WAT     H1 6999   5.403   6.173   2.587
 1979WAT     H2 7000   5.303   6.062   2.559
 1980WAT      O 7001   5.754   6.251   2.434
 1980WAT     H1 7002   5.805   6.301   2.498
 1980WAT     H2 7003   5.807   6.173   2.417
 1981WAT      O 7004   6.964   6.068   2.805
 1981WAT     H1 7005   6.894   6.107   2.753
 1981WAT     H2 7006   6.991   6.137   2.865
 1982WAT      O 7007   5.582   5.715   2.861
 1982WAT     H1 7008   5.583   5.767   2.780
 1982WAT     H2 7009   5.499   5.667   2.859
 1983WAT      O 7010   6.221   6.726   2.011
 1983WAT     H1 7011   6.159   6.773   1.954
 1983WAT     H2 7012   6.272   6.795   2.052
 1984WAT      O 7013   5.707   6.679   2.679
 1984WAT     H1 7014   5.674   6.741   2.743
 1984WAT     H2 7015   5.725   6.731   2.601
 1985WAT      O 7016   6.559   6.060   2.425
 1985WAT     H1 7017   6.488   6.089   2.483
 1985WAT     H2 7018   6.595   6.141   2.389
 1986WAT      O 7019   5.551   5.886   2.662
 1986WAT     H1 7020   5.585   5.970   2.632
 1986WAT     H2 7021   5.457   5.901   2.673
 1987WAT      O 7022   5.629   6.876   2.860
 1987WAT     H1 7023   5.690   6.943   2.832
 1987WAT     H2 7024   5.543   6.916   2.851
 1988WAT      O 7025   5.158   6.795   1.748
 1988WAT     H1 7026   5.120   6.843   1.675
 1988WAT     H2 7027   5.184   6.862   1.811
 1989WAT      O 7028   6.720   7.022   2.652
 1989WAT     H1 7029   6.652   7.089   2.651
 1989WAT     H2 7030   6.774   7.042   2.575
 1990WAT      O 7031   6.866   6.005   2.464
 1990WAT     H1 7032   6.771   6.008   2.478
 1990WAT     H2 7033   6.898   6.086   2.503
 1991WAT      O 7034   6.603   6.879   2.032
 1991WAT     H1 7035   6.592   6.784   2.044
 1991WAT     H2 7036   6.603   6.915   2.121
 1992WAT      O 7037   6.414   6.697   2.656
 1992WAT     H1 7038   6.456   6.675   2.572
 1992WAT     H2 7039   6.486   6.722   2.713
 1993WAT      O 7040   6.158   6.441   1.968
 1993WAT     H1 7041   6.065   6.435   1.990
 1993WAT     H2 7042   6.173   6.535   1.956
 1994WAT      O 7043   6.156   6.068   1.667
 1994WAT     H1 7044   6.062   6.085   1.676
 1994WAT     H2 7045   6.188   6.140   1.613
 1995WAT      O 7046   6.808   6.537   2.665
 1995WAT     H1 7047   6.726   6.544   2.618
 1995WAT     H2 7048   6.868   6.595   2.618
 1996WAT      O 7049   6.561   6.597   2.018
 1996WAT     H1 7050   6.499   6.564   1.953
 1996WAT     H2 7051   6.559   6.533   2.089
 1997WAT      O 7052   6.505   6.215   2.760
 1997WAT     H1 7053   6.464   6.298   2.785
 1997WAT     H2 7054   6.432   6.157   2.740
 1998WAT      O 7055   5.718   6.494   2.246
 1998WAT     H1 7056   5.678   6.423   2.196
 1998WAT     H2 7057   5.727   6.459   2.335
 1999WAT      O 7058   5.765   6.863   2.462
 1999WAT     H1 7059   5.735   6.802   2.394
 1999WAT     H2 7060   5.860   6.866   2.451
 2000WAT      O 7061   5.589   6.171   2.624
 2000WAT     H1 7062   5.645   6.182   2.546
 2000WAT     H2 7063   5.641   6.209   2.695
 2001WAT      O 7064   5.674   6.836   3.127
 2001WAT     H1 7065   5.584   6.859   3.152
 2001WAT     H2 7066   5.677   6.849   3.032
 2002WAT      O 7067   6.378   6.521   1.719
 2002WAT     H1 7068   6.422   6.438   1.704
 2002WAT     H2 7069   6.450   6.585   1.727
 2003WAT      O 7070   5.557   6.524   2.985
 2003WAT     H1 7071   5.543   6.611   3.022
 2003WAT     H2 7072   5.469   6.489   2.970
 2004WAT      O 7073   6.189   7.015   2.115
 2004WAT     H1 7074   6.233   7.090   2.074
 2004WAT     H2 7075   6.183   7.040   2.208
 2005WAT      O 7076   5.737   7.118   3.206
 2005WAT     H1 7077   5.734   7.158   3.119
 2005WAT     H2 7078   5.720   7.025   3.189
 2006WAT      O 7079   6.736   5.647   1.550
 2006WAT     H1 7080   6.705   5.656   1.640
 2006WAT     H2 7081   6.813   5.705   1.545
 2007WAT      O 7082   5.388   6.383   1.996
 2007WAT     H1 7083   5.376   6.456   1.935
 2007WAT     H2 7084   5.357   6.306   1.948
 2008WAT      O 7085   5.152   6.701   2.577
 2008WAT     H1 7086   5.160   6.714   2.482
 2008WAT     H2 7087   5.214   6.630   2.596
 2009WAT      O 7088   5.277   6.871   2.218
 2009WAT     H1 7089   5.236   6.885   2.132
 2009WAT     H2 7090   5.366   6.842   2.197
 2010WAT      O 7091   6.872   6.915   3.051
 2010WAT     H1 7092   6.885   6.891   2.960
 2010WAT     H2 7093   6.876   6.832   3.099
 2011WAT      O 7094   6.426   7.065   1.707
 2011WAT     H1 7095   6.357   7.065   1.641
 2011WAT     H2 7096   6.500   7.022   1.664
 2012WAT      O 7097   6.857   6.120   3.148
 2012WAT     H1 7098   6.796   6.171   3.095
 2012WAT     H2 7099   6.825   6.030   3.142
 2013WAT      O 7100   5.158   6.805   2.830
 2013WAT     H1 7101   5.174   6.758   2.749
 2013WAT     H2 7102   5.204   6.754   2.897
 2014WAT      O 7103   6.064   6.004   2.894
 2014WAT     H1 7104   6.017   6.025   2.976
 2014WAT     H2 7105   6.023   5.923   2.864
 2015WAT      O 7106   6.564   6.126   3.007
 2015WAT     H1 7107   6.479   6.097   3.040
 2015WAT     H2 7108   6.548   6.151   2.916
 2016WAT      O 7109   6.273   6.277   3.217
 2016WAT     H1 7110   6.306   6.193   3.183
 2016WAT     H2 7111   6.352   6.329   3.232
 2017WAT      O 7112   5.614   6.230   2.107
 2017WAT     H1 7113   5.591   6.208   2.197
 2017WAT     H2 7114   5.536   6.273   2.072
 2018WAT      O 7115   6.337   6.231   1.967
 2018WAT     H1 7116   6.277   6.303   1.948
 2018WAT     H2 7117   6.392   6.224   1.889
 2019WAT      O 7118   5.858   6.320   3.174
 2019WAT     H1 7119   5.848   6.226   3.159
 2019WAT     H2 7120   5.942   6.342   3.134
 2020WAT      O 7121   6.198   6.094   2.170
 2020WAT     H1 7122   6.237   6.126   2.089
 2020WAT     H2 7123   6.234   6.006   2.181
 2021WAT      O 7124   5.371   5.961   2.989
 2021WAT     H1 7125   5.332   6.046   3.010
 2021WAT     H2 7126   5.302   5.897   3.008
 2022WAT      O 7127   6.029   5.969   3.296
 2022WAT     H1 7128   5.960   5.950   3.359
 2022WAT     H2 7129   6.103   5.998   3.349
 2023WAT      O 7130   5.120   6.148   1.513
 2023WAT     H1 7131   5.112   6.242   1.527
 2023WAT     H2 7132   5.085   6.133   1.425
 2024WAT      O 7133   6.256   6.353   2.579
 2024WAT     H1 7134   6.183   6.404   2.614
 2024WAT     H2 7135   6.216   6.272   2.549
 2025WAT      O 7136   5.900   6.021   2.420
 2025WAT     H1 7137   5.900   5.977   2.335
 2025WAT     H2 7138   5.989   6.053   2.431
 2026WAT      O 7139   5.906   6.121   1.719
 2026WAT     H1 7140   5.918   6.117   1.814
 2026WAT     H2 7141   5.868   6.207   1.703
 2027WAT      O 7142   5.807   6.352   1.659
 2027WAT     H1 7143   5.751   6.307   1.596
 2027WAT     H2 7144   5.878   6.388   1.605
 2028WAT      O 7145   6.645   5.640   3.104
 2028WAT     H1 7146   6.678   5.567   3.157
 2028WAT     H2 7147   6.649   5.608   3.014
 2029WAT      O 7148   5.315   6.742   3.046
 2029WAT     H1 7149   5.277   6.678   3.106
 2029WAT     H2 7150   5.346   6.813   3.103
 2030WAT      O 7151   5.930   6.427   2.595
 2030WAT     H1 7152   5.967   6.380   2.669
 2030WAT     H2 7153   5.911   6.514   2.629
 2031WAT      O 7154   5.709   6.331   2.826
 2031WAT     H1 7155   5.679   6.419   2.849
 2031WAT     H2 7156   5.805   6.337   2.830
 2032WAT      O 7157   5.562   6.752   1.886
 2032WAT     H1 7158   5.484   6.698   1.870
 2032WAT     H2 7159   5.635   6.700   1.852
 2033WAT      O 7160   6.638   6.651   2.465
 2033WAT     H1 7161   6.710   6.701   2.426
 2033WAT     H2 7162   6.618   6.583   2.401
 2034WAT      O 7163   6.184   5.791   1.880
 2034WAT     H1 7164   6.102   5.741   1.872
 2034WAT     H2 7165   6.164   5.875   1.838
 2035WAT      O 7166   6.176   6.658   3.054
 2035WAT     H1 7167   6.169   6.566   3.029
 2035WAT     H2 7168   6.113   6.668   3.125
 2036WAT      O 7169   6.455   6.228   1.709
 2036WAT     H1 7170   6.544   6.259   1.692
 2036WAT     H2 7171   6.452   6.141   1.670
 2037WAT      O 7172   5.566   6.718   2.250
 2037WAT     H1 7173   5.618   6.638   2.244
 2037WAT     H2 7174   5.521   6.712   2.334
 2038WAT      O 7175   6.055   6.845   1.777
 2038WAT     H1 7176   6.089   6.920   1.728
 2038WAT     H2 7177   5.972   6.876   1.813
 2039WAT      O 7178   5.315   6.415   2.941
 2039WAT     H1 7179   5.279   6.482   3.000
 2039WAT     H2 7180   5.285   6.332   2.978
 2040WAT      O 7181   5.635   6.461   3.229
 2040WAT     H1 7182   5.605   6.475   3.140
 2040WAT     H2 7183   5.712   6.405   3.220
 2041WAT      O 7184   6.169   6.941   3.029
 2041WAT     H1 7185   6.171   6.847   3.007
 2041WAT     H2 7186   6.098   6.949   3.093
 2042WAT      O 7187   6.682   6.359   1.656
 2042WAT     H1 7188   6.674   6.402   1.571
 2042WAT     H2 7189   6.754   6.405   1.699
 2043WAT      O 7190   6.790   6.605   2.964
 2043WAT     H1 7191   6.718   6.664   2.944
 2043WAT     H2 7192   6.843   6.604   2.884
 2044WAT      O 7193   6.785   7.044   1.929
 2044WAT     H1 7194   6.721   6.979   1.956
 2044WAT     H2 7195   6.747   7.085   1.851
 2045WAT      O 7196   6.343   6.777   2.314
 2045WAT     H1 7197   6.378   6.718   2.248
 2045WAT     H2 7198   6.255   6.745   2.331
 2046WAT      O 7199   5.952   6.853   2.054
 2046WAT     H1 7200   6.021   6.908   2.092
 2046WAT     H2 7201   5.873   6.908   2.058
 2047WAT      O 7202   5.166   6.415   1.603
 2047WAT     H1 7203   5.253   6.443   1.632
 2047WAT     H2 7204   5.117   6.496   1.592
 2048WAT      O 7205   5.882   6.554   2.016
 2048WAT     H1 7206   5.928   6.635   2.038
 2048WAT     H2 7207   5.847   6.522   2.099
 2049WAT      O 7208   6.112   7.105   2.738
 2049WAT     H1 7209   6.177   7.125   2.806
 2049WAT     H2 7210   6.149   7.029   2.693
 2050WAT      O 7211   6.240   6.905   2.610
 2050WAT     H1 7212   6.304   6.835   2.622
 2050WAT     H2 7213   6.292   6.983   2.592
 2051WAT      O 7214   6.624   6.934   1.583
 2051WAT     H1 7215   6.602   6.862   1.642
 2051WAT     H2 7216   6.585   6.909   1.499
 2052WAT      O 7217   6.417   6.985   2.931
 2052WAT     H1 7218   6.451   7.044   2.998
 2052WAT     H2 7219   6.325   6.972   2.954
 2053WAT      O 7220   5.172   5.764   3.009
 2053WAT     H1 7221   5.101   5.784   3.069
 2053WAT     H2 7222   5.214   5.686   3.046
 2054WAT      O 7223   6.582   6.725   1.749
 2054WAT     H1 7224   6.554   6.771   1.828
 2054WAT     H2 7225   6.662   6.679   1.776
 2055WAT      O 7226   5.201   7.163   3.107
 2055WAT     H1 7227   5.212   7.069   3.093
 2055WAT     H2 7228   5.136   7.189   3.043
 2056WAT      O 7229   6.000   6.990   3.247
 2056WAT     H1 7230   5.968   6.918   3.302
 2056WAT     H2 7231   5.933   7.057   3.255
 2057WAT      O 7232   5.804   7.075   1.742
 2057WAT     H1 7233   5.803   7.148   1.680
 2057WAT     H2 7234   5.712   7.050   1.751
 2058WAT      O 7235   5.364   6.597   1.816
 2058WAT     H1 7236   5.304   6.671   1.817
 2058WAT     H2 7237   5.412   6.606   1.734
 2059WAT      O 7238   6.322   6.013   2.784
 2059WAT     H1 7239   6.358   5.931   2.817
 2059WAT     H2 7240   6.236   6.019   2.825
 2060WAT      O 7241   6.658   5.909   1.865
 2060WAT     H1 7242   6.595   5.919   1.793
 2060WAT     H2 7243   6.609   5.931   1.944
 2061WAT      O 7244   6.103   7.081   1.608
 2061WAT     H1 7245   6.113   7.060   1.515
 2061WAT     H2 7246   6.013   7.055   1.629
 2062WAT      O 7247   5.855   6.137   2.006
 2062WAT     H1 7248   5.784   6.183   2.050
 2062WAT     H2 7249   5.883   6.071   2.070
 2063WAT      O 7250   6.018   6.279   2.806
 2063WAT     H1 7251   6.067   6.326   2.873
 2063WAT     H2 7252   6.032   6.186   2.827
 2064WAT      O 7253   6.738   5.900   2.890
 2064WAT     H1 7254   6.688   5.974   2.924
 2064WAT     H2 7255   6.820   5.939   2.859
 2065WAT      O 7256   6.567   6.425   2.235
 2065WAT     H1 7257   6.473   6.426   2.253
 2065WAT     H2 7258   6.599   6.346   2.280
 2066WAT      O 7259   5.565   6.593   1.591
 2066WAT     H1 7260   5.642   6.582   1.647
 2066WAT     H2 7261   5.573   6.523   1.526
 2067WAT      O 7262   5.435   6.336   1.659
 2067WAT     H1 7263   5.443   6.241   1.671
 2067WAT     H2 7264   5.524   6.369   1.670
 2068WAT      O 7265   5.203   6.958   1.957
 2068WAT     H1 7266   5.111   6.982   1.956
 2068WAT     H2 7267   5.250   7.040   1.945
 2069WAT      O 7268   6.299   6.880   3.283
 2069WAT     H1 7269   6.239   6.883   3.209
 2069WAT     H2 7270   6.269   6.807   3.337
 2070WAT      O 7271   5.187   6.518   3.183
 2070WAT     H1 7272   5.238   6.460   3.240
 2070WAT     H2 7273   5.114   6.547   3.237
 2071WAT      O 7274   5.878   6.790   1.538
 2071WAT     H1 7275   5.867   6.729   1.611
 2071WAT     H2 7276   5.861   6.738   1.460
 2072WAT      O 7277   5.893   6.659   3.136
 2072WAT     H1 7278   5.816   6.716   3.128
 2072WAT     H2 7279   5.911   6.630   3.047
 2073WAT      O 7280   6.202   6.697   1.599
 2073WAT     H1 7281   6.147   6.741   1.663
 2073WAT     H2 7282   6.264   6.646   1.651
 2074WAT      O 7283   6.607   6.832   3.192
 2074WAT     H1 7284   6.681   6.866   3.142
 2074WAT     H2 7285   6.531   6.849   3.137
 2075WAT      O 7286   5.391   6.332   3.273
 2075WAT     H1 7287   5.395   6.303   3.363
 2075WAT     H2 7288   5.476   6.373   3.257
 2076WAT      O 7289   5.768   6.592   1.789
 2076WAT     H1 7290   5.811   6.576   1.873
 2076WAT     H2 7291   5.781   6.511   1.739
 2077WAT      O 7292   5.585   6.190   3.069
 2077WAT     H1 7293   5.532   6.141   3.007
 2077WAT     H2 7294   5.652   6.233   3.016
 2078WAT      O 7295   6.020   6.495   1.513
 2078WAT     H1 7296   6.072   6.423   1.477
 2078WAT     H2 7297   6.084   6.559   1.543
 2079WAT      O 7298   6.475   6.637   3.046
 2079WAT     H1 7299   6.516   6.653   3.131
 2079WAT     H2 7300   6.381   6.650   3.062
 2080WAT      O 7301   6.522   6.371   3.246
 2080WAT     H1 7302   6.580   6.296   3.237
 2080WAT     H2 7303   6.539   6.424   3.168
 2081WAT      O 7304   5.633   5.887   3.077
 2081WAT     H1 7305   5.624   5.825   3.005
 2081WAT     H2 7306   5.575   5.960   3.055
 2082WAT      O 7307   5.951   6.632   2.843
 2082WAT     H1 7308   5.993   6.717   2.825
 2082WAT     H2 7309   5.859   6.646   2.820
 2083WAT      O 7310   6.184   6.405   2.981
 2083WAT     H1 7311   6.196   6.346   3.055
 2083WAT     H2 7312   6.270   6.409   2.939
 2084WAT      O 7313   6.418   6.461   2.839
 2084WAT     H1 7314   6.366   6.513   2.778
 2084WAT     H2 7315   6.453   6.524   2.902
 2085WAT      O 7316   5.658   6.200   1.483
 2085WAT     H1 7317   5.638   6.113   1.519
 2085WAT     H2 7318   5.641   6.191   1.389
 2086WAT      O 7319   5.861   6.060   3.107
 2086WAT     H1 7320   5.920   6.029   3.176
 2086WAT     H2 7321   5.779   6.012   3.122
 2087WAT      O 7322   6.343   6.021   3.130
 2087WAT     H1 7323   6.274   5.955   3.124
 2087WAT     H2 7324   6.415   5.977   3.175
 2088WAT      O 7325   6.406   5.681   1.736
 2088WAT     H1 7326   6.434   5.597   1.772
 2088WAT     H2 7327   6.329   5.704   1.787
 2089WAT      O 7328   5.538   5.910   1.482
 2089WAT     H1 7329   5.568   5.910   1.391
 2089WAT     H2 7330   5.612   5.875   1.532
 2090WAT      O 7331   5.860   5.804   1.580
 2090WAT     H1 7332   5.825   5.736   1.523
 2090WAT     H2 7333   5.880   5.758   1.662
 2091WAT      O 7334   5.440   6.840   1.565
 2091WAT     H1 7335   5.484   6.895   1.631
 2091WAT     H2 7336   5.489   6.758   1.566
 2092WAT      O 7337   5.162   7.119   2.310
 2092WAT     H1 7338   5.195   7.032   2.287
 2092WAT     H2 7339   5.205   7.140   2.393
 2093WAT      O 7340   5.621   6.952   2.076
 2093WAT     H1 7341   5.591   6.940   2.166
 2093WAT     H2 7342   5.611   6.866   2.036
 2094WAT      O 7343   6.774   7.156   3.013
 2094WAT     H1 7344   6.714   7.162   2.939
 2094WAT     H2 7345   6.787   7.062   3.026
 2095WAT      O 7346   6.898   6.930   1.547
 2095WAT     H1 7347   6.815   6.937   1.594
 2095WAT     H2 7348   6.916   7.019   1.516
 2096WAT      O 7349   6.844   6.605   1.797
 2096WAT     H1 7350   6.920   6.662   1.808
 2096WAT     H2 7351   6.845   6.548   1.874
 2097WAT      O 7352   5.194   6.457   2.220
 2097WAT     H1 7353   5.128   6.430   2.156
 2097WAT     H2 7354   5.278   6.446   2.175
 2098WAT      O 7355   6.944   6.690   2.281
 2098WAT     H1 7356   6.981   6.612   2.241
 2098WAT     H2 7357   7.008   6.759   2.264
 2099WAT      O 7358   6.643   6.829   2.823
 2099WAT     H1 7359   6.561   6.871   2.849
 2099WAT     H2 7360   6.683   6.890   2.761
 2100WAT      O 7361   6.849   6.634   1.513
 2100WAT     H1 7362   6.876   6.725   1.500
 2100WAT     H2 7363   6.830   6.628   1.606
 2101WAT      O 7364   6.489   5.936   1.642
 2101WAT     H1 7365   6.531   5.918   1.558
 2101WAT     H2 7366   6.458   5.851   1.673
 2102WAT      O 7367   6.839   6.428   2.012
 2102WAT     H1 7368   6.801   6.351   1.969
 2102WAT     H2 7369   6.766   6.466   2.061
 2103WAT      O 7370   5.298   6.496   2.674
 2103WAT     H1 7371   5.334   6.487   2.762
 2103WAT     H2 7372   5.241   6.419   2.664
 2104WAT      O 7373   6.778   6.342   2.975
 2104WAT     H1 7374   6.754   6.320   2.885
 2104WAT     H2 7375   6.804   6.434   2.971
 2105WAT      O 7376   5.253   6.187   3.065
 2105WAT     H1 7377   5.163   6.183   3.099
 2105WAT     H2 7378   5.307   6.206   3.141
 2106WAT      O 7379   6.621   5.865   3.253
 2106WAT     H1 7380   6.709   5.866   3.292
 2106WAT     H2 7381   6.623   5.791   3.192
 2107WAT      O 7382   5.115   6.178   1.814
 2107WAT     H1 7383   5.025   6.204   1.797
 2107WAT     H2 7384   5.164   6.205   1.736
 2108WAT      O 7385   6.766   6.250   2.342
 2108WAT     H1 7386   6.818   6.201   2.279
 2108WAT     H2 7387   6.825   6.264   2.417
 2109WAT      O 7388   6.784   6.259   2.694
 2109WAT     H1 7389   6.689   6.255   2.706
 2109WAT     H2 7390   6.802   6.350   2.671
 2110WAT      O 7391   5.369   6.084   1.605
 2110WAT     H1 7392   5.440   6.041   1.557
 2110WAT     H2 7393   5.298   6.090   1.542
 2111WAT      O 7394   5.334   5.689   1.509
 2111WAT     H1 7395   5.406   5.743   1.541
 2111WAT     H2 7396   5.361   5.662   1.422
 2112WAT      O 7397   6.715   6.176   1.936
 2112WAT     H1 7398   6.765   6.153   2.015
 2112WAT     H2 7399   6.695   6.092   1.894
 2113WAT      O 7400   6.858   6.040   2.189
 2113WAT     H1 7401   6.847   6.024   2.283
 2113WAT     H2 7402   6.934   5.987   2.165
 2114WAT      O 7403   6.693   5.634   2.835
 2114WAT     H1 7404   6.756   5.695   2.872
 2114WAT     H2 7405   6.707   5.637   2.741
 2115WAT      O 7406   6.947   5.823   1.514
 2115WAT     H1 7407   7.039   5.809   1.493
 2115WAT     H2 7408   6.945   5.831   1.609
 2116WAT      O 7409   6.954   5.900   1.776
 2116WAT     H1 7410   6.875   5.893   1.829
 2116WAT     H2 7411   6.975   5.993   1.775
 2117WAT      O 7412   5.278   5.630   2.774
 2117WAT     H1 7413   5.244   5.675   2.850
 2117WAT     H2 7414   5.245   5.540   2.782
 2118WAT      O 7415   5.439   6.947   3.190
 2118WAT     H1 7416   5.435   6.910   3.279
 2118WAT     H2 7417   5.452   7.041   3.204
 2119WAT      O 7418   5.809   7.102   2.750
 2119WAT     H1 7419   5.785   7.129   2.662
 2119WAT     H2 7420   5.903   7.120   2.756
 2120WAT      O 7421   6.030   5.749   3.126
 2120WAT     H1 7422   6.024   5.808   3.201
 2120WAT     H2 7423   6.124   5.738   3.112
 2121WAT      O 7424   6.293   5.714   3.090
 2121WAT     H1 7425   6.355   5.746   3.024
 2121WAT     H2 7426   6.348   5.666   3.152
 2122WAT      O 7427   5.346   5.582   3.101
 2122WAT     H1 7428   5.400   5.564   3.025
 2122WAT     H2 7429   5.352   5.503   3.155
 2123WAT      O 7430   6.458   5.792   2.861
 2123WAT     H1 7431   6.425   5.710   2.823
 2123WAT     H2 7432   6.553   5.787   2.849
 2124WAT      O 7433   5.386   6.978   2.797
 2124WAT     H1 7434   5.313   6.916   2.791
 2124WAT     H2 7435   5.392   7.017   2.710
 2125WAT      O 7436   6.597   5.733   2.421
 2125WAT     H1 7437   6.642   5.727   2.336
 2125WAT     H2 7438   6.571   5.824   2.428
 2126WAT      O 7439   6.784   5.696   2.222
 2126WAT     H1 7440   6.778   5.602   2.207
 2126WAT     H2 7441   6.862   5.707   2.277
 2127WAT      O 7442   6.695   5.611   1.819
 2127WAT     H1 7443   6.715   5.701   1.846
 2127WAT     H2 7444   6.617   5.588   1.868
 2128WAT      O 7445   5.746   5.647   3.272
 2128WAT     H1 7446   5.718   5.698   3.195
 2128WAT     H2 7447   5.784   5.567   3.235
 2129WAT      O 7448   5.551   6.986   1.751
 2129WAT     H1 7449   5.488   7.032   1.806
 2129WAT     H2 7450   5.563   6.901   1.794
 2130WAT      O 7451   6.406   5.589   3.330
 2130WAT     H1 7452   6.395   5.621   3.419
 2130WAT     H2 7453   6.488   5.629   3.300
 2131WAT      O 7454   6.297   6.391   0.366
 2131WAT     H1 7455   6.289   6.299   0.339
 2131WAT     H2 7456   6.255   6.440   0.295
 2132WAT      O 7457   6.110   6.568   0.554
 2132WAT     H1 7458   6.032   6.520   0.583
 2132WAT     H2 7459   6.175   6.501   0.537
 2133WAT      O 7460   5.511   6.600   0.642
 2133WAT     H1 7461   5.428   6.574   0.682
 2133WAT     H2 7462   5.572   6.607   0.715
 2134WAT      O 7463   6.512   7.009   0.432
 2134WAT     H1 7464   6.466   6.932   0.465
 2134WAT     H2 7465   6.593   7.012   0.482
 2135WAT      O 7466   5.509   7.003   0.661
 2135WAT     H1 7467   5.540   6.914   0.643
 2135WAT     H2 7468   5.584   7.059   0.639
 2136WAT      O 7469   5.149   6.356   0.609
 2136WAT     H1 7470   5.206   6.279   0.609
 2136WAT     H2 7471   5.149   6.386   0.518
 2137WAT      O 7472   6.054   6.836   0.555
 2137WAT     H1 7473   6.047   6.742   0.539
 2137WAT     H2 7474   6.130   6.845   0.612
 2138WAT      O 7475   5.273   5.897   0.787
 2138WAT     H1 7476   5.255   5.807   0.815
 2138WAT     H2 7477   5.233   5.951   0.855
 2139WAT      O 7478   6.157   6.117   0.577
 2139WAT     H1 7479   6.195   6.029   0.566
 2139WAT     H2 7480   6.147   6.150   0.488
 2140WAT      O 7481   6.535   5.866   0.271
 2140WAT     H1 7482   6.617   5.817   0.275
 2140WAT     H2 7483   6.538   5.925   0.346
 2141WAT      O 7484   5.335   6.146   0.648
 2141WAT     H1 7485   5.403   6.173   0.710
 2141WAT     H2 7486   5.303   6.062   0.681
 2142WAT      O 7487   5.754   6.251   0.557
 2142WAT     H1 7488   5.805   6.301   0.621
 2142WAT     H2 7489   5.807   6.173   0.539
 2143WAT      O 7490   6.964   6.068   0.927
 2143WAT     H1 7491   6.894   6.107   0.875
 2143WAT     H2 7492   6.991   6.137   0.987
 2144WAT      O 7493   5.582   5.715   0.983
 2144WAT     H1 7494   5.583   5.767   0.903
 2144WAT     H2 7495   5.499   5.667   0.981
 2145WAT      O 7496   5.707   6.679   0.801
 2145WAT     H1 7497   5.674   6.741   0.865
 2145WAT     H2 7498   5.725   6.731   0.723
 2146WAT      O 7499   6.559   6.060   0.548
 2146WAT     H1 7500   6.488   6.089   0.606
 2146WAT     H2 7501   6.595   6.141   0.512
 2147WAT      O 7502   5.551   5.886   0.784
 2147WAT     H1 7503   5.585   5.970   0.755
 2147WAT     H2 7504   5.457   5.901   0.796
 2148WAT      O 7505   5.629   6.876   0.983
 2148WAT     H1 7506   5.690   6.943   0.954
 2148WAT     H2 7507   5.543   6.916   0.974
 2149WAT      O 7508   6.720   7.022   0.774
 2149WAT     H1 7509   6.652   7.089   0.773
 2149WAT     H2 7510   6.774   7.042   0.698
 2150WAT      O 7511   6.866   6.005   0.587
 2150WAT     H1 7512   6.771   6.008   0.600
 2150WAT     H2 7513   6.898   6.086   0.625
 2151WAT      O 7514   5.919   5.635   0.417
 2151WAT     H1 7515   5.950   5.579   0.345
 2151WAT     H2 7516   5.826   5.648   0.398
 2152WAT      O 7517   6.414   6.697   0.778
 2152WAT     H1 7518   6.456   6.675   0.695
 2152WAT     H2 7519   6.486   6.722   0.836
 2153WAT      O 7520   6.808   6.537   0.788
 2153WAT     H1 7521   6.726   6.544   0.740
 2153WAT     H2 7522   6.868   6.595   0.741
 2154WAT      O 7523   6.505   6.215   0.882
 2154WAT     H1 7524   6.464   6.298   0.908
 2154WAT     H2 7525   6.432   6.157   0.863
 2155WAT      O 7526   5.718   6.494   0.368
 2155WAT     H1 7527   5.678   6.423   0.319
 2155WAT     H2 7528   5.727   6.459   0.457
 2156WAT      O 7529   5.765   6.863   0.585
 2156WAT     H1 7530   5.735   6.802   0.517
 2156WAT     H2 7531   5.860   6.866   0.574
 2157WAT      O 7532   5.589   6.171   0.746
 2157WAT     H1 7533   5.645   6.182   0.669
 2157WAT     H2 7534   5.641   6.209   0.818
 2158WAT      O 7535   5.674   6.836   1.250
 2158WAT     H1 7536   5.584   6.859   1.275
 2158WAT     H2 7537   5.677   6.849   1.155
 2159WAT      O 7538   5.557   6.524   1.107
 2159WAT     H1 7539   5.543   6.611   1.144
 2159WAT     H2 7540   5.469   6.489   1.093
 2160WAT      O 7541   6.189   7.015   0.238
 2160WAT     H1 7542   6.233   7.090   0.197
 2160WAT     H2 7543   6.183   7.040   0.330
 2161WAT      O 7544   5.737   7.118   1.328
 2161WAT     H1 7545   5.734   7.158   1.242
 2161WAT     H2 7546   5.720   7.025   1.312
 2162WAT      O 7547   5.152   6.701   0.699
 2162WAT     H1 7548   5.160   6.714   0.605
 2162WAT     H2 7549   5.214   6.630   0.718
 2163WAT      O 7550   5.277   6.871   0.340
 2163WAT     H1 7551   5.236   6.885   0.255
 2163WAT     H2 7552   5.366   6.842   0.320
 2164WAT      O 7553   6.872   6.915   1.174
 2164WAT     H1 7554   6.885   6.891   1.082
 2164WAT     H2 7555   6.876   6.832   1.221
 2165WAT      O 7556   6.857   6.120   1.270
 2165WAT     H1 7557   6.796   6.171   1.218
 2165WAT     H2 7558   6.825   6.030   1.265
 2166WAT      O 7559   5.158   6.805   0.953
 2166WAT     H1 7560   5.174   6.758   0.871
 2166WAT     H2 7561   5.204   6.754   1.020
 2167WAT      O 7562   5.635   5.718   0.457
 2167WAT     H1 7563   5.591   5.796   0.424
 2167WAT     H2 7564   5.691   5.750   0.527
 2168WAT      O 7565   6.064   6.004   1.017
 2168WAT     H1 7566   6.017   6.025   1.098
 2168WAT     H2 7567   6.023   5.923   0.987
 2169WAT      O 7568   6.564   6.126   1.130
 2169WAT     H1 7569   6.479   6.097   1.162
 2169WAT     H2 7570   6.548   6.151   1.039
 2170WAT      O 7571   6.273   6.277   1.340
 2170WAT     H1 7572   6.306   6.193   1.306
 2170WAT     H2 7573   6.352   6.329   1.355
 2171WAT      O 7574   5.839   5.772   0.643
 2171WAT     H1 7575   5.868   5.863   0.634
 2171WAT     H2 7576   5.893   5.723   0.581
 2172WAT      O 7577   5.614   6.230   0.229
 2172WAT     H1 7578   5.591   6.208   0.320
 2172WAT     H2 7579   5.536   6.273   0.195
 2173WAT      O 7580   5.858   6.320   1.296
 2173WAT     H1 7581   5.848   6.226   1.281
 2173WAT     H2 7582   5.942   6.342   1.257
 2174WAT      O 7583   6.198   6.094   0.292
 2174WAT     H1 7584   6.237   6.126   0.211
 2174WAT     H2 7585   6.234   6.006   0.304
 2175WAT      O 7586   5.371   5.961   1.111
 2175WAT     H1 7587   5.332   6.046   1.132
 2175WAT     H2 7588   5.302   5.897   1.130
 2176WAT      O 7589   6.029   5.969   1.418
 2176WAT     H1 7590   5.960   5.950   1.482
 2176WAT     H2 7591   6.103   5.998   1.472
 2177WAT      O 7592   5.101   5.753   0.515
 2177WAT     H1 7593   5.072   5.810   0.586
 2177WAT     H2 7594   5.176   5.705   0.551
 2178WAT      O 7595   6.256   6.353   0.702
 2178WAT     H1 7596   6.183   6.404   0.737
 2178WAT     H2 7597   6.216   6.272   0.672
 2179WAT      O 7598   5.900   6.021   0.542
 2179WAT     H1 7599   5.900   5.977   0.457
 2179WAT     H2 7600   5.989   6.053   0.553
 2180WAT      O 7601   5.485   6.009   0.438
 2180WAT     H1 7602   5.451   6.057   0.514
 2180WAT     H2 7603   5.409   5.964   0.402
 2181WAT      O 7604   6.302   5.899   0.643
 2181WAT     H1 7605   6.304   5.944   0.728
 2181WAT     H2 7606   6.278   5.809   0.664
 2182WAT      O 7607   6.645   5.640   1.227
 2182WAT     H1 7608   6.678   5.567   1.280
 2182WAT     H2 7609   6.649   5.608   1.137
 2183WAT      O 7610   5.315   6.742   1.169
 2183WAT     H1 7611   5.277   6.678   1.229
 2183WAT     H2 7612   5.346   6.813   1.226
 2184WAT      O 7613   5.930   6.427   0.717
 2184WAT     H1 7614   5.967   6.380   0.792
 2184WAT     H2 7615   5.911   6.514   0.751
 2185WAT      O 7616   5.216   5.901   0.330
 2185WAT     H1 7617   5.188   5.865   0.414
 2185WAT     H2 7618   5.210   5.828   0.269
 2186WAT      O 7619   5.709   6.331   0.949
 2186WAT     H1 7620   5.679   6.419   0.971
 2186WAT     H2 7621   5.805   6.337   0.953
 2187WAT      O 7622   6.638   6.651   0.588
 2187WAT     H1 7623   6.710   6.701   0.549
 2187WAT     H2 7624   6.618   6.583   0.523
 2188WAT      O 7625   6.176   6.658   1.177
 2188WAT     H1 7626   6.169   6.566   1.151
 2188WAT     H2 7627   6.113   6.668   1.248
 2189WAT      O 7628   5.566   6.718   0.372
 2189WAT     H1 7629   5.618   6.638   0.367
 2189WAT     H2 7630   5.521   6.712   0.457
 2190WAT      O 7631   5.315   6.415   1.064
 2190WAT     H1 7632   5.279   6.482   1.122
 2190WAT     H2 7633   5.285   6.332   1.101
 2191WAT      O 7634   5.635   6.461   1.352
 2191WAT     H1 7635   5.605   6.475   1.262
 2191WAT     H2 7636   5.712   6.405   1.343
 2192WAT      O 7637   6.169   6.941   1.152
 2192WAT     H1 7638   6.171   6.847   1.130
 2192WAT     H2 7639   6.098   6.949   1.215
 2193WAT      O 7640   6.790   6.605   1.086
 2193WAT     H1 7641   6.718   6.664   1.067
 2193WAT     H2 7642   6.843   6.604   1.006
 2194WAT      O 7643   6.343   6.777   0.436
 2194WAT     H1 7644   6.378   6.718   0.370
 2194WAT     H2 7645   6.255   6.745   0.453
 2195WAT      O 7646   5.952   6.853   0.177
 2195WAT     H1 7647   6.021   6.908   0.215
 2195WAT     H2 7648   5.873   6.908   0.180
 2196WAT      O 7649   6.112   7.105   0.861
 2196WAT     H1 7650   6.177   7.125   0.929
 2196WAT     H2 7651   6.149   7.029   0.816
 2197WAT      O 7652   6.240   6.905   0.733
 2197WAT     H1 7653   6.304   6.835   0.744
 2197WAT     H2 7654   6.292   6.983   0.715
 2198WAT      O 7655   6.417   6.985   1.053
 2198WAT     H1 7656   6.451   7.044   1.121
 2198WAT     H2 7657   6.325   6.972   1.076
 2199WAT      O 7658   5.172   5.764   1.131
 2199WAT     H1 7659   5.101   5.784   1.192
 2199WAT     H2 7660   5.214   5.686   1.169
 2200WAT      O 7661   5.201   7.163   1.230
 2200WAT     H1 7662   5.212   7.069   1.216
 2200WAT     H2 7663   5.136   7.189   1.165
 2201WAT      O 7664   6.000   6.990   1.370
 2201WAT     H1 7665   5.968   6.918   1.424
 2201WAT     H2 7666   5.933   7.057   1.377
 2202WAT      O 7667   6.322   6.013   0.906
 2202WAT     H1 7668   6.358   5.931   0.939
 2202WAT     H2 7669   6.236   6.019   0.948
 2203WAT      O 7670   6.018   6.279   0.929
 2203WAT     H1 7671   6.067   6.326   0.995
 2203WAT     H2 7672   6.032   6.186   0.949
 2204WAT      O 7673   6.258   5.809   0.273
 2204WAT     H1 7674   6.246   5.811   0.178
 2204WAT     H2 7675   6.353   5.814   0.285
 2205WAT      O 7676   6.738   5.900   1.013
 2205WAT     H1 7677   6.688   5.974   1.047
 2205WAT     H2 7678   6.820   5.939   0.981
 2206WAT      O 7679   6.567   6.425   0.358
 2206WAT     H1 7680   6.473   6.426   0.375
 2206WAT     H2 7681   6.599   6.346   0.402
 2207WAT      O 7682   6.299   6.880   1.406
 2207WAT     H1 7683   6.239   6.883   1.332
 2207WAT     H2 7684   6.269   6.807   1.460
 2208WAT      O 7685   5.187   6.518   1.306
 2208WAT     H1 7686   5.238   6.460   1.363
 2208WAT     H2 7687   5.114   6.547   1.359
 2209WAT      O 7688   5.893   6.659   1.259
 2209WAT     H1 7689   5.816   6.716   1.250
 2209WAT     H2 7690   5.911   6.630   1.170
 2210WAT      O 7691   6.607   6.832   1.315
 2210WAT     H1 7692   6.681   6.866   1.264
 2210WAT     H2 7693   6.531   6.849   1.259
 2211WAT      O 7694   5.391   6.332   1.395
 2211WAT     H1 7695   5.395   6.303   1.486
 2211WAT     H2 7696   5.476   6.373   1.379
 2212WAT      O 7697   5.585   6.190   1.192
 2212WAT     H1 7698   5.532   6.141   1.129
 2212WAT     H2 7699   5.652   6.233   1.138
 2213WAT      O 7700   6.475   6.637   1.168
 2213WAT     H1 7701   6.516   6.653   1.253
 2213WAT     H2 7702   6.381   6.650   1.185
 2214WAT      O 7703   6.522   6.371   1.369
 2214WAT     H1 7704   6.580   6.296   1.360
 2214WAT     H2 7705   6.539   6.424   1.291
 2215WAT      O 7706   5.633   5.887   1.200
 2215WAT     H1 7707   5.624   5.825   1.127
 2215WAT     H2 7708   5.575   5.960   1.177
 2216WAT      O 7709   5.910   5.743   0.903
 2216WAT     H1 7710   5.865   5.745   0.819
 2216WAT     H2 7711   5.847   5.703   0.963
 2217WAT      O 7712   5.951   6.632   0.965
 2217WAT     H1 7713   5.993   6.717   0.948
 2217WAT     H2 7714   5.859   6.646   0.942
 2218WAT      O 7715   6.184   6.405   1.104
 2218WAT     H1 7716   6.196   6.346   1.178
 2218WAT     H2 7717   6.270   6.409   1.062
 2219WAT      O 7718   6.418   6.461   0.961
 2219WAT     H1 7719   6.366   6.513   0.901
 2219WAT     H2 7720   6.453   6.524   1.024
 2220WAT      O 7721   5.861   6.060   1.229
 2220WAT     H1 7722   5.920   6.029   1.298
 2220WAT     H2 7723   5.779   6.012   1.245
 2221WAT      O 7724   6.343   6.021   1.253
 2221WAT     H1 7725   6.274   5.955   1.246
 2221WAT     H2 7726   6.415   5.977   1.297
 2222WAT      O 7727   5.162   7.119   0.433
 2222WAT     H1 7728   5.195   7.032   0.410
 2222WAT     H2 7729   5.205   7.140   0.516
 2223WAT      O 7730   6.774   7.156   1.136
 2223WAT     H1 7731   6.714   7.162   1.061
 2223WAT     H2 7732   6.787   7.062   1.149
 2224WAT      O 7733   5.194   6.457   0.343
 2224WAT     H1 7734   5.128   6.430   0.278
 2224WAT     H2 7735   5.278   6.446   0.298
 2225WAT      O 7736   6.944   6.690   0.404
 2225WAT     H1 7737   6.981   6.612   0.363
 2225WAT     H2 7738   7.008   6.759   0.386
 2226WAT      O 7739   6.643   6.829   0.945
 2226WAT     H1 7740   6.561   6.871   0.972
 2226WAT     H2 7741   6.683   6.890   0.884
 2227WAT      O 7742   5.298   6.496   0.797
 2227WAT     H1 7743   5.334   6.487   0.885
 2227WAT     H2 7744   5.241   6.419   0.787
 2228WAT      O 7745   6.778   6.342   1.098
 2228WAT     H1 7746   6.754   6.320   1.008
 2228WAT     H2 7747   6.804   6.434   1.093
 2229WAT      O 7748   5.253   6.187   1.187
 2229WAT     H1 7749   5.163   6.183   1.221
 2229WAT     H2 7750   5.307   6.206   1.264
 2230WAT      O 7751   6.621   5.865   1.376
 2230WAT     H1 7752   6.709   5.866   1.414
 2230WAT     H2 7753   6.623   5.791   1.315
 2231WAT      O 7754   6.766   6.250   0.465
 2231WAT     H1 7755   6.818   6.201   0.402
 2231WAT     H2 7756   6.825   6.264   0.539
 2232WAT      O 7757   6.784   6.259   0.817
 2232WAT     H1 7758   6.689   6.255   0.828
 2232WAT     H2 7759   6.802   6.350   0.793
 2233WAT      O 7760   5.303   5.614   0.622
 2233WAT     H1 7761   5.368   5.559   0.578
 2233WAT     H2 7762   5.345   5.640   0.704
 2234WAT      O 7763   6.858   6.040   0.312
 2234WAT     H1 7764   6.847   6.024   0.406
 2234WAT     H2 7765   6.934   5.987   0.288
 2235WAT      O 7766   6.693   5.634   0.958
 2235WAT     H1 7767   6.756   5.695   0.994
 2235WAT     H2 7768   6.707   5.637   0.863
 2236WAT      O 7769   5.278   5.630   0.896
 2236WAT     H1 7770   5.244   5.675   0.973
 2236WAT     H2 7771   5.245   5.540   0.905
 2237WAT      O 7772   5.439   6.947   1.313
 2237WAT     H1 7773   5.435   6.910   1.401
 2237WAT     H2 7774   5.452   7.041   1.327
 2238WAT      O 7775   5.809   7.102   0.873
 2238WAT     H1 7776   5.785   7.129   0.784
 2238WAT     H2 7777   5.903   7.120   0.879
 2239WAT      O 7778   6.030   5.749   1.249
 2239WAT     H1 7779   6.024   5.808   1.324
 2239WAT     H2 7780   6.124   5.738   1.234
 2240WAT      O 7781   6.293   5.714   1.213
 2240WAT     H1 7782   6.355   5.746   1.146
 2240WAT     H2 7783   6.348   5.666   1.274
 2241WAT      O 7784   5.346   5.582   1.224
 2241WAT     H1 7785   5.400   5.564   1.148
 2241WAT     H2 7786   5.352   5.503   1.277
 2242WAT      O 7787   6.368   5.571   0.845
 2242WAT     H1 7788   6.280   5.604   0.825
 2242WAT     H2 7789   6.357   5.524   0.928
 2243WAT      O 7790   6.458   5.792   0.984
 2243WAT     H1 7791   6.425   5.710   0.946
 2243WAT     H2 7792   6.553   5.787   0.971
 2244WAT      O 7793   5.386   6.978   0.920
 2244WAT     H1 7794   5.313   6.916   0.913
 2244WAT     H2 7795   5.392   7.017   0.833
 2245WAT      O 7796   6.142   5.663   0.739
 2245WAT     H1 7797   6.064   5.710   0.767
 2245WAT     H2 7798   6.113   5.572   0.728
 2246WAT      O 7799   6.597   5.733   0.544
 2246WAT     H1 7800   6.642   5.727   0.459
 2246WAT     H2 7801   6.571   5.824   0.551
 2247WAT      O 7802   6.784   5.696   0.345
 2247WAT     H1 7803   6.778   5.602   0.330
 2247WAT     H2 7804   6.862   5.707   0.399
 2248WAT      O 7805   5.931   5.904   0.290
 2248WAT     H1 7806   5.850   5.867   0.256
 2248WAT     H2 7807   5.981   5.829   0.321
 2249WAT      O 7808   6.381   5.571   0.414
 2249WAT     H1 7809   6.441   5.628   0.462
 2249WAT     H2 7810   6.307   5.627   0.392
 2250WAT      O 7811   5.746   5.647   1.394
 2250WAT     H1 7812   5.718   5.698   1.318
 2250WAT     H2 7813   5.784   5.567   1.358
 2251WAT      O 7814   6.406   5.589   1.452
 2251WAT     H1 7815   6.395   5.621   1.542
 2251WAT     H2 7816   6.488   5.629   1.422
 2252WAT      O 7817   6.297   4.513   5.998
 2252WAT     H1 7818   6.289   4.422   5.971
 2252WAT     H2 7819   6.255   4.563   5.928
 2253WAT      O 7820   6.110   4.691   6.186
 2253WAT     H1 7821   6.032   4.643   6.215
 2253WAT     H2 7822   6.175   4.623   6.169
 2254WAT      O 7823   5.511   4.722   6.274
 2254WAT     H1 7824   5.428   4.697   6.314
 2254WAT     H2 7825   5.572   4.729   6.348
 2255WAT      O 7826   6.512   5.132   6.064
 2255WAT     H1 7827   6.466   5.055   6.097
 2255WAT     H2 7828   6.593   5.134   6.115
 2256WAT      O 7829   5.509   5.126   6.294
 2256WAT     H1 7830   5.540   5.037   6.276
 2256WAT     H2 7831   5.584   5.181   6.271
 2257WAT      O 7832   5.352   4.218   5.652
 2257WAT     H1 7833   5.264   4.252   5.642
 2257WAT     H2 7834   5.381   4.198   5.563
 2258WAT      O 7835   5.149   4.478   6.241
 2258WAT     H1 7836   5.206   4.402   6.241
 2258WAT     H2 7837   5.149   4.508   6.150
 2259WAT      O 7838   6.134   5.360   6.026
 2259WAT     H1 7839   6.073   5.406   5.969
 2259WAT     H2 7840   6.220   5.376   5.986
 2260WAT      O 7841   6.054   4.959   6.187
 2260WAT     H1 7842   6.047   4.865   6.171
 2260WAT     H2 7843   6.130   4.968   6.244
 2261WAT      O 7844   5.273   4.019   6.420
 2261WAT     H1 7845   5.255   3.929   6.448
 2261WAT     H2 7846   5.233   4.074   6.487
 2262WAT      O 7847   6.157   4.239   6.210
 2262WAT     H1 7848   6.195   4.152   6.198
 2262WAT     H2 7849   6.147   4.273   6.121
 2263WAT      O 7850   5.570   4.077   5.756
 2263WAT     H1 7851   5.581   4.167   5.787
 2263WAT     H2 7852   5.479   4.072   5.727
 2264WAT      O 7853   6.535   3.989   5.903
 2264WAT     H1 7854   6.617   3.940   5.907
 2264WAT     H2 7855   6.538   4.048   5.978
 2265WAT      O 7856   5.335   4.269   6.280
 2265WAT     H1 7857   5.403   4.295   6.342
 2265WAT     H2 7858   5.303   4.185   6.314
 2266WAT      O 7859   5.754   4.373   6.189
 2266WAT     H1 7860   5.805   4.423   6.253
 2266WAT     H2 7861   5.807   4.296   6.171
 2267WAT      O 7862   6.221   4.849   5.766
 2267WAT     H1 7863   6.159   4.895   5.709
 2267WAT     H2 7864   6.272   4.918   5.807
 2268WAT      O 7865   5.707   4.801   6.433
 2268WAT     H1 7866   5.674   4.864   6.498
 2268WAT     H2 7867   5.725   4.854   6.355
 2269WAT      O 7868   6.559   4.183   6.180
 2269WAT     H1 7869   6.488   4.212   6.238
 2269WAT     H2 7870   6.595   4.264   6.144
 2270WAT      O 7871   5.551   4.009   6.416
 2270WAT     H1 7872   5.585   4.093   6.387
 2270WAT     H2 7873   5.457   4.023   6.428
 2271WAT      O 7874   5.158   4.917   5.503
 2271WAT     H1 7875   5.120   4.966   5.430
 2271WAT     H2 7876   5.184   4.984   5.566
 2272WAT      O 7877   6.720   5.145   6.406
 2272WAT     H1 7878   6.652   5.212   6.406
 2272WAT     H2 7879   6.774   5.164   6.330
 2273WAT      O 7880   6.866   4.127   6.219
 2273WAT     H1 7881   6.771   4.131   6.232
 2273WAT     H2 7882   6.898   4.209   6.258
 2274WAT      O 7883   5.919   3.757   6.049
 2274WAT     H1 7884   5.950   3.702   5.977
 2274WAT     H2 7885   5.826   3.771   6.031
 2275WAT      O 7886   6.474   5.329   6.278
 2275WAT     H1 7887   6.475   5.289   6.191
 2275WAT     H2 7888   6.419   5.406   6.268
 2276WAT      O 7889   6.603   5.001   5.787
 2276WAT     H1 7890   6.592   4.907   5.799
 2276WAT     H2 7891   6.603   5.037   5.875
 2277WAT      O 7892   6.414   4.819   6.411
 2277WAT     H1 7893   6.456   4.798   6.327
 2277WAT     H2 7894   6.486   4.845   6.468
 2278WAT      O 7895   6.158   4.564   5.722
 2278WAT     H1 7896   6.065   4.557   5.745
 2278WAT     H2 7897   6.173   4.658   5.711
 2279WAT      O 7898   6.156   4.191   5.422
 2279WAT     H1 7899   6.062   4.207   5.431
 2279WAT     H2 7900   6.188   4.263   5.367
 2280WAT      O 7901   6.808   4.659   6.420
 2280WAT     H1 7902   6.726   4.666   6.372
 2280WAT     H2 7903   6.868   4.718   6.373
 2281WAT      O 7904   6.561   4.720   5.773
 2281WAT     H1 7905   6.499   4.686   5.708
 2281WAT     H2 7906   6.559   4.656   5.844
 2282WAT      O 7907   5.718   4.616   6.001
 2282WAT     H1 7908   5.678   4.545   5.951
 2282WAT     H2 7909   5.727   4.582   6.090
 2283WAT      O 7910   5.765   4.985   6.217
 2283WAT     H1 7911   5.735   4.925   6.149
 2283WAT     H2 7912   5.860   4.989   6.206
 2284WAT      O 7913   5.589   4.294   6.379
 2284WAT     H1 7914   5.645   4.305   6.301
 2284WAT     H2 7915   5.641   4.331   6.450
 2285WAT      O 7916   6.378   4.644   5.474
 2285WAT     H1 7917   6.422   4.560   5.459
 2285WAT     H2 7918   6.450   4.707   5.482
 2286WAT      O 7919   6.189   5.138   5.870
 2286WAT     H1 7920   6.233   5.212   5.829
 2286WAT     H2 7921   6.183   5.162   5.963
 2287WAT      O 7922   6.736   3.769   5.305
 2287WAT     H1 7923   6.705   3.779   5.395
 2287WAT     H2 7924   6.813   3.827   5.300
 2288WAT      O 7925   5.388   4.506   5.751
 2288WAT     H1 7926   5.376   4.579   5.690
 2288WAT     H2 7927   5.357   4.429   5.703
 2289WAT      O 7928   5.152   4.823   6.331
 2289WAT     H1 7929   5.160   4.837   6.237
 2289WAT     H2 7930   5.214   4.752   6.351
 2290WAT      O 7931   5.277   4.993   5.972
 2290WAT     H1 7932   5.236   5.007   5.887
 2290WAT     H2 7933   5.366   4.965   5.952
 2291WAT      O 7934   6.456   5.437   5.606
 2291WAT     H1 7935   6.440   5.408   5.696
 2291WAT     H2 7936   6.439   5.359   5.552
 2292WAT      O 7937   5.704   5.415   5.784
 2292WAT     H1 7938   5.686   5.323   5.762
 2292WAT     H2 7939   5.618   5.450   5.808
 2293WAT      O 7940   6.426   5.187   5.462
 2293WAT     H1 7941   6.357   5.187   5.396
 2293WAT     H2 7942   6.500   5.145   5.419
 2294WAT      O 7943   6.383   5.350   5.869
 2294WAT     H1 7944   6.428   5.272   5.901
 2294WAT     H2 7945   6.417   5.421   5.924
 2295WAT      O 7946   5.635   3.840   6.089
 2295WAT     H1 7947   5.591   3.918   6.056
 2295WAT     H2 7948   5.691   3.873   6.160
 2296WAT      O 7949   5.946   3.802   5.577
 2296WAT     H1 7950   5.884   3.802   5.650
 2296WAT     H2 7951   5.938   3.716   5.537
 2297WAT      O 7952   5.839   3.895   6.275
 2297WAT     H1 7953   5.868   3.985   6.267
 2297WAT     H2 7954   5.893   3.846   6.213
 2298WAT      O 7955   5.614   4.353   5.862
 2298WAT     H1 7956   5.591   4.331   5.952
 2298WAT     H2 7957   5.536   4.396   5.827
 2299WAT      O 7958   6.337   4.353   5.722
 2299WAT     H1 7959   6.277   4.426   5.703
 2299WAT     H2 7960   6.392   4.347   5.643
 2300WAT      O 7961   6.198   4.217   5.925
 2300WAT     H1 7962   6.237   4.249   5.843
 2300WAT     H2 7963   6.234   4.129   5.936
 2301WAT      O 7964   5.101   3.876   6.147
 2301WAT     H1 7965   5.072   3.933   6.218
 2301WAT     H2 7966   5.176   3.828   6.183
 2302WAT      O 7967   5.120   4.270   5.268
 2302WAT     H1 7968   5.112   4.364   5.282
 2302WAT     H2 7969   5.085   4.256   5.180
 2303WAT      O 7970   6.256   4.476   6.334
 2303WAT     H1 7971   6.183   4.527   6.369
 2303WAT     H2 7972   6.216   4.394   6.304
 2304WAT      O 7973   5.900   4.143   6.175
 2304WAT     H1 7974   5.900   4.099   6.090
 2304WAT     H2 7975   5.989   4.176   6.185
 2305WAT      O 7976   5.485   4.132   6.071
 2305WAT     H1 7977   5.451   4.179   6.146
 2305WAT     H2 7978   5.409   4.086   6.035
 2306WAT      O 7979   5.906   4.244   5.474
 2306WAT     H1 7980   5.918   4.239   5.569
 2306WAT     H2 7981   5.868   4.330   5.458
 2307WAT      O 7982   6.302   4.021   6.275
 2307WAT     H1 7983   6.304   4.066   6.360
 2307WAT     H2 7984   6.278   3.931   6.297
 2308WAT      O 7985   5.807   4.475   5.414
 2308WAT     H1 7986   5.751   4.430   5.351
 2308WAT     H2 7987   5.878   4.511   5.360
 2309WAT      O 7988   5.930   4.549   6.349
 2309WAT     H1 7989   5.967   4.502   6.424
 2309WAT     H2 7990   5.911   4.637   6.383
 2310WAT      O 7991   5.216   4.024   5.962
 2310WAT     H1 7992   5.188   3.987   6.046
 2310WAT     H2 7993   5.210   3.951   5.901
 2311WAT      O 7994   5.562   4.874   5.641
 2311WAT     H1 7995   5.484   4.820   5.625
 2311WAT     H2 7996   5.635   4.822   5.607
 2312WAT      O 7997   6.638   4.774   6.220
 2312WAT     H1 7998   6.710   4.823   6.181
 2312WAT     H2 7999   6.618   4.706   6.156
 2313WAT      O 8000   6.184   3.913   5.634
 2313WAT     H1 8001   6.102   3.863   5.627
 2313WAT     H2 8002   6.164   3.997   5.593
 2314WAT      O 8003   6.455   4.350   5.464
 2314WAT     H1 8004   6.544   4.382   5.447
 2314WAT     H2 8005   6.452   4.263   5.425
 2315WAT      O 8006   5.566   4.841   6.005
 2315WAT     H1 8007   5.618   4.761   5.999
 2315WAT     H2 8008   5.521   4.835   6.089
 2316WAT      O 8009   6.055   4.968   5.532
 2316WAT     H1 8010   6.089   5.042   5.482
 2316WAT     H2 8011   5.972   4.999   5.568
 2317WAT      O 8012   6.682   4.482   5.411
 2317WAT     H1 8013   6.674   4.525   5.326
 2317WAT     H2 8014   6.754   4.528   5.454
 2318WAT      O 8015   6.785   5.167   5.684
 2318WAT     H1 8016   6.721   5.102   5.711
 2318WAT     H2 8017   6.747   5.208   5.606
 2319WAT      O 8018   6.343   4.900   6.068
 2319WAT     H1 8019   6.378   4.840   6.002
 2319WAT     H2 8020   6.255   4.867   6.086
 2320WAT      O 8021   5.952   4.976   5.809
 2320WAT     H1 8022   6.021   5.030   5.847
 2320WAT     H2 8023   5.873   5.030   5.813
 2321WAT      O 8024   5.166   4.538   5.358
 2321WAT     H1 8025   5.253   4.566   5.387
 2321WAT     H2 8026   5.117   4.619   5.347
 2322WAT      O 8027   5.882   4.676   5.770
 2322WAT     H1 8028   5.928   4.757   5.793
 2322WAT     H2 8029   5.847   4.644   5.854
 2323WAT      O 8030   5.472   3.711   5.818
 2323WAT     H1 8031   5.459   3.710   5.912
 2323WAT     H2 8032   5.390   3.744   5.783
 2324WAT      O 8033   6.240   5.028   6.365
 2324WAT     H1 8034   6.304   4.958   6.376
 2324WAT     H2 8035   6.292   5.106   6.347
 2325WAT      O 8036   6.624   5.056   5.337
 2325WAT     H1 8037   6.602   4.984   5.397
 2325WAT     H2 8038   6.585   5.031   5.254
 2326WAT      O 8039   5.202   5.459   5.415
 2326WAT     H1 8040   5.238   5.519   5.349
 2326WAT     H2 8041   5.188   5.513   5.492
 2327WAT      O 8042   6.582   4.848   5.504
 2327WAT     H1 8043   6.554   4.894   5.582
 2327WAT     H2 8044   6.662   4.802   5.530
 2328WAT      O 8045   5.804   5.197   5.497
 2328WAT     H1 8046   5.803   5.270   5.435
 2328WAT     H2 8047   5.712   5.172   5.506
 2329WAT      O 8048   5.364   4.719   5.571
 2329WAT     H1 8049   5.304   4.793   5.572
 2329WAT     H2 8050   5.412   4.728   5.489
 2330WAT      O 8051   6.658   4.031   5.620
 2330WAT     H1 8052   6.595   4.042   5.548
 2330WAT     H2 8053   6.609   4.053   5.699
 2331WAT      O 8054   6.103   5.203   5.363
 2331WAT     H1 8055   6.113   5.183   5.270
 2331WAT     H2 8056   6.013   5.178   5.383
 2332WAT      O 8057   5.855   4.259   5.761
 2332WAT     H1 8058   5.784   4.306   5.805
 2332WAT     H2 8059   5.883   4.193   5.825
 2333WAT      O 8060   6.258   3.932   5.905
 2333WAT     H1 8061   6.246   3.934   5.810
 2333WAT     H2 8062   6.353   3.936   5.917
 2334WAT      O 8063   5.967   5.455   5.832
 2334WAT     H1 8064   5.992   5.451   5.740
 2334WAT     H2 8065   5.872   5.443   5.832
 2335WAT      O 8066   5.675   4.090   5.499
 2335WAT     H1 8067   5.760   4.134   5.492
 2335WAT     H2 8068   5.639   4.121   5.581
 2336WAT      O 8069   6.567   4.547   5.990
 2336WAT     H1 8070   6.473   4.549   6.007
 2336WAT     H2 8071   6.599   4.469   6.035
 2337WAT      O 8072   5.565   4.715   5.346
 2337WAT     H1 8073   5.642   4.704   5.402
 2337WAT     H2 8074   5.573   4.646   5.281
 2338WAT      O 8075   5.435   4.459   5.414
 2338WAT     H1 8076   5.443   4.364   5.426
 2338WAT     H2 8077   5.524   4.492   5.425
 2339WAT      O 8078   6.768   5.264   6.158
 2339WAT     H1 8079   6.780   5.347   6.205
 2339WAT     H2 8080   6.854   5.243   6.123
 2340WAT      O 8081   5.515   5.474   6.125
 2340WAT     H1 8082   5.589   5.419   6.152
 2340WAT     H2 8083   5.553   5.560   6.111
 2341WAT      O 8084   5.203   5.080   5.712
 2341WAT     H1 8085   5.111   5.105   5.711
 2341WAT     H2 8086   5.250   5.163   5.700
 2342WAT      O 8087   5.826   5.391   5.307
 2342WAT     H1 8088   5.905   5.420   5.262
 2342WAT     H2 8089   5.774   5.348   5.239
 2343WAT      O 8090   6.731   5.314   5.449
 2343WAT     H1 8091   6.703   5.272   5.368
 2343WAT     H2 8092   6.711   5.406   5.437
 2344WAT      O 8093   5.878   4.913   5.293
 2344WAT     H1 8094   5.867   4.851   5.366
 2344WAT     H2 8095   5.861   4.861   5.215
 2345WAT      O 8096   6.202   4.819   5.354
 2345WAT     H1 8097   6.147   4.864   5.418
 2345WAT     H2 8098   6.264   4.769   5.406
 2346WAT      O 8099   5.768   4.715   5.543
 2346WAT     H1 8100   5.811   4.698   5.628
 2346WAT     H2 8101   5.781   4.634   5.494
 2347WAT      O 8102   6.020   4.617   5.268
 2347WAT     H1 8103   6.072   4.546   5.232
 2347WAT     H2 8104   6.084   4.681   5.298
 2348WAT      O 8105   5.658   4.322   5.238
 2348WAT     H1 8106   5.638   4.236   5.274
 2348WAT     H2 8107   5.641   4.314   5.144
 2349WAT      O 8108   6.406   3.803   5.491
 2349WAT     H1 8109   6.434   3.719   5.526
 2349WAT     H2 8110   6.329   3.827   5.542
 2350WAT      O 8111   5.538   4.032   5.237
 2350WAT     H1 8112   5.568   4.033   5.146
 2350WAT     H2 8113   5.612   3.997   5.286
 2351WAT      O 8114   5.860   3.927   5.335
 2351WAT     H1 8115   5.825   3.859   5.277
 2351WAT     H2 8116   5.880   3.881   5.417
 2352WAT      O 8117   6.076   5.426   5.497
 2352WAT     H1 8118   6.166   5.459   5.499
 2352WAT     H2 8119   6.079   5.353   5.434
 2353WAT      O 8120   5.440   4.963   5.320
 2353WAT     H1 8121   5.484   5.017   5.386
 2353WAT     H2 8122   5.489   4.880   5.321
 2354WAT      O 8123   5.162   5.242   6.065
 2354WAT     H1 8124   5.195   5.155   6.042
 2354WAT     H2 8125   5.205   5.262   6.148
 2355WAT      O 8126   5.621   5.075   5.831
 2355WAT     H1 8127   5.591   5.062   5.921
 2355WAT     H2 8128   5.611   4.989   5.790
 2356WAT      O 8129   5.211   5.328   6.339
 2356WAT     H1 8130   5.167   5.346   6.422
 2356WAT     H2 8131   5.267   5.404   6.325
 2357WAT      O 8132   6.898   5.053   5.302
 2357WAT     H1 8133   6.815   5.059   5.349
 2357WAT     H2 8134   6.916   5.142   5.271
 2358WAT      O 8135   6.844   4.727   5.552
 2358WAT     H1 8136   6.920   4.784   5.563
 2358WAT     H2 8137   6.845   4.670   5.629
 2359WAT      O 8138   5.194   4.580   5.975
 2359WAT     H1 8139   5.128   4.553   5.911
 2359WAT     H2 8140   5.278   4.569   5.930
 2360WAT      O 8141   6.944   4.813   6.036
 2360WAT     H1 8142   6.981   4.734   5.996
 2360WAT     H2 8143   7.008   4.882   6.019
 2361WAT      O 8144   6.849   4.757   5.268
 2361WAT     H1 8145   6.876   4.847   5.255
 2361WAT     H2 8146   6.830   4.750   5.361
 2362WAT      O 8147   6.489   4.059   5.397
 2362WAT     H1 8148   6.531   4.040   5.313
 2362WAT     H2 8149   6.458   3.974   5.428
 2363WAT      O 8150   6.839   4.550   5.767
 2363WAT     H1 8151   6.801   4.474   5.724
 2363WAT     H2 8152   6.766   4.588   5.816
 2364WAT      O 8153   5.298   4.618   6.429
 2364WAT     H1 8154   5.334   4.609   6.517
 2364WAT     H2 8155   5.241   4.542   6.419
 2365WAT      O 8156   5.115   4.301   5.569
 2365WAT     H1 8157   5.025   4.327   5.552
 2365WAT     H2 8158   5.164   4.328   5.491
 2366WAT      O 8159   6.766   4.373   6.097
 2366WAT     H1 8160   6.818   4.323   6.034
 2366WAT     H2 8161   6.825   4.386   6.171
 2367WAT      O 8162   6.784   4.381   6.449
 2367WAT     H1 8163   6.689   4.378   6.461
 2367WAT     H2 8164   6.802   4.472   6.426
 2368WAT      O 8165   5.369   4.206   5.360
 2368WAT     H1 8166   5.440   4.164   5.312
 2368WAT     H2 8167   5.298   4.213   5.297
 2369WAT      O 8168   5.334   3.812   5.264
 2369WAT     H1 8169   5.406   3.866   5.296
 2369WAT     H2 8170   5.361   3.784   5.177
 2370WAT      O 8171   6.715   4.299   5.691
 2370WAT     H1 8172   6.765   4.275   5.769
 2370WAT     H2 8173   6.695   4.215   5.649
 2371WAT      O 8174   5.303   3.737   6.254
 2371WAT     H1 8175   5.368   3.682   6.210
 2371WAT     H2 8176   5.345   3.762   6.337
 2372WAT      O 8177   6.858   4.162   5.944
 2372WAT     H1 8178   6.847   4.147   6.038
 2372WAT     H2 8179   6.934   4.109   5.920
 2373WAT      O 8180   6.947   3.945   5.268
 2373WAT     H1 8181   7.039   3.932   5.248
 2373WAT     H2 8182   6.945   3.953   5.364
 2374WAT      O 8183   6.954   4.022   5.531
 2374WAT     H1 8184   6.875   4.016   5.584
 2374WAT     H2 8185   6.975   4.116   5.530
 2375WAT      O 8186   6.648   5.426   5.930
 2375WAT     H1 8187   6.708   5.394   5.863
 2375WAT     H2 8188   6.674   5.379   6.009
 2376WAT      O 8189   5.809   5.225   6.505
 2376WAT     H1 8190   5.785   5.252   6.417
 2376WAT     H2 8191   5.903   5.242   6.511
 2377WAT      O 8192   6.704   5.491   6.313
 2377WAT     H1 8193   6.658   5.566   6.276
 2377WAT     H2 8194   6.641   5.419   6.307
 2378WAT      O 8195   5.747   5.322   6.231
 2378WAT     H1 8196   5.798   5.261   6.178
 2378WAT     H2 8197   5.812   5.372   6.280
 2379WAT      O 8198   6.020   5.411   6.313
 2379WAT     H1 8199   6.049   5.386   6.226
 2379WAT     H2 8200   6.072   5.356   6.373
 2380WAT      O 8201   6.142   3.785   6.371
 2380WAT     H1 8202   6.064   3.833   6.399
 2380WAT     H2 8203   6.113   3.695   6.361
 2381WAT      O 8204   6.597   3.855   6.176
 2381WAT     H1 8205   6.642   3.850   6.091
 2381WAT     H2 8206   6.571   3.947   6.183
 2382WAT      O 8207   6.784   3.818   5.977
 2382WAT     H1 8208   6.778   3.724   5.962
 2382WAT     H2 8209   6.862   3.829   6.032
 2383WAT      O 8210   5.214   5.432   5.873
 2383WAT     H1 8211   5.198   5.369   5.943
 2383WAT     H2 8212   5.128   5.453   5.838
 2384WAT      O 8213   5.277   3.816   5.624
 2384WAT     H1 8214   5.352   3.827   5.566
 2384WAT     H2 8215   5.230   3.899   5.619
 2385WAT      O 8216   5.931   4.027   5.923
 2385WAT     H1 8217   5.850   3.990   5.889
 2385WAT     H2 8218   5.981   3.951   5.953
 2386WAT      O 8219   6.381   3.693   6.046
 2386WAT     H1 8220   6.441   3.751   6.094
 2386WAT     H2 8221   6.307   3.750   6.024
 2387WAT      O 8222   6.695   3.734   5.574
 2387WAT     H1 8223   6.715   3.823   5.601
 2387WAT     H2 8224   6.617   3.710   5.623
 2388WAT      O 8225   5.375   5.302   5.618
 2388WAT     H1 8226   5.322   5.340   5.547
 2388WAT     H2 8227   5.367   5.364   5.690
 2389WAT      O 8228   5.514   3.868   5.478
 2389WAT     H1 8229   5.567   3.789   5.465
 2389WAT     H2 8230   5.577   3.936   5.501
 2390WAT      O 8231   5.733   3.842   5.783
 2390WAT     H1 8232   5.670   3.772   5.800
 2390WAT     H2 8233   5.679   3.918   5.761
 2391WAT      O 8234   6.851   5.458   5.750
 2391WAT     H1 8235   6.868   5.389   5.686
 2391WAT     H2 8236   6.781   5.510   5.711
 2392WAT      O 8237   5.635   5.497   5.505
 2392WAT     H1 8238   5.708   5.468   5.450
 2392WAT     H2 8239   5.661   5.473   5.594
 2393WAT      O 8240   5.551   5.108   5.506
 2393WAT     H1 8241   5.488   5.155   5.561
 2393WAT     H2 8242   5.563   5.024   5.549
 2394WAT      O 8243   6.297   4.513   4.121
 2394WAT     H1 8244   6.289   4.422   4.094
 2394WAT     H2 8245   6.255   4.563   4.050
 2395WAT      O 8246   6.110   4.691   4.309
 2395WAT     H1 8247   6.032   4.643   4.338
 2395WAT     H2 8248   6.175   4.623   4.291
 2396WAT      O 8249   5.511   4.722   4.397
 2396WAT     H1 8250   5.428   4.697   4.437
 2396WAT     H2 8251   5.572   4.729   4.470
 2397WAT      O 8252   6.512   5.132   4.187
 2397WAT     H1 8253   6.466   5.055   4.220
 2397WAT     H2 8254   6.593   5.134   4.237
 2398WAT      O 8255   5.509   5.126   4.416
 2398WAT     H1 8256   5.540   5.037   4.398
 2398WAT     H2 8257   5.584   5.181   4.393
 2399WAT      O 8258   5.149   4.478   4.363
 2399WAT     H1 8259   5.206   4.402   4.363
 2399WAT     H2 8260   5.149   4.508   4.272
 2400WAT      O 8261   6.134   5.360   4.149
 2400WAT     H1 8262   6.073   5.406   4.092
 2400WAT     H2 8263   6.220   5.376   4.109
 2401WAT      O 8264   6.054   4.959   4.310
 2401WAT     H1 8265   6.047   4.865   4.293
 2401WAT     H2 8266   6.130   4.968   4.367
 2402WAT      O 8267   5.273   4.019   4.542
 2402WAT     H1 8268   5.255   3.929   4.570
 2402WAT     H2 8269   5.233   4.074   4.610
 2403WAT      O 8270   6.157   4.239   4.332
 2403WAT     H1 8271   6.195   4.152   4.321
 2403WAT     H2 8272   6.147   4.273   4.243
 2404WAT      O 8273   6.535   3.989   4.026
 2404WAT     H1 8274   6.617   3.940   4.030
 2404WAT     H2 8275   6.538   4.048   4.101
 2405WAT      O 8276   5.754   4.373   4.312
 2405WAT     H1 8277   5.805   4.423   4.376
 2405WAT     H2 8278   5.807   4.296   4.294
 2406WAT      O 8279   6.964   4.190   4.682
 2406WAT     H1 8280   6.894   4.229   4.630
 2406WAT     H2 8281   6.991   4.260   4.742
 2407WAT      O 8282   5.582   3.837   4.738
 2407WAT     H1 8283   5.583   3.889   4.658
 2407WAT     H2 8284   5.499   3.790   4.736
 2408WAT      O 8285   6.221   4.849   3.888
 2408WAT     H1 8286   6.159   4.895   3.832
 2408WAT     H2 8287   6.272   4.918   3.930
 2409WAT      O 8288   5.707   4.801   4.556
 2409WAT     H1 8289   5.674   4.864   4.620
 2409WAT     H2 8290   5.725   4.854   4.478
 2410WAT      O 8291   6.559   4.183   4.303
 2410WAT     H1 8292   6.488   4.212   4.361
 2410WAT     H2 8293   6.595   4.264   4.267
 2411WAT      O 8294   5.551   4.009   4.539
 2411WAT     H1 8295   5.585   4.093   4.510
 2411WAT     H2 8296   5.457   4.023   4.551
 2412WAT      O 8297   5.629   4.998   4.738
 2412WAT     H1 8298   5.690   5.066   4.709
 2412WAT     H2 8299   5.543   5.039   4.728
 2413WAT      O 8300   5.158   4.917   3.626
 2413WAT     H1 8301   5.120   4.966   3.552
 2413WAT     H2 8302   5.184   4.984   3.689
 2414WAT      O 8303   6.720   5.145   4.529
 2414WAT     H1 8304   6.652   5.212   4.528
 2414WAT     H2 8305   6.774   5.164   4.452
 2415WAT      O 8306   6.866   4.127   4.342
 2415WAT     H1 8307   6.771   4.131   4.355
 2415WAT     H2 8308   6.898   4.209   4.380
 2416WAT      O 8309   5.919   3.757   4.171
 2416WAT     H1 8310   5.950   3.702   4.100
 2416WAT     H2 8311   5.826   3.771   4.153
 2417WAT      O 8312   6.474   5.329   4.401
 2417WAT     H1 8313   6.475   5.289   4.314
 2417WAT     H2 8314   6.419   5.406   4.390
 2418WAT      O 8315   6.603   5.001   3.909
 2418WAT     H1 8316   6.592   4.907   3.922
 2418WAT     H2 8317   6.603   5.037   3.998
 2419WAT      O 8318   6.414   4.819   4.533
 2419WAT     H1 8319   6.456   4.798   4.450
 2419WAT     H2 8320   6.486   4.845   4.590
 2420WAT      O 8321   6.158   4.564   3.845
 2420WAT     H1 8322   6.065   4.557   3.868
 2420WAT     H2 8323   6.173   4.658   3.834
 2421WAT      O 8324   6.156   4.191   3.545
 2421WAT     H1 8325   6.062   4.207   3.553
 2421WAT     H2 8326   6.188   4.263   3.490
 2422WAT      O 8327   6.808   4.659   4.542
 2422WAT     H1 8328   6.726   4.666   4.495
 2422WAT     H2 8329   6.868   4.718   4.496
 2423WAT      O 8330   6.561   4.720   3.895
 2423WAT     H1 8331   6.499   4.686   3.831
 2423WAT     H2 8332   6.559   4.656   3.966
 2424WAT      O 8333   6.505   4.338   4.637
 2424WAT     H1 8334   6.464   4.420   4.662
 2424WAT     H2 8335   6.432   4.279   4.618
 2425WAT      O 8336   5.718   4.616   4.123
 2425WAT     H1 8337   5.678   4.545   4.074
 2425WAT     H2 8338   5.727   4.582   4.212
 2426WAT      O 8339   5.765   4.985   4.340
 2426WAT     H1 8340   5.735   4.925   4.272
 2426WAT     H2 8341   5.860   4.989   4.329
 2427WAT      O 8342   5.589   4.294   4.501
 2427WAT     H1 8343   5.645   4.305   4.424
 2427WAT     H2 8344   5.641   4.331   4.573
 2428WAT      O 8345   6.574   5.342   4.706
 2428WAT     H1 8346   6.526   5.423   4.687
 2428WAT     H2 8347   6.505   5.277   4.721
 2429WAT      O 8348   5.674   4.959   5.005
 2429WAT     H1 8349   5.584   4.981   5.029
 2429WAT     H2 8350   5.677   4.971   4.910
 2430WAT      O 8351   6.378   4.644   3.596
 2430WAT     H1 8352   6.422   4.560   3.581
 2430WAT     H2 8353   6.450   4.707   3.605
 2431WAT      O 8354   5.557   4.646   4.862
 2431WAT     H1 8355   5.543   4.733   4.899
 2431WAT     H2 8356   5.469   4.612   4.848
 2432WAT      O 8357   6.189   5.138   3.993
 2432WAT     H1 8358   6.233   5.212   3.951
 2432WAT     H2 8359   6.183   5.162   4.085
 2433WAT      O 8360   5.737   5.240   5.083
 2433WAT     H1 8361   5.734   5.281   4.996
 2433WAT     H2 8362   5.720   5.147   5.067
 2434WAT      O 8363   6.736   3.769   3.428
 2434WAT     H1 8364   6.705   3.779   3.518
 2434WAT     H2 8365   6.813   3.827   3.422
 2435WAT      O 8366   6.932   5.319   5.213
 2435WAT     H1 8367   6.979   5.366   5.281
 2435WAT     H2 8368   6.994   5.312   5.140
 2436WAT      O 8369   5.152   4.823   4.454
 2436WAT     H1 8370   5.160   4.837   4.360
 2436WAT     H2 8371   5.214   4.752   4.473
 2437WAT      O 8372   5.277   4.993   4.095
 2437WAT     H1 8373   5.236   5.007   4.010
 2437WAT     H2 8374   5.366   4.965   4.075
 2438WAT      O 8375   6.872   5.038   4.929
 2438WAT     H1 8376   6.885   5.014   4.837
 2438WAT     H2 8377   6.876   4.955   4.976
 2439WAT      O 8378   6.258   5.408   4.786
 2439WAT     H1 8379   6.310   5.399   4.866
 2439WAT     H2 8380   6.174   5.443   4.815
 2440WAT      O 8381   6.456   5.437   3.729
 2440WAT     H1 8382   6.440   5.408   3.818
 2440WAT     H2 8383   6.439   5.359   3.675
 2441WAT      O 8384   5.704   5.415   3.906
 2441WAT     H1 8385   5.686   5.323   3.885
 2441WAT     H2 8386   5.618   5.450   3.930
 2442WAT      O 8387   6.426   5.187   3.585
 2442WAT     H1 8388   6.357   5.187   3.519
 2442WAT     H2 8389   6.500   5.145   3.541
 2443WAT      O 8390   6.383   5.350   3.992
 2443WAT     H1 8391   6.428   5.272   4.023
 2443WAT     H2 8392   6.417   5.421   4.046
 2444WAT      O 8393   6.857   4.243   5.025
 2444WAT     H1 8394   6.796   4.294   4.972
 2444WAT     H2 8395   6.825   4.153   5.020
 2445WAT      O 8396   5.158   4.927   4.708
 2445WAT     H1 8397   5.174   4.880   4.626
 2445WAT     H2 8398   5.204   4.876   4.774
 2446WAT      O 8399   6.064   4.127   4.772
 2446WAT     H1 8400   6.017   4.148   4.853
 2446WAT     H2 8401   6.023   4.046   4.742
 2447WAT      O 8402   6.564   4.249   4.885
 2447WAT     H1 8403   6.479   4.219   4.917
 2447WAT     H2 8404   6.548   4.273   4.794
 2448WAT      O 8405   6.273   4.399   5.095
 2448WAT     H1 8406   6.306   4.316   5.061
 2448WAT     H2 8407   6.352   4.451   5.110
 2449WAT      O 8408   5.839   3.895   4.397
 2449WAT     H1 8409   5.868   3.985   4.389
 2449WAT     H2 8410   5.893   3.846   4.336
 2450WAT      O 8411   6.337   4.353   3.844
 2450WAT     H1 8412   6.277   4.426   3.826
 2450WAT     H2 8413   6.392   4.347   3.766
 2451WAT      O 8414   5.858   4.442   5.051
 2451WAT     H1 8415   5.848   4.348   5.036
 2451WAT     H2 8416   5.942   4.465   5.011
 2452WAT      O 8417   6.198   4.217   4.047
 2452WAT     H1 8418   6.237   4.249   3.966
 2452WAT     H2 8419   6.234   4.129   4.059
 2453WAT      O 8420   5.371   4.084   4.866
 2453WAT     H1 8421   5.332   4.168   4.887
 2453WAT     H2 8422   5.302   4.020   4.885
 2454WAT      O 8423   6.029   4.092   5.173
 2454WAT     H1 8424   5.960   4.073   5.237
 2454WAT     H2 8425   6.103   4.120   5.226
 2455WAT      O 8426   6.256   4.476   4.457
 2455WAT     H1 8427   6.183   4.527   4.492
 2455WAT     H2 8428   6.216   4.394   4.427
 2456WAT      O 8429   5.900   4.143   4.297
 2456WAT     H1 8430   5.900   4.099   4.212
 2456WAT     H2 8431   5.989   4.176   4.308
 2457WAT      O 8432   6.302   4.021   4.398
 2457WAT     H1 8433   6.304   4.066   4.482
 2457WAT     H2 8434   6.278   3.931   4.419
 2458WAT      O 8435   6.645   3.763   4.982
 2458WAT     H1 8436   6.678   3.689   5.034
 2458WAT     H2 8437   6.649   3.731   4.892
 2459WAT      O 8438   5.315   4.865   4.924
 2459WAT     H1 8439   5.277   4.801   4.984
 2459WAT     H2 8440   5.346   4.935   4.981
 2460WAT      O 8441   5.930   4.549   4.472
 2460WAT     H1 8442   5.967   4.502   4.547
 2460WAT     H2 8443   5.911   4.637   4.506
 2461WAT      O 8444   5.709   4.454   4.704
 2461WAT     H1 8445   5.679   4.542   4.726
 2461WAT     H2 8446   5.805   4.460   4.707
 2462WAT      O 8447   5.562   4.874   3.763
 2462WAT     H1 8448   5.484   4.820   3.747
 2462WAT     H2 8449   5.635   4.822   3.730
 2463WAT      O 8450   6.638   4.774   4.343
 2463WAT     H1 8451   6.710   4.823   4.304
 2463WAT     H2 8452   6.618   4.706   4.278
 2464WAT      O 8453   6.184   3.913   3.757
 2464WAT     H1 8454   6.102   3.863   3.749
 2464WAT     H2 8455   6.164   3.997   3.715
 2465WAT      O 8456   6.176   4.781   4.931
 2465WAT     H1 8457   6.169   4.689   4.906
 2465WAT     H2 8458   6.113   4.791   5.003
 2466WAT      O 8459   6.455   4.350   3.587
 2466WAT     H1 8460   6.544   4.382   3.569
 2466WAT     H2 8461   6.452   4.263   3.547
 2467WAT      O 8462   5.566   4.841   4.127
 2467WAT     H1 8463   5.618   4.761   4.122
 2467WAT     H2 8464   5.521   4.835   4.211
 2468WAT      O 8465   6.055   4.968   3.655
 2468WAT     H1 8466   6.089   5.042   3.605
 2468WAT     H2 8467   5.972   4.999   3.691
 2469WAT      O 8468   5.315   4.538   4.819
 2469WAT     H1 8469   5.279   4.604   4.877
 2469WAT     H2 8470   5.285   4.454   4.856
 2470WAT      O 8471   5.635   4.583   5.107
 2470WAT     H1 8472   5.605   4.598   5.017
 2470WAT     H2 8473   5.712   4.528   5.098
 2471WAT      O 8474   6.169   5.063   4.906
 2471WAT     H1 8475   6.171   4.970   4.885
 2471WAT     H2 8476   6.098   5.072   4.970
 2472WAT      O 8477   6.682   4.482   3.533
 2472WAT     H1 8478   6.674   4.525   3.448
 2472WAT     H2 8479   6.754   4.528   3.577
 2473WAT      O 8480   6.790   4.727   4.841
 2473WAT     H1 8481   6.718   4.787   4.821
 2473WAT     H2 8482   6.843   4.726   4.761
 2474WAT      O 8483   6.785   5.167   3.806
 2474WAT     H1 8484   6.721   5.102   3.834
 2474WAT     H2 8485   6.747   5.208   3.729
 2475WAT      O 8486   6.343   4.900   4.191
 2475WAT     H1 8487   6.378   4.840   4.125
 2475WAT     H2 8488   6.255   4.867   4.208
 2476WAT      O 8489   5.952   4.976   3.932
 2476WAT     H1 8490   6.021   5.030   3.970
 2476WAT     H2 8491   5.873   5.030   3.935
 2477WAT      O 8492   5.882   4.676   3.893
 2477WAT     H1 8493   5.928   4.757   3.916
 2477WAT     H2 8494   5.847   4.644   3.976
 2478WAT      O 8495   6.112   5.227   4.616
 2478WAT     H1 8496   6.177   5.248   4.684
 2478WAT     H2 8497   6.149   5.151   4.571
 2479WAT      O 8498   6.240   5.028   4.488
 2479WAT     H1 8499   6.304   4.958   4.499
 2479WAT     H2 8500   6.292   5.106   4.470
 2480WAT      O 8501   6.624   5.056   3.460
 2480WAT     H1 8502   6.602   4.984   3.519
 2480WAT     H2 8503   6.585   5.031   3.376
 2481WAT      O 8504   6.417   5.108   4.808
 2481WAT     H1 8505   6.451   5.166   4.876
 2481WAT     H2 8506   6.325   5.095   4.831
 2482WAT      O 8507   5.202   5.459   3.537
 2482WAT     H1 8508   5.238   5.519   3.472
 2482WAT     H2 8509   5.188   5.513   3.615
 2483WAT      O 8510   5.172   3.887   4.886
 2483WAT     H1 8511   5.101   3.907   4.947
 2483WAT     H2 8512   5.214   3.809   4.923
 2484WAT      O 8513   6.582   4.848   3.626
 2484WAT     H1 8514   6.554   4.894   3.705
 2484WAT     H2 8515   6.662   4.802   3.653
 2485WAT      O 8516   5.201   5.285   4.985
 2485WAT     H1 8517   5.212   5.191   4.971
 2485WAT     H2 8518   5.136   5.312   4.920
 2486WAT      O 8519   6.000   5.113   5.125
 2486WAT     H1 8520   5.968   5.041   5.179
 2486WAT     H2 8521   5.933   5.180   5.132
 2487WAT      O 8522   5.804   5.197   3.619
 2487WAT     H1 8523   5.803   5.270   3.558
 2487WAT     H2 8524   5.712   5.172   3.628
 2488WAT      O 8525   5.364   4.719   3.694
 2488WAT     H1 8526   5.304   4.793   3.695
 2488WAT     H2 8527   5.412   4.728   3.611
 2489WAT      O 8528   6.322   4.136   4.661
 2489WAT     H1 8529   6.358   4.054   4.694
 2489WAT     H2 8530   6.236   4.142   4.703
 2490WAT      O 8531   6.658   4.031   3.742
 2490WAT     H1 8532   6.595   4.042   3.671
 2490WAT     H2 8533   6.609   4.053   3.821
 2491WAT      O 8534   6.103   5.203   3.485
 2491WAT     H1 8535   6.113   5.183   3.392
 2491WAT     H2 8536   6.013   5.178   3.506
 2492WAT      O 8537   5.855   4.259   3.884
 2492WAT     H1 8538   5.784   4.306   3.928
 2492WAT     H2 8539   5.883   4.193   3.947
 2493WAT      O 8540   6.018   4.401   4.684
 2493WAT     H1 8541   6.067   4.449   4.750
 2493WAT     H2 8542   6.032   4.309   4.704
 2494WAT      O 8543   6.258   3.932   4.028
 2494WAT     H1 8544   6.246   3.934   3.933
 2494WAT     H2 8545   6.353   3.936   4.040
 2495WAT      O 8546   5.967   5.455   3.955
 2495WAT     H1 8547   5.992   5.451   3.863
 2495WAT     H2 8548   5.872   5.443   3.954
 2496WAT      O 8549   6.738   4.023   4.768
 2496WAT     H1 8550   6.688   4.097   4.802
 2496WAT     H2 8551   6.820   4.062   4.736
 2497WAT      O 8552   6.567   4.547   4.113
 2497WAT     H1 8553   6.473   4.549   4.130
 2497WAT     H2 8554   6.599   4.469   4.157
 2498WAT      O 8555   5.565   4.715   3.469
 2498WAT     H1 8556   5.642   4.704   3.525
 2498WAT     H2 8557   5.573   4.646   3.403
 2499WAT      O 8558   6.768   5.264   4.280
 2499WAT     H1 8559   6.780   5.347   4.327
 2499WAT     H2 8560   6.854   5.243   4.245
 2500WAT      O 8561   5.515   5.474   4.247
 2500WAT     H1 8562   5.589   5.419   4.274
 2500WAT     H2 8563   5.553   5.560   4.233
 2501WAT      O 8564   5.203   5.080   3.835
 2501WAT     H1 8565   5.111   5.105   3.834
 2501WAT     H2 8566   5.250   5.163   3.823
 2502WAT      O 8567   5.415   5.392   5.166
 2502WAT     H1 8568   5.496   5.424   5.207
 2502WAT     H2 8569   5.364   5.356   5.238
 2503WAT      O 8570   5.826   5.391   3.430
 2503WAT     H1 8571   5.905   5.420   3.384
 2503WAT     H2 8572   5.774   5.348   3.362
 2504WAT      O 8573   6.299   5.003   5.161
 2504WAT     H1 8574   6.239   5.005   5.087
 2504WAT     H2 8575   6.269   4.930   5.215
 2505WAT      O 8576   6.442   5.376   5.022
 2505WAT     H1 8577   6.537   5.367   5.017
 2505WAT     H2 8578   6.427   5.442   5.089
 2506WAT      O 8579   6.731   5.314   3.572
 2506WAT     H1 8580   6.703   5.272   3.490
 2506WAT     H2 8581   6.711   5.406   3.560
 2507WAT      O 8582   5.187   4.641   5.060
 2507WAT     H1 8583   5.238   4.583   5.118
 2507WAT     H2 8584   5.114   4.669   5.114
 2508WAT      O 8585   5.878   4.913   3.416
 2508WAT     H1 8586   5.867   4.851   3.489
 2508WAT     H2 8587   5.861   4.861   3.338
 2509WAT      O 8588   5.893   4.781   5.014
 2509WAT     H1 8589   5.816   4.838   5.005
 2509WAT     H2 8590   5.911   4.752   4.925
 2510WAT      O 8591   6.202   4.819   3.476
 2510WAT     H1 8592   6.147   4.864   3.541
 2510WAT     H2 8593   6.264   4.769   3.529
 2511WAT      O 8594   6.607   4.955   5.070
 2511WAT     H1 8595   6.681   4.988   5.019
 2511WAT     H2 8596   6.531   4.971   5.014
 2512WAT      O 8597   5.391   4.455   5.150
 2512WAT     H1 8598   5.395   4.425   5.241
 2512WAT     H2 8599   5.476   4.495   5.134
 2513WAT      O 8600   5.768   4.715   3.666
 2513WAT     H1 8601   5.811   4.698   3.750
 2513WAT     H2 8602   5.781   4.634   3.617
 2514WAT      O 8603   5.585   4.313   4.947
 2514WAT     H1 8604   5.532   4.264   4.884
 2514WAT     H2 8605   5.652   4.356   4.893
 2515WAT      O 8606   6.475   4.760   4.923
 2515WAT     H1 8607   6.516   4.775   5.008
 2515WAT     H2 8608   6.381   4.772   4.939
 2516WAT      O 8609   6.522   4.494   5.124
 2516WAT     H1 8610   6.580   4.418   5.115
 2516WAT     H2 8611   6.539   4.547   5.046
 2517WAT      O 8612   5.633   4.010   4.955
 2517WAT     H1 8613   5.624   3.948   4.882
 2517WAT     H2 8614   5.575   4.082   4.932
 2518WAT      O 8615   5.910   3.865   4.658
 2518WAT     H1 8616   5.865   3.868   4.573
 2518WAT     H2 8617   5.847   3.826   4.718
 2519WAT      O 8618   5.951   4.755   4.720
 2519WAT     H1 8619   5.993   4.839   4.703
 2519WAT     H2 8620   5.859   4.769   4.697
 2520WAT      O 8621   6.184   4.528   4.858
 2520WAT     H1 8622   6.196   4.468   4.932
 2520WAT     H2 8623   6.270   4.532   4.816
 2521WAT      O 8624   6.418   4.583   4.716
 2521WAT     H1 8625   6.366   4.636   4.656
 2521WAT     H2 8626   6.453   4.647   4.779
 2522WAT      O 8627   5.736   5.385   4.832
 2522WAT     H1 8628   5.682   5.458   4.800
 2522WAT     H2 8629   5.761   5.338   4.753
 2523WAT      O 8630   5.861   4.182   4.984
 2523WAT     H1 8631   5.920   4.151   5.053
 2523WAT     H2 8632   5.779   4.135   5.000
 2524WAT      O 8633   6.343   4.144   5.008
 2524WAT     H1 8634   6.274   4.078   5.001
 2524WAT     H2 8635   6.415   4.099   5.052
 2525WAT      O 8636   6.406   3.803   3.613
 2525WAT     H1 8637   6.434   3.719   3.649
 2525WAT     H2 8638   6.329   3.827   3.665
 2526WAT      O 8639   6.021   5.509   4.858
 2526WAT     H1 8640   6.014   5.599   4.888
 2526WAT     H2 8641   5.931   5.477   4.855
 2527WAT      O 8642   6.076   5.426   3.620
 2527WAT     H1 8643   6.166   5.459   3.622
 2527WAT     H2 8644   6.079   5.353   3.557
 2528WAT      O 8645   5.440   4.963   3.443
 2528WAT     H1 8646   5.484   5.017   3.508
 2528WAT     H2 8647   5.489   4.880   3.444
 2529WAT      O 8648   5.162   5.242   4.188
 2529WAT     H1 8649   5.195   5.155   4.165
 2529WAT     H2 8650   5.205   5.262   4.271
 2530WAT      O 8651   5.621   5.075   3.954
 2530WAT     H1 8652   5.591   5.062   4.044
 2530WAT     H2 8653   5.611   4.989   3.913
 2531WAT      O 8654   5.211   5.328   4.462
 2531WAT     H1 8655   5.167   5.346   4.545
 2531WAT     H2 8656   5.267   5.404   4.447
 2532WAT      O 8657   6.774   5.279   4.890
 2532WAT     H1 8658   6.714   5.284   4.816
 2532WAT     H2 8659   6.787   5.185   4.903
 2533WAT      O 8660   6.898   5.053   3.424
 2533WAT     H1 8661   6.815   5.059   3.471
 2533WAT     H2 8662   6.916   5.142   3.394
 2534WAT      O 8663   6.844   4.727   3.674
 2534WAT     H1 8664   6.920   4.784   3.685
 2534WAT     H2 8665   6.845   4.670   3.752
 2535WAT      O 8666   6.944   4.813   4.159
 2535WAT     H1 8667   6.981   4.734   4.118
 2535WAT     H2 8668   7.008   4.882   4.141
 2536WAT      O 8669   6.643   4.951   4.700
 2536WAT     H1 8670   6.561   4.994   4.726
 2536WAT     H2 8671   6.683   5.012   4.639
 2537WAT      O 8672   6.849   4.757   3.390
 2537WAT     H1 8673   6.876   4.847   3.377
 2537WAT     H2 8674   6.830   4.750   3.484
 2538WAT      O 8675   6.489   4.059   3.520
 2538WAT     H1 8676   6.531   4.040   3.436
 2538WAT     H2 8677   6.458   3.974   3.551
 2539WAT      O 8678   6.839   4.550   3.890
 2539WAT     H1 8679   6.801   4.474   3.846
 2539WAT     H2 8680   6.766   4.588   3.938
 2540WAT      O 8681   5.298   4.618   4.552
 2540WAT     H1 8682   5.334   4.609   4.640
 2540WAT     H2 8683   5.241   4.542   4.542
 2541WAT      O 8684   6.778   4.465   4.853
 2541WAT     H1 8685   6.754   4.442   4.763
 2541WAT     H2 8686   6.804   4.557   4.848
 2542WAT      O 8687   5.253   4.309   4.942
 2542WAT     H1 8688   5.163   4.306   4.976
 2542WAT     H2 8689   5.307   4.329   5.019
 2543WAT      O 8690   6.621   3.988   5.131
 2543WAT     H1 8691   6.709   3.988   5.169
 2543WAT     H2 8692   6.623   3.914   5.070
 2544WAT      O 8693   6.766   4.373   4.220
 2544WAT     H1 8694   6.818   4.323   4.156
 2544WAT     H2 8695   6.825   4.386   4.294
 2545WAT      O 8696   6.784   4.381   4.572
 2545WAT     H1 8697   6.689   4.378   4.583
 2545WAT     H2 8698   6.802   4.472   4.548
 2546WAT      O 8699   6.715   4.299   3.814
 2546WAT     H1 8700   6.765   4.275   3.892
 2546WAT     H2 8701   6.695   4.215   3.772
 2547WAT      O 8702   6.858   4.162   4.067
 2547WAT     H1 8703   6.847   4.147   4.161
 2547WAT     H2 8704   6.934   4.109   4.043
 2548WAT      O 8705   6.693   3.756   4.713
 2548WAT     H1 8706   6.756   3.817   4.749
 2548WAT     H2 8707   6.707   3.760   4.618
 2549WAT      O 8708   6.947   3.945   3.391
 2549WAT     H1 8709   7.039   3.932   3.370
 2549WAT     H2 8710   6.945   3.953   3.486
 2550WAT      O 8711   6.954   4.022   3.654
 2550WAT     H1 8712   6.875   4.016   3.706
 2550WAT     H2 8713   6.975   4.116   3.652
 2551WAT      O 8714   6.648   5.426   4.053
 2551WAT     H1 8715   6.708   5.394   3.985
 2551WAT     H2 8716   6.674   5.379   4.132
 2552WAT      O 8717   5.278   3.752   4.651
 2552WAT     H1 8718   5.244   3.798   4.728
 2552WAT     H2 8719   5.245   3.663   4.659
 2553WAT      O 8720   5.439   5.069   5.068
 2553WAT     H1 8721   5.435   5.032   5.156
 2553WAT     H2 8722   5.452   5.163   5.082
 2554WAT      O 8723   5.809   5.225   4.628
 2554WAT     H1 8724   5.785   5.252   4.539
 2554WAT     H2 8725   5.903   5.242   4.633
 2555WAT      O 8726   6.030   3.871   5.003
 2555WAT     H1 8727   6.024   3.931   5.078
 2555WAT     H2 8728   6.124   3.861   4.989
 2556WAT      O 8729   6.293   3.837   4.967
 2556WAT     H1 8730   6.355   3.869   4.901
 2556WAT     H2 8731   6.348   3.789   5.029
 2557WAT      O 8732   6.935   5.427   4.708
 2557WAT     H1 8733   6.886   5.467   4.636
 2557WAT     H2 8734   6.874   5.364   4.747
 2558WAT      O 8735   5.346   3.705   4.979
 2558WAT     H1 8736   5.400   3.687   4.902
 2558WAT     H2 8737   5.352   3.626   5.032
 2559WAT      O 8738   5.423   5.364   4.780
 2559WAT     H1 8739   5.364   5.351   4.854
 2559WAT     H2 8740   5.422   5.280   4.733
 2560WAT      O 8741   6.368   3.693   4.600
 2560WAT     H1 8742   6.280   3.727   4.580
 2560WAT     H2 8743   6.357   3.646   4.683
 2561WAT      O 8744   6.458   3.914   4.738
 2561WAT     H1 8745   6.425   3.833   4.701
 2561WAT     H2 8746   6.553   3.910   4.726
 2562WAT      O 8747   6.704   5.491   4.436
 2562WAT     H1 8748   6.658   5.566   4.398
 2562WAT     H2 8749   6.641   5.419   4.430
 2563WAT      O 8750   5.386   5.101   4.675
 2563WAT     H1 8751   5.313   5.039   4.668
 2563WAT     H2 8752   5.392   5.140   4.588
 2564WAT      O 8753   5.747   5.322   4.353
 2564WAT     H1 8754   5.798   5.261   4.301
 2564WAT     H2 8755   5.812   5.372   4.402
 2565WAT      O 8756   6.020   5.411   4.436
 2565WAT     H1 8757   6.049   5.386   4.348
 2565WAT     H2 8758   6.072   5.356   4.495
 2566WAT      O 8759   6.142   3.785   4.494
 2566WAT     H1 8760   6.064   3.833   4.522
 2566WAT     H2 8761   6.113   3.695   4.483
 2567WAT      O 8762   6.597   3.855   4.299
 2567WAT     H1 8763   6.642   3.850   4.214
 2567WAT     H2 8764   6.571   3.947   4.306
 2568WAT      O 8765   6.784   3.818   4.100
 2568WAT     H1 8766   6.778   3.724   4.085
 2568WAT     H2 8767   6.862   3.829   4.154
 2569WAT      O 8768   5.214   5.432   3.996
 2569WAT     H1 8769   5.198   5.369   4.066
 2569WAT     H2 8770   5.128   5.453   3.961
 2570WAT      O 8771   5.931   4.027   4.045
 2570WAT     H1 8772   5.850   3.990   4.011
 2570WAT     H2 8773   5.981   3.951   4.075
 2571WAT      O 8774   6.381   3.693   4.169
 2571WAT     H1 8775   6.441   3.751   4.216
 2571WAT     H2 8776   6.307   3.750   4.147
 2572WAT      O 8777   6.695   3.734   3.696
 2572WAT     H1 8778   6.715   3.823   3.723
 2572WAT     H2 8779   6.617   3.710   3.746
 2573WAT      O 8780   5.375   5.302   3.740
 2573WAT     H1 8781   5.322   5.340   3.670
 2573WAT     H2 8782   5.367   5.364   3.812
 2574WAT      O 8783   5.733   3.842   3.906
 2574WAT     H1 8784   5.670   3.772   3.922
 2574WAT     H2 8785   5.679   3.918   3.884
 2575WAT      O 8786   6.027   5.503   5.173
 2575WAT     H1 8787   6.120   5.480   5.177
 2575WAT     H2 8788   6.026   5.586   5.125
 2576WAT      O 8789   6.851   5.458   3.872
 2576WAT     H1 8790   6.868   5.389   3.808
 2576WAT     H2 8791   6.781   5.510   3.833
 2577WAT      O 8792   5.746   3.770   5.149
 2577WAT     H1 8793   5.718   3.820   5.073
 2577WAT     H2 8794   5.784   3.690   5.113
 2578WAT      O 8795   5.635   5.497   3.628
 2578WAT     H1 8796   5.708   5.468   3.573
 2578WAT     H2 8797   5.661   5.473   3.717
 2579WAT      O 8798   5.551   5.108   3.628
 2579WAT     H1 8799   5.488   5.155   3.683
 2579WAT     H2 8800   5.563   5.024   3.672
 2580WAT      O 8801   6.406   3.711   5.207
 2580WAT     H1 8802   6.395   3.743   5.296
 2580WAT     H2 8803   6.488   3.751   5.177
 2581WAT      O 8804   6.684   5.426   5.155
 2581WAT     H1 8805   6.763   5.377   5.134
 2581WAT     H2 8806   6.713   5.494   5.216
 2582WAT      O 8807   6.297   4.513   2.243
 2582WAT     H1 8808   6.289   4.422   2.216
 2582WAT     H2 8809   6.255   4.563   2.173
 2583WAT      O 8810   6.157   4.239   2.455
 2583WAT     H1 8811   6.195   4.152   2.444
 2583WAT     H2 8812   6.147   4.273   2.366
 2584WAT      O 8813   5.570   4.077   2.001
 2584WAT     H1 8814   5.581   4.167   2.032
 2584WAT     H2 8815   5.479   4.072   1.972
 2585WAT      O 8816   6.535   3.989   2.148
 2585WAT     H1 8817   6.617   3.940   2.152
 2585WAT     H2 8818   6.538   4.048   2.223
 2586WAT      O 8819   6.964   4.190   2.805
 2586WAT     H1 8820   6.894   4.229   2.753
 2586WAT     H2 8821   6.991   4.260   2.865
 2587WAT      O 8822   6.559   4.183   2.425
 2587WAT     H1 8823   6.488   4.212   2.483
 2587WAT     H2 8824   6.595   4.264   2.389
 2588WAT      O 8825   5.158   4.917   1.748
 2588WAT     H1 8826   5.120   4.966   1.675
 2588WAT     H2 8827   5.184   4.984   1.811
 2589WAT      O 8828   6.720   5.145   2.652
 2589WAT     H1 8829   6.652   5.212   2.651
 2589WAT     H2 8830   6.774   5.164   2.575
 2590WAT      O 8831   6.866   4.127   2.464
 2590WAT     H1 8832   6.771   4.131   2.478
 2590WAT     H2 8833   6.898   4.209   2.503
 2591WAT      O 8834   5.919   3.757   2.294
 2591WAT     H1 8835   5.950   3.702   2.222
 2591WAT     H2 8836   5.826   3.771   2.276
 2592WAT      O 8837   6.603   5.001   2.032
 2592WAT     H1 8838   6.592   4.907   2.044
 2592WAT     H2 8839   6.603   5.037   2.121
 2593WAT      O 8840   6.414   4.819   2.656
 2593WAT     H1 8841   6.456   4.798   2.572
 2593WAT     H2 8842   6.486   4.845   2.713
 2594WAT      O 8843   6.158   4.564   1.968
 2594WAT     H1 8844   6.065   4.557   1.990
 2594WAT     H2 8845   6.173   4.658   1.956
 2595WAT      O 8846   6.156   4.191   1.667
 2595WAT     H1 8847   6.062   4.207   1.676
 2595WAT     H2 8848   6.188   4.263   1.613
 2596WAT      O 8849   6.808   4.659   2.665
 2596WAT     H1 8850   6.726   4.666   2.618
 2596WAT     H2 8851   6.868   4.718   2.618
 2597WAT      O 8852   6.561   4.720   2.018
 2597WAT     H1 8853   6.499   4.686   1.953
 2597WAT     H2 8854   6.559   4.656   2.089
 2598WAT      O 8855   6.505   4.338   2.760
 2598WAT     H1 8856   6.464   4.420   2.785
 2598WAT     H2 8857   6.432   4.279   2.740
 2599WAT      O 8858   6.574   5.342   2.828
 2599WAT     H1 8859   6.526   5.423   2.809
 2599WAT     H2 8860   6.505   5.277   2.844
 2600WAT      O 8861   5.674   4.959   3.127
 2600WAT     H1 8862   5.584   4.981   3.152
 2600WAT     H2 8863   5.677   4.971   3.032
 2601WAT      O 8864   6.378   4.644   1.719
 2601WAT     H1 8865   6.422   4.560   1.704
 2601WAT     H2 8866   6.450   4.707   1.727
 2602WAT      O 8867   5.737   5.240   3.206
 2602WAT     H1 8868   5.734   5.281   3.119
 2602WAT     H2 8869   5.720   5.147   3.189
 2603WAT      O 8870   6.736   3.769   1.550
 2603WAT     H1 8871   6.705   3.779   1.640
 2603WAT     H2 8872   6.813   3.827   1.545
 2604WAT      O 8873   5.388   4.506   1.996
 2604WAT     H1 8874   5.376   4.579   1.935
 2604WAT     H2 8875   5.357   4.429   1.948
 2605WAT      O 8876   6.932   5.319   3.335
 2605WAT     H1 8877   6.979   5.366   3.403
 2605WAT     H2 8878   6.994   5.312   3.263
 2606WAT      O 8879   6.872   5.038   3.051
 2606WAT     H1 8880   6.885   5.014   2.960
 2606WAT     H2 8881   6.876   4.955   3.099
 2607WAT      O 8882   6.426   5.187   1.707
 2607WAT     H1 8883   6.357   5.187   1.641
 2607WAT     H2 8884   6.500   5.145   1.664
 2608WAT      O 8885   6.857   4.243   3.148
 2608WAT     H1 8886   6.796   4.294   3.095
 2608WAT     H2 8887   6.825   4.153   3.142
 2609WAT      O 8888   5.635   3.840   2.334
 2609WAT     H1 8889   5.591   3.918   2.301
 2609WAT     H2 8890   5.691   3.873   2.405
 2610WAT      O 8891   6.564   4.249   3.007
 2610WAT     H1 8892   6.479   4.219   3.040
 2610WAT     H2 8893   6.548   4.273   2.916
 2611WAT      O 8894   6.273   4.399   3.217
 2611WAT     H1 8895   6.306   4.316   3.183
 2611WAT     H2 8896   6.352   4.451   3.232
 2612WAT      O 8897   5.839   3.895   2.520
 2612WAT     H1 8898   5.868   3.985   2.512
 2612WAT     H2 8899   5.893   3.846   2.459
 2613WAT      O 8900   5.614   4.353   2.107
 2613WAT     H1 8901   5.591   4.331   2.197
 2613WAT     H2 8902   5.536   4.396   2.072
 2614WAT      O 8903   6.337   4.353   1.967
 2614WAT     H1 8904   6.277   4.426   1.948
 2614WAT     H2 8905   6.392   4.347   1.889
 2615WAT      O 8906   6.198   4.217   2.170
 2615WAT     H1 8907   6.237   4.249   2.089
 2615WAT     H2 8908   6.234   4.129   2.181
 2616WAT      O 8909   6.029   4.092   3.296
 2616WAT     H1 8910   5.960   4.073   3.359
 2616WAT     H2 8911   6.103   4.120   3.349
 2617WAT      O 8912   5.900   4.143   2.420
 2617WAT     H1 8913   5.900   4.099   2.335
 2617WAT     H2 8914   5.989   4.176   2.431
 2618WAT      O 8915   5.485   4.132   2.316
 2618WAT     H1 8916   5.451   4.179   2.391
 2618WAT     H2 8917   5.409   4.086   2.280
 2619WAT      O 8918   6.302   4.021   2.521
 2619WAT     H1 8919   6.304   4.066   2.605
 2619WAT     H2 8920   6.278   3.931   2.542
 2620WAT      O 8921   5.807   4.475   1.659
 2620WAT     H1 8922   5.751   4.430   1.596
 2620WAT     H2 8923   5.878   4.511   1.605
 2621WAT      O 8924   6.645   3.763   3.104
 2621WAT     H1 8925   6.678   3.689   3.157
 2621WAT     H2 8926   6.649   3.731   3.014
 2622WAT      O 8927   5.216   4.024   2.207
 2622WAT     H1 8928   5.188   3.987   2.291
 2622WAT     H2 8929   5.210   3.951   2.146
 2623WAT      O 8930   5.562   4.874   1.886
 2623WAT     H1 8931   5.484   4.820   1.870
 2623WAT     H2 8932   5.635   4.822   1.852
 2624WAT      O 8933   6.638   4.774   2.465
 2624WAT     H1 8934   6.710   4.823   2.426
 2624WAT     H2 8935   6.618   4.706   2.401
 2625WAT      O 8936   6.184   3.913   1.880
 2625WAT     H1 8937   6.102   3.863   1.872
 2625WAT     H2 8938   6.164   3.997   1.838
 2626WAT      O 8939   6.455   4.350   1.709
 2626WAT     H1 8940   6.544   4.382   1.692
 2626WAT     H2 8941   6.452   4.263   1.670
 2627WAT      O 8942   6.055   4.968   1.777
 2627WAT     H1 8943   6.089   5.042   1.728
 2627WAT     H2 8944   5.972   4.999   1.813
 2628WAT      O 8945   6.682   4.482   1.656
 2628WAT     H1 8946   6.674   4.525   1.571
 2628WAT     H2 8947   6.754   4.528   1.699
 2629WAT      O 8948   6.790   4.727   2.964
 2629WAT     H1 8949   6.718   4.787   2.944
 2629WAT     H2 8950   6.843   4.726   2.884
 2630WAT      O 8951   6.785   5.167   1.929
 2630WAT     H1 8952   6.721   5.102   1.956
 2630WAT     H2 8953   6.747   5.208   1.851
 2631WAT      O 8954   5.166   4.538   1.603
 2631WAT     H1 8955   5.253   4.566   1.632
 2631WAT     H2 8956   5.117   4.619   1.592
 2632WAT      O 8957   5.472   3.711   2.063
 2632WAT     H1 8958   5.459   3.710   2.158
 2632WAT     H2 8959   5.390   3.744   2.028
 2633WAT      O 8960   6.624   5.056   1.583
 2633WAT     H1 8961   6.602   4.984   1.642
 2633WAT     H2 8962   6.585   5.031   1.499
 2634WAT      O 8963   6.417   5.108   2.931
 2634WAT     H1 8964   6.451   5.166   2.998
 2634WAT     H2 8965   6.325   5.095   2.954
 2635WAT      O 8966   6.582   4.848   1.749
 2635WAT     H1 8967   6.554   4.894   1.828
 2635WAT     H2 8968   6.662   4.802   1.776
 2636WAT      O 8969   5.201   5.285   3.107
 2636WAT     H1 8970   5.212   5.191   3.093
 2636WAT     H2 8971   5.136   5.312   3.043
 2637WAT      O 8972   5.804   5.197   1.742
 2637WAT     H1 8973   5.803   5.270   1.680
 2637WAT     H2 8974   5.712   5.172   1.751
 2638WAT      O 8975   5.364   4.719   1.816
 2638WAT     H1 8976   5.304   4.793   1.817
 2638WAT     H2 8977   5.412   4.728   1.734
 2639WAT      O 8978   6.322   4.136   2.784
 2639WAT     H1 8979   6.358   4.054   2.817
 2639WAT     H2 8980   6.236   4.142   2.825
 2640WAT      O 8981   6.658   4.031   1.865
 2640WAT     H1 8982   6.595   4.042   1.793
 2640WAT     H2 8983   6.609   4.053   1.944
 2641WAT      O 8984   6.103   5.203   1.608
 2641WAT     H1 8985   6.113   5.183   1.515
 2641WAT     H2 8986   6.013   5.178   1.629
 2642WAT      O 8987   5.855   4.259   2.006
 2642WAT     H1 8988   5.784   4.306   2.050
 2642WAT     H2 8989   5.883   4.193   2.070
 2643WAT      O 8990   6.258   3.932   2.150
 2643WAT     H1 8991   6.246   3.934   2.055
 2643WAT     H2 8992   6.353   3.936   2.162
 2644WAT      O 8993   6.738   4.023   2.890
 2644WAT     H1 8994   6.688   4.097   2.924
 2644WAT     H2 8995   6.820   4.062   2.859
 2645WAT      O 8996   6.567   4.547   2.235
 2645WAT     H1 8997   6.473   4.549   2.253
 2645WAT     H2 8998   6.599   4.469   2.280
 2646WAT      O 8999   5.565   4.715   1.591
 2646WAT     H1 9000   5.642   4.704   1.647
 2646WAT     H2 9001   5.573   4.646   1.526
 2647WAT      O 9002   6.768   5.264   2.403
 2647WAT     H1 9003   6.780   5.347   2.450
 2647WAT     H2 9004   6.854   5.243   2.368
 2648WAT      O 9005   5.415   5.392   3.289
 2648WAT     H1 9006   5.496   5.424   3.330
 2648WAT     H2 9007   5.364   5.356   3.361
 2649WAT      O 9008   5.826   5.391   1.552
 2649WAT     H1 9009   5.905   5.420   1.507
 2649WAT     H2 9010   5.774   5.348   1.484
 2650WAT      O 9011   6.442   5.376   3.145
 2650WAT     H1 9012   6.537   5.367   3.140
 2650WAT     H2 9013   6.427   5.442   3.212
 2651WAT      O 9014   6.731   5.314   1.694
 2651WAT     H1 9015   6.703   5.272   1.613
 2651WAT     H2 9016   6.711   5.406   1.682
 2652WAT      O 9017   5.878   4.913   1.538
 2652WAT     H1 9018   5.867   4.851   1.611
 2652WAT     H2 9019   5.861   4.861   1.460
 2653WAT      O 9020   6.202   4.819   1.599
 2653WAT     H1 9021   6.147   4.864   1.663
 2653WAT     H2 9022   6.264   4.769   1.651
 2654WAT      O 9023   6.607   4.955   3.192
 2654WAT     H1 9024   6.681   4.988   3.142
 2654WAT     H2 9025   6.531   4.971   3.137
 2655WAT      O 9026   5.768   4.715   1.789
 2655WAT     H1 9027   5.811   4.698   1.873
 2655WAT     H2 9028   5.781   4.634   1.739
 2656WAT      O 9029   6.020   4.617   1.513
 2656WAT     H1 9030   6.072   4.546   1.477
 2656WAT     H2 9031   6.084   4.681   1.543
 2657WAT      O 9032   6.522   4.494   3.246
 2657WAT     H1 9033   6.580   4.418   3.237
 2657WAT     H2 9034   6.539   4.547   3.168
 2658WAT      O 9035   5.910   3.865   2.781
 2658WAT     H1 9036   5.865   3.868   2.696
 2658WAT     H2 9037   5.847   3.826   2.840
 2659WAT      O 9038   5.736   5.385   2.954
 2659WAT     H1 9039   5.682   5.458   2.922
 2659WAT     H2 9040   5.761   5.338   2.875
 2660WAT      O 9041   6.343   4.144   3.130
 2660WAT     H1 9042   6.274   4.078   3.124
 2660WAT     H2 9043   6.415   4.099   3.175
 2661WAT      O 9044   6.406   3.803   1.736
 2661WAT     H1 9045   6.434   3.719   1.772
 2661WAT     H2 9046   6.329   3.827   1.787
 2662WAT      O 9047   5.440   4.963   1.565
 2662WAT     H1 9048   5.484   5.017   1.631
 2662WAT     H2 9049   5.489   4.880   1.566
 2663WAT      O 9050   6.774   5.279   3.013
 2663WAT     H1 9051   6.714   5.284   2.939
 2663WAT     H2 9052   6.787   5.185   3.026
 2664WAT      O 9053   6.898   5.053   1.547
 2664WAT     H1 9054   6.815   5.059   1.594
 2664WAT     H2 9055   6.916   5.142   1.516
 2665WAT      O 9056   6.844   4.727   1.797
 2665WAT     H1 9057   6.920   4.784   1.808
 2665WAT     H2 9058   6.845   4.670   1.874
 2666WAT      O 9059   5.194   4.580   2.220
 2666WAT     H1 9060   5.128   4.553   2.156
 2666WAT     H2 9061   5.278   4.569   2.175
 2667WAT      O 9062   6.944   4.813   2.281
 2667WAT     H1 9063   6.981   4.734   2.241
 2667WAT     H2 9064   7.008   4.882   2.264
 2668WAT      O 9065   6.643   4.951   2.823
 2668WAT     H1 9066   6.561   4.994   2.849
 2668WAT     H2 9067   6.683   5.012   2.761
 2669WAT      O 9068   6.849   4.757   1.513
 2669WAT     H1 9069   6.876   4.847   1.500
 2669WAT     H2 9070   6.830   4.750   1.606
 2670WAT      O 9071   6.489   4.059   1.642
 2670WAT     H1 9072   6.531   4.040   1.558
 2670WAT     H2 9073   6.458   3.974   1.673
 2671WAT      O 9074   6.839   4.550   2.012
 2671WAT     H1 9075   6.801   4.474   1.969
 2671WAT     H2 9076   6.766   4.588   2.061
 2672WAT      O 9077   6.778   4.465   2.975
 2672WAT     H1 9078   6.754   4.442   2.885
 2672WAT     H2 9079   6.804   4.557   2.971
 2673WAT      O 9080   6.621   3.988   3.253
 2673WAT     H1 9081   6.709   3.988   3.292
 2673WAT     H2 9082   6.623   3.914   3.192
 2674WAT      O 9083   5.115   4.301   1.814
 2674WAT     H1 9084   5.025   4.327   1.797
 2674WAT     H2 9085   5.164   4.328   1.736
 2675WAT      O 9086   6.766   4.373   2.342
 2675WAT     H1 9087   6.818   4.323   2.279
 2675WAT     H2 9088   6.825   4.386   2.417
 2676WAT      O 9089   6.784   4.381   2.694
 2676WAT     H1 9090   6.689   4.378   2.706
 2676WAT     H2 9091   6.802   4.472   2.671
 2677WAT      O 9092   6.715   4.299   1.936
 2677WAT     H1 9093   6.765   4.275   2.015
 2677WAT     H2 9094   6.695   4.215   1.894
 2678WAT      O 9095   5.303   3.737   2.500
 2678WAT     H1 9096   5.368   3.682   2.456
 2678WAT     H2 9097   5.345   3.762   2.582
 2679WAT      O 9098   6.858   4.162   2.189
 2679WAT     H1 9099   6.847   4.147   2.283
 2679WAT     H2 9100   6.934   4.109   2.165
 2680WAT      O 9101   6.693   3.756   2.835
 2680WAT     H1 9102   6.756   3.817   2.872
 2680WAT     H2 9103   6.707   3.760   2.741
 2681WAT      O 9104   6.947   3.945   1.514
 2681WAT     H1 9105   7.039   3.932   1.493
 2681WAT     H2 9106   6.945   3.953   1.609
 2682WAT      O 9107   6.954   4.022   1.776
 2682WAT     H1 9108   6.875   4.016   1.829
 2682WAT     H2 9109   6.975   4.116   1.775
 2683WAT      O 9110   5.439   5.069   3.190
 2683WAT     H1 9111   5.435   5.032   3.279
 2683WAT     H2 9112   5.452   5.163   3.204
 2684WAT      O 9113   6.030   3.871   3.126
 2684WAT     H1 9114   6.024   3.931   3.201
 2684WAT     H2 9115   6.124   3.861   3.112
 2685WAT      O 9116   6.293   3.837   3.090
 2685WAT     H1 9117   6.355   3.869   3.024
 2685WAT     H2 9118   6.348   3.789   3.152
 2686WAT      O 9119   6.935   5.427   2.831
 2686WAT     H1 9120   6.886   5.467   2.759
 2686WAT     H2 9121   6.874   5.364   2.870
 2687WAT      O 9122   6.368   3.693   2.723
 2687WAT     H1 9123   6.280   3.727   2.702
 2687WAT     H2 9124   6.357   3.646   2.805
 2688WAT      O 9125   6.458   3.914   2.861
 2688WAT     H1 9126   6.425   3.833   2.823
 2688WAT     H2 9127   6.553   3.910   2.849
 2689WAT      O 9128   6.704   5.491   2.558
 2689WAT     H1 9129   6.658   5.566   2.521
 2689WAT     H2 9130   6.641   5.419   2.553
 2690WAT      O 9131   6.142   3.785   2.617
 2690WAT     H1 9132   6.064   3.833   2.645
 2690WAT     H2 9133   6.113   3.695   2.606
 2691WAT      O 9134   6.597   3.855   2.421
 2691WAT     H1 9135   6.642   3.850   2.336
 2691WAT     H2 9136   6.571   3.947   2.428
 2692WAT      O 9137   6.784   3.818   2.222
 2692WAT     H1 9138   6.778   3.724   2.207
 2692WAT     H2 9139   6.862   3.829   2.277
 2693WAT      O 9140   5.931   4.027   2.168
 2693WAT     H1 9141   5.850   3.990   2.134
 2693WAT     H2 9142   5.981   3.951   2.198
 2694WAT      O 9143   6.381   3.693   2.292
 2694WAT     H1 9144   6.441   3.751   2.339
 2694WAT     H2 9145   6.307   3.750   2.269
 2695WAT      O 9146   6.695   3.734   1.819
 2695WAT     H1 9147   6.715   3.823   1.846
 2695WAT     H2 9148   6.617   3.710   1.868
 2696WAT      O 9149   5.733   3.842   2.028
 2696WAT     H1 9150   5.670   3.772   2.045
 2696WAT     H2 9151   5.679   3.918   2.007
 2697WAT      O 9152   6.027   5.503   3.295
 2697WAT     H1 9153   6.120   5.480   3.300
 2697WAT     H2 9154   6.026   5.586   3.247
 2698WAT      O 9155   6.851   5.458   1.995
 2698WAT     H1 9156   6.868   5.389   1.931
 2698WAT     H2 9157   6.781   5.510   1.956
 2699WAT      O 9158   5.551   5.108   1.751
 2699WAT     H1 9159   5.488   5.155   1.806
 2699WAT     H2 9160   5.563   5.024   1.794
 2700WAT      O 9161   6.406   3.711   3.330
 2700WAT     H1 9162   6.395   3.743   3.419
 2700WAT     H2 9163   6.488   3.751   3.300
 2701WAT      O 9164   6.684   5.426   3.278
 2701WAT     H1 9165   6.763   5.377   3.257
 2701WAT     H2 9166   6.713   5.494   3.338
 2702WAT      O 9167   6.297   4.513   0.366
 2702WAT     H1 9168   6.289   4.422   0.339
 2702WAT     H2 9169   6.255   4.563   0.295
 2703WAT      O 9170   6.110   4.691   0.554
 2703WAT     H1 9171   6.032   4.643   0.583
 2703WAT     H2 9172   6.175   4.623   0.537
 2704WAT      O 9173   5.511   4.722   0.642
 2704WAT     H1 9174   5.428   4.697   0.682
 2704WAT     H2 9175   5.572   4.729   0.715
 2705WAT      O 9176   6.512   5.132   0.432
 2705WAT     H1 9177   6.466   5.055   0.465
 2705WAT     H2 9178   6.593   5.134   0.482
 2706WAT      O 9179   5.509   5.126   0.661
 2706WAT     H1 9180   5.540   5.037   0.643
 2706WAT     H2 9181   5.584   5.181   0.639
 2707WAT      O 9182   5.149   4.478   0.609
 2707WAT     H1 9183   5.206   4.402   0.609
 2707WAT     H2 9184   5.149   4.508   0.518
 2708WAT      O 9185   6.134   5.360   0.394
 2708WAT     H1 9186   6.073   5.406   0.337
 2708WAT     H2 9187   6.220   5.376   0.354
 2709WAT      O 9188   6.054   4.959   0.555
 2709WAT     H1 9189   6.047   4.865   0.539
 2709WAT     H2 9190   6.130   4.968   0.612
 2710WAT      O 9191   5.273   4.019   0.787
 2710WAT     H1 9192   5.255   3.929   0.815
 2710WAT     H2 9193   5.233   4.074   0.855
 2711WAT      O 9194   6.157   4.239   0.577
 2711WAT     H1 9195   6.195   4.152   0.566
 2711WAT     H2 9196   6.147   4.273   0.488
 2712WAT      O 9197   6.535   3.989   0.271
 2712WAT     H1 9198   6.617   3.940   0.275
 2712WAT     H2 9199   6.538   4.048   0.346
 2713WAT      O 9200   5.335   4.269   0.648
 2713WAT     H1 9201   5.403   4.295   0.710
 2713WAT     H2 9202   5.303   4.185   0.681
 2714WAT      O 9203   5.754   4.373   0.557
 2714WAT     H1 9204   5.805   4.423   0.621
 2714WAT     H2 9205   5.807   4.296   0.539
 2715WAT      O 9206   6.964   4.190   0.927
 2715WAT     H1 9207   6.894   4.229   0.875
 2715WAT     H2 9208   6.991   4.260   0.987
 2716WAT      O 9209   5.582   3.837   0.983
 2716WAT     H1 9210   5.583   3.889   0.903
 2716WAT     H2 9211   5.499   3.790   0.981
 2717WAT      O 9212   5.707   4.801   0.801
 2717WAT     H1 9213   5.674   4.864   0.865
 2717WAT     H2 9214   5.725   4.854   0.723
 2718WAT      O 9215   6.559   4.183   0.548
 2718WAT     H1 9216   6.488   4.212   0.606
 2718WAT     H2 9217   6.595   4.264   0.512
 2719WAT      O 9218   5.551   4.009   0.784
 2719WAT     H1 9219   5.585   4.093   0.755
 2719WAT     H2 9220   5.457   4.023   0.796
 2720WAT      O 9221   5.629   4.998   0.983
 2720WAT     H1 9222   5.690   5.066   0.954
 2720WAT     H2 9223   5.543   5.039   0.974
 2721WAT      O 9224   6.720   5.145   0.774
 2721WAT     H1 9225   6.652   5.212   0.773
 2721WAT     H2 9226   6.774   5.164   0.698
 2722WAT      O 9227   6.866   4.127   0.587
 2722WAT     H1 9228   6.771   4.131   0.600
 2722WAT     H2 9229   6.898   4.209   0.625
 2723WAT      O 9230   5.919   3.757   0.417
 2723WAT     H1 9231   5.950   3.702   0.345
 2723WAT     H2 9232   5.826   3.771   0.398
 2724WAT      O 9233   6.474   5.329   0.646
 2724WAT     H1 9234   6.475   5.289   0.559
 2724WAT     H2 9235   6.419   5.406   0.635
 2725WAT      O 9236   6.414   4.819   0.778
 2725WAT     H1 9237   6.456   4.798   0.695
 2725WAT     H2 9238   6.486   4.845   0.836
 2726WAT      O 9239   6.808   4.659   0.788
 2726WAT     H1 9240   6.726   4.666   0.740
 2726WAT     H2 9241   6.868   4.718   0.741
 2727WAT      O 9242   6.505   4.338   0.882
 2727WAT     H1 9243   6.464   4.420   0.908
 2727WAT     H2 9244   6.432   4.279   0.863
 2728WAT      O 9245   5.718   4.616   0.368
 2728WAT     H1 9246   5.678   4.545   0.319
 2728WAT     H2 9247   5.727   4.582   0.457
 2729WAT      O 9248   5.765   4.985   0.585
 2729WAT     H1 9249   5.735   4.925   0.517
 2729WAT     H2 9250   5.860   4.989   0.574
 2730WAT      O 9251   5.589   4.294   0.746
 2730WAT     H1 9252   5.645   4.305   0.669
 2730WAT     H2 9253   5.641   4.331   0.818
 2731WAT      O 9254   6.574   5.342   0.951
 2731WAT     H1 9255   6.526   5.423   0.932
 2731WAT     H2 9256   6.505   5.277   0.966
 2732WAT      O 9257   5.674   4.959   1.250
 2732WAT     H1 9258   5.584   4.981   1.275
 2732WAT     H2 9259   5.677   4.971   1.155
 2733WAT      O 9260   5.557   4.646   1.107
 2733WAT     H1 9261   5.543   4.733   1.144
 2733WAT     H2 9262   5.469   4.612   1.093
 2734WAT      O 9263   6.189   5.138   0.238
 2734WAT     H1 9264   6.233   5.212   0.197
 2734WAT     H2 9265   6.183   5.162   0.330
 2735WAT      O 9266   5.737   5.240   1.328
 2735WAT     H1 9267   5.734   5.281   1.242
 2735WAT     H2 9268   5.720   5.147   1.312
 2736WAT      O 9269   6.932   5.319   1.458
 2736WAT     H1 9270   6.979   5.366   1.526
 2736WAT     H2 9271   6.994   5.312   1.385
 2737WAT      O 9272   5.152   4.823   0.699
 2737WAT     H1 9273   5.160   4.837   0.605
 2737WAT     H2 9274   5.214   4.752   0.718
 2738WAT      O 9275   5.277   4.993   0.340
 2738WAT     H1 9276   5.236   5.007   0.255
 2738WAT     H2 9277   5.366   4.965   0.320
 2739WAT      O 9278   6.872   5.038   1.174
 2739WAT     H1 9279   6.885   5.014   1.082
 2739WAT     H2 9280   6.876   4.955   1.221
 2740WAT      O 9281   6.258   5.408   1.031
 2740WAT     H1 9282   6.310   5.399   1.111
 2740WAT     H2 9283   6.174   5.443   1.060
 2741WAT      O 9284   6.383   5.350   0.237
 2741WAT     H1 9285   6.428   5.272   0.269
 2741WAT     H2 9286   6.417   5.421   0.292
 2742WAT      O 9287   6.857   4.243   1.270
 2742WAT     H1 9288   6.796   4.294   1.218
 2742WAT     H2 9289   6.825   4.153   1.265
 2743WAT      O 9290   5.158   4.927   0.953
 2743WAT     H1 9291   5.174   4.880   0.871
 2743WAT     H2 9292   5.204   4.876   1.020
 2744WAT      O 9293   5.635   3.840   0.457
 2744WAT     H1 9294   5.591   3.918   0.424
 2744WAT     H2 9295   5.691   3.873   0.527
 2745WAT      O 9296   6.064   4.127   1.017
 2745WAT     H1 9297   6.017   4.148   1.098
 2745WAT     H2 9298   6.023   4.046   0.987
 2746WAT      O 9299   6.564   4.249   1.130
 2746WAT     H1 9300   6.479   4.219   1.162
 2746WAT     H2 9301   6.548   4.273   1.039
 2747WAT      O 9302   6.273   4.399   1.340
 2747WAT     H1 9303   6.306   4.316   1.306
 2747WAT     H2 9304   6.352   4.451   1.355
 2748WAT      O 9305   5.839   3.895   0.643
 2748WAT     H1 9306   5.868   3.985   0.634
 2748WAT     H2 9307   5.893   3.846   0.581
 2749WAT      O 9308   5.614   4.353   0.229
 2749WAT     H1 9309   5.591   4.331   0.320
 2749WAT     H2 9310   5.536   4.396   0.195
 2750WAT      O 9311   5.858   4.442   1.296
 2750WAT     H1 9312   5.848   4.348   1.281
 2750WAT     H2 9313   5.942   4.465   1.257
 2751WAT      O 9314   6.198   4.217   0.292
 2751WAT     H1 9315   6.237   4.249   0.211
 2751WAT     H2 9316   6.234   4.129   0.304
 2752WAT      O 9317   5.371   4.084   1.111
 2752WAT     H1 9318   5.332   4.168   1.132
 2752WAT     H2 9319   5.302   4.020   1.130
 2753WAT      O 9320   5.101   3.876   0.515
 2753WAT     H1 9321   5.072   3.933   0.586
 2753WAT     H2 9322   5.176   3.828   0.551
 2754WAT      O 9323   6.256   4.476   0.702
 2754WAT     H1 9324   6.183   4.527   0.737
 2754WAT     H2 9325   6.216   4.394   0.672
 2755WAT      O 9326   5.900   4.143   0.542
 2755WAT     H1 9327   5.900   4.099   0.457
 2755WAT     H2 9328   5.989   4.176   0.553
 2756WAT      O 9329   5.485   4.132   0.438
 2756WAT     H1 9330   5.451   4.179   0.514
 2756WAT     H2 9331   5.409   4.086   0.402
 2757WAT      O 9332   6.302   4.021   0.643
 2757WAT     H1 9333   6.304   4.066   0.728
 2757WAT     H2 9334   6.278   3.931   0.664
 2758WAT      O 9335   6.645   3.763   1.227
 2758WAT     H1 9336   6.678   3.689   1.280
 2758WAT     H2 9337   6.649   3.731   1.137
 2759WAT      O 9338   5.315   4.865   1.169
 2759WAT     H1 9339   5.277   4.801   1.229
 2759WAT     H2 9340   5.346   4.935   1.226
 2760WAT      O 9341   5.930   4.549   0.717
 2760WAT     H1 9342   5.967   4.502   0.792
 2760WAT     H2 9343   5.911   4.637   0.751
 2761WAT      O 9344   5.216   4.024   0.330
 2761WAT     H1 9345   5.188   3.987   0.414
 2761WAT     H2 9346   5.210   3.951   0.269
 2762WAT      O 9347   5.709   4.454   0.949
 2762WAT     H1 9348   5.679   4.542   0.971
 2762WAT     H2 9349   5.805   4.460   0.953
 2763WAT      O 9350   6.638   4.774   0.588
 2763WAT     H1 9351   6.710   4.823   0.549
 2763WAT     H2 9352   6.618   4.706   0.523
 2764WAT      O 9353   6.176   4.781   1.177
 2764WAT     H1 9354   6.169   4.689   1.151
 2764WAT     H2 9355   6.113   4.791   1.248
 2765WAT      O 9356   5.566   4.841   0.372
 2765WAT     H1 9357   5.618   4.761   0.367
 2765WAT     H2 9358   5.521   4.835   0.457
 2766WAT      O 9359   5.315   4.538   1.064
 2766WAT     H1 9360   5.279   4.604   1.122
 2766WAT     H2 9361   5.285   4.454   1.101
 2767WAT      O 9362   5.635   4.583   1.352
 2767WAT     H1 9363   5.605   4.598   1.262
 2767WAT     H2 9364   5.712   4.528   1.343
 2768WAT      O 9365   6.169   5.063   1.152
 2768WAT     H1 9366   6.171   4.970   1.130
 2768WAT     H2 9367   6.098   5.072   1.215
 2769WAT      O 9368   6.790   4.727   1.086
 2769WAT     H1 9369   6.718   4.787   1.067
 2769WAT     H2 9370   6.843   4.726   1.006
 2770WAT      O 9371   6.343   4.900   0.436
 2770WAT     H1 9372   6.378   4.840   0.370
 2770WAT     H2 9373   6.255   4.867   0.453
 2771WAT      O 9374   5.952   4.976   0.177
 2771WAT     H1 9375   6.021   5.030   0.215
 2771WAT     H2 9376   5.873   5.030   0.180
 2772WAT      O 9377   6.112   5.227   0.861
 2772WAT     H1 9378   6.177   5.248   0.929
 2772WAT     H2 9379   6.149   5.151   0.816
 2773WAT      O 9380   6.240   5.028   0.733
 2773WAT     H1 9381   6.304   4.958   0.744
 2773WAT     H2 9382   6.292   5.106   0.715
 2774WAT      O 9383   6.417   5.108   1.053
 2774WAT     H1 9384   6.451   5.166   1.121
 2774WAT     H2 9385   6.325   5.095   1.076
 2775WAT      O 9386   5.172   3.887   1.131
 2775WAT     H1 9387   5.101   3.907   1.192
 2775WAT     H2 9388   5.214   3.809   1.169
 2776WAT      O 9389   5.201   5.285   1.230
 2776WAT     H1 9390   5.212   5.191   1.216
 2776WAT     H2 9391   5.136   5.312   1.165
 2777WAT      O 9392   6.000   5.113   1.370
 2777WAT     H1 9393   5.968   5.041   1.424
 2777WAT     H2 9394   5.933   5.180   1.377
 2778WAT      O 9395   6.322   4.136   0.906
 2778WAT     H1 9396   6.358   4.054   0.939
 2778WAT     H2 9397   6.236   4.142   0.948
 2779WAT      O 9398   6.018   4.401   0.929
 2779WAT     H1 9399   6.067   4.449   0.995
 2779WAT     H2 9400   6.032   4.309   0.949
 2780WAT      O 9401   6.258   3.932   0.273
 2780WAT     H1 9402   6.246   3.934   0.178
 2780WAT     H2 9403   6.353   3.936   0.285
 2781WAT      O 9404   6.738   4.023   1.013
 2781WAT     H1 9405   6.688   4.097   1.047
 2781WAT     H2 9406   6.820   4.062   0.981
 2782WAT      O 9407   6.567   4.547   0.358
 2782WAT     H1 9408   6.473   4.549   0.375
 2782WAT     H2 9409   6.599   4.469   0.402
 2783WAT      O 9410   6.768   5.264   0.525
 2783WAT     H1 9411   6.780   5.347   0.572
 2783WAT     H2 9412   6.854   5.243   0.490
 2784WAT      O 9413   5.515   5.474   0.492
 2784WAT     H1 9414   5.589   5.419   0.519
 2784WAT     H2 9415   5.553   5.560   0.478
 2785WAT      O 9416   5.415   5.392   1.411
 2785WAT     H1 9417   5.496   5.424   1.453
 2785WAT     H2 9418   5.364   5.356   1.483
 2786WAT      O 9419   6.299   5.003   1.406
 2786WAT     H1 9420   6.239   5.005   1.332
 2786WAT     H2 9421   6.269   4.930   1.460
 2787WAT      O 9422   6.442   5.376   1.267
 2787WAT     H1 9423   6.537   5.367   1.262
 2787WAT     H2 9424   6.427   5.442   1.334
 2788WAT      O 9425   5.187   4.641   1.306
 2788WAT     H1 9426   5.238   4.583   1.363
 2788WAT     H2 9427   5.114   4.669   1.359
 2789WAT      O 9428   5.893   4.781   1.259
 2789WAT     H1 9429   5.816   4.838   1.250
 2789WAT     H2 9430   5.911   4.752   1.170
 2790WAT      O 9431   6.607   4.955   1.315
 2790WAT     H1 9432   6.681   4.988   1.264
 2790WAT     H2 9433   6.531   4.971   1.259
 2791WAT      O 9434   5.585   4.313   1.192
 2791WAT     H1 9435   5.532   4.264   1.129
 2791WAT     H2 9436   5.652   4.356   1.138
 2792WAT      O 9437   6.475   4.760   1.168
 2792WAT     H1 9438   6.516   4.775   1.253
 2792WAT     H2 9439   6.381   4.772   1.185
 2793WAT      O 9440   6.522   4.494   1.369
 2793WAT     H1 9441   6.580   4.418   1.360
 2793WAT     H2 9442   6.539   4.547   1.291
 2794WAT      O 9443   5.910   3.865   0.903
 2794WAT     H1 9444   5.865   3.868   0.819
 2794WAT     H2 9445   5.847   3.826   0.963
 2795WAT      O 9446   5.951   4.755   0.965
 2795WAT     H1 9447   5.993   4.839   0.948
 2795WAT     H2 9448   5.859   4.769   0.942
 2796WAT      O 9449   6.184   4.528   1.104
 2796WAT     H1 9450   6.196   4.468   1.178
 2796WAT     H2 9451   6.270   4.532   1.062
 2797WAT      O 9452   6.418   4.583   0.961
 2797WAT     H1 9453   6.366   4.636   0.901
 2797WAT     H2 9454   6.453   4.647   1.024
 2798WAT      O 9455   5.736   5.385   1.077
 2798WAT     H1 9456   5.682   5.458   1.045
 2798WAT     H2 9457   5.761   5.338   0.998
 2799WAT      O 9458   5.861   4.182   1.229
 2799WAT     H1 9459   5.920   4.151   1.298
 2799WAT     H2 9460   5.779   4.135   1.245
 2800WAT      O 9461   6.343   4.144   1.253
 2800WAT     H1 9462   6.274   4.078   1.246
 2800WAT     H2 9463   6.415   4.099   1.297
 2801WAT      O 9464   6.021   5.509   1.103
 2801WAT     H1 9465   6.014   5.599   1.133
 2801WAT     H2 9466   5.931   5.477   1.100
 2802WAT      O 9467   5.162   5.242   0.433
 2802WAT     H1 9468   5.195   5.155   0.410
 2802WAT     H2 9469   5.205   5.262   0.516
 2803WAT      O 9470   5.211   5.328   0.707
 2803WAT     H1 9471   5.167   5.346   0.790
 2803WAT     H2 9472   5.267   5.404   0.693
 2804WAT      O 9473   6.774   5.279   1.136
 2804WAT     H1 9474   6.714   5.284   1.061
 2804WAT     H2 9475   6.787   5.185   1.149
 2805WAT      O 9476   5.194   4.580   0.343
 2805WAT     H1 9477   5.128   4.553   0.278
 2805WAT     H2 9478   5.278   4.569   0.298
 2806WAT      O 9479   6.944   4.813   0.404
 2806WAT     H1 9480   6.981   4.734   0.363
 2806WAT     H2 9481   7.008   4.882   0.386
 2807WAT      O 9482   6.643   4.951   0.945
 2807WAT     H1 9483   6.561   4.994   0.972
 2807WAT     H2 9484   6.683   5.012   0.884
 2808WAT      O 9485   5.298   4.618   0.797
 2808WAT     H1 9486   5.334   4.609   0.885
 2808WAT     H2 9487   5.241   4.542   0.787
 2809WAT      O 9488   6.778   4.465   1.098
 2809WAT     H1 9489   6.754   4.442   1.008
 2809WAT     H2 9490   6.804   4.557   1.093
 2810WAT      O 9491   5.253   4.309   1.187
 2810WAT     H1 9492   5.163   4.306   1.221
 2810WAT     H2 9493   5.307   4.329   1.264
 2811WAT      O 9494   6.621   3.988   1.376
 2811WAT     H1 9495   6.709   3.988   1.414
 2811WAT     H2 9496   6.623   3.914   1.315
 2812WAT      O 9497   6.766   4.373   0.465
 2812WAT     H1 9498   6.818   4.323   0.402
 2812WAT     H2 9499   6.825   4.386   0.539
 2813WAT      O 9500   6.784   4.381   0.817
 2813WAT     H1 9501   6.689   4.378   0.828
 2813WAT     H2 9502   6.802   4.472   0.793
 2814WAT      O 9503   5.303   3.737   0.622
 2814WAT     H1 9504   5.368   3.682   0.578
 2814WAT     H2 9505   5.345   3.762   0.704
 2815WAT      O 9506   6.858   4.162   0.312
 2815WAT     H1 9507   6.847   4.147   0.406
 2815WAT     H2 9508   6.934   4.109   0.288
 2816WAT      O 9509   6.693   3.756   0.958
 2816WAT     H1 9510   6.756   3.817   0.994
 2816WAT     H2 9511   6.707   3.760   0.863
 2817WAT      O 9512   6.648   5.426   0.298
 2817WAT     H1 9513   6.708   5.394   0.230
 2817WAT     H2 9514   6.674   5.379   0.377
 2818WAT      O 9515   5.278   3.752   0.896
 2818WAT     H1 9516   5.244   3.798   0.973
 2818WAT     H2 9517   5.245   3.663   0.905
 2819WAT      O 9518   5.439   5.069   1.313
 2819WAT     H1 9519   5.435   5.032   1.401
 2819WAT     H2 9520   5.452   5.163   1.327
 2820WAT      O 9521   5.809   5.225   0.873
 2820WAT     H1 9522   5.785   5.252   0.784
 2820WAT     H2 9523   5.903   5.242   0.879
 2821WAT      O 9524   6.030   3.871   1.249
 2821WAT     H1 9525   6.024   3.931   1.324
 2821WAT     H2 9526   6.124   3.861   1.234
 2822WAT      O 9527   6.293   3.837   1.213
 2822WAT     H1 9528   6.355   3.869   1.146
 2822WAT     H2 9529   6.348   3.789   1.274
 2823WAT      O 9530   6.935   5.427   0.953
 2823WAT     H1 9531   6.886   5.467   0.881
 2823WAT     H2 9532   6.874   5.364   0.993
 2824WAT      O 9533   5.423   5.364   1.025
 2824WAT     H1 9534   5.364   5.351   1.099
 2824WAT     H2 9535   5.422   5.280   0.978
 2825WAT      O 9536   6.368   3.693   0.845
 2825WAT     H1 9537   6.280   3.727   0.825
 2825WAT     H2 9538   6.357   3.646   0.928
 2826WAT      O 9539   6.458   3.914   0.984
 2826WAT     H1 9540   6.425   3.833   0.946
 2826WAT     H2 9541   6.553   3.910   0.971
 2827WAT      O 9542   6.704   5.491   0.681
 2827WAT     H1 9543   6.658   5.566   0.644
 2827WAT     H2 9544   6.641   5.419   0.675
 2828WAT      O 9545   5.386   5.101   0.920
 2828WAT     H1 9546   5.313   5.039   0.913
 2828WAT     H2 9547   5.392   5.140   0.833
 2829WAT      O 9548   5.747   5.322   0.598
 2829WAT     H1 9549   5.798   5.261   0.546
 2829WAT     H2 9550   5.812   5.372   0.648
 2830WAT      O 9551   6.020   5.411   0.681
 2830WAT     H1 9552   6.049   5.386   0.594
 2830WAT     H2 9553   6.072   5.356   0.740
 2831WAT      O 9554   6.142   3.785   0.739
 2831WAT     H1 9555   6.064   3.833   0.767
 2831WAT     H2 9556   6.113   3.695   0.728
 2832WAT      O 9557   6.597   3.855   0.544
 2832WAT     H1 9558   6.642   3.850   0.459
 2832WAT     H2 9559   6.571   3.947   0.551
 2833WAT      O 9560   6.784   3.818   0.345
 2833WAT     H1 9561   6.778   3.724   0.330
 2833WAT     H2 9562   6.862   3.829   0.399
 2834WAT      O 9563   5.214   5.432   0.241
 2834WAT     H1 9564   5.198   5.369   0.311
 2834WAT     H2 9565   5.128   5.453   0.206
 2835WAT      O 9566   5.931   4.027   0.290
 2835WAT     H1 9567   5.850   3.990   0.256
 2835WAT     H2 9568   5.981   3.951   0.321
 2836WAT      O 9569   6.381   3.693   0.414
 2836WAT     H1 9570   6.441   3.751   0.462
 2836WAT     H2 9571   6.307   3.750   0.392
 2837WAT      O 9572   6.027   5.503   1.418
 2837WAT     H1 9573   6.120   5.480   1.422
 2837WAT     H2 9574   6.026   5.586   1.370
 2838WAT      O 9575   6.406   3.711   1.452
 2838WAT     H1 9576   6.395   3.743   1.542
 2838WAT     H2 9577   6.488   3.751   1.422
 2839WAT      O 9578   6.684   5.426   1.400
 2839WAT     H1 9579   6.763   5.377   1.380
 2839WAT     H2 9580   6.713   5.494   1.461
 2840WAT      O 9581   6.297   2.636   5.998
 2840WAT     H1 9582   6.289   2.544   5.971
 2840WAT     H2 9583   6.255   2.685   5.928
 2841WAT      O 9584   6.110   2.814   6.186
 2841WAT     H1 9585   6.032   2.766   6.215
 2841WAT     H2 9586   6.175   2.746   6.169
 2842WAT      O 9587   5.511   2.845   6.274
 2842WAT     H1 9588   5.428   2.819   6.314
 2842WAT     H2 9589   5.572   2.852   6.348
 2843WAT      O 9590   6.512   3.254   6.064
 2843WAT     H1 9591   6.466   3.177   6.097
 2843WAT     H2 9592   6.593   3.257   6.115
 2844WAT      O 9593   5.509   3.248   6.294
 2844WAT     H1 9594   5.540   3.159   6.276
 2844WAT     H2 9595   5.584   3.304   6.271
 2845WAT      O 9596   5.352   2.341   5.652
 2845WAT     H1 9597   5.264   2.375   5.642
 2845WAT     H2 9598   5.381   2.321   5.563
 2846WAT      O 9599   5.149   2.601   6.241
 2846WAT     H1 9600   5.206   2.524   6.241
 2846WAT     H2 9601   5.149   2.631   6.150
 2847WAT      O 9602   6.134   3.483   6.026
 2847WAT     H1 9603   6.073   3.528   5.969
 2847WAT     H2 9604   6.220   3.498   5.986
 2848WAT      O 9605   6.054   3.081   6.187
 2848WAT     H1 9606   6.047   2.987   6.171
 2848WAT     H2 9607   6.130   3.090   6.244
 2849WAT      O 9608   5.273   2.142   6.420
 2849WAT     H1 9609   5.255   2.052   6.448
 2849WAT     H2 9610   5.233   2.196   6.487
 2850WAT      O 9611   6.157   2.362   6.210
 2850WAT     H1 9612   6.195   2.275   6.198
 2850WAT     H2 9613   6.147   2.395   6.121
 2851WAT      O 9614   5.570   2.199   5.756
 2851WAT     H1 9615   5.581   2.289   5.787
 2851WAT     H2 9616   5.479   2.194   5.727
 2852WAT      O 9617   6.535   2.111   5.903
 2852WAT     H1 9618   6.617   2.062   5.907
 2852WAT     H2 9619   6.538   2.170   5.978
 2853WAT      O 9620   5.335   2.391   6.280
 2853WAT     H1 9621   5.403   2.418   6.342
 2853WAT     H2 9622   5.303   2.307   6.314
 2854WAT      O 9623   5.754   2.496   6.189
 2854WAT     H1 9624   5.805   2.546   6.253
 2854WAT     H2 9625   5.807   2.418   6.171
 2855WAT      O 9626   6.221   2.971   5.766
 2855WAT     H1 9627   6.159   3.018   5.709
 2855WAT     H2 9628   6.272   3.040   5.807
 2856WAT      O 9629   5.707   2.924   6.433
 2856WAT     H1 9630   5.674   2.987   6.498
 2856WAT     H2 9631   5.725   2.977   6.355
 2857WAT      O 9632   6.559   2.305   6.180
 2857WAT     H1 9633   6.488   2.334   6.238
 2857WAT     H2 9634   6.595   2.386   6.144
 2858WAT      O 9635   5.551   2.131   6.416
 2858WAT     H1 9636   5.585   2.215   6.387
 2858WAT     H2 9637   5.457   2.146   6.428
 2859WAT      O 9638   5.158   3.040   5.503
 2859WAT     H1 9639   5.120   3.089   5.430
 2859WAT     H2 9640   5.184   3.107   5.566
 2860WAT      O 9641   6.720   3.267   6.406
 2860WAT     H1 9642   6.652   3.334   6.406
 2860WAT     H2 9643   6.774   3.287   6.330
 2861WAT      O 9644   6.866   2.250   6.219
 2861WAT     H1 9645   6.771   2.253   6.232
 2861WAT     H2 9646   6.898   2.331   6.258
 2862WAT      O 9647   5.919   1.880   6.049
 2862WAT     H1 9648   5.950   1.824   5.977
 2862WAT     H2 9649   5.826   1.893   6.031
 2863WAT      O 9650   6.474   3.452   6.278
 2863WAT     H1 9651   6.475   3.411   6.191
 2863WAT     H2 9652   6.419   3.529   6.268
 2864WAT      O 9653   6.603   3.124   5.787
 2864WAT     H1 9654   6.592   3.029   5.799
 2864WAT     H2 9655   6.603   3.160   5.875
 2865WAT      O 9656   6.414   2.942   6.411
 2865WAT     H1 9657   6.456   2.920   6.327
 2865WAT     H2 9658   6.486   2.968   6.468
 2866WAT      O 9659   6.158   2.686   5.722
 2866WAT     H1 9660   6.065   2.680   5.745
 2866WAT     H2 9661   6.173   2.780   5.711
 2867WAT      O 9662   6.156   2.314   5.422
 2867WAT     H1 9663   6.062   2.330   5.431
 2867WAT     H2 9664   6.188   2.385   5.367
 2868WAT      O 9665   6.808   2.782   6.420
 2868WAT     H1 9666   6.726   2.789   6.372
 2868WAT     H2 9667   6.868   2.840   6.373
 2869WAT      O 9668   6.561   2.843   5.773
 2869WAT     H1 9669   6.499   2.809   5.708
 2869WAT     H2 9670   6.559   2.778   5.844
 2870WAT      O 9671   5.718   2.739   6.001
 2870WAT     H1 9672   5.678   2.668   5.951
 2870WAT     H2 9673   5.727   2.705   6.090
 2871WAT      O 9674   5.765   3.108   6.217
 2871WAT     H1 9675   5.735   3.047   6.149
 2871WAT     H2 9676   5.860   3.111   6.206
 2872WAT      O 9677   5.589   2.416   6.379
 2872WAT     H1 9678   5.645   2.427   6.301
 2872WAT     H2 9679   5.641   2.454   6.450
 2873WAT      O 9680   6.378   2.766   5.474
 2873WAT     H1 9681   6.422   2.683   5.459
 2873WAT     H2 9682   6.450   2.830   5.482
 2874WAT      O 9683   6.189   3.260   5.870
 2874WAT     H1 9684   6.233   3.335   5.829
 2874WAT     H2 9685   6.183   3.285   5.963
 2875WAT      O 9686   6.736   1.892   5.305
 2875WAT     H1 9687   6.705   1.901   5.395
 2875WAT     H2 9688   6.813   1.950   5.300
 2876WAT      O 9689   5.388   2.628   5.751
 2876WAT     H1 9690   5.376   2.701   5.690
 2876WAT     H2 9691   5.357   2.552   5.703
 2877WAT      O 9692   5.152   2.946   6.331
 2877WAT     H1 9693   5.160   2.959   6.237
 2877WAT     H2 9694   5.214   2.875   6.351
 2878WAT      O 9695   5.277   3.116   5.972
 2878WAT     H1 9696   5.236   3.130   5.887
 2878WAT     H2 9697   5.366   3.087   5.952
 2879WAT      O 9698   6.456   3.559   5.606
 2879WAT     H1 9699   6.440   3.530   5.696
 2879WAT     H2 9700   6.439   3.482   5.552
 2880WAT      O 9701   5.704   3.537   5.784
 2880WAT     H1 9702   5.686   3.445   5.762
 2880WAT     H2 9703   5.618   3.573   5.808
 2881WAT      O 9704   6.426   3.310   5.462
 2881WAT     H1 9705   6.357   3.310   5.396
 2881WAT     H2 9706   6.500   3.268   5.419
 2882WAT      O 9707   6.383   3.473   5.869
 2882WAT     H1 9708   6.428   3.395   5.901
 2882WAT     H2 9709   6.417   3.544   5.924
 2883WAT      O 9710   5.635   1.963   6.089
 2883WAT     H1 9711   5.591   2.041   6.056
 2883WAT     H2 9712   5.691   1.995   6.160
 2884WAT      O 9713   5.946   1.925   5.577
 2884WAT     H1 9714   5.884   1.925   5.650
 2884WAT     H2 9715   5.938   1.838   5.537
 2885WAT      O 9716   5.839   2.017   6.275
 2885WAT     H1 9717   5.868   2.108   6.267
 2885WAT     H2 9718   5.893   1.968   6.213
 2886WAT      O 9719   5.614   2.475   5.862
 2886WAT     H1 9720   5.591   2.454   5.952
 2886WAT     H2 9721   5.536   2.518   5.827
 2887WAT      O 9722   6.337   2.476   5.722
 2887WAT     H1 9723   6.277   2.548   5.703
 2887WAT     H2 9724   6.392   2.470   5.643
 2888WAT      O 9725   6.198   2.339   5.925
 2888WAT     H1 9726   6.237   2.371   5.843
 2888WAT     H2 9727   6.234   2.252   5.936
 2889WAT      O 9728   5.101   1.998   6.147
 2889WAT     H1 9729   5.072   2.055   6.218
 2889WAT     H2 9730   5.176   1.950   6.183
 2890WAT      O 9731   5.120   2.393   5.268
 2890WAT     H1 9732   5.112   2.487   5.282
 2890WAT     H2 9733   5.085   2.378   5.180
 2891WAT      O 9734   6.256   2.599   6.334
 2891WAT     H1 9735   6.183   2.649   6.369
 2891WAT     H2 9736   6.216   2.517   6.304
 2892WAT      O 9737   5.900   2.266   6.175
 2892WAT     H1 9738   5.900   2.222   6.090
 2892WAT     H2 9739   5.989   2.298   6.185
 2893WAT      O 9740   5.485   2.254   6.071
 2893WAT     H1 9741   5.451   2.302   6.146
 2893WAT     H2 9742   5.409   2.209   6.035
 2894WAT      O 9743   5.906   2.366   5.474
 2894WAT     H1 9744   5.918   2.362   5.569
 2894WAT     H2 9745   5.868   2.452   5.458
 2895WAT      O 9746   6.302   2.144   6.275
 2895WAT     H1 9747   6.304   2.189   6.360
 2895WAT     H2 9748   6.278   2.054   6.297
 2896WAT      O 9749   5.807   2.597   5.414
 2896WAT     H1 9750   5.751   2.552   5.351
 2896WAT     H2 9751   5.878   2.633   5.360
 2897WAT      O 9752   5.930   2.672   6.349
 2897WAT     H1 9753   5.967   2.625   6.424
 2897WAT     H2 9754   5.911   2.759   6.383
 2898WAT      O 9755   5.216   2.146   5.962
 2898WAT     H1 9756   5.188   2.110   6.046
 2898WAT     H2 9757   5.210   2.073   5.901
 2899WAT      O 9758   5.562   2.997   5.641
 2899WAT     H1 9759   5.484   2.943   5.625
 2899WAT     H2 9760   5.635   2.945   5.607
 2900WAT      O 9761   6.638   2.896   6.220
 2900WAT     H1 9762   6.710   2.946   6.181
 2900WAT     H2 9763   6.618   2.829   6.156
 2901WAT      O 9764   6.184   2.036   5.634
 2901WAT     H1 9765   6.102   1.986   5.627
 2901WAT     H2 9766   6.164   2.120   5.593
 2902WAT      O 9767   6.455   2.473   5.464
 2902WAT     H1 9768   6.544   2.504   5.447
 2902WAT     H2 9769   6.452   2.386   5.425
 2903WAT      O 9770   5.566   2.964   6.005
 2903WAT     H1 9771   5.618   2.883   5.999
 2903WAT     H2 9772   5.521   2.957   6.089
 2904WAT      O 9773   6.055   3.090   5.532
 2904WAT     H1 9774   6.089   3.165   5.482
 2904WAT     H2 9775   5.972   3.122   5.568
 2905WAT      O 9776   6.682   2.604   5.411
 2905WAT     H1 9777   6.674   2.647   5.326
 2905WAT     H2 9778   6.754   2.650   5.454
 2906WAT      O 9779   6.785   3.290   5.684
 2906WAT     H1 9780   6.721   3.224   5.711
 2906WAT     H2 9781   6.747   3.330   5.606
 2907WAT      O 9782   6.343   3.022   6.068
 2907WAT     H1 9783   6.378   2.963   6.002
 2907WAT     H2 9784   6.255   2.990   6.086
 2908WAT      O 9785   5.952   3.098   5.809
 2908WAT     H1 9786   6.021   3.153   5.847
 2908WAT     H2 9787   5.873   3.153   5.813
 2909WAT      O 9788   5.166   2.660   5.358
 2909WAT     H1 9789   5.253   2.688   5.387
 2909WAT     H2 9790   5.117   2.741   5.347
 2910WAT      O 9791   5.882   2.799   5.770
 2910WAT     H1 9792   5.928   2.880   5.793
 2910WAT     H2 9793   5.847   2.767   5.854
 2911WAT      O 9794   5.472   1.833   5.818
 2911WAT     H1 9795   5.459   1.832   5.912
 2911WAT     H2 9796   5.390   1.867   5.783
 2912WAT      O 9797   6.240   3.150   6.365
 2912WAT     H1 9798   6.304   3.080   6.376
 2912WAT     H2 9799   6.292   3.228   6.347
 2913WAT      O 9800   6.624   3.179   5.337
 2913WAT     H1 9801   6.602   3.107   5.397
 2913WAT     H2 9802   6.585   3.154   5.254
 2914WAT      O 9803   5.202   3.581   5.415
 2914WAT     H1 9804   5.238   3.641   5.349
 2914WAT     H2 9805   5.188   3.636   5.492
 2915WAT      O 9806   6.582   2.970   5.504
 2915WAT     H1 9807   6.554   3.017   5.582
 2915WAT     H2 9808   6.662   2.924   5.530
 2916WAT      O 9809   5.804   3.320   5.497
 2916WAT     H1 9810   5.803   3.393   5.435
 2916WAT     H2 9811   5.712   3.295   5.506
 2917WAT      O 9812   5.364   2.842   5.571
 2917WAT     H1 9813   5.304   2.916   5.572
 2917WAT     H2 9814   5.412   2.851   5.489
 2918WAT      O 9815   6.658   2.154   5.620
 2918WAT     H1 9816   6.595   2.164   5.548
 2918WAT     H2 9817   6.609   2.176   5.699
 2919WAT      O 9818   6.103   3.326   5.363
 2919WAT     H1 9819   6.113   3.306   5.270
 2919WAT     H2 9820   6.013   3.301   5.383
 2920WAT      O 9821   5.855   2.382   5.761
 2920WAT     H1 9822   5.784   2.429   5.805
 2920WAT     H2 9823   5.883   2.316   5.825
 2921WAT      O 9824   6.258   2.054   5.905
 2921WAT     H1 9825   6.246   2.056   5.810
 2921WAT     H2 9826   6.353   2.059   5.917
 2922WAT      O 9827   5.967   3.578   5.832
 2922WAT     H1 9828   5.992   3.574   5.740
 2922WAT     H2 9829   5.872   3.565   5.832
 2923WAT      O 9830   5.675   2.213   5.499
 2923WAT     H1 9831   5.760   2.256   5.492
 2923WAT     H2 9832   5.639   2.244   5.581
 2924WAT      O 9833   6.567   2.670   5.990
 2924WAT     H1 9834   6.473   2.671   6.007
 2924WAT     H2 9835   6.599   2.591   6.035
 2925WAT      O 9836   5.565   2.838   5.346
 2925WAT     H1 9837   5.642   2.827   5.402
 2925WAT     H2 9838   5.573   2.768   5.281
 2926WAT      O 9839   5.435   2.581   5.414
 2926WAT     H1 9840   5.443   2.486   5.426
 2926WAT     H2 9841   5.524   2.614   5.425
 2927WAT      O 9842   6.768   3.387   6.158
 2927WAT     H1 9843   6.780   3.469   6.205
 2927WAT     H2 9844   6.854   3.366   6.123
 2928WAT      O 9845   5.515   3.596   6.125
 2928WAT     H1 9846   5.589   3.541   6.152
 2928WAT     H2 9847   5.553   3.683   6.111
 2929WAT      O 9848   5.203   3.203   5.712
 2929WAT     H1 9849   5.111   3.227   5.711
 2929WAT     H2 9850   5.250   3.286   5.700
 2930WAT      O 9851   5.826   3.513   5.307
 2930WAT     H1 9852   5.905   3.542   5.262
 2930WAT     H2 9853   5.774   3.470   5.239
 2931WAT      O 9854   6.731   3.436   5.449
 2931WAT     H1 9855   6.703   3.395   5.368
 2931WAT     H2 9856   6.711   3.529   5.437
 2932WAT      O 9857   5.878   3.035   5.293
 2932WAT     H1 9858   5.867   2.974   5.366
 2932WAT     H2 9859   5.861   2.983   5.215
 2933WAT      O 9860   6.202   2.942   5.354
 2933WAT     H1 9861   6.147   2.986   5.418
 2933WAT     H2 9862   6.264   2.891   5.406
 2934WAT      O 9863   5.768   2.838   5.543
 2934WAT     H1 9864   5.811   2.821   5.628
 2934WAT     H2 9865   5.781   2.757   5.494
 2935WAT      O 9866   6.020   2.740   5.268
 2935WAT     H1 9867   6.072   2.668   5.232
 2935WAT     H2 9868   6.084   2.804   5.298
 2936WAT      O 9869   5.658   2.445   5.238
 2936WAT     H1 9870   5.638   2.359   5.274
 2936WAT     H2 9871   5.641   2.436   5.144
 2937WAT      O 9872   6.406   1.926   5.491
 2937WAT     H1 9873   6.434   1.842   5.526
 2937WAT     H2 9874   6.329   1.949   5.542
 2938WAT      O 9875   5.538   2.155   5.237
 2938WAT     H1 9876   5.568   2.156   5.146
 2938WAT     H2 9877   5.612   2.120   5.286
 2939WAT      O 9878   5.860   2.049   5.335
 2939WAT     H1 9879   5.825   1.982   5.277
 2939WAT     H2 9880   5.880   2.003   5.417
 2940WAT      O 9881   6.076   3.548   5.497
 2940WAT     H1 9882   6.166   3.582   5.499
 2940WAT     H2 9883   6.079   3.476   5.434
 2941WAT      O 9884   5.440   3.085   5.320
 2941WAT     H1 9885   5.484   3.140   5.386
 2941WAT     H2 9886   5.489   3.003   5.321
 2942WAT      O 9887   5.162   3.364   6.065
 2942WAT     H1 9888   5.195   3.277   6.042
 2942WAT     H2 9889   5.205   3.385   6.148
 2943WAT      O 9890   5.621   3.197   5.831
 2943WAT     H1 9891   5.591   3.185   5.921
 2943WAT     H2 9892   5.611   3.111   5.790
 2944WAT      O 9893   5.211   3.451   6.339
 2944WAT     H1 9894   5.167   3.469   6.422
 2944WAT     H2 9895   5.267   3.527   6.325
 2945WAT      O 9896   6.898   3.175   5.302
 2945WAT     H1 9897   6.815   3.182   5.349
 2945WAT     H2 9898   6.916   3.264   5.271
 2946WAT      O 9899   6.844   2.850   5.552
 2946WAT     H1 9900   6.920   2.907   5.563
 2946WAT     H2 9901   6.845   2.793   5.629
 2947WAT      O 9902   5.194   2.702   5.975
 2947WAT     H1 9903   5.128   2.675   5.911
 2947WAT     H2 9904   5.278   2.691   5.930
 2948WAT      O 9905   6.944   2.935   6.036
 2948WAT     H1 9906   6.981   2.857   5.996
 2948WAT     H2 9907   7.008   3.004   6.019
 2949WAT      O 9908   6.849   2.879   5.268
 2949WAT     H1 9909   6.876   2.970   5.255
 2949WAT     H2 9910   6.830   2.873   5.361
 2950WAT      O 9911   6.489   2.182   5.397
 2950WAT     H1 9912   6.531   2.163   5.313
 2950WAT     H2 9913   6.458   2.096   5.428
 2951WAT      O 9914   6.839   2.673   5.767
 2951WAT     H1 9915   6.801   2.596   5.724
 2951WAT     H2 9916   6.766   2.711   5.816
 2952WAT      O 9917   5.298   2.741   6.429
 2952WAT     H1 9918   5.334   2.732   6.517
 2952WAT     H2 9919   5.241   2.664   6.419
 2953WAT      O 9920   5.115   2.423   5.569
 2953WAT     H1 9921   5.025   2.449   5.552
 2953WAT     H2 9922   5.164   2.450   5.491
 2954WAT      O 9923   6.766   2.495   6.097
 2954WAT     H1 9924   6.818   2.446   6.034
 2954WAT     H2 9925   6.825   2.509   6.171
 2955WAT      O 9926   6.784   2.504   6.449
 2955WAT     H1 9927   6.689   2.500   6.461
 2955WAT     H2 9928   6.802   2.595   6.426
 2956WAT      O 9929   5.369   2.329   5.360
 2956WAT     H1 9930   5.440   2.287   5.312
 2956WAT     H2 9931   5.298   2.336   5.297
 2957WAT      O 9932   5.334   1.934   5.264
 2957WAT     H1 9933   5.406   1.988   5.296
 2957WAT     H2 9934   5.361   1.907   5.177
 2958WAT      O 9935   6.715   2.421   5.691
 2958WAT     H1 9936   6.765   2.398   5.769
 2958WAT     H2 9937   6.695   2.337   5.649
 2959WAT      O 9938   5.303   1.859   6.254
 2959WAT     H1 9939   5.368   1.804   6.210
 2959WAT     H2 9940   5.345   1.885   6.337
 2960WAT      O 9941   6.858   2.285   5.944
 2960WAT     H1 9942   6.847   2.269   6.038
 2960WAT     H2 9943   6.934   2.232   5.920
 2961WAT      O 9944   6.947   2.068   5.268
 2961WAT     H1 9945   7.039   2.055   5.248
 2961WAT     H2 9946   6.945   2.076   5.364
 2962WAT      O 9947   6.954   2.145   5.531
 2962WAT     H1 9948   6.875   2.138   5.584
 2962WAT     H2 9949   6.975   2.238   5.530
 2963WAT      O 9950   6.648   3.549   5.930
 2963WAT     H1 9951   6.708   3.517   5.863
 2963WAT     H2 9952   6.674   3.502   6.009
 2964WAT      O 9953   5.809   3.348   6.505
 2964WAT     H1 9954   5.785   3.374   6.417
 2964WAT     H2 9955   5.903   3.365   6.511
 2965WAT      O 9956   6.704   3.614   6.313
 2965WAT     H1 9957   6.658   3.689   6.276
 2965WAT     H2 9958   6.641   3.542   6.307
 2966WAT      O 9959   5.747   3.445   6.231
 2966WAT     H1 9960   5.798   3.384   6.178
 2966WAT     H2 9961   5.812   3.495   6.280
 2967WAT      O 9962   6.020   3.534   6.313
 2967WAT     H1 9963   6.049   3.508   6.226
 2967WAT     H2 9964   6.072   3.479   6.373
 2968WAT      O 9965   6.142   1.908   6.371
 2968WAT     H1 9966   6.064   1.955   6.399
 2968WAT     H2 9967   6.113   1.817   6.361
 2969WAT      O 9968   6.597   1.978   6.176
 2969WAT     H1 9969   6.642   1.972   6.091
 2969WAT     H2 9970   6.571   2.069   6.183
 2970WAT      O 9971   6.784   1.941   5.977
 2970WAT     H1 9972   6.778   1.847   5.962
 2970WAT     H2 9973   6.862   1.952   6.032
 2971WAT      O 9974   5.214   3.555   5.873
 2971WAT     H1 9975   5.198   3.492   5.943
 2971WAT     H2 9976   5.128   3.576   5.838
 2972WAT      O 9977   5.277   1.938   5.624
 2972WAT     H1 9978   5.352   1.949   5.566
 2972WAT     H2 9979   5.230   2.022   5.619
 2973WAT      O 9980   5.931   2.150   5.923
 2973WAT     H1 9981   5.850   2.112   5.889
 2973WAT     H2 9982   5.981   2.074   5.953
 2974WAT      O 9983   6.381   1.816   6.046
 2974WAT     H1 9984   6.441   1.873   6.094
 2974WAT     H2 9985   6.307   1.872   6.024
 2975WAT      O 9986   6.695   1.856   5.574
 2975WAT     H1 9987   6.715   1.946   5.601
 2975WAT     H2 9988   6.617   1.833   5.623
 2976WAT      O 9989   5.375   3.424   5.618
 2976WAT     H1 9990   5.322   3.462   5.547
 2976WAT     H2 9991   5.367   3.487   5.690
 2977WAT      O 9992   5.514   1.991   5.478
 2977WAT     H1 9993   5.567   1.912   5.465
 2977WAT     H2 9994   5.577   2.059   5.501
 2978WAT      O 9995   5.733   1.965   5.783
 2978WAT     H1 9996   5.670   1.894   5.800
 2978WAT     H2 9997   5.679   2.041   5.761
 2979WAT      O 9998   6.851   3.580   5.750
 2979WAT     H1 9999   6.868   3.512   5.686
 2979WAT     H210000   6.781   3.633   5.711
 2980WAT      O10001   5.635   3.619   5.505
 2980WAT     H110002   5.708   3.591   5.450
 2980WAT     H210003   5.661   3.595   5.594
 2981WAT      O10004   5.551   3.231   5.506
 2981WAT     H110005   5.488   3.278   5.561
 2981WAT     H210006   5.563   3.146   5.549
 2982WAT      O10007   6.512   3.254   4.187
 2982WAT     H110008   6.466   3.177   4.220
 2982WAT     H210009   6.593   3.257   4.237
 2983WAT      O10010   6.134   3.483   4.149
 2983WAT     H110011   6.073   3.528   4.092
 2983WAT     H210012   6.220   3.498   4.109
 2984WAT      O10013   5.273   2.142   4.542
 2984WAT     H110014   5.255   2.052   4.570
 2984WAT     H210015   5.233   2.196   4.610
 2985WAT      O10016   6.964   2.313   4.682
 2985WAT     H110017   6.894   2.352   4.630
 2985WAT     H210018   6.991   2.383   4.742
 2986WAT      O10019   5.582   1.960   4.738
 2986WAT     H110020   5.583   2.012   4.658
 2986WAT     H210021   5.499   1.912   4.736
 2987WAT      O10022   5.551   2.131   4.539
 2987WAT     H110023   5.585   2.215   4.510
 2987WAT     H210024   5.457   2.146   4.551
 2988WAT      O10025   5.629   3.121   4.738
 2988WAT     H110026   5.690   3.188   4.709
 2988WAT     H210027   5.543   3.162   4.728
 2989WAT      O10028   6.720   3.267   4.529
 2989WAT     H110029   6.652   3.334   4.528
 2989WAT     H210030   6.774   3.287   4.452
 2990WAT      O10031   6.866   2.250   4.342
 2990WAT     H110032   6.771   2.253   4.355
 2990WAT     H210033   6.898   2.331   4.380
 2991WAT      O10034   5.919   1.880   4.171
 2991WAT     H110035   5.950   1.824   4.100
 2991WAT     H210036   5.826   1.893   4.153
 2992WAT      O10037   6.474   3.452   4.401
 2992WAT     H110038   6.475   3.411   4.314
 2992WAT     H210039   6.419   3.529   4.390
 2993WAT      O10040   6.414   2.942   4.533
 2993WAT     H110041   6.456   2.920   4.450
 2993WAT     H210042   6.486   2.968   4.590
 2994WAT      O10043   6.808   2.782   4.542
 2994WAT     H110044   6.726   2.789   4.495
 2994WAT     H210045   6.868   2.840   4.496
 2995WAT      O10046   6.505   2.460   4.637
 2995WAT     H110047   6.464   2.543   4.662
 2995WAT     H210048   6.432   2.402   4.618
 2996WAT      O10049   5.589   2.416   4.501
 2996WAT     H110050   5.645   2.427   4.424
 2996WAT     H210051   5.641   2.454   4.573
 2997WAT      O10052   6.574   3.465   4.706
 2997WAT     H110053   6.526   3.546   4.687
 2997WAT     H210054   6.505   3.400   4.721
 2998WAT      O10055   5.674   3.082   5.005
 2998WAT     H110056   5.584   3.104   5.029
 2998WAT     H210057   5.677   3.094   4.910
 2999WAT      O10058   5.557   2.769   4.862
 2999WAT     H110059   5.543   2.856   4.899
 2999WAT     H210060   5.469   2.734   4.848
 3000WAT      O10061   5.737   3.363   5.083
 3000WAT     H110062   5.734   3.403   4.996
 3000WAT     H210063   5.720   3.270   5.067
 3001WAT      O10064   6.736   1.892   3.428
 3001WAT     H110065   6.705   1.901   3.518
 3001WAT     H210066   6.813   1.950   3.422
 3002WAT      O10067   6.932   3.441   5.213
 3002WAT     H110068   6.979   3.489   5.281
 3002WAT     H210069   6.994   3.434   5.140
 3003WAT      O10070   6.872   3.160   4.929
 3003WAT     H110071   6.885   3.136   4.837
 3003WAT     H210072   6.876   3.077   4.976
 3004WAT      O10073   6.258   3.531   4.786
 3004WAT     H110074   6.310   3.522   4.866
 3004WAT     H210075   6.174   3.565   4.815
 3005WAT      O10076   6.456   3.559   3.729
 3005WAT     H110077   6.440   3.530   3.818
 3005WAT     H210078   6.439   3.482   3.675
 3006WAT      O10079   6.383   3.473   3.992
 3006WAT     H110080   6.428   3.395   4.023
 3006WAT     H210081   6.417   3.544   4.046
 3007WAT      O10082   6.857   2.366   5.025
 3007WAT     H110083   6.796   2.416   4.972
 3007WAT     H210084   6.825   2.276   5.020
 3008WAT      O10085   5.158   3.050   4.708
 3008WAT     H110086   5.174   3.003   4.626
 3008WAT     H210087   5.204   2.999   4.774
 3009WAT      O10088   5.635   1.963   4.212
 3009WAT     H110089   5.591   2.041   4.178
 3009WAT     H210090   5.691   1.995   4.282
 3010WAT      O10091   6.064   2.250   4.772
 3010WAT     H110092   6.017   2.270   4.853
 3010WAT     H210093   6.023   2.168   4.742
 3011WAT      O10094   6.564   2.372   4.885
 3011WAT     H110095   6.479   2.342   4.917
 3011WAT     H210096   6.548   2.396   4.794
 3012WAT      O10097   6.273   2.522   5.095
 3012WAT     H110098   6.306   2.438   5.061
 3012WAT     H210099   6.352   2.574   5.110
 3013WAT      O10100   5.946   1.925   3.700
 3013WAT     H110101   5.884   1.925   3.772
 3013WAT     H210102   5.938   1.838   3.660
 3014WAT      O10103   5.839   2.017   4.397
 3014WAT     H110104   5.868   2.108   4.389
 3014WAT     H210105   5.893   1.968   4.336
 3015WAT      O10106   5.858   2.565   5.051
 3015WAT     H110107   5.848   2.471   5.036
 3015WAT     H210108   5.942   2.587   5.011
 3016WAT      O10109   5.371   2.206   4.866
 3016WAT     H110110   5.332   2.291   4.887
 3016WAT     H210111   5.302   2.142   4.885
 3017WAT      O10112   6.029   2.215   5.173
 3017WAT     H110113   5.960   2.195   5.237
 3017WAT     H210114   6.103   2.243   5.226
 3018WAT      O10115   5.101   1.998   4.270
 3018WAT     H110116   5.072   2.055   4.341
 3018WAT     H210117   5.176   1.950   4.306
 3019WAT      O10118   5.900   2.266   4.297
 3019WAT     H110119   5.900   2.222   4.212
 3019WAT     H210120   5.989   2.298   4.308
 3020WAT      O10121   5.485   2.254   4.193
 3020WAT     H110122   5.451   2.302   4.269
 3020WAT     H210123   5.409   2.209   4.157
 3021WAT      O10124   6.645   1.885   4.982
 3021WAT     H110125   6.678   1.812   5.034
 3021WAT     H210126   6.649   1.853   4.892
 3022WAT      O10127   5.315   2.987   4.924
 3022WAT     H110128   5.277   2.923   4.984
 3022WAT     H210129   5.346   3.058   4.981
 3023WAT      O10130   5.216   2.146   4.085
 3023WAT     H110131   5.188   2.110   4.169
 3023WAT     H210132   5.210   2.073   4.024
 3024WAT      O10133   5.709   2.576   4.704
 3024WAT     H110134   5.679   2.664   4.726
 3024WAT     H210135   5.805   2.582   4.707
 3025WAT      O10136   6.638   2.896   4.343
 3025WAT     H110137   6.710   2.946   4.304
 3025WAT     H210138   6.618   2.829   4.278
 3026WAT      O10139   6.184   2.036   3.757
 3026WAT     H110140   6.102   1.986   3.749
 3026WAT     H210141   6.164   2.120   3.715
 3027WAT      O10142   6.176   2.904   4.931
 3027WAT     H110143   6.169   2.811   4.906
 3027WAT     H210144   6.113   2.913   5.003
 3028WAT      O10145   5.315   2.660   4.819
 3028WAT     H110146   5.279   2.727   4.877
 3028WAT     H210147   5.285   2.577   4.856
 3029WAT      O10148   5.635   2.706   5.107
 3029WAT     H110149   5.605   2.721   5.017
 3029WAT     H210150   5.712   2.650   5.098
 3030WAT      O10151   6.169   3.186   4.906
 3030WAT     H110152   6.171   3.093   4.885
 3030WAT     H210153   6.098   3.194   4.970
 3031WAT      O10154   6.790   2.850   4.841
 3031WAT     H110155   6.718   2.909   4.821
 3031WAT     H210156   6.843   2.849   4.761
 3032WAT      O10157   6.785   3.290   3.806
 3032WAT     H110158   6.721   3.224   3.834
 3032WAT     H210159   6.747   3.330   3.729
 3033WAT      O10160   6.112   3.350   4.616
 3033WAT     H110161   6.177   3.370   4.684
 3033WAT     H210162   6.149   3.274   4.571
 3034WAT      O10163   5.472   1.833   3.940
 3034WAT     H110164   5.459   1.832   4.035
 3034WAT     H210165   5.390   1.867   3.905
 3035WAT      O10166   6.240   3.150   4.488
 3035WAT     H110167   6.304   3.080   4.499
 3035WAT     H210168   6.292   3.228   4.470
 3036WAT      O10169   6.417   3.230   4.808
 3036WAT     H110170   6.451   3.289   4.876
 3036WAT     H210171   6.325   3.217   4.831
 3037WAT      O10172   5.172   2.009   4.886
 3037WAT     H110173   5.101   2.029   4.947
 3037WAT     H210174   5.214   1.932   4.923
 3038WAT      O10175   5.201   3.408   4.985
 3038WAT     H110176   5.212   3.314   4.971
 3038WAT     H210177   5.136   3.434   4.920
 3039WAT      O10178   6.000   3.235   5.125
 3039WAT     H110179   5.968   3.163   5.179
 3039WAT     H210180   5.933   3.303   5.132
 3040WAT      O10181   6.322   2.258   4.661
 3040WAT     H110182   6.358   2.176   4.694
 3040WAT     H210183   6.236   2.264   4.703
 3041WAT      O10184   6.658   2.154   3.742
 3041WAT     H110185   6.595   2.164   3.671
 3041WAT     H210186   6.609   2.176   3.821
 3042WAT      O10187   6.018   2.524   4.684
 3042WAT     H110188   6.067   2.571   4.750
 3042WAT     H210189   6.032   2.431   4.704
 3043WAT      O10190   6.258   2.054   4.028
 3043WAT     H110191   6.246   2.056   3.933
 3043WAT     H210192   6.353   2.059   4.040
 3044WAT      O10193   6.738   2.145   4.768
 3044WAT     H110194   6.688   2.219   4.802
 3044WAT     H210195   6.820   2.184   4.736
 3045WAT      O10196   6.768   3.387   4.280
 3045WAT     H110197   6.780   3.469   4.327
 3045WAT     H210198   6.854   3.366   4.245
 3046WAT      O10199   5.415   3.515   5.166
 3046WAT     H110200   5.496   3.547   5.207
 3046WAT     H210201   5.364   3.479   5.238
 3047WAT      O10202   6.299   3.125   5.161
 3047WAT     H110203   6.239   3.128   5.087
 3047WAT     H210204   6.269   3.052   5.215
 3048WAT      O10205   6.442   3.498   5.022
 3048WAT     H110206   6.537   3.490   5.017
 3048WAT     H210207   6.427   3.565   5.089
 3049WAT      O10208   6.731   3.436   3.572
 3049WAT     H110209   6.703   3.395   3.490
 3049WAT     H210210   6.711   3.529   3.560
 3050WAT      O10211   5.187   2.763   5.060
 3050WAT     H110212   5.238   2.705   5.118
 3050WAT     H210213   5.114   2.792   5.114
 3051WAT      O10214   5.893   2.904   5.014
 3051WAT     H110215   5.816   2.961   5.005
 3051WAT     H210216   5.911   2.875   4.925
 3052WAT      O10217   6.607   3.077   5.070
 3052WAT     H110218   6.681   3.111   5.019
 3052WAT     H210219   6.531   3.094   5.014
 3053WAT      O10220   5.391   2.578   5.150
 3053WAT     H110221   5.395   2.548   5.241
 3053WAT     H210222   5.476   2.618   5.134
 3054WAT      O10223   5.585   2.436   4.947
 3054WAT     H110224   5.532   2.386   4.884
 3054WAT     H210225   5.652   2.478   4.893
 3055WAT      O10226   6.475   2.882   4.923
 3055WAT     H110227   6.516   2.898   5.008
 3055WAT     H210228   6.381   2.895   4.939
 3056WAT      O10229   6.522   2.616   5.124
 3056WAT     H110230   6.580   2.541   5.115
 3056WAT     H210231   6.539   2.669   5.046
 3057WAT      O10232   5.633   2.132   4.955
 3057WAT     H110233   5.624   2.070   4.882
 3057WAT     H210234   5.575   2.205   4.932
 3058WAT      O10235   5.910   1.988   4.658
 3058WAT     H110236   5.865   1.990   4.573
 3058WAT     H210237   5.847   1.948   4.718
 3059WAT      O10238   5.951   2.877   4.720
 3059WAT     H110239   5.993   2.962   4.703
 3059WAT     H210240   5.859   2.891   4.697
 3060WAT      O10241   6.184   2.651   4.858
 3060WAT     H110242   6.196   2.591   4.932
 3060WAT     H210243   6.270   2.654   4.816
 3061WAT      O10244   6.418   2.706   4.716
 3061WAT     H110245   6.366   2.758   4.656
 3061WAT     H210246   6.453   2.769   4.779
 3062WAT      O10247   5.736   3.508   4.832
 3062WAT     H110248   5.682   3.580   4.800
 3062WAT     H210249   5.761   3.460   4.753
 3063WAT      O10250   5.861   2.305   4.984
 3063WAT     H110251   5.920   2.274   5.053
 3063WAT     H210252   5.779   2.258   5.000
 3064WAT      O10253   6.343   2.266   5.008
 3064WAT     H110254   6.274   2.200   5.001
 3064WAT     H210255   6.415   2.222   5.052
 3065WAT      O10256   6.406   1.926   3.613
 3065WAT     H110257   6.434   1.842   3.649
 3065WAT     H210258   6.329   1.949   3.665
 3066WAT      O10259   6.021   3.631   4.858
 3066WAT     H110260   6.014   3.722   4.888
 3066WAT     H210261   5.931   3.600   4.855
 3067WAT      O10262   6.774   3.401   4.890
 3067WAT     H110263   6.714   3.407   4.816
 3067WAT     H210264   6.787   3.307   4.903
 3068WAT      O10265   6.898   3.175   3.424
 3068WAT     H110266   6.815   3.182   3.471
 3068WAT     H210267   6.916   3.264   3.394
 3069WAT      O10268   6.944   2.935   4.159
 3069WAT     H110269   6.981   2.857   4.118
 3069WAT     H210270   7.008   3.004   4.141
 3070WAT      O10271   6.643   3.074   4.700
 3070WAT     H110272   6.561   3.117   4.726
 3070WAT     H210273   6.683   3.135   4.639
 3071WAT      O10274   6.489   2.182   3.520
 3071WAT     H110275   6.531   2.163   3.436
 3071WAT     H210276   6.458   2.096   3.551
 3072WAT      O10277   6.839   2.673   3.890
 3072WAT     H110278   6.801   2.596   3.846
 3072WAT     H210279   6.766   2.711   3.938
 3073WAT      O10280   6.778   2.588   4.853
 3073WAT     H110281   6.754   2.565   4.763
 3073WAT     H210282   6.804   2.680   4.848
 3074WAT      O10283   5.253   2.432   4.942
 3074WAT     H110284   5.163   2.428   4.976
 3074WAT     H210285   5.307   2.452   5.019
 3075WAT      O10286   6.621   2.110   5.131
 3075WAT     H110287   6.709   2.111   5.169
 3075WAT     H210288   6.623   2.036   5.070
 3076WAT      O10289   6.766   2.495   4.220
 3076WAT     H110290   6.818   2.446   4.156
 3076WAT     H210291   6.825   2.509   4.294
 3077WAT      O10292   6.784   2.504   4.572
 3077WAT     H110293   6.689   2.500   4.583
 3077WAT     H210294   6.802   2.595   4.548
 3078WAT      O10295   6.715   2.421   3.814
 3078WAT     H110296   6.765   2.398   3.892
 3078WAT     H210297   6.695   2.337   3.772
 3079WAT      O10298   5.303   1.859   4.377
 3079WAT     H110299   5.368   1.804   4.333
 3079WAT     H210300   5.345   1.885   4.459
 3080WAT      O10301   6.858   2.285   4.067
 3080WAT     H110302   6.847   2.269   4.161
 3080WAT     H210303   6.934   2.232   4.043
 3081WAT      O10304   6.693   1.879   4.713
 3081WAT     H110305   6.756   1.940   4.749
 3081WAT     H210306   6.707   1.882   4.618
 3082WAT      O10307   6.947   2.068   3.391
 3082WAT     H110308   7.039   2.055   3.370
 3082WAT     H210309   6.945   2.076   3.486
 3083WAT      O10310   6.954   2.145   3.654
 3083WAT     H110311   6.875   2.138   3.706
 3083WAT     H210312   6.975   2.238   3.652
 3084WAT      O10313   6.648   3.549   4.053
 3084WAT     H110314   6.708   3.517   3.985
 3084WAT     H210315   6.674   3.502   4.132
 3085WAT      O10316   5.278   1.875   4.651
 3085WAT     H110317   5.244   1.920   4.728
 3085WAT     H210318   5.245   1.785   4.659
 3086WAT      O10319   5.439   3.192   5.068
 3086WAT     H110320   5.435   3.155   5.156
 3086WAT     H210321   5.452   3.286   5.082
 3087WAT      O10322   5.809   3.348   4.628
 3087WAT     H110323   5.785   3.374   4.539
 3087WAT     H210324   5.903   3.365   4.633
 3088WAT      O10325   6.030   1.994   5.003
 3088WAT     H110326   6.024   2.053   5.078
 3088WAT     H210327   6.124   1.983   4.989
 3089WAT      O10328   6.293   1.960   4.967
 3089WAT     H110329   6.355   1.991   4.901
 3089WAT     H210330   6.348   1.911   5.029
 3090WAT      O10331   6.935   3.550   4.708
 3090WAT     H110332   6.886   3.589   4.636
 3090WAT     H210333   6.874   3.487   4.747
 3091WAT      O10334   5.346   1.828   4.979
 3091WAT     H110335   5.400   1.809   4.902
 3091WAT     H210336   5.352   1.749   5.032
 3092WAT      O10337   5.423   3.487   4.780
 3092WAT     H110338   5.364   3.473   4.854
 3092WAT     H210339   5.422   3.403   4.733
 3093WAT      O10340   6.368   1.816   4.600
 3093WAT     H110341   6.280   1.849   4.580
 3093WAT     H210342   6.357   1.769   4.683
 3094WAT      O10343   6.458   2.037   4.738
 3094WAT     H110344   6.425   1.955   4.701
 3094WAT     H210345   6.553   2.032   4.726
 3095WAT      O10346   6.704   3.614   4.436
 3095WAT     H110347   6.658   3.689   4.398
 3095WAT     H210348   6.641   3.542   4.430
 3096WAT      O10349   5.386   3.223   4.675
 3096WAT     H110350   5.313   3.161   4.668
 3096WAT     H210351   5.392   3.263   4.588
 3097WAT      O10352   5.747   3.445   4.353
 3097WAT     H110353   5.798   3.384   4.301
 3097WAT     H210354   5.812   3.495   4.402
 3098WAT      O10355   6.020   3.534   4.436
 3098WAT     H110356   6.049   3.508   4.348
 3098WAT     H210357   6.072   3.479   4.495
 3099WAT      O10358   6.142   1.908   4.494
 3099WAT     H110359   6.064   1.955   4.522
 3099WAT     H210360   6.113   1.817   4.483
 3100WAT      O10361   6.597   1.978   4.299
 3100WAT     H110362   6.642   1.972   4.214
 3100WAT     H210363   6.571   2.069   4.306
 3101WAT      O10364   6.784   1.941   4.100
 3101WAT     H110365   6.778   1.847   4.085
 3101WAT     H210366   6.862   1.952   4.154
 3102WAT      O10367   5.277   1.938   3.746
 3102WAT     H110368   5.352   1.949   3.689
 3102WAT     H210369   5.230   2.022   3.742
 3103WAT      O10370   5.931   2.150   4.045
 3103WAT     H110371   5.850   2.112   4.011
 3103WAT     H210372   5.981   2.074   4.075
 3104WAT      O10373   6.381   1.816   4.169
 3104WAT     H110374   6.441   1.873   4.216
 3104WAT     H210375   6.307   1.872   4.147
 3105WAT      O10376   6.695   1.856   3.696
 3105WAT     H110377   6.715   1.946   3.723
 3105WAT     H210378   6.617   1.833   3.746
 3106WAT      O10379   5.733   1.965   3.906
 3106WAT     H110380   5.670   1.894   3.922
 3106WAT     H210381   5.679   2.041   3.884
 3107WAT      O10382   6.027   3.626   5.173
 3107WAT     H110383   6.120   3.602   5.177
 3107WAT     H210384   6.026   3.709   5.125
 3108WAT      O10385   6.851   3.580   3.872
 3108WAT     H110386   6.868   3.512   3.808
 3108WAT     H210387   6.781   3.633   3.833
 3109WAT      O10388   5.746   1.892   5.149
 3109WAT     H110389   5.718   1.943   5.073
 3109WAT     H210390   5.784   1.813   5.113
 3110WAT      O10391   6.406   1.834   5.207
 3110WAT     H110392   6.395   1.866   5.296
 3110WAT     H210393   6.488   1.874   5.177
 3111WAT      O10394   6.684   3.549   5.155
 3111WAT     H110395   6.763   3.499   5.134
 3111WAT     H210396   6.713   3.616   5.216
 3112WAT      O10397   6.297   2.636   2.243
 3112WAT     H110398   6.289   2.544   2.216
 3112WAT     H210399   6.255   2.685   2.173
 3113WAT      O10400   6.110   2.814   2.431
 3113WAT     H110401   6.032   2.766   2.460
 3113WAT     H210402   6.175   2.746   2.414
 3114WAT      O10403   6.512   3.254   2.309
 3114WAT     H110404   6.466   3.177   2.342
 3114WAT     H210405   6.593   3.257   2.360
 3115WAT      O10406   5.352   2.341   1.898
 3115WAT     H110407   5.264   2.375   1.887
 3115WAT     H210408   5.381   2.321   1.808
 3116WAT      O10409   6.134   3.483   2.271
 3116WAT     H110410   6.073   3.528   2.214
 3116WAT     H210411   6.220   3.498   2.231
 3117WAT      O10412   6.054   3.081   2.432
 3117WAT     H110413   6.047   2.987   2.416
 3117WAT     H210414   6.130   3.090   2.489
 3118WAT      O10415   5.273   2.142   2.665
 3118WAT     H110416   5.255   2.052   2.693
 3118WAT     H210417   5.233   2.196   2.732
 3119WAT      O10418   6.157   2.362   2.455
 3119WAT     H110419   6.195   2.275   2.444
 3119WAT     H210420   6.147   2.395   2.366
 3120WAT      O10421   5.570   2.199   2.001
 3120WAT     H110422   5.581   2.289   2.032
 3120WAT     H210423   5.479   2.194   1.972
 3121WAT      O10424   6.535   2.111   2.148
 3121WAT     H110425   6.617   2.062   2.152
 3121WAT     H210426   6.538   2.170   2.223
 3122WAT      O10427   5.335   2.391   2.525
 3122WAT     H110428   5.403   2.418   2.587
 3122WAT     H210429   5.303   2.307   2.559
 3123WAT      O10430   5.754   2.496   2.434
 3123WAT     H110431   5.805   2.546   2.498
 3123WAT     H210432   5.807   2.418   2.417
 3124WAT      O10433   6.964   2.313   2.805
 3124WAT     H110434   6.894   2.352   2.753
 3124WAT     H210435   6.991   2.383   2.865
 3125WAT      O10436   5.582   1.960   2.861
 3125WAT     H110437   5.583   2.012   2.780
 3125WAT     H210438   5.499   1.912   2.859
 3126WAT      O10439   6.221   2.971   2.011
 3126WAT     H110440   6.159   3.018   1.954
 3126WAT     H210441   6.272   3.040   2.052
 3127WAT      O10442   6.559   2.305   2.425
 3127WAT     H110443   6.488   2.334   2.483
 3127WAT     H210444   6.595   2.386   2.389
 3128WAT      O10445   5.551   2.131   2.662
 3128WAT     H110446   5.585   2.215   2.632
 3128WAT     H210447   5.457   2.146   2.673
 3129WAT      O10448   5.158   3.040   1.748
 3129WAT     H110449   5.120   3.089   1.675
 3129WAT     H210450   5.184   3.107   1.811
 3130WAT      O10451   6.720   3.267   2.652
 3130WAT     H110452   6.652   3.334   2.651
 3130WAT     H210453   6.774   3.287   2.575
 3131WAT      O10454   6.866   2.250   2.464
 3131WAT     H110455   6.771   2.253   2.478
 3131WAT     H210456   6.898   2.331   2.503
 3132WAT      O10457   5.919   1.880   2.294
 3132WAT     H110458   5.950   1.824   2.222
 3132WAT     H210459   5.826   1.893   2.276
 3133WAT      O10460   6.474   3.452   2.523
 3133WAT     H110461   6.475   3.411   2.436
 3133WAT     H210462   6.419   3.529   2.513
 3134WAT      O10463   6.603   3.124   2.032
 3134WAT     H110464   6.592   3.029   2.044
 3134WAT     H210465   6.603   3.160   2.121
 3135WAT      O10466   6.158   2.686   1.968
 3135WAT     H110467   6.065   2.680   1.990
 3135WAT     H210468   6.173   2.780   1.956
 3136WAT      O10469   6.156   2.314   1.667
 3136WAT     H110470   6.062   2.330   1.676
 3136WAT     H210471   6.188   2.385   1.613
 3137WAT      O10472   6.561   2.843   2.018
 3137WAT     H110473   6.499   2.809   1.953
 3137WAT     H210474   6.559   2.778   2.089
 3138WAT      O10475   6.505   2.460   2.760
 3138WAT     H110476   6.464   2.543   2.785
 3138WAT     H210477   6.432   2.402   2.740
 3139WAT      O10478   5.718   2.739   2.246
 3139WAT     H110479   5.678   2.668   2.196
 3139WAT     H210480   5.727   2.705   2.335
 3140WAT      O10481   5.765   3.108   2.462
 3140WAT     H110482   5.735   3.047   2.394
 3140WAT     H210483   5.860   3.111   2.451
 3141WAT      O10484   5.589   2.416   2.624
 3141WAT     H110485   5.645   2.427   2.546
 3141WAT     H210486   5.641   2.454   2.695
 3142WAT      O10487   6.574   3.465   2.828
 3142WAT     H110488   6.526   3.546   2.809
 3142WAT     H210489   6.505   3.400   2.844
 3143WAT      O10490   6.378   2.766   1.719
 3143WAT     H110491   6.422   2.683   1.704
 3143WAT     H210492   6.450   2.830   1.727
 3144WAT      O10493   6.189   3.260   2.115
 3144WAT     H110494   6.233   3.335   2.074
 3144WAT     H210495   6.183   3.285   2.208
 3145WAT      O10496   6.736   1.892   1.550
 3145WAT     H110497   6.705   1.901   1.640
 3145WAT     H210498   6.813   1.950   1.545
 3146WAT      O10499   5.388   2.628   1.996
 3146WAT     H110500   5.376   2.701   1.935
 3146WAT     H210501   5.357   2.552   1.948
 3147WAT      O10502   6.932   3.441   3.335
 3147WAT     H110503   6.979   3.489   3.403
 3147WAT     H210504   6.994   3.434   3.263
 3148WAT      O10505   6.258   3.531   2.908
 3148WAT     H110506   6.310   3.522   2.989
 3148WAT     H210507   6.174   3.565   2.938
 3149WAT      O10508   6.456   3.559   1.851
 3149WAT     H110509   6.440   3.530   1.941
 3149WAT     H210510   6.439   3.482   1.798
 3150WAT      O10511   5.704   3.537   2.029
 3150WAT     H110512   5.686   3.445   2.008
 3150WAT     H210513   5.618   3.573   2.053
 3151WAT      O10514   6.426   3.310   1.707
 3151WAT     H110515   6.357   3.310   1.641
 3151WAT     H210516   6.500   3.268   1.664
 3152WAT      O10517   6.383   3.473   2.115
 3152WAT     H110518   6.428   3.395   2.146
 3152WAT     H210519   6.417   3.544   2.169
 3153WAT      O10520   6.857   2.366   3.148
 3153WAT     H110521   6.796   2.416   3.095
 3153WAT     H210522   6.825   2.276   3.142
 3154WAT      O10523   5.635   1.963   2.334
 3154WAT     H110524   5.591   2.041   2.301
 3154WAT     H210525   5.691   1.995   2.405
 3155WAT      O10526   6.064   2.250   2.894
 3155WAT     H110527   6.017   2.270   2.976
 3155WAT     H210528   6.023   2.168   2.864
 3156WAT      O10529   6.564   2.372   3.007
 3156WAT     H110530   6.479   2.342   3.040
 3156WAT     H210531   6.548   2.396   2.916
 3157WAT      O10532   5.946   1.925   1.822
 3157WAT     H110533   5.884   1.925   1.895
 3157WAT     H210534   5.938   1.838   1.783
 3158WAT      O10535   5.839   2.017   2.520
 3158WAT     H110536   5.868   2.108   2.512
 3158WAT     H210537   5.893   1.968   2.459
 3159WAT      O10538   5.614   2.475   2.107
 3159WAT     H110539   5.591   2.454   2.197
 3159WAT     H210540   5.536   2.518   2.072
 3160WAT      O10541   6.337   2.476   1.967
 3160WAT     H110542   6.277   2.548   1.948
 3160WAT     H210543   6.392   2.470   1.889
 3161WAT      O10544   6.198   2.339   2.170
 3161WAT     H110545   6.237   2.371   2.089
 3161WAT     H210546   6.234   2.252   2.181
 3162WAT      O10547   6.029   2.215   3.296
 3162WAT     H110548   5.960   2.195   3.359
 3162WAT     H210549   6.103   2.243   3.349
 3163WAT      O10550   5.101   1.998   2.392
 3163WAT     H110551   5.072   2.055   2.463
 3163WAT     H210552   5.176   1.950   2.428
 3164WAT      O10553   5.120   2.393   1.513
 3164WAT     H110554   5.112   2.487   1.527
 3164WAT     H210555   5.085   2.378   1.425
 3165WAT      O10556   6.256   2.599   2.579
 3165WAT     H110557   6.183   2.649   2.614
 3165WAT     H210558   6.216   2.517   2.549
 3166WAT      O10559   5.900   2.266   2.420
 3166WAT     H110560   5.900   2.222   2.335
 3166WAT     H210561   5.989   2.298   2.431
 3167WAT      O10562   5.485   2.254   2.316
 3167WAT     H110563   5.451   2.302   2.391
 3167WAT     H210564   5.409   2.209   2.280
 3168WAT      O10565   5.906   2.366   1.719
 3168WAT     H110566   5.918   2.362   1.814
 3168WAT     H210567   5.868   2.452   1.703
 3169WAT      O10568   6.302   2.144   2.521
 3169WAT     H110569   6.304   2.189   2.605
 3169WAT     H210570   6.278   2.054   2.542
 3170WAT      O10571   5.807   2.597   1.659
 3170WAT     H110572   5.751   2.552   1.596
 3170WAT     H210573   5.878   2.633   1.605
 3171WAT      O10574   6.645   1.885   3.104
 3171WAT     H110575   6.678   1.812   3.157
 3171WAT     H210576   6.649   1.853   3.014
 3172WAT      O10577   5.930   2.672   2.595
 3172WAT     H110578   5.967   2.625   2.669
 3172WAT     H210579   5.911   2.759   2.629
 3173WAT      O10580   5.216   2.146   2.207
 3173WAT     H110581   5.188   2.110   2.291
 3173WAT     H210582   5.210   2.073   2.146
 3174WAT      O10583   5.562   2.997   1.886
 3174WAT     H110584   5.484   2.943   1.870
 3174WAT     H210585   5.635   2.945   1.852
 3175WAT      O10586   6.638   2.896   2.465
 3175WAT     H110587   6.710   2.946   2.426
 3175WAT     H210588   6.618   2.829   2.401
 3176WAT      O10589   6.184   2.036   1.880
 3176WAT     H110590   6.102   1.986   1.872
 3176WAT     H210591   6.164   2.120   1.838
 3177WAT      O10592   6.455   2.473   1.709
 3177WAT     H110593   6.544   2.504   1.692
 3177WAT     H210594   6.452   2.386   1.670
 3178WAT      O10595   6.055   3.090   1.777
 3178WAT     H110596   6.089   3.165   1.728
 3178WAT     H210597   5.972   3.122   1.813
 3179WAT      O10598   6.682   2.604   1.656
 3179WAT     H110599   6.674   2.647   1.571
 3179WAT     H210600   6.754   2.650   1.699
 3180WAT      O10601   6.785   3.290   1.929
 3180WAT     H110602   6.721   3.224   1.956
 3180WAT     H210603   6.747   3.330   1.851
 3181WAT      O10604   6.343   3.022   2.314
 3181WAT     H110605   6.378   2.963   2.248
 3181WAT     H210606   6.255   2.990   2.331
 3182WAT      O10607   5.952   3.098   2.054
 3182WAT     H110608   6.021   3.153   2.092
 3182WAT     H210609   5.873   3.153   2.058
 3183WAT      O10610   5.166   2.660   1.603
 3183WAT     H110611   5.253   2.688   1.632
 3183WAT     H210612   5.117   2.741   1.592
 3184WAT      O10613   5.882   2.799   2.016
 3184WAT     H110614   5.928   2.880   2.038
 3184WAT     H210615   5.847   2.767   2.099
 3185WAT      O10616   6.112   3.350   2.738
 3185WAT     H110617   6.177   3.370   2.806
 3185WAT     H210618   6.149   3.274   2.693
 3186WAT      O10619   5.472   1.833   2.063
 3186WAT     H110620   5.459   1.832   2.158
 3186WAT     H210621   5.390   1.867   2.028
 3187WAT      O10622   6.240   3.150   2.610
 3187WAT     H110623   6.304   3.080   2.622
 3187WAT     H210624   6.292   3.228   2.592
 3188WAT      O10625   6.624   3.179   1.583
 3188WAT     H110626   6.602   3.107   1.642
 3188WAT     H210627   6.585   3.154   1.499
 3189WAT      O10628   6.582   2.970   1.749
 3189WAT     H110629   6.554   3.017   1.828
 3189WAT     H210630   6.662   2.924   1.776
 3190WAT      O10631   5.804   3.320   1.742
 3190WAT     H110632   5.803   3.393   1.680
 3190WAT     H210633   5.712   3.295   1.751
 3191WAT      O10634   5.364   2.842   1.816
 3191WAT     H110635   5.304   2.916   1.817
 3191WAT     H210636   5.412   2.851   1.734
 3192WAT      O10637   6.322   2.258   2.784
 3192WAT     H110638   6.358   2.176   2.817
 3192WAT     H210639   6.236   2.264   2.825
 3193WAT      O10640   6.658   2.154   1.865
 3193WAT     H110641   6.595   2.164   1.793
 3193WAT     H210642   6.609   2.176   1.944
 3194WAT      O10643   6.103   3.326   1.608
 3194WAT     H110644   6.113   3.306   1.515
 3194WAT     H210645   6.013   3.301   1.629
 3195WAT      O10646   5.855   2.382   2.006
 3195WAT     H110647   5.784   2.429   2.050
 3195WAT     H210648   5.883   2.316   2.070
 3196WAT      O10649   6.018   2.524   2.806
 3196WAT     H110650   6.067   2.571   2.873
 3196WAT     H210651   6.032   2.431   2.827
 3197WAT      O10652   6.258   2.054   2.150
 3197WAT     H110653   6.246   2.056   2.055
 3197WAT     H210654   6.353   2.059   2.162
 3198WAT      O10655   5.967   3.578   2.078
 3198WAT     H110656   5.992   3.574   1.985
 3198WAT     H210657   5.872   3.565   2.077
 3199WAT      O10658   5.675   2.213   1.744
 3199WAT     H110659   5.760   2.256   1.737
 3199WAT     H210660   5.639   2.244   1.827
 3200WAT      O10661   6.738   2.145   2.890
 3200WAT     H110662   6.688   2.219   2.924
 3200WAT     H210663   6.820   2.184   2.859
 3201WAT      O10664   6.567   2.670   2.235
 3201WAT     H110665   6.473   2.671   2.253
 3201WAT     H210666   6.599   2.591   2.280
 3202WAT      O10667   5.565   2.838   1.591
 3202WAT     H110668   5.642   2.827   1.647
 3202WAT     H210669   5.573   2.768   1.526
 3203WAT      O10670   5.435   2.581   1.659
 3203WAT     H110671   5.443   2.486   1.671
 3203WAT     H210672   5.524   2.614   1.670
 3204WAT      O10673   6.768   3.387   2.403
 3204WAT     H110674   6.780   3.469   2.450
 3204WAT     H210675   6.854   3.366   2.368
 3205WAT      O10676   5.515   3.596   2.370
 3205WAT     H110677   5.589   3.541   2.397
 3205WAT     H210678   5.553   3.683   2.356
 3206WAT      O10679   5.203   3.203   1.957
 3206WAT     H110680   5.111   3.227   1.956
 3206WAT     H210681   5.250   3.286   1.945
 3207WAT      O10682   6.442   3.498   3.145
 3207WAT     H110683   6.537   3.490   3.140
 3207WAT     H210684   6.427   3.565   3.212
 3208WAT      O10685   6.731   3.436   1.694
 3208WAT     H110686   6.703   3.395   1.613
 3208WAT     H210687   6.711   3.529   1.682
 3209WAT      O10688   5.878   3.035   1.538
 3209WAT     H110689   5.867   2.974   1.611
 3209WAT     H210690   5.861   2.983   1.460
 3210WAT      O10691   6.202   2.942   1.599
 3210WAT     H110692   6.147   2.986   1.663
 3210WAT     H210693   6.264   2.891   1.651
 3211WAT      O10694   5.768   2.838   1.789
 3211WAT     H110695   5.811   2.821   1.873
 3211WAT     H210696   5.781   2.757   1.739
 3212WAT      O10697   6.020   2.740   1.513
 3212WAT     H110698   6.072   2.668   1.477
 3212WAT     H210699   6.084   2.804   1.543
 3213WAT      O10700   5.910   1.988   2.781
 3213WAT     H110701   5.865   1.990   2.696
 3213WAT     H210702   5.847   1.948   2.840
 3214WAT      O10703   5.658   2.445   1.483
 3214WAT     H110704   5.638   2.359   1.519
 3214WAT     H210705   5.641   2.436   1.389
 3215WAT      O10706   5.861   2.305   3.107
 3215WAT     H110707   5.920   2.274   3.176
 3215WAT     H210708   5.779   2.258   3.122
 3216WAT      O10709   6.343   2.266   3.130
 3216WAT     H110710   6.274   2.200   3.124
 3216WAT     H210711   6.415   2.222   3.175
 3217WAT      O10712   6.406   1.926   1.736
 3217WAT     H110713   6.434   1.842   1.772
 3217WAT     H210714   6.329   1.949   1.787
 3218WAT      O10715   5.538   2.155   1.482
 3218WAT     H110716   5.568   2.156   1.391
 3218WAT     H210717   5.612   2.120   1.532
 3219WAT      O10718   5.860   2.049   1.580
 3219WAT     H110719   5.825   1.982   1.523
 3219WAT     H210720   5.880   2.003   1.662
 3220WAT      O10721   6.076   3.548   1.742
 3220WAT     H110722   6.166   3.582   1.745
 3220WAT     H210723   6.079   3.476   1.680
 3221WAT      O10724   5.440   3.085   1.565
 3221WAT     H110725   5.484   3.140   1.631
 3221WAT     H210726   5.489   3.003   1.566
 3222WAT      O10727   5.621   3.197   2.076
 3222WAT     H110728   5.591   3.185   2.166
 3222WAT     H210729   5.611   3.111   2.036
 3223WAT      O10730   6.774   3.401   3.013
 3223WAT     H110731   6.714   3.407   2.939
 3223WAT     H210732   6.787   3.307   3.026
 3224WAT      O10733   6.898   3.175   1.547
 3224WAT     H110734   6.815   3.182   1.594
 3224WAT     H210735   6.916   3.264   1.516
 3225WAT      O10736   6.844   2.850   1.797
 3225WAT     H110737   6.920   2.907   1.808
 3225WAT     H210738   6.845   2.793   1.874
 3226WAT      O10739   6.944   2.935   2.281
 3226WAT     H110740   6.981   2.857   2.241
 3226WAT     H210741   7.008   3.004   2.264
 3227WAT      O10742   6.849   2.879   1.513
 3227WAT     H110743   6.876   2.970   1.500
 3227WAT     H210744   6.830   2.873   1.606
 3228WAT      O10745   6.489   2.182   1.642
 3228WAT     H110746   6.531   2.163   1.558
 3228WAT     H210747   6.458   2.096   1.673
 3229WAT      O10748   6.839   2.673   2.012
 3229WAT     H110749   6.801   2.596   1.969
 3229WAT     H210750   6.766   2.711   2.061
 3230WAT      O10751   6.621   2.110   3.253
 3230WAT     H110752   6.709   2.111   3.292
 3230WAT     H210753   6.623   2.036   3.192
 3231WAT      O10754   5.115   2.423   1.814
 3231WAT     H110755   5.025   2.449   1.797
 3231WAT     H210756   5.164   2.450   1.736
 3232WAT      O10757   6.766   2.495   2.342
 3232WAT     H110758   6.818   2.446   2.279
 3232WAT     H210759   6.825   2.509   2.417
 3233WAT      O10760   5.369   2.329   1.605
 3233WAT     H110761   5.440   2.287   1.557
 3233WAT     H210762   5.298   2.336   1.542
 3234WAT      O10763   5.334   1.934   1.509
 3234WAT     H110764   5.406   1.988   1.541
 3234WAT     H210765   5.361   1.907   1.422
 3235WAT      O10766   6.715   2.421   1.936
 3235WAT     H110767   6.765   2.398   2.015
 3235WAT     H210768   6.695   2.337   1.894
 3236WAT      O10769   5.303   1.859   2.500
 3236WAT     H110770   5.368   1.804   2.456
 3236WAT     H210771   5.345   1.885   2.582
 3237WAT      O10772   6.858   2.285   2.189
 3237WAT     H110773   6.847   2.269   2.283
 3237WAT     H210774   6.934   2.232   2.165
 3238WAT      O10775   6.693   1.879   2.835
 3238WAT     H110776   6.756   1.940   2.872
 3238WAT     H210777   6.707   1.882   2.741
 3239WAT      O10778   6.947   2.068   1.514
 3239WAT     H110779   7.039   2.055   1.493
 3239WAT     H210780   6.945   2.076   1.609
 3240WAT      O10781   6.954   2.145   1.776
 3240WAT     H110782   6.875   2.138   1.829
 3240WAT     H210783   6.975   2.238   1.775
 3241WAT      O10784   6.648   3.549   2.175
 3241WAT     H110785   6.708   3.517   2.108
 3241WAT     H210786   6.674   3.502   2.255
 3242WAT      O10787   5.278   1.875   2.774
 3242WAT     H110788   5.244   1.920   2.850
 3242WAT     H210789   5.245   1.785   2.782
 3243WAT      O10790   6.030   1.994   3.126
 3243WAT     H110791   6.024   2.053   3.201
 3243WAT     H210792   6.124   1.983   3.112
 3244WAT      O10793   6.293   1.960   3.090
 3244WAT     H110794   6.355   1.991   3.024
 3244WAT     H210795   6.348   1.911   3.152
 3245WAT      O10796   6.935   3.550   2.831
 3245WAT     H110797   6.886   3.589   2.759
 3245WAT     H210798   6.874   3.487   2.870
 3246WAT      O10799   6.368   1.816   2.723
 3246WAT     H110800   6.280   1.849   2.702
 3246WAT     H210801   6.357   1.769   2.805
 3247WAT      O10802   6.458   2.037   2.861
 3247WAT     H110803   6.425   1.955   2.823
 3247WAT     H210804   6.553   2.032   2.849
 3248WAT      O10805   6.704   3.614   2.558
 3248WAT     H110806   6.658   3.689   2.521
 3248WAT     H210807   6.641   3.542   2.553
 3249WAT      O10808   5.747   3.445   2.476
 3249WAT     H110809   5.798   3.384   2.423
 3249WAT     H210810   5.812   3.495   2.525
 3250WAT      O10811   6.020   3.534   2.559
 3250WAT     H110812   6.049   3.508   2.471
 3250WAT     H210813   6.072   3.479   2.618
 3251WAT      O10814   6.142   1.908   2.617
 3251WAT     H110815   6.064   1.955   2.645
 3251WAT     H210816   6.113   1.817   2.606
 3252WAT      O10817   6.597   1.978   2.421
 3252WAT     H110818   6.642   1.972   2.336
 3252WAT     H210819   6.571   2.069   2.428
 3253WAT      O10820   6.784   1.941   2.222
 3253WAT     H110821   6.778   1.847   2.207
 3253WAT     H210822   6.862   1.952   2.277
 3254WAT      O10823   5.214   3.555   2.118
 3254WAT     H110824   5.198   3.492   2.188
 3254WAT     H210825   5.128   3.576   2.083
 3255WAT      O10826   5.277   1.938   1.869
 3255WAT     H110827   5.352   1.949   1.811
 3255WAT     H210828   5.230   2.022   1.864
 3256WAT      O10829   5.931   2.150   2.168
 3256WAT     H110830   5.850   2.112   2.134
 3256WAT     H210831   5.981   2.074   2.198
 3257WAT      O10832   6.381   1.816   2.292
 3257WAT     H110833   6.441   1.873   2.339
 3257WAT     H210834   6.307   1.872   2.269
 3258WAT      O10835   6.695   1.856   1.819
 3258WAT     H110836   6.715   1.946   1.846
 3258WAT     H210837   6.617   1.833   1.868
 3259WAT      O10838   5.375   3.424   1.863
 3259WAT     H110839   5.322   3.462   1.793
 3259WAT     H210840   5.367   3.487   1.935
 3260WAT      O10841   5.514   1.991   1.723
 3260WAT     H110842   5.567   1.912   1.710
 3260WAT     H210843   5.577   2.059   1.746
 3261WAT      O10844   5.733   1.965   2.028
 3261WAT     H110845   5.670   1.894   2.045
 3261WAT     H210846   5.679   2.041   2.007
 3262WAT      O10847   6.851   3.580   1.995
 3262WAT     H110848   6.868   3.512   1.931
 3262WAT     H210849   6.781   3.633   1.956
 3263WAT      O10850   5.746   1.892   3.272
 3263WAT     H110851   5.718   1.943   3.195
 3263WAT     H210852   5.784   1.813   3.235
 3264WAT      O10853   5.551   3.231   1.751
 3264WAT     H110854   5.488   3.278   1.806
 3264WAT     H210855   5.563   3.146   1.794
 3265WAT      O10856   6.406   1.834   3.330
 3265WAT     H110857   6.395   1.866   3.419
 3265WAT     H210858   6.488   1.874   3.300
 3266WAT      O10859   6.684   3.549   3.278
 3266WAT     H110860   6.763   3.499   3.257
 3266WAT     H210861   6.713   3.616   3.338
 3267WAT      O10862   6.297   2.636   0.366
 3267WAT     H110863   6.289   2.544   0.339
 3267WAT     H210864   6.255   2.685   0.295
 3268WAT      O10865   6.110   2.814   0.554
 3268WAT     H110866   6.032   2.766   0.583
 3268WAT     H210867   6.175   2.746   0.537
 3269WAT      O10868   5.511   2.845   0.642
 3269WAT     H110869   5.428   2.819   0.682
 3269WAT     H210870   5.572   2.852   0.715
 3270WAT      O10871   6.512   3.254   0.432
 3270WAT     H110872   6.466   3.177   0.465
 3270WAT     H210873   6.593   3.257   0.482
 3271WAT      O10874   5.509   3.248   0.661
 3271WAT     H110875   5.540   3.159   0.643
 3271WAT     H210876   5.584   3.304   0.639
 3272WAT      O10877   5.149   2.601   0.609
 3272WAT     H110878   5.206   2.524   0.609
 3272WAT     H210879   5.149   2.631   0.518
 3273WAT      O10880   6.134   3.483   0.394
 3273WAT     H110881   6.073   3.528   0.337
 3273WAT     H210882   6.220   3.498   0.354
 3274WAT      O10883   6.054   3.081   0.555
 3274WAT     H110884   6.047   2.987   0.539
 3274WAT     H210885   6.130   3.090   0.612
 3275WAT      O10886   5.273   2.142   0.787
 3275WAT     H110887   5.255   2.052   0.815
 3275WAT     H210888   5.233   2.196   0.855
 3276WAT      O10889   6.157   2.362   0.577
 3276WAT     H110890   6.195   2.275   0.566
 3276WAT     H210891   6.147   2.395   0.488
 3277WAT      O10892   6.535   2.111   0.271
 3277WAT     H110893   6.617   2.062   0.275
 3277WAT     H210894   6.538   2.170   0.346
 3278WAT      O10895   5.335   2.391   0.648
 3278WAT     H110896   5.403   2.418   0.710
 3278WAT     H210897   5.303   2.307   0.681
 3279WAT      O10898   5.754   2.496   0.557
 3279WAT     H110899   5.805   2.546   0.621
 3279WAT     H210900   5.807   2.418   0.539
 3280WAT      O10901   6.964   2.313   0.927
 3280WAT     H110902   6.894   2.352   0.875
 3280WAT     H210903   6.991   2.383   0.987
 3281WAT      O10904   5.582   1.960   0.983
 3281WAT     H110905   5.583   2.012   0.903
 3281WAT     H210906   5.499   1.912   0.981
 3282WAT      O10907   5.707   2.924   0.801
 3282WAT     H110908   5.674   2.987   0.865
 3282WAT     H210909   5.725   2.977   0.723
 3283WAT      O10910   6.559   2.305   0.548
 3283WAT     H110911   6.488   2.334   0.606
 3283WAT     H210912   6.595   2.386   0.512
 3284WAT      O10913   5.551   2.131   0.784
 3284WAT     H110914   5.585   2.215   0.755
 3284WAT     H210915   5.457   2.146   0.796
 3285WAT      O10916   5.629   3.121   0.983
 3285WAT     H110917   5.690   3.188   0.954
 3285WAT     H210918   5.543   3.162   0.974
 3286WAT      O10919   6.720   3.267   0.774
 3286WAT     H110920   6.652   3.334   0.773
 3286WAT     H210921   6.774   3.287   0.698
 3287WAT      O10922   6.866   2.250   0.587
 3287WAT     H110923   6.771   2.253   0.600
 3287WAT     H210924   6.898   2.331   0.625
 3288WAT      O10925   5.919   1.880   0.417
 3288WAT     H110926   5.950   1.824   0.345
 3288WAT     H210927   5.826   1.893   0.398
 3289WAT      O10928   6.474   3.452   0.646
 3289WAT     H110929   6.475   3.411   0.559
 3289WAT     H210930   6.419   3.529   0.635
 3290WAT      O10931   6.414   2.942   0.778
 3290WAT     H110932   6.456   2.920   0.695
 3290WAT     H210933   6.486   2.968   0.836
 3291WAT      O10934   6.808   2.782   0.788
 3291WAT     H110935   6.726   2.789   0.740
 3291WAT     H210936   6.868   2.840   0.741
 3292WAT      O10937   6.505   2.460   0.882
 3292WAT     H110938   6.464   2.543   0.908
 3292WAT     H210939   6.432   2.402   0.863
 3293WAT      O10940   5.718   2.739   0.368
 3293WAT     H110941   5.678   2.668   0.319
 3293WAT     H210942   5.727   2.705   0.457
 3294WAT      O10943   5.765   3.108   0.585
 3294WAT     H110944   5.735   3.047   0.517
 3294WAT     H210945   5.860   3.111   0.574
 3295WAT      O10946   5.589   2.416   0.746
 3295WAT     H110947   5.645   2.427   0.669
 3295WAT     H210948   5.641   2.454   0.818
 3296WAT      O10949   6.574   3.465   0.951
 3296WAT     H110950   6.526   3.546   0.932
 3296WAT     H210951   6.505   3.400   0.966
 3297WAT      O10952   5.674   3.082   1.250
 3297WAT     H110953   5.584   3.104   1.275
 3297WAT     H210954   5.677   3.094   1.155
 3298WAT      O10955   5.557   2.769   1.107
 3298WAT     H110956   5.543   2.856   1.144
 3298WAT     H210957   5.469   2.734   1.093
 3299WAT      O10958   6.189   3.260   0.238
 3299WAT     H110959   6.233   3.335   0.197
 3299WAT     H210960   6.183   3.285   0.330
 3300WAT      O10961   5.737   3.363   1.328
 3300WAT     H110962   5.734   3.403   1.242
 3300WAT     H210963   5.720   3.270   1.312
 3301WAT      O10964   6.932   3.441   1.458
 3301WAT     H110965   6.979   3.489   1.526
 3301WAT     H210966   6.994   3.434   1.385
 3302WAT      O10967   5.152   2.946   0.699
 3302WAT     H110968   5.160   2.959   0.605
 3302WAT     H210969   5.214   2.875   0.718
 3303WAT      O10970   5.277   3.116   0.340
 3303WAT     H110971   5.236   3.130   0.255
 3303WAT     H210972   5.366   3.087   0.320
 3304WAT      O10973   6.872   3.160   1.174
 3304WAT     H110974   6.885   3.136   1.082
 3304WAT     H210975   6.876   3.077   1.221
 3305WAT      O10976   6.258   3.531   1.031
 3305WAT     H110977   6.310   3.522   1.111
 3305WAT     H210978   6.174   3.565   1.060
 3306WAT      O10979   6.383   3.473   0.237
 3306WAT     H110980   6.428   3.395   0.269
 3306WAT     H210981   6.417   3.544   0.292
 3307WAT      O10982   6.857   2.366   1.270
 3307WAT     H110983   6.796   2.416   1.218
 3307WAT     H210984   6.825   2.276   1.265
 3308WAT      O10985   5.158   3.050   0.953
 3308WAT     H110986   5.174   3.003   0.871
 3308WAT     H210987   5.204   2.999   1.020
 3309WAT      O10988   5.635   1.963   0.457
 3309WAT     H110989   5.591   2.041   0.424
 3309WAT     H210990   5.691   1.995   0.527
 3310WAT      O10991   6.064   2.250   1.017
 3310WAT     H110992   6.017   2.270   1.098
 3310WAT     H210993   6.023   2.168   0.987
 3311WAT      O10994   6.564   2.372   1.130
 3311WAT     H110995   6.479   2.342   1.162
 3311WAT     H210996   6.548   2.396   1.039
 3312WAT      O10997   6.273   2.522   1.340
 3312WAT     H110998   6.306   2.438   1.306
 3312WAT     H210999   6.352   2.574   1.355
 3313WAT      O11000   5.839   2.017   0.643
 3313WAT     H111001   5.868   2.108   0.634
 3313WAT     H211002   5.893   1.968   0.581
 3314WAT      O11003   5.614   2.475   0.229
 3314WAT     H111004   5.591   2.454   0.320
 3314WAT     H211005   5.536   2.518   0.195
 3315WAT      O11006   5.858   2.565   1.296
 3315WAT     H111007   5.848   2.471   1.281
 3315WAT     H211008   5.942   2.587   1.257
 3316WAT      O11009   6.198   2.339   0.292
 3316WAT     H111010   6.237   2.371   0.211
 3316WAT     H211011   6.234   2.252   0.304
 3317WAT      O11012   5.371   2.206   1.111
 3317WAT     H111013   5.332   2.291   1.132
 3317WAT     H211014   5.302   2.142   1.130
 3318WAT      O11015   6.029   2.215   1.418
 3318WAT     H111016   5.960   2.195   1.482
 3318WAT     H211017   6.103   2.243   1.472
 3319WAT      O11018   5.101   1.998   0.515
 3319WAT     H111019   5.072   2.055   0.586
 3319WAT     H211020   5.176   1.950   0.551
 3320WAT      O11021   6.256   2.599   0.702
 3320WAT     H111022   6.183   2.649   0.737
 3320WAT     H211023   6.216   2.517   0.672
 3321WAT      O11024   5.900   2.266   0.542
 3321WAT     H111025   5.900   2.222   0.457
 3321WAT     H211026   5.989   2.298   0.553
 3322WAT      O11027   5.485   2.254   0.438
 3322WAT     H111028   5.451   2.302   0.514
 3322WAT     H211029   5.409   2.209   0.402
 3323WAT      O11030   6.302   2.144   0.643
 3323WAT     H111031   6.304   2.189   0.728
 3323WAT     H211032   6.278   2.054   0.664
 3324WAT      O11033   6.645   1.885   1.227
 3324WAT     H111034   6.678   1.812   1.280
 3324WAT     H211035   6.649   1.853   1.137
 3325WAT      O11036   5.315   2.987   1.169
 3325WAT     H111037   5.277   2.923   1.229
 3325WAT     H211038   5.346   3.058   1.226
 3326WAT      O11039   5.930   2.672   0.717
 3326WAT     H111040   5.967   2.625   0.792
 3326WAT     H211041   5.911   2.759   0.751
 3327WAT      O11042   5.216   2.146   0.330
 3327WAT     H111043   5.188   2.110   0.414
 3327WAT     H211044   5.210   2.073   0.269
 3328WAT      O11045   5.709   2.576   0.949
 3328WAT     H111046   5.679   2.664   0.971
 3328WAT     H211047   5.805   2.582   0.953
 3329WAT      O11048   6.638   2.896   0.588
 3329WAT     H111049   6.710   2.946   0.549
 3329WAT     H211050   6.618   2.829   0.523
 3330WAT      O11051   6.176   2.904   1.177
 3330WAT     H111052   6.169   2.811   1.151
 3330WAT     H211053   6.113   2.913   1.248
 3331WAT      O11054   5.566   2.964   0.372
 3331WAT     H111055   5.618   2.883   0.367
 3331WAT     H211056   5.521   2.957   0.457
 3332WAT      O11057   5.315   2.660   1.064
 3332WAT     H111058   5.279   2.727   1.122
 3332WAT     H211059   5.285   2.577   1.101
 3333WAT      O11060   5.635   2.706   1.352
 3333WAT     H111061   5.605   2.721   1.262
 3333WAT     H211062   5.712   2.650   1.343
 3334WAT      O11063   6.169   3.186   1.152
 3334WAT     H111064   6.171   3.093   1.130
 3334WAT     H211065   6.098   3.194   1.215
 3335WAT      O11066   6.790   2.850   1.086
 3335WAT     H111067   6.718   2.909   1.067
 3335WAT     H211068   6.843   2.849   1.006
 3336WAT      O11069   6.343   3.022   0.436
 3336WAT     H111070   6.378   2.963   0.370
 3336WAT     H211071   6.255   2.990   0.453
 3337WAT      O11072   5.952   3.098   0.177
 3337WAT     H111073   6.021   3.153   0.215
 3337WAT     H211074   5.873   3.153   0.180
 3338WAT      O11075   6.112   3.350   0.861
 3338WAT     H111076   6.177   3.370   0.929
 3338WAT     H211077   6.149   3.274   0.816
 3339WAT      O11078   6.240   3.150   0.733
 3339WAT     H111079   6.304   3.080   0.744
 3339WAT     H211080   6.292   3.228   0.715
 3340WAT      O11081   6.417   3.230   1.053
 3340WAT     H111082   6.451   3.289   1.121
 3340WAT     H211083   6.325   3.217   1.076
 3341WAT      O11084   5.172   2.009   1.131
 3341WAT     H111085   5.101   2.029   1.192
 3341WAT     H211086   5.214   1.932   1.169
 3342WAT      O11087   5.201   3.408   1.230
 3342WAT     H111088   5.212   3.314   1.216
 3342WAT     H211089   5.136   3.434   1.165
 3343WAT      O11090   6.000   3.235   1.370
 3343WAT     H111091   5.968   3.163   1.424
 3343WAT     H211092   5.933   3.303   1.377
 3344WAT      O11093   6.322   2.258   0.906
 3344WAT     H111094   6.358   2.176   0.939
 3344WAT     H211095   6.236   2.264   0.948
 3345WAT      O11096   6.018   2.524   0.929
 3345WAT     H111097   6.067   2.571   0.995
 3345WAT     H211098   6.032   2.431   0.949
 3346WAT      O11099   6.258   2.054   0.273
 3346WAT     H111100   6.246   2.056   0.178
 3346WAT     H211101   6.353   2.059   0.285
 3347WAT      O11102   6.738   2.145   1.013
 3347WAT     H111103   6.688   2.219   1.047
 3347WAT     H211104   6.820   2.184   0.981
 3348WAT      O11105   6.567   2.670   0.358
 3348WAT     H111106   6.473   2.671   0.375
 3348WAT     H211107   6.599   2.591   0.402
 3349WAT      O11108   6.768   3.387   0.525
 3349WAT     H111109   6.780   3.469   0.572
 3349WAT     H211110   6.854   3.366   0.490
 3350WAT      O11111   5.515   3.596   0.492
 3350WAT     H111112   5.589   3.541   0.519
 3350WAT     H211113   5.553   3.683   0.478
 3351WAT      O11114   6.299   3.125   1.406
 3351WAT     H111115   6.239   3.128   1.332
 3351WAT     H211116   6.269   3.052   1.460
 3352WAT      O11117   6.442   3.498   1.267
 3352WAT     H111118   6.537   3.490   1.262
 3352WAT     H211119   6.427   3.565   1.334
 3353WAT      O11120   5.187   2.763   1.306
 3353WAT     H111121   5.238   2.705   1.363
 3353WAT     H211122   5.114   2.792   1.359
 3354WAT      O11123   5.893   2.904   1.259
 3354WAT     H111124   5.816   2.961   1.250
 3354WAT     H211125   5.911   2.875   1.170
 3355WAT      O11126   6.607   3.077   1.315
 3355WAT     H111127   6.681   3.111   1.264
 3355WAT     H211128   6.531   3.094   1.259
 3356WAT      O11129   5.391   2.578   1.395
 3356WAT     H111130   5.395   2.548   1.486
 3356WAT     H211131   5.476   2.618   1.379
 3357WAT      O11132   5.585   2.436   1.192
 3357WAT     H111133   5.532   2.386   1.129
 3357WAT     H211134   5.652   2.478   1.138
 3358WAT      O11135   6.475   2.882   1.168
 3358WAT     H111136   6.516   2.898   1.253
 3358WAT     H211137   6.381   2.895   1.185
 3359WAT      O11138   6.522   2.616   1.369
 3359WAT     H111139   6.580   2.541   1.360
 3359WAT     H211140   6.539   2.669   1.291
 3360WAT      O11141   5.633   2.132   1.200
 3360WAT     H111142   5.624   2.070   1.127
 3360WAT     H211143   5.575   2.205   1.177
 3361WAT      O11144   5.910   1.988   0.903
 3361WAT     H111145   5.865   1.990   0.819
 3361WAT     H211146   5.847   1.948   0.963
 3362WAT      O11147   5.951   2.877   0.965
 3362WAT     H111148   5.993   2.962   0.948
 3362WAT     H211149   5.859   2.891   0.942
 3363WAT      O11150   6.184   2.651   1.104
 3363WAT     H111151   6.196   2.591   1.178
 3363WAT     H211152   6.270   2.654   1.062
 3364WAT      O11153   6.418   2.706   0.961
 3364WAT     H111154   6.366   2.758   0.901
 3364WAT     H211155   6.453   2.769   1.024
 3365WAT      O11156   5.736   3.508   1.077
 3365WAT     H111157   5.682   3.580   1.045
 3365WAT     H211158   5.761   3.460   0.998
 3366WAT      O11159   5.861   2.305   1.229
 3366WAT     H111160   5.920   2.274   1.298
 3366WAT     H211161   5.779   2.258   1.245
 3367WAT      O11162   6.343   2.266   1.253
 3367WAT     H111163   6.274   2.200   1.246
 3367WAT     H211164   6.415   2.222   1.297
 3368WAT      O11165   6.021   3.631   1.103
 3368WAT     H111166   6.014   3.722   1.133
 3368WAT     H211167   5.931   3.600   1.100
 3369WAT      O11168   5.162   3.364   0.433
 3369WAT     H111169   5.195   3.277   0.410
 3369WAT     H211170   5.205   3.385   0.516
 3370WAT      O11171   5.211   3.451   0.707
 3370WAT     H111172   5.167   3.469   0.790
 3370WAT     H211173   5.267   3.527   0.693
 3371WAT      O11174   6.774   3.401   1.136
 3371WAT     H111175   6.714   3.407   1.061
 3371WAT     H211176   6.787   3.307   1.149
 3372WAT      O11177   5.194   2.702   0.343
 3372WAT     H111178   5.128   2.675   0.278
 3372WAT     H211179   5.278   2.691   0.298
 3373WAT      O11180   6.944   2.935   0.404
 3373WAT     H111181   6.981   2.857   0.363
 3373WAT     H211182   7.008   3.004   0.386
 3374WAT      O11183   6.643   3.074   0.945
 3374WAT     H111184   6.561   3.117   0.972
 3374WAT     H211185   6.683   3.135   0.884
 3375WAT      O11186   5.298   2.741   0.797
 3375WAT     H111187   5.334   2.732   0.885
 3375WAT     H211188   5.241   2.664   0.787
 3376WAT      O11189   6.778   2.588   1.098
 3376WAT     H111190   6.754   2.565   1.008
 3376WAT     H211191   6.804   2.680   1.093
 3377WAT      O11192   5.253   2.432   1.187
 3377WAT     H111193   5.163   2.428   1.221
 3377WAT     H211194   5.307   2.452   1.264
 3378WAT      O11195   6.621   2.110   1.376
 3378WAT     H111196   6.709   2.111   1.414
 3378WAT     H211197   6.623   2.036   1.315
 3379WAT      O11198   6.766   2.495   0.465
 3379WAT     H111199   6.818   2.446   0.402
 3379WAT     H211200   6.825   2.509   0.539
 3380WAT      O11201   6.784   2.504   0.817
 3380WAT     H111202   6.689   2.500   0.828
 3380WAT     H211203   6.802   2.595   0.793
 3381WAT      O11204   5.303   1.859   0.622
 3381WAT     H111205   5.368   1.804   0.578
 3381WAT     H211206   5.345   1.885   0.704
 3382WAT      O11207   6.858   2.285   0.312
 3382WAT     H111208   6.847   2.269   0.406
 3382WAT     H211209   6.934   2.232   0.288
 3383WAT      O11210   6.693   1.879   0.958
 3383WAT     H111211   6.756   1.940   0.994
 3383WAT     H211212   6.707   1.882   0.863
 3384WAT      O11213   6.648   3.549   0.298
 3384WAT     H111214   6.708   3.517   0.230
 3384WAT     H211215   6.674   3.502   0.377
 3385WAT      O11216   5.278   1.875   0.896
 3385WAT     H111217   5.244   1.920   0.973
 3385WAT     H211218   5.245   1.785   0.905
 3386WAT      O11219   5.439   3.192   1.313
 3386WAT     H111220   5.435   3.155   1.401
 3386WAT     H211221   5.452   3.286   1.327
 3387WAT      O11222   5.809   3.348   0.873
 3387WAT     H111223   5.785   3.374   0.784
 3387WAT     H211224   5.903   3.365   0.879
 3388WAT      O11225   6.030   1.994   1.249
 3388WAT     H111226   6.024   2.053   1.324
 3388WAT     H211227   6.124   1.983   1.234
 3389WAT      O11228   6.293   1.960   1.213
 3389WAT     H111229   6.355   1.991   1.146
 3389WAT     H211230   6.348   1.911   1.274
 3390WAT      O11231   6.935   3.550   0.953
 3390WAT     H111232   6.886   3.589   0.881
 3390WAT     H211233   6.874   3.487   0.993
 3391WAT      O11234   5.346   1.828   1.224
 3391WAT     H111235   5.400   1.809   1.148
 3391WAT     H211236   5.352   1.749   1.277
 3392WAT      O11237   5.423   3.487   1.025
 3392WAT     H111238   5.364   3.473   1.099
 3392WAT     H211239   5.422   3.403   0.978
 3393WAT      O11240   6.368   1.816   0.845
 3393WAT     H111241   6.280   1.849   0.825
 3393WAT     H211242   6.357   1.769   0.928
 3394WAT      O11243   6.458   2.037   0.984
 3394WAT     H111244   6.425   1.955   0.946
 3394WAT     H211245   6.553   2.032   0.971
 3395WAT      O11246   6.704   3.614   0.681
 3395WAT     H111247   6.658   3.689   0.644
 3395WAT     H211248   6.641   3.542   0.675
 3396WAT      O11249   5.386   3.223   0.920
 3396WAT     H111250   5.313   3.161   0.913
 3396WAT     H211251   5.392   3.263   0.833
 3397WAT      O11252   5.747   3.445   0.598
 3397WAT     H111253   5.798   3.384   0.546
 3397WAT     H211254   5.812   3.495   0.648
 3398WAT      O11255   6.020   3.534   0.681
 3398WAT     H111256   6.049   3.508   0.594
 3398WAT     H211257   6.072   3.479   0.740
 3399WAT      O11258   6.142   1.908   0.739
 3399WAT     H111259   6.064   1.955   0.767
 3399WAT     H211260   6.113   1.817   0.728
 3400WAT      O11261   6.597   1.978   0.544
 3400WAT     H111262   6.642   1.972   0.459
 3400WAT     H211263   6.571   2.069   0.551
 3401WAT      O11264   6.784   1.941   0.345
 3401WAT     H111265   6.778   1.847   0.330
 3401WAT     H211266   6.862   1.952   0.399
 3402WAT      O11267   5.214   3.555   0.241
 3402WAT     H111268   5.198   3.492   0.311
 3402WAT     H211269   5.128   3.576   0.206
 3403WAT      O11270   5.931   2.150   0.290
 3403WAT     H111271   5.850   2.112   0.256
 3403WAT     H211272   5.981   2.074   0.321
 3404WAT      O11273   6.381   1.816   0.414
 3404WAT     H111274   6.441   1.873   0.462
 3404WAT     H211275   6.307   1.872   0.392
 3405WAT      O11276   5.746   1.892   1.394
 3405WAT     H111277   5.718   1.943   1.318
 3405WAT     H211278   5.784   1.813   1.358
 3406WAT      O11279   6.406   1.834   1.452
 3406WAT     H111280   6.395   1.866   1.542
 3406WAT     H211281   6.488   1.874   1.422
 3407WAT      O11282   6.684   3.549   1.400
 3407WAT     H111283   6.763   3.499   1.380
 3407WAT     H211284   6.713   3.616   1.461
 3408WAT      O11285   6.297   0.758   5.998
 3408WAT     H111286   6.289   0.667   5.971
 3408WAT     H211287   6.255   0.808   5.928
 3409WAT      O11288   6.110   0.936   6.186
 3409WAT     H111289   6.032   0.888   6.215
 3409WAT     H211290   6.175   0.868   6.169
 3410WAT      O11291   5.511   0.967   6.274
 3410WAT     H111292   5.428   0.942   6.314
 3410WAT     H211293   5.572   0.974   6.348
 3411WAT      O11294   6.512   1.377   6.064
 3411WAT     H111295   6.466   1.300   6.097
 3411WAT     H211296   6.593   1.379   6.115
 3412WAT      O11297   5.509   1.371   6.294
 3412WAT     H111298   5.540   1.282   6.276
 3412WAT     H211299   5.584   1.426   6.271
 3413WAT      O11300   5.352   0.463   5.652
 3413WAT     H111301   5.264   0.498   5.642
 3413WAT     H211302   5.381   0.443   5.563
 3414WAT      O11303   5.149   0.723   6.241
 3414WAT     H111304   5.206   0.647   6.241
 3414WAT     H211305   5.149   0.753   6.150
 3415WAT      O11306   6.134   1.605   6.026
 3415WAT     H111307   6.073   1.651   5.969
 3415WAT     H211308   6.220   1.621   5.986
 3416WAT      O11309   6.054   1.204   6.187
 3416WAT     H111310   6.047   1.110   6.171
 3416WAT     H211311   6.130   1.213   6.244
 3417WAT      O11312   5.273   0.264   6.420
 3417WAT     H111313   5.255   0.175   6.448
 3417WAT     H211314   5.233   0.319   6.487
 3418WAT      O11315   6.157   0.484   6.210
 3418WAT     H111316   6.195   0.397   6.198
 3418WAT     H211317   6.147   0.518   6.121
 3419WAT      O11318   5.570   0.322   5.756
 3419WAT     H111319   5.581   0.412   5.787
 3419WAT     H211320   5.479   0.317   5.727
 3420WAT      O11321   6.535   0.234   5.903
 3420WAT     H111322   6.617   0.185   5.907
 3420WAT     H211323   6.538   0.293   5.978
 3421WAT      O11324   5.335   0.514   6.280
 3421WAT     H111325   5.403   0.540   6.342
 3421WAT     H211326   5.303   0.430   6.314
 3422WAT      O11327   5.754   0.619   6.189
 3422WAT     H111328   5.805   0.668   6.253
 3422WAT     H211329   5.807   0.541   6.171
 3423WAT      O11330   6.221   1.094   5.766
 3423WAT     H111331   6.159   1.140   5.709
 3423WAT     H211332   6.272   1.163   5.807
 3424WAT      O11333   5.707   1.046   6.433
 3424WAT     H111334   5.674   1.109   6.498
 3424WAT     H211335   5.725   1.099   6.355
 3425WAT      O11336   6.559   0.428   6.180
 3425WAT     H111337   6.488   0.457   6.238
 3425WAT     H211338   6.595   0.509   6.144
 3426WAT      O11339   5.551   0.254   6.416
 3426WAT     H111340   5.585   0.338   6.387
 3426WAT     H211341   5.457   0.268   6.428
 3427WAT      O11342   5.158   1.162   5.503
 3427WAT     H111343   5.120   1.211   5.430
 3427WAT     H211344   5.184   1.230   5.566
 3428WAT      O11345   6.720   1.390   6.406
 3428WAT     H111346   6.652   1.457   6.406
 3428WAT     H211347   6.774   1.410   6.330
 3429WAT      O11348   6.866   0.372   6.219
 3429WAT     H111349   6.771   0.376   6.232
 3429WAT     H211350   6.898   0.454   6.258
 3430WAT      O11351   6.474   1.574   6.278
 3430WAT     H111352   6.475   1.534   6.191
 3430WAT     H211353   6.419   1.652   6.268
 3431WAT      O11354   6.603   1.246   5.787
 3431WAT     H111355   6.592   1.152   5.799
 3431WAT     H211356   6.603   1.282   5.875
 3432WAT      O11357   6.414   1.064   6.411
 3432WAT     H111358   6.456   1.043   6.327
 3432WAT     H211359   6.486   1.090   6.468
 3433WAT      O11360   6.158   0.809   5.722
 3433WAT     H111361   6.065   0.802   5.745
 3433WAT     H211362   6.173   0.903   5.711
 3434WAT      O11363   6.156   0.436   5.422
 3434WAT     H111364   6.062   0.452   5.431
 3434WAT     H211365   6.188   0.508   5.367
 3435WAT      O11366   6.808   0.904   6.420
 3435WAT     H111367   6.726   0.911   6.372
 3435WAT     H211368   6.868   0.963   6.373
 3436WAT      O11369   6.561   0.965   5.773
 3436WAT     H111370   6.499   0.931   5.708
 3436WAT     H211371   6.559   0.901   5.844
 3437WAT      O11372   5.718   0.862   6.001
 3437WAT     H111373   5.678   0.790   5.951
 3437WAT     H211374   5.727   0.827   6.090
 3438WAT      O11375   5.765   1.230   6.217
 3438WAT     H111376   5.735   1.170   6.149
 3438WAT     H211377   5.860   1.234   6.206
 3439WAT      O11378   5.589   0.539   6.379
 3439WAT     H111379   5.645   0.550   6.301
 3439WAT     H211380   5.641   0.576   6.450
 3440WAT      O11381   6.378   0.889   5.474
 3440WAT     H111382   6.422   0.805   5.459
 3440WAT     H211383   6.450   0.952   5.482
 3441WAT      O11384   6.189   1.383   5.870
 3441WAT     H111385   6.233   1.457   5.829
 3441WAT     H211386   6.183   1.407   5.963
 3442WAT      O11387   5.388   0.751   5.751
 3442WAT     H111388   5.376   0.824   5.690
 3442WAT     H211389   5.357   0.674   5.703
 3443WAT      O11390   5.152   1.068   6.331
 3443WAT     H111391   5.160   1.082   6.237
 3443WAT     H211392   5.214   0.997   6.351
 3444WAT      O11393   5.277   1.238   5.972
 3444WAT     H111394   5.236   1.252   5.887
 3444WAT     H211395   5.366   1.210   5.952
 3445WAT      O11396   6.456   1.682   5.606
 3445WAT     H111397   6.440   1.653   5.696
 3445WAT     H211398   6.439   1.604   5.552
 3446WAT      O11399   5.704   1.660   5.784
 3446WAT     H111400   5.686   1.568   5.762
 3446WAT     H211401   5.618   1.696   5.808
 3447WAT      O11402   6.426   1.433   5.462
 3447WAT     H111403   6.357   1.432   5.396
 3447WAT     H211404   6.500   1.390   5.419
 3448WAT      O11405   6.383   1.595   5.869
 3448WAT     H111406   6.428   1.517   5.901
 3448WAT     H211407   6.417   1.666   5.924
 3449WAT      O11408   5.614   0.598   5.862
 3449WAT     H111409   5.591   0.576   5.952
 3449WAT     H211410   5.536   0.641   5.827
 3450WAT      O11411   6.337   0.598   5.722
 3450WAT     H111412   6.277   0.671   5.703
 3450WAT     H211413   6.392   0.592   5.643
 3451WAT      O11414   6.198   0.462   5.925
 3451WAT     H111415   6.237   0.494   5.843
 3451WAT     H211416   6.234   0.374   5.936
 3452WAT      O11417   5.120   0.515   5.268
 3452WAT     H111418   5.112   0.610   5.282
 3452WAT     H211419   5.085   0.501   5.180
 3453WAT      O11420   6.256   0.721   6.334
 3453WAT     H111421   6.183   0.772   6.369
 3453WAT     H211422   6.216   0.639   6.304
 3454WAT      O11423   5.900   0.389   6.175
 3454WAT     H111424   5.900   0.345   6.090
 3454WAT     H211425   5.989   0.421   6.185
 3455WAT      O11426   5.485   0.377   6.071
 3455WAT     H111427   5.451   0.425   6.146
 3455WAT     H211428   5.409   0.332   6.035
 3456WAT      O11429   5.906   0.489   5.474
 3456WAT     H111430   5.918   0.485   5.569
 3456WAT     H211431   5.868   0.575   5.458
 3457WAT      O11432   6.302   0.266   6.275
 3457WAT     H111433   6.304   0.311   6.360
 3457WAT     H211434   6.278   0.176   6.297
 3458WAT      O11435   5.807   0.720   5.414
 3458WAT     H111436   5.751   0.675   5.351
 3458WAT     H211437   5.878   0.756   5.360
 3459WAT      O11438   5.930   0.795   6.349
 3459WAT     H111439   5.967   0.747   6.424
 3459WAT     H211440   5.911   0.882   6.383
 3460WAT      O11441   5.216   0.269   5.962
 3460WAT     H111442   5.188   0.233   6.046
 3460WAT     H211443   5.210   0.196   5.901
 3461WAT      O11444   5.562   1.119   5.641
 3461WAT     H111445   5.484   1.065   5.625
 3461WAT     H211446   5.635   1.067   5.607
 3462WAT      O11447   6.638   1.019   6.220
 3462WAT     H111448   6.710   1.069   6.181
 3462WAT     H211449   6.618   0.951   6.156
 3463WAT      O11450   6.455   0.596   5.464
 3463WAT     H111451   6.544   0.627   5.447
 3463WAT     H211452   6.452   0.508   5.425
 3464WAT      O11453   5.566   1.086   6.005
 3464WAT     H111454   5.618   1.006   5.999
 3464WAT     H211455   5.521   1.080   6.089
 3465WAT      O11456   6.055   1.213   5.532
 3465WAT     H111457   6.089   1.287   5.482
 3465WAT     H211458   5.972   1.244   5.568
 3466WAT      O11459   6.682   0.727   5.411
 3466WAT     H111460   6.674   0.770   5.326
 3466WAT     H211461   6.754   0.773   5.454
 3467WAT      O11462   6.785   1.412   5.684
 3467WAT     H111463   6.721   1.347   5.711
 3467WAT     H211464   6.747   1.453   5.606
 3468WAT      O11465   6.343   1.145   6.068
 3468WAT     H111466   6.378   1.085   6.002
 3468WAT     H211467   6.255   1.112   6.086
 3469WAT      O11468   5.952   1.221   5.809
 3469WAT     H111469   6.021   1.276   5.847
 3469WAT     H211470   5.873   1.275   5.813
 3470WAT      O11471   5.166   0.783   5.358
 3470WAT     H111472   5.253   0.811   5.387
 3470WAT     H211473   5.117   0.864   5.347
 3471WAT      O11474   5.882   0.921   5.770
 3471WAT     H111475   5.928   1.002   5.793
 3471WAT     H211476   5.847   0.890   5.854
 3472WAT      O11477   6.240   1.273   6.365
 3472WAT     H111478   6.304   1.203   6.376
 3472WAT     H211479   6.292   1.351   6.347
 3473WAT      O11480   6.624   1.301   5.337
 3473WAT     H111481   6.602   1.230   5.397
 3473WAT     H211482   6.585   1.276   5.254
 3474WAT      O11483   5.202   1.704   5.415
 3474WAT     H111484   5.238   1.764   5.349
 3474WAT     H211485   5.188   1.759   5.492
 3475WAT      O11486   6.582   1.093   5.504
 3475WAT     H111487   6.554   1.139   5.582
 3475WAT     H211488   6.662   1.047   5.530
 3476WAT      O11489   5.804   1.442   5.497
 3476WAT     H111490   5.803   1.516   5.435
 3476WAT     H211491   5.712   1.418   5.506
 3477WAT      O11492   5.364   0.964   5.571
 3477WAT     H111493   5.304   1.038   5.572
 3477WAT     H211494   5.412   0.973   5.489
 3478WAT      O11495   6.658   0.276   5.620
 3478WAT     H111496   6.595   0.287   5.548
 3478WAT     H211497   6.609   0.298   5.699
 3479WAT      O11498   6.103   1.449   5.363
 3479WAT     H111499   6.113   1.428   5.270
 3479WAT     H211500   6.013   1.423   5.383
 3480WAT      O11501   5.855   0.504   5.761
 3480WAT     H111502   5.784   0.551   5.805
 3480WAT     H211503   5.883   0.439   5.825
 3481WAT      O11504   6.258   0.177   5.905
 3481WAT     H111505   6.246   0.179   5.810
 3481WAT     H211506   6.353   0.182   5.917
 3482WAT      O11507   5.967   1.700   5.832
 3482WAT     H111508   5.992   1.697   5.740
 3482WAT     H211509   5.872   1.688   5.832
 3483WAT      O11510   5.675   0.335   5.499
 3483WAT     H111511   5.760   0.379   5.492
 3483WAT     H211512   5.639   0.366   5.581
 3484WAT      O11513   6.567   0.792   5.990
 3484WAT     H111514   6.473   0.794   6.007
 3484WAT     H211515   6.599   0.714   6.035
 3485WAT      O11516   5.565   0.960   5.346
 3485WAT     H111517   5.642   0.949   5.402
 3485WAT     H211518   5.573   0.891   5.281
 3486WAT      O11519   5.435   0.704   5.414
 3486WAT     H111520   5.443   0.609   5.426
 3486WAT     H211521   5.524   0.737   5.425
 3487WAT      O11522   6.768   1.509   6.158
 3487WAT     H111523   6.780   1.592   6.205
 3487WAT     H211524   6.854   1.488   6.123
 3488WAT      O11525   5.515   1.719   6.125
 3488WAT     H111526   5.589   1.664   6.152
 3488WAT     H211527   5.553   1.805   6.111
 3489WAT      O11528   5.203   1.325   5.712
 3489WAT     H111529   5.111   1.350   5.711
 3489WAT     H211530   5.250   1.408   5.700
 3490WAT      O11531   5.826   1.636   5.307
 3490WAT     H111532   5.905   1.665   5.262
 3490WAT     H211533   5.774   1.593   5.239
 3491WAT      O11534   6.731   1.559   5.449
 3491WAT     H111535   6.703   1.517   5.368
 3491WAT     H211536   6.711   1.652   5.437
 3492WAT      O11537   5.878   1.158   5.293
 3492WAT     H111538   5.867   1.097   5.366
 3492WAT     H211539   5.861   1.106   5.215
 3493WAT      O11540   6.202   1.064   5.354
 3493WAT     H111541   6.147   1.109   5.418
 3493WAT     H211542   6.264   1.014   5.406
 3494WAT      O11543   5.768   0.960   5.543
 3494WAT     H111544   5.811   0.944   5.628
 3494WAT     H211545   5.781   0.879   5.494
 3495WAT      O11546   6.020   0.863   5.268
 3495WAT     H111547   6.072   0.791   5.232
 3495WAT     H211548   6.084   0.926   5.298
 3496WAT      O11549   5.658   0.567   5.238
 3496WAT     H111550   5.638   0.481   5.274
 3496WAT     H211551   5.641   0.559   5.144
 3497WAT      O11552   5.538   0.277   5.237
 3497WAT     H111553   5.568   0.278   5.146
 3497WAT     H211554   5.612   0.242   5.286
 3498WAT      O11555   6.076   1.671   5.497
 3498WAT     H111556   6.166   1.704   5.499
 3498WAT     H211557   6.079   1.598   5.434
 3499WAT      O11558   5.440   1.208   5.320
 3499WAT     H111559   5.484   1.262   5.386
 3499WAT     H211560   5.489   1.125   5.321
 3500WAT      O11561   5.162   1.487   6.065
 3500WAT     H111562   5.195   1.400   6.042
 3500WAT     H211563   5.205   1.507   6.148
 3501WAT      O11564   5.621   1.320   5.831
 3501WAT     H111565   5.591   1.308   5.921
 3501WAT     H211566   5.611   1.234   5.790
 3502WAT      O11567   5.211   1.574   6.339
 3502WAT     H111568   5.167   1.592   6.422
 3502WAT     H211569   5.267   1.649   6.325
 3503WAT      O11570   6.898   1.298   5.302
 3503WAT     H111571   6.815   1.305   5.349
 3503WAT     H211572   6.916   1.387   5.271
 3504WAT      O11573   6.844   0.972   5.552
 3504WAT     H111574   6.920   1.029   5.563
 3504WAT     H211575   6.845   0.916   5.629
 3505WAT      O11576   5.194   0.825   5.975
 3505WAT     H111577   5.128   0.798   5.911
 3505WAT     H211578   5.278   0.814   5.930
 3506WAT      O11579   6.944   1.058   6.036
 3506WAT     H111580   6.981   0.980   5.996
 3506WAT     H211581   7.008   1.127   6.019
 3507WAT      O11582   6.849   1.002   5.268
 3507WAT     H111583   6.876   1.092   5.255
 3507WAT     H211584   6.830   0.995   5.361
 3508WAT      O11585   6.489   0.304   5.397
 3508WAT     H111586   6.531   0.285   5.313
 3508WAT     H211587   6.458   0.219   5.428
 3509WAT      O11588   6.839   0.795   5.767
 3509WAT     H111589   6.801   0.719   5.724
 3509WAT     H211590   6.766   0.834   5.816
 3510WAT      O11591   5.298   0.863   6.429
 3510WAT     H111592   5.334   0.855   6.517
 3510WAT     H211593   5.241   0.787   6.419
 3511WAT      O11594   5.115   0.546   5.569
 3511WAT     H111595   5.025   0.572   5.552
 3511WAT     H211596   5.164   0.573   5.491
 3512WAT      O11597   6.766   0.618   6.097
 3512WAT     H111598   6.818   0.569   6.034
 3512WAT     H211599   6.825   0.631   6.171
 3513WAT      O11600   6.784   0.626   6.449
 3513WAT     H111601   6.689   0.623   6.461
 3513WAT     H211602   6.802   0.717   6.426
 3514WAT      O11603   5.369   0.451   5.360
 3514WAT     H111604   5.440   0.409   5.312
 3514WAT     H211605   5.298   0.458   5.297
 3515WAT      O11606   6.715   0.544   5.691
 3515WAT     H111607   6.765   0.520   5.769
 3515WAT     H211608   6.695   0.460   5.649
 3516WAT      O11609   6.858   0.407   5.944
 3516WAT     H111610   6.847   0.392   6.038
 3516WAT     H211611   6.934   0.354   5.920
 3517WAT      O11612   6.947   0.190   5.268
 3517WAT     H111613   7.039   0.177   5.248
 3517WAT     H211614   6.945   0.198   5.364
 3518WAT      O11615   6.954   0.267   5.531
 3518WAT     H111616   6.875   0.261   5.584
 3518WAT     H211617   6.975   0.361   5.530
 3519WAT      O11618   6.648   1.671   5.930
 3519WAT     H111619   6.708   1.639   5.863
 3519WAT     H211620   6.674   1.624   6.009
 3520WAT      O11621   5.809   1.470   6.505
 3520WAT     H111622   5.785   1.497   6.417
 3520WAT     H211623   5.903   1.487   6.511
 3521WAT      O11624   6.704   1.736   6.313
 3521WAT     H111625   6.658   1.811   6.276
 3521WAT     H211626   6.641   1.664   6.307
 3522WAT      O11627   5.747   1.567   6.231
 3522WAT     H111628   5.798   1.506   6.178
 3522WAT     H211629   5.812   1.618   6.280
 3523WAT      O11630   6.020   1.656   6.313
 3523WAT     H111631   6.049   1.631   6.226
 3523WAT     H211632   6.072   1.601   6.373
 3524WAT      O11633   5.214   1.678   5.873
 3524WAT     H111634   5.198   1.614   5.943
 3524WAT     H211635   5.128   1.698   5.838
 3525WAT      O11636   5.931   0.272   5.923
 3525WAT     H111637   5.850   0.235   5.889
 3525WAT     H211638   5.981   0.197   5.953
 3526WAT      O11639   5.375   1.547   5.618
 3526WAT     H111640   5.322   1.585   5.547
 3526WAT     H211641   5.367   1.609   5.690
 3527WAT      O11642   6.851   1.703   5.750
 3527WAT     H111643   6.868   1.634   5.686
 3527WAT     H211644   6.781   1.755   5.711
 3528WAT      O11645   5.635   1.742   5.505
 3528WAT     H111646   5.708   1.713   5.450
 3528WAT     H211647   5.661   1.718   5.594
 3529WAT      O11648   5.551   1.353   5.506
 3529WAT     H111649   5.488   1.400   5.561
 3529WAT     H211650   5.563   1.269   5.549
 3530WAT      O11651   6.297   0.758   4.121
 3530WAT     H111652   6.289   0.667   4.094
 3530WAT     H211653   6.255   0.808   4.050
 3531WAT      O11654   6.110   0.936   4.309
 3531WAT     H111655   6.032   0.888   4.338
 3531WAT     H211656   6.175   0.868   4.291
 3532WAT      O11657   5.511   0.967   4.397
 3532WAT     H111658   5.428   0.942   4.437
 3532WAT     H211659   5.572   0.974   4.470
 3533WAT      O11660   6.512   1.377   4.187
 3533WAT     H111661   6.466   1.300   4.220
 3533WAT     H211662   6.593   1.379   4.237
 3534WAT      O11663   5.509   1.371   4.416
 3534WAT     H111664   5.540   1.282   4.398
 3534WAT     H211665   5.584   1.426   4.393
 3535WAT      O11666   5.352   0.463   3.775
 3535WAT     H111667   5.264   0.498   3.765
 3535WAT     H211668   5.381   0.443   3.686
 3536WAT      O11669   5.149   0.723   4.363
 3536WAT     H111670   5.206   0.647   4.363
 3536WAT     H211671   5.149   0.753   4.272
 3537WAT      O11672   6.134   1.605   4.149
 3537WAT     H111673   6.073   1.651   4.092
 3537WAT     H211674   6.220   1.621   4.109
 3538WAT      O11675   6.054   1.204   4.310
 3538WAT     H111676   6.047   1.110   4.293
 3538WAT     H211677   6.130   1.213   4.367
 3539WAT      O11678   5.273   0.264   4.542
 3539WAT     H111679   5.255   0.175   4.570
 3539WAT     H211680   5.233   0.319   4.610
 3540WAT      O11681   6.157   0.484   4.332
 3540WAT     H111682   6.195   0.397   4.321
 3540WAT     H211683   6.147   0.518   4.243
 3541WAT      O11684   5.570   0.322   3.878
 3541WAT     H111685   5.581   0.412   3.909
 3541WAT     H211686   5.479   0.317   3.849
 3542WAT      O11687   6.535   0.234   4.026
 3542WAT     H111688   6.617   0.185   4.030
 3542WAT     H211689   6.538   0.293   4.101
 3543WAT      O11690   5.335   0.514   4.403
 3543WAT     H111691   5.403   0.540   4.465
 3543WAT     H211692   5.303   0.430   4.436
 3544WAT      O11693   5.754   0.619   4.312
 3544WAT     H111694   5.805   0.668   4.376
 3544WAT     H211695   5.807   0.541   4.294
 3545WAT      O11696   6.964   0.436   4.682
 3545WAT     H111697   6.894   0.474   4.630
 3545WAT     H211698   6.991   0.505   4.742
 3546WAT      O11699   6.221   1.094   3.888
 3546WAT     H111700   6.159   1.140   3.832
 3546WAT     H211701   6.272   1.163   3.930
 3547WAT      O11702   5.707   1.046   4.556
 3547WAT     H111703   5.674   1.109   4.620
 3547WAT     H211704   5.725   1.099   4.478
 3548WAT      O11705   6.559   0.428   4.303
 3548WAT     H111706   6.488   0.457   4.361
 3548WAT     H211707   6.595   0.509   4.267
 3549WAT      O11708   5.551   0.254   4.539
 3549WAT     H111709   5.585   0.338   4.510
 3549WAT     H211710   5.457   0.268   4.551
 3550WAT      O11711   5.629   1.243   4.738
 3550WAT     H111712   5.690   1.311   4.709
 3550WAT     H211713   5.543   1.284   4.728
 3551WAT      O11714   5.158   1.162   3.626
 3551WAT     H111715   5.120   1.211   3.552
 3551WAT     H211716   5.184   1.230   3.689
 3552WAT      O11717   6.720   1.390   4.529
 3552WAT     H111718   6.652   1.457   4.528
 3552WAT     H211719   6.774   1.410   4.452
 3553WAT      O11720   6.866   0.372   4.342
 3553WAT     H111721   6.771   0.376   4.355
 3553WAT     H211722   6.898   0.454   4.380
 3554WAT      O11723   6.474   1.574   4.401
 3554WAT     H111724   6.475   1.534   4.314
 3554WAT     H211725   6.419   1.652   4.390
 3555WAT      O11726   6.603   1.246   3.909
 3555WAT     H111727   6.592   1.152   3.922
 3555WAT     H211728   6.603   1.282   3.998
 3556WAT      O11729   6.414   1.064   4.533
 3556WAT     H111730   6.456   1.043   4.450
 3556WAT     H211731   6.486   1.090   4.590
 3557WAT      O11732   6.158   0.809   3.845
 3557WAT     H111733   6.065   0.802   3.868
 3557WAT     H211734   6.173   0.903   3.834
 3558WAT      O11735   6.156   0.436   3.545
 3558WAT     H111736   6.062   0.452   3.553
 3558WAT     H211737   6.188   0.508   3.490
 3559WAT      O11738   6.808   0.904   4.542
 3559WAT     H111739   6.726   0.911   4.495
 3559WAT     H211740   6.868   0.963   4.496
 3560WAT      O11741   6.561   0.965   3.895
 3560WAT     H111742   6.499   0.931   3.831
 3560WAT     H211743   6.559   0.901   3.966
 3561WAT      O11744   6.505   0.583   4.637
 3561WAT     H111745   6.464   0.666   4.662
 3561WAT     H211746   6.432   0.524   4.618
 3562WAT      O11747   5.718   0.862   4.123
 3562WAT     H111748   5.678   0.790   4.074
 3562WAT     H211749   5.727   0.827   4.212
 3563WAT      O11750   5.765   1.230   4.340
 3563WAT     H111751   5.735   1.170   4.272
 3563WAT     H211752   5.860   1.234   4.329
 3564WAT      O11753   5.589   0.539   4.501
 3564WAT     H111754   5.645   0.550   4.424
 3564WAT     H211755   5.641   0.576   4.573
 3565WAT      O11756   6.574   1.588   4.706
 3565WAT     H111757   6.526   1.668   4.687
 3565WAT     H211758   6.505   1.522   4.721
 3566WAT      O11759   5.674   1.204   5.005
 3566WAT     H111760   5.584   1.226   5.029
 3566WAT     H211761   5.677   1.216   4.910
 3567WAT      O11762   6.378   0.889   3.596
 3567WAT     H111763   6.422   0.805   3.581
 3567WAT     H211764   6.450   0.952   3.605
 3568WAT      O11765   5.557   0.891   4.862
 3568WAT     H111766   5.543   0.978   4.899
 3568WAT     H211767   5.469   0.857   4.848
 3569WAT      O11768   6.189   1.383   3.993
 3569WAT     H111769   6.233   1.457   3.951
 3569WAT     H211770   6.183   1.407   4.085
 3570WAT      O11771   5.737   1.485   5.083
 3570WAT     H111772   5.734   1.526   4.996
 3570WAT     H211773   5.720   1.393   5.067
 3571WAT      O11774   5.388   0.751   3.873
 3571WAT     H111775   5.376   0.824   3.812
 3571WAT     H211776   5.357   0.674   3.826
 3572WAT      O11777   6.932   1.564   5.213
 3572WAT     H111778   6.979   1.612   5.281
 3572WAT     H211779   6.994   1.557   5.140
 3573WAT      O11780   5.152   1.068   4.454
 3573WAT     H111781   5.160   1.082   4.360
 3573WAT     H211782   5.214   0.997   4.473
 3574WAT      O11783   5.277   1.238   4.095
 3574WAT     H111784   5.236   1.252   4.010
 3574WAT     H211785   5.366   1.210   4.075
 3575WAT      O11786   6.872   1.283   4.929
 3575WAT     H111787   6.885   1.259   4.837
 3575WAT     H211788   6.876   1.200   4.976
 3576WAT      O11789   6.258   1.653   4.786
 3576WAT     H111790   6.310   1.644   4.866
 3576WAT     H211791   6.174   1.688   4.815
 3577WAT      O11792   6.456   1.682   3.729
 3577WAT     H111793   6.440   1.653   3.818
 3577WAT     H211794   6.439   1.604   3.675
 3578WAT      O11795   5.704   1.660   3.906
 3578WAT     H111796   5.686   1.568   3.885
 3578WAT     H211797   5.618   1.696   3.930
 3579WAT      O11798   6.426   1.433   3.585
 3579WAT     H111799   6.357   1.432   3.519
 3579WAT     H211800   6.500   1.390   3.541
 3580WAT      O11801   6.383   1.595   3.992
 3580WAT     H111802   6.428   1.517   4.023
 3580WAT     H211803   6.417   1.666   4.046
 3581WAT      O11804   6.857   0.488   5.025
 3581WAT     H111805   6.796   0.539   4.972
 3581WAT     H211806   6.825   0.398   5.020
 3582WAT      O11807   5.158   1.172   4.708
 3582WAT     H111808   5.174   1.125   4.626
 3582WAT     H211809   5.204   1.122   4.774
 3583WAT      O11810   6.064   0.372   4.772
 3583WAT     H111811   6.017   0.393   4.853
 3583WAT     H211812   6.023   0.291   4.742
 3584WAT      O11813   6.564   0.494   4.885
 3584WAT     H111814   6.479   0.464   4.917
 3584WAT     H211815   6.548   0.519   4.794
 3585WAT      O11816   6.273   0.644   5.095
 3585WAT     H111817   6.306   0.561   5.061
 3585WAT     H211818   6.352   0.696   5.110
 3586WAT      O11819   5.614   0.598   3.984
 3586WAT     H111820   5.591   0.576   4.075
 3586WAT     H211821   5.536   0.641   3.950
 3587WAT      O11822   6.337   0.598   3.844
 3587WAT     H111823   6.277   0.671   3.826
 3587WAT     H211824   6.392   0.592   3.766
 3588WAT      O11825   5.858   0.688   5.051
 3588WAT     H111826   5.848   0.594   5.036
 3588WAT     H211827   5.942   0.710   5.011
 3589WAT      O11828   6.198   0.462   4.047
 3589WAT     H111829   6.237   0.494   3.966
 3589WAT     H211830   6.234   0.374   4.059
 3590WAT      O11831   5.371   0.329   4.866
 3590WAT     H111832   5.332   0.413   4.887
 3590WAT     H211833   5.302   0.265   4.885
 3591WAT      O11834   6.029   0.337   5.173
 3591WAT     H111835   5.960   0.318   5.237
 3591WAT     H211836   6.103   0.365   5.226
 3592WAT      O11837   5.120   0.515   3.391
 3592WAT     H111838   5.112   0.610   3.405
 3592WAT     H211839   5.085   0.501   3.303
 3593WAT      O11840   6.256   0.721   4.457
 3593WAT     H111841   6.183   0.772   4.492
 3593WAT     H211842   6.216   0.639   4.427
 3594WAT      O11843   5.900   0.389   4.297
 3594WAT     H111844   5.900   0.345   4.212
 3594WAT     H211845   5.989   0.421   4.308
 3595WAT      O11846   5.485   0.377   4.193
 3595WAT     H111847   5.451   0.425   4.269
 3595WAT     H211848   5.409   0.332   4.157
 3596WAT      O11849   5.906   0.489   3.596
 3596WAT     H111850   5.918   0.485   3.691
 3596WAT     H211851   5.868   0.575   3.581
 3597WAT      O11852   6.302   0.266   4.398
 3597WAT     H111853   6.304   0.311   4.482
 3597WAT     H211854   6.278   0.176   4.419
 3598WAT      O11855   5.807   0.720   3.536
 3598WAT     H111856   5.751   0.675   3.474
 3598WAT     H211857   5.878   0.756   3.483
 3599WAT      O11858   5.315   1.110   4.924
 3599WAT     H111859   5.277   1.046   4.984
 3599WAT     H211860   5.346   1.180   4.981
 3600WAT      O11861   5.930   0.795   4.472
 3600WAT     H111862   5.967   0.747   4.547
 3600WAT     H211863   5.911   0.882   4.506
 3601WAT      O11864   5.216   0.269   4.085
 3601WAT     H111865   5.188   0.233   4.169
 3601WAT     H211866   5.210   0.196   4.024
 3602WAT      O11867   5.709   0.699   4.704
 3602WAT     H111868   5.679   0.787   4.726
 3602WAT     H211869   5.805   0.705   4.707
 3603WAT      O11870   5.562   1.119   3.763
 3603WAT     H111871   5.484   1.065   3.747
 3603WAT     H211872   5.635   1.067   3.730
 3604WAT      O11873   6.638   1.019   4.343
 3604WAT     H111874   6.710   1.069   4.304
 3604WAT     H211875   6.618   0.951   4.278
 3605WAT      O11876   6.176   1.026   4.931
 3605WAT     H111877   6.169   0.934   4.906
 3605WAT     H211878   6.113   1.036   5.003
 3606WAT      O11879   6.455   0.596   3.587
 3606WAT     H111880   6.544   0.627   3.569
 3606WAT     H211881   6.452   0.508   3.547
 3607WAT      O11882   5.566   1.086   4.127
 3607WAT     H111883   5.618   1.006   4.122
 3607WAT     H211884   5.521   1.080   4.211
 3608WAT      O11885   6.055   1.213   3.655
 3608WAT     H111886   6.089   1.287   3.605
 3608WAT     H211887   5.972   1.244   3.691
 3609WAT      O11888   5.315   0.783   4.819
 3609WAT     H111889   5.279   0.849   4.877
 3609WAT     H211890   5.285   0.700   4.856
 3610WAT      O11891   5.635   0.829   5.107
 3610WAT     H111892   5.605   0.843   5.017
 3610WAT     H211893   5.712   0.773   5.098
 3611WAT      O11894   6.169   1.308   4.906
 3611WAT     H111895   6.171   1.215   4.885
 3611WAT     H211896   6.098   1.317   4.970
 3612WAT      O11897   6.682   0.727   3.533
 3612WAT     H111898   6.674   0.770   3.448
 3612WAT     H211899   6.754   0.773   3.577
 3613WAT      O11900   6.790   0.972   4.841
 3613WAT     H111901   6.718   1.032   4.821
 3613WAT     H211902   6.843   0.972   4.761
 3614WAT      O11903   6.785   1.412   3.806
 3614WAT     H111904   6.721   1.347   3.834
 3614WAT     H211905   6.747   1.453   3.729
 3615WAT      O11906   6.343   1.145   4.191
 3615WAT     H111907   6.378   1.085   4.125
 3615WAT     H211908   6.255   1.112   4.208
 3616WAT      O11909   5.952   1.221   3.932
 3616WAT     H111910   6.021   1.276   3.970
 3616WAT     H211911   5.873   1.275   3.935
 3617WAT      O11912   5.166   0.783   3.481
 3617WAT     H111913   5.253   0.811   3.509
 3617WAT     H211914   5.117   0.864   3.469
 3618WAT      O11915   5.882   0.921   3.893
 3618WAT     H111916   5.928   1.002   3.916
 3618WAT     H211917   5.847   0.890   3.976
 3619WAT      O11918   6.112   1.472   4.616
 3619WAT     H111919   6.177   1.493   4.684
 3619WAT     H211920   6.149   1.396   4.571
 3620WAT      O11921   6.240   1.273   4.488
 3620WAT     H111922   6.304   1.203   4.499
 3620WAT     H211923   6.292   1.351   4.470
 3621WAT      O11924   6.624   1.301   3.460
 3621WAT     H111925   6.602   1.230   3.519
 3621WAT     H211926   6.585   1.276   3.376
 3622WAT      O11927   6.417   1.353   4.808
 3622WAT     H111928   6.451   1.411   4.876
 3622WAT     H211929   6.325   1.340   4.831
 3623WAT      O11930   5.202   1.704   3.537
 3623WAT     H111931   5.238   1.764   3.472
 3623WAT     H211932   5.188   1.759   3.615
 3624WAT      O11933   6.582   1.093   3.626
 3624WAT     H111934   6.554   1.139   3.705
 3624WAT     H211935   6.662   1.047   3.653
 3625WAT      O11936   5.201   1.530   4.985
 3625WAT     H111937   5.212   1.436   4.971
 3625WAT     H211938   5.136   1.557   4.920
 3626WAT      O11939   6.000   1.358   5.125
 3626WAT     H111940   5.968   1.286   5.179
 3626WAT     H211941   5.933   1.425   5.132
 3627WAT      O11942   5.804   1.442   3.619
 3627WAT     H111943   5.803   1.516   3.558
 3627WAT     H211944   5.712   1.418   3.628
 3628WAT      O11945   5.364   0.964   3.694
 3628WAT     H111946   5.304   1.038   3.695
 3628WAT     H211947   5.412   0.973   3.611
 3629WAT      O11948   6.322   0.381   4.661
 3629WAT     H111949   6.358   0.299   4.694
 3629WAT     H211950   6.236   0.387   4.703
 3630WAT      O11951   6.658   0.276   3.742
 3630WAT     H111952   6.595   0.287   3.671
 3630WAT     H211953   6.609   0.298   3.821
 3631WAT      O11954   6.103   1.449   3.485
 3631WAT     H111955   6.113   1.428   3.392
 3631WAT     H211956   6.013   1.423   3.506
 3632WAT      O11957   5.855   0.504   3.884
 3632WAT     H111958   5.784   0.551   3.928
 3632WAT     H211959   5.883   0.439   3.947
 3633WAT      O11960   6.018   0.646   4.684
 3633WAT     H111961   6.067   0.694   4.750
 3633WAT     H211962   6.032   0.554   4.704
 3634WAT      O11963   6.258   0.177   4.028
 3634WAT     H111964   6.246   0.179   3.933
 3634WAT     H211965   6.353   0.182   4.040
 3635WAT      O11966   5.967   1.700   3.955
 3635WAT     H111967   5.992   1.697   3.863
 3635WAT     H211968   5.872   1.688   3.954
 3636WAT      O11969   5.675   0.335   3.621
 3636WAT     H111970   5.760   0.379   3.615
 3636WAT     H211971   5.639   0.366   3.704
 3637WAT      O11972   6.738   0.268   4.768
 3637WAT     H111973   6.688   0.342   4.802
 3637WAT     H211974   6.820   0.307   4.736
 3638WAT      O11975   6.567   0.792   4.113
 3638WAT     H111976   6.473   0.794   4.130
 3638WAT     H211977   6.599   0.714   4.157
 3639WAT      O11978   5.565   0.960   3.469
 3639WAT     H111979   5.642   0.949   3.525
 3639WAT     H211980   5.573   0.891   3.403
 3640WAT      O11981   5.435   0.704   3.537
 3640WAT     H111982   5.443   0.609   3.548
 3640WAT     H211983   5.524   0.737   3.548
 3641WAT      O11984   6.768   1.509   4.280
 3641WAT     H111985   6.780   1.592   4.327
 3641WAT     H211986   6.854   1.488   4.245
 3642WAT      O11987   5.515   1.719   4.247
 3642WAT     H111988   5.589   1.664   4.274
 3642WAT     H211989   5.553   1.805   4.233
 3643WAT      O11990   5.203   1.325   3.835
 3643WAT     H111991   5.111   1.350   3.834
 3643WAT     H211992   5.250   1.408   3.823
 3644WAT      O11993   5.415   1.637   5.166
 3644WAT     H111994   5.496   1.669   5.207
 3644WAT     H211995   5.364   1.601   5.238
 3645WAT      O11996   5.826   1.636   3.430
 3645WAT     H111997   5.905   1.665   3.384
 3645WAT     H211998   5.774   1.593   3.362
 3646WAT      O11999   6.299   1.248   5.161
 3646WAT     H112000   6.239   1.250   5.087
 3646WAT     H212001   6.269   1.175   5.215
 3647WAT      O12002   6.442   1.621   5.022
 3647WAT     H112003   6.537   1.612   5.017
 3647WAT     H212004   6.427   1.687   5.089
 3648WAT      O12005   6.731   1.559   3.572
 3648WAT     H112006   6.703   1.517   3.490
 3648WAT     H212007   6.711   1.652   3.560
 3649WAT      O12008   5.187   0.886   5.060
 3649WAT     H112009   5.238   0.828   5.118
 3649WAT     H212010   5.114   0.914   5.114
 3650WAT      O12011   5.878   1.158   3.416
 3650WAT     H112012   5.867   1.097   3.489
 3650WAT     H212013   5.861   1.106   3.338
 3651WAT      O12014   5.893   1.027   5.014
 3651WAT     H112015   5.816   1.083   5.005
 3651WAT     H212016   5.911   0.997   4.925
 3652WAT      O12017   6.202   1.064   3.476
 3652WAT     H112018   6.147   1.109   3.541
 3652WAT     H212019   6.264   1.014   3.529
 3653WAT      O12020   6.607   1.200   5.070
 3653WAT     H112021   6.681   1.233   5.019
 3653WAT     H212022   6.531   1.217   5.014
 3654WAT      O12023   5.391   0.700   5.150
 3654WAT     H112024   5.395   0.670   5.241
 3654WAT     H212025   5.476   0.740   5.134
 3655WAT      O12026   5.768   0.960   3.666
 3655WAT     H112027   5.811   0.944   3.750
 3655WAT     H212028   5.781   0.879   3.617
 3656WAT      O12029   5.585   0.558   4.947
 3656WAT     H112030   5.532   0.509   4.884
 3656WAT     H212031   5.652   0.601   4.893
 3657WAT      O12032   6.020   0.863   3.391
 3657WAT     H112033   6.072   0.791   3.354
 3657WAT     H212034   6.084   0.926   3.421
 3658WAT      O12035   6.475   1.005   4.923
 3658WAT     H112036   6.516   1.020   5.008
 3658WAT     H212037   6.381   1.017   4.939
 3659WAT      O12038   6.522   0.739   5.124
 3659WAT     H112039   6.580   0.663   5.115
 3659WAT     H212040   6.539   0.792   5.046
 3660WAT      O12041   5.633   0.255   4.955
 3660WAT     H112042   5.624   0.193   4.882
 3660WAT     H212043   5.575   0.327   4.932
 3661WAT      O12044   5.951   1.000   4.720
 3661WAT     H112045   5.993   1.084   4.703
 3661WAT     H212046   5.859   1.014   4.697
 3662WAT      O12047   6.184   0.773   4.858
 3662WAT     H112048   6.196   0.714   4.932
 3662WAT     H212049   6.270   0.777   4.816
 3663WAT      O12050   6.418   0.829   4.716
 3663WAT     H112051   6.366   0.881   4.656
 3663WAT     H212052   6.453   0.892   4.779
 3664WAT      O12053   5.658   0.567   3.361
 3664WAT     H112054   5.638   0.481   3.397
 3664WAT     H212055   5.641   0.559   3.267
 3665WAT      O12056   5.736   1.631   4.832
 3665WAT     H112057   5.682   1.703   4.800
 3665WAT     H212058   5.761   1.583   4.753
 3666WAT      O12059   5.861   0.427   4.984
 3666WAT     H112060   5.920   0.397   5.053
 3666WAT     H212061   5.779   0.380   5.000
 3667WAT      O12062   6.343   0.389   5.008
 3667WAT     H112063   6.274   0.323   5.001
 3667WAT     H212064   6.415   0.344   5.052
 3668WAT      O12065   5.538   0.277   3.359
 3668WAT     H112066   5.568   0.278   3.269
 3668WAT     H212067   5.612   0.242   3.409
 3669WAT      O12068   6.021   1.754   4.858
 3669WAT     H112069   6.014   1.844   4.888
 3669WAT     H212070   5.931   1.722   4.855
 3670WAT      O12071   6.076   1.671   3.620
 3670WAT     H112072   6.166   1.704   3.622
 3670WAT     H212073   6.079   1.598   3.557
 3671WAT      O12074   5.440   1.208   3.443
 3671WAT     H112075   5.484   1.262   3.508
 3671WAT     H212076   5.489   1.125   3.444
 3672WAT      O12077   5.162   1.487   4.188
 3672WAT     H112078   5.195   1.400   4.165
 3672WAT     H212079   5.205   1.507   4.271
 3673WAT      O12080   5.621   1.320   3.954
 3673WAT     H112081   5.591   1.308   4.044
 3673WAT     H212082   5.611   1.234   3.913
 3674WAT      O12083   5.211   1.574   4.462
 3674WAT     H112084   5.167   1.592   4.545
 3674WAT     H212085   5.267   1.649   4.447
 3675WAT      O12086   6.774   1.524   4.890
 3675WAT     H112087   6.714   1.530   4.816
 3675WAT     H212088   6.787   1.430   4.903
 3676WAT      O12089   6.898   1.298   3.424
 3676WAT     H112090   6.815   1.305   3.471
 3676WAT     H212091   6.916   1.387   3.394
 3677WAT      O12092   6.844   0.972   3.674
 3677WAT     H112093   6.920   1.029   3.685
 3677WAT     H212094   6.845   0.916   3.752
 3678WAT      O12095   5.194   0.825   4.098
 3678WAT     H112096   5.128   0.798   4.033
 3678WAT     H212097   5.278   0.814   4.053
 3679WAT      O12098   6.944   1.058   4.159
 3679WAT     H112099   6.981   0.980   4.118
 3679WAT     H212100   7.008   1.127   4.141
 3680WAT      O12101   6.643   1.196   4.700
 3680WAT     H112102   6.561   1.239   4.726
 3680WAT     H212103   6.683   1.257   4.639
 3681WAT      O12104   6.849   1.002   3.390
 3681WAT     H112105   6.876   1.092   3.377
 3681WAT     H212106   6.830   0.995   3.484
 3682WAT      O12107   6.489   0.304   3.520
 3682WAT     H112108   6.531   0.285   3.436
 3682WAT     H212109   6.458   0.219   3.551
 3683WAT      O12110   6.839   0.795   3.890
 3683WAT     H112111   6.801   0.719   3.846
 3683WAT     H212112   6.766   0.834   3.938
 3684WAT      O12113   5.298   0.863   4.552
 3684WAT     H112114   5.334   0.855   4.640
 3684WAT     H212115   5.241   0.787   4.542
 3685WAT      O12116   6.778   0.710   4.853
 3685WAT     H112117   6.754   0.687   4.763
 3685WAT     H212118   6.804   0.802   4.848
 3686WAT      O12119   5.253   0.554   4.942
 3686WAT     H112120   5.163   0.551   4.976
 3686WAT     H212121   5.307   0.574   5.019
 3687WAT      O12122   6.621   0.233   5.131
 3687WAT     H112123   6.709   0.233   5.169
 3687WAT     H212124   6.623   0.159   5.070
 3688WAT      O12125   5.115   0.546   3.692
 3688WAT     H112126   5.025   0.572   3.674
 3688WAT     H212127   5.164   0.573   3.614
 3689WAT      O12128   6.766   0.618   4.220
 3689WAT     H112129   6.818   0.569   4.156
 3689WAT     H212130   6.825   0.631   4.294
 3690WAT      O12131   6.784   0.626   4.572
 3690WAT     H112132   6.689   0.623   4.583
 3690WAT     H212133   6.802   0.717   4.548
 3691WAT      O12134   5.369   0.451   3.483
 3691WAT     H112135   5.440   0.409   3.434
 3691WAT     H212136   5.298   0.458   3.420
 3692WAT      O12137   6.715   0.544   3.814
 3692WAT     H112138   6.765   0.520   3.892
 3692WAT     H212139   6.695   0.460   3.772
 3693WAT      O12140   6.858   0.407   4.067
 3693WAT     H112141   6.847   0.392   4.161
 3693WAT     H212142   6.934   0.354   4.043
 3694WAT      O12143   6.947   0.190   3.391
 3694WAT     H112144   7.039   0.177   3.370
 3694WAT     H212145   6.945   0.198   3.486
 3695WAT      O12146   6.954   0.267   3.654
 3695WAT     H112147   6.875   0.261   3.706
 3695WAT     H212148   6.975   0.361   3.652
 3696WAT      O12149   6.648   1.671   4.053
 3696WAT     H112150   6.708   1.639   3.985
 3696WAT     H212151   6.674   1.624   4.132
 3697WAT      O12152   5.439   1.315   5.068
 3697WAT     H112153   5.435   1.277   5.156
 3697WAT     H212154   5.452   1.408   5.082
 3698WAT      O12155   5.809   1.470   4.628
 3698WAT     H112156   5.785   1.497   4.539
 3698WAT     H212157   5.903   1.487   4.633
 3699WAT      O12158   6.935   1.672   4.708
 3699WAT     H112159   6.886   1.712   4.636
 3699WAT     H212160   6.874   1.610   4.747
 3700WAT      O12161   5.423   1.609   4.780
 3700WAT     H112162   5.364   1.596   4.854
 3700WAT     H212163   5.422   1.526   4.733
 3701WAT      O12164   6.704   1.736   4.436
 3701WAT     H112165   6.658   1.811   4.398
 3701WAT     H212166   6.641   1.664   4.430
 3702WAT      O12167   5.386   1.346   4.675
 3702WAT     H112168   5.313   1.284   4.668
 3702WAT     H212169   5.392   1.385   4.588
 3703WAT      O12170   5.747   1.567   4.353
 3703WAT     H112171   5.798   1.506   4.301
 3703WAT     H212172   5.812   1.618   4.402
 3704WAT      O12173   6.020   1.656   4.436
 3704WAT     H112174   6.049   1.631   4.348
 3704WAT     H212175   6.072   1.601   4.495
 3705WAT      O12176   5.214   1.678   3.996
 3705WAT     H112177   5.198   1.614   4.066
 3705WAT     H212178   5.128   1.698   3.961
 3706WAT      O12179   5.931   0.272   4.045
 3706WAT     H112180   5.850   0.235   4.011
 3706WAT     H212181   5.981   0.197   4.075
 3707WAT      O12182   5.375   1.547   3.740
 3707WAT     H112183   5.322   1.585   3.670
 3707WAT     H212184   5.367   1.609   3.812
 3708WAT      O12185   6.027   1.748   5.173
 3708WAT     H112186   6.120   1.725   5.177
 3708WAT     H212187   6.026   1.831   5.125
 3709WAT      O12188   6.851   1.703   3.872
 3709WAT     H112189   6.868   1.634   3.808
 3709WAT     H212190   6.781   1.755   3.833
 3710WAT      O12191   5.635   1.742   3.628
 3710WAT     H112192   5.708   1.713   3.573
 3710WAT     H212193   5.661   1.718   3.717
 3711WAT      O12194   5.551   1.353   3.628
 3711WAT     H112195   5.488   1.400   3.683
 3711WAT     H212196   5.563   1.269   3.672
 3712WAT      O12197   6.684   1.671   5.155
 3712WAT     H112198   6.763   1.622   5.134
 3712WAT     H212199   6.713   1.739   5.216
 3713WAT      O12200   6.297   0.758   2.243
 3713WAT     H112201   6.289   0.667   2.216
 3713WAT     H212202   6.255   0.808   2.173
 3714WAT      O12203   6.110   0.936   2.431
 3714WAT     H112204   6.032   0.888   2.460
 3714WAT     H212205   6.175   0.868   2.414
 3715WAT      O12206   5.511   0.967   2.519
 3715WAT     H112207   5.428   0.942   2.559
 3715WAT     H212208   5.572   0.974   2.593
 3716WAT      O12209   6.512   1.377   2.309
 3716WAT     H112210   6.466   1.300   2.342
 3716WAT     H212211   6.593   1.379   2.360
 3717WAT      O12212   5.509   1.371   2.539
 3717WAT     H112213   5.540   1.282   2.521
 3717WAT     H212214   5.584   1.426   2.516
 3718WAT      O12215   5.352   0.463   1.898
 3718WAT     H112216   5.264   0.498   1.887
 3718WAT     H212217   5.381   0.443   1.808
 3719WAT      O12218   5.149   0.723   2.486
 3719WAT     H112219   5.206   0.647   2.486
 3719WAT     H212220   5.149   0.753   2.395
 3720WAT      O12221   6.134   1.605   2.271
 3720WAT     H112222   6.073   1.651   2.214
 3720WAT     H212223   6.220   1.621   2.231
 3721WAT      O12224   6.054   1.204   2.432
 3721WAT     H112225   6.047   1.110   2.416
 3721WAT     H212226   6.130   1.213   2.489
 3722WAT      O12227   5.273   0.264   2.665
 3722WAT     H112228   5.255   0.175   2.693
 3722WAT     H212229   5.233   0.319   2.732
 3723WAT      O12230   6.157   0.484   2.455
 3723WAT     H112231   6.195   0.397   2.444
 3723WAT     H212232   6.147   0.518   2.366
 3724WAT      O12233   5.570   0.322   2.001
 3724WAT     H112234   5.581   0.412   2.032
 3724WAT     H212235   5.479   0.317   1.972
 3725WAT      O12236   6.535   0.234   2.148
 3725WAT     H112237   6.617   0.185   2.152
 3725WAT     H212238   6.538   0.293   2.223
 3726WAT      O12239   5.335   0.514   2.525
 3726WAT     H112240   5.403   0.540   2.587
 3726WAT     H212241   5.303   0.430   2.559
 3727WAT      O12242   5.754   0.619   2.434
 3727WAT     H112243   5.805   0.668   2.498
 3727WAT     H212244   5.807   0.541   2.417
 3728WAT      O12245   6.964   0.436   2.805
 3728WAT     H112246   6.894   0.474   2.753
 3728WAT     H212247   6.991   0.505   2.865
 3729WAT      O12248   6.221   1.094   2.011
 3729WAT     H112249   6.159   1.140   1.954
 3729WAT     H212250   6.272   1.163   2.052
 3730WAT      O12251   5.707   1.046   2.679
 3730WAT     H112252   5.674   1.109   2.743
 3730WAT     H212253   5.725   1.099   2.601
 3731WAT      O12254   6.559   0.428   2.425
 3731WAT     H112255   6.488   0.457   2.483
 3731WAT     H212256   6.595   0.509   2.389
 3732WAT      O12257   5.551   0.254   2.662
 3732WAT     H112258   5.585   0.338   2.632
 3732WAT     H212259   5.457   0.268   2.673
 3733WAT      O12260   5.629   1.243   2.860
 3733WAT     H112261   5.690   1.311   2.832
 3733WAT     H212262   5.543   1.284   2.851
 3734WAT      O12263   5.158   1.162   1.748
 3734WAT     H112264   5.120   1.211   1.675
 3734WAT     H212265   5.184   1.230   1.811
 3735WAT      O12266   6.720   1.390   2.652
 3735WAT     H112267   6.652   1.457   2.651
 3735WAT     H212268   6.774   1.410   2.575
 3736WAT      O12269   6.866   0.372   2.464
 3736WAT     H112270   6.771   0.376   2.478
 3736WAT     H212271   6.898   0.454   2.503
 3737WAT      O12272   6.474   1.574   2.523
 3737WAT     H112273   6.475   1.534   2.436
 3737WAT     H212274   6.419   1.652   2.513
 3738WAT      O12275   6.603   1.246   2.032
 3738WAT     H112276   6.592   1.152   2.044
 3738WAT     H212277   6.603   1.282   2.121
 3739WAT      O12278   6.414   1.064   2.656
 3739WAT     H112279   6.456   1.043   2.572
 3739WAT     H212280   6.486   1.090   2.713
 3740WAT      O12281   6.158   0.809   1.968
 3740WAT     H112282   6.065   0.802   1.990
 3740WAT     H212283   6.173   0.903   1.956
 3741WAT      O12284   6.156   0.436   1.667
 3741WAT     H112285   6.062   0.452   1.676
 3741WAT     H212286   6.188   0.508   1.613
 3742WAT      O12287   6.808   0.904   2.665
 3742WAT     H112288   6.726   0.911   2.618
 3742WAT     H212289   6.868   0.963   2.618
 3743WAT      O12290   6.561   0.965   2.018
 3743WAT     H112291   6.499   0.931   1.953
 3743WAT     H212292   6.559   0.901   2.089
 3744WAT      O12293   6.505   0.583   2.760
 3744WAT     H112294   6.464   0.666   2.785
 3744WAT     H212295   6.432   0.524   2.740
 3745WAT      O12296   5.718   0.862   2.246
 3745WAT     H112297   5.678   0.790   2.196
 3745WAT     H212298   5.727   0.827   2.335
 3746WAT      O12299   5.765   1.230   2.462
 3746WAT     H112300   5.735   1.170   2.394
 3746WAT     H212301   5.860   1.234   2.451
 3747WAT      O12302   5.589   0.539   2.624
 3747WAT     H112303   5.645   0.550   2.546
 3747WAT     H212304   5.641   0.576   2.695
 3748WAT      O12305   6.574   1.588   2.828
 3748WAT     H112306   6.526   1.668   2.809
 3748WAT     H212307   6.505   1.522   2.844
 3749WAT      O12308   5.674   1.204   3.127
 3749WAT     H112309   5.584   1.226   3.152
 3749WAT     H212310   5.677   1.216   3.032
 3750WAT      O12311   6.378   0.889   1.719
 3750WAT     H112312   6.422   0.805   1.704
 3750WAT     H212313   6.450   0.952   1.727
 3751WAT      O12314   5.557   0.891   2.985
 3751WAT     H112315   5.543   0.978   3.022
 3751WAT     H212316   5.469   0.857   2.970
 3752WAT      O12317   6.189   1.383   2.115
 3752WAT     H112318   6.233   1.457   2.074
 3752WAT     H212319   6.183   1.407   2.208
 3753WAT      O12320   5.737   1.485   3.206
 3753WAT     H112321   5.734   1.526   3.119
 3753WAT     H212322   5.720   1.393   3.189
 3754WAT      O12323   5.388   0.751   1.996
 3754WAT     H112324   5.376   0.824   1.935
 3754WAT     H212325   5.357   0.674   1.948
 3755WAT      O12326   6.932   1.564   3.335
 3755WAT     H112327   6.979   1.612   3.403
 3755WAT     H212328   6.994   1.557   3.263
 3756WAT      O12329   5.152   1.068   2.577
 3756WAT     H112330   5.160   1.082   2.482
 3756WAT     H212331   5.214   0.997   2.596
 3757WAT      O12332   5.277   1.238   2.218
 3757WAT     H112333   5.236   1.252   2.132
 3757WAT     H212334   5.366   1.210   2.197
 3758WAT      O12335   6.872   1.283   3.051
 3758WAT     H112336   6.885   1.259   2.960
 3758WAT     H212337   6.876   1.200   3.099
 3759WAT      O12338   6.258   1.653   2.908
 3759WAT     H112339   6.310   1.644   2.989
 3759WAT     H212340   6.174   1.688   2.938
 3760WAT      O12341   6.456   1.682   1.851
 3760WAT     H112342   6.440   1.653   1.941
 3760WAT     H212343   6.439   1.604   1.798
 3761WAT      O12344   5.704   1.660   2.029
 3761WAT     H112345   5.686   1.568   2.008
 3761WAT     H212346   5.618   1.696   2.053
 3762WAT      O12347   6.426   1.433   1.707
 3762WAT     H112348   6.357   1.432   1.641
 3762WAT     H212349   6.500   1.390   1.664
 3763WAT      O12350   6.383   1.595   2.115
 3763WAT     H112351   6.428   1.517   2.146
 3763WAT     H212352   6.417   1.666   2.169
 3764WAT      O12353   6.857   0.488   3.148
 3764WAT     H112354   6.796   0.539   3.095
 3764WAT     H212355   6.825   0.398   3.142
 3765WAT      O12356   5.158   1.172   2.830
 3765WAT     H112357   5.174   1.125   2.749
 3765WAT     H212358   5.204   1.122   2.897
 3766WAT      O12359   6.064   0.372   2.894
 3766WAT     H112360   6.017   0.393   2.976
 3766WAT     H212361   6.023   0.291   2.864
 3767WAT      O12362   6.564   0.494   3.007
 3767WAT     H112363   6.479   0.464   3.040
 3767WAT     H212364   6.548   0.519   2.916
 3768WAT      O12365   6.273   0.644   3.217
 3768WAT     H112366   6.306   0.561   3.183
 3768WAT     H212367   6.352   0.696   3.232
 3769WAT      O12368   5.614   0.598   2.107
 3769WAT     H112369   5.591   0.576   2.197
 3769WAT     H212370   5.536   0.641   2.072
 3770WAT      O12371   6.337   0.598   1.967
 3770WAT     H112372   6.277   0.671   1.948
 3770WAT     H212373   6.392   0.592   1.889
 3771WAT      O12374   5.858   0.688   3.174
 3771WAT     H112375   5.848   0.594   3.159
 3771WAT     H212376   5.942   0.710   3.134
 3772WAT      O12377   6.198   0.462   2.170
 3772WAT     H112378   6.237   0.494   2.089
 3772WAT     H212379   6.234   0.374   2.181
 3773WAT      O12380   5.371   0.329   2.989
 3773WAT     H112381   5.332   0.413   3.010
 3773WAT     H212382   5.302   0.265   3.008
 3774WAT      O12383   6.029   0.337   3.296
 3774WAT     H112384   5.960   0.318   3.359
 3774WAT     H212385   6.103   0.365   3.349
 3775WAT      O12386   5.120   0.515   1.513
 3775WAT     H112387   5.112   0.610   1.527
 3775WAT     H212388   5.085   0.501   1.425
 3776WAT      O12389   6.256   0.721   2.579
 3776WAT     H112390   6.183   0.772   2.614
 3776WAT     H212391   6.216   0.639   2.549
 3777WAT      O12392   5.900   0.389   2.420
 3777WAT     H112393   5.900   0.345   2.335
 3777WAT     H212394   5.989   0.421   2.431
 3778WAT      O12395   5.485   0.377   2.316
 3778WAT     H112396   5.451   0.425   2.391
 3778WAT     H212397   5.409   0.332   2.280
 3779WAT      O12398   5.906   0.489   1.719
 3779WAT     H112399   5.918   0.485   1.814
 3779WAT     H212400   5.868   0.575   1.703
 3780WAT      O12401   6.302   0.266   2.521
 3780WAT     H112402   6.304   0.311   2.605
 3780WAT     H212403   6.278   0.176   2.542
 3781WAT      O12404   5.807   0.720   1.659
 3781WAT     H112405   5.751   0.675   1.596
 3781WAT     H212406   5.878   0.756   1.605
 3782WAT      O12407   5.315   1.110   3.046
 3782WAT     H112408   5.277   1.046   3.106
 3782WAT     H212409   5.346   1.180   3.103
 3783WAT      O12410   5.930   0.795   2.595
 3783WAT     H112411   5.967   0.747   2.669
 3783WAT     H212412   5.911   0.882   2.629
 3784WAT      O12413   5.216   0.269   2.207
 3784WAT     H112414   5.188   0.233   2.291
 3784WAT     H212415   5.210   0.196   2.146
 3785WAT      O12416   5.709   0.699   2.826
 3785WAT     H112417   5.679   0.787   2.849
 3785WAT     H212418   5.805   0.705   2.830
 3786WAT      O12419   5.562   1.119   1.886
 3786WAT     H112420   5.484   1.065   1.870
 3786WAT     H212421   5.635   1.067   1.852
 3787WAT      O12422   6.638   1.019   2.465
 3787WAT     H112423   6.710   1.069   2.426
 3787WAT     H212424   6.618   0.951   2.401
 3788WAT      O12425   6.176   1.026   3.054
 3788WAT     H112426   6.169   0.934   3.029
 3788WAT     H212427   6.113   1.036   3.125
 3789WAT      O12428   6.455   0.596   1.709
 3789WAT     H112429   6.544   0.627   1.692
 3789WAT     H212430   6.452   0.508   1.670
 3790WAT      O12431   5.566   1.086   2.250
 3790WAT     H112432   5.618   1.006   2.244
 3790WAT     H212433   5.521   1.080   2.334
 3791WAT      O12434   6.055   1.213   1.777
 3791WAT     H112435   6.089   1.287   1.728
 3791WAT     H212436   5.972   1.244   1.813
 3792WAT      O12437   5.315   0.783   2.941
 3792WAT     H112438   5.279   0.849   3.000
 3792WAT     H212439   5.285   0.700   2.978
 3793WAT      O12440   5.635   0.829   3.229
 3793WAT     H112441   5.605   0.843   3.140
 3793WAT     H212442   5.712   0.773   3.220
 3794WAT      O12443   6.169   1.308   3.029
 3794WAT     H112444   6.171   1.215   3.007
 3794WAT     H212445   6.098   1.317   3.093
 3795WAT      O12446   6.682   0.727   1.656
 3795WAT     H112447   6.674   0.770   1.571
 3795WAT     H212448   6.754   0.773   1.699
 3796WAT      O12449   6.790   0.972   2.964
 3796WAT     H112450   6.718   1.032   2.944
 3796WAT     H212451   6.843   0.972   2.884
 3797WAT      O12452   6.785   1.412   1.929
 3797WAT     H112453   6.721   1.347   1.956
 3797WAT     H212454   6.747   1.453   1.851
 3798WAT      O12455   6.343   1.145   2.314
 3798WAT     H112456   6.378   1.085   2.248
 3798WAT     H212457   6.255   1.112   2.331
 3799WAT      O12458   5.952   1.221   2.054
 3799WAT     H112459   6.021   1.276   2.092
 3799WAT     H212460   5.873   1.275   2.058
 3800WAT      O12461   5.166   0.783   1.603
 3800WAT     H112462   5.253   0.811   1.632
 3800WAT     H212463   5.117   0.864   1.592
 3801WAT      O12464   5.882   0.921   2.016
 3801WAT     H112465   5.928   1.002   2.038
 3801WAT     H212466   5.847   0.890   2.099
 3802WAT      O12467   6.112   1.472   2.738
 3802WAT     H112468   6.177   1.493   2.806
 3802WAT     H212469   6.149   1.396   2.693
 3803WAT      O12470   6.240   1.273   2.610
 3803WAT     H112471   6.304   1.203   2.622
 3803WAT     H212472   6.292   1.351   2.592
 3804WAT      O12473   6.624   1.301   1.583
 3804WAT     H112474   6.602   1.230   1.642
 3804WAT     H212475   6.585   1.276   1.499
 3805WAT      O12476   6.417   1.353   2.931
 3805WAT     H112477   6.451   1.411   2.998
 3805WAT     H212478   6.325   1.340   2.954
 3806WAT      O12479   5.202   1.704   1.660
 3806WAT     H112480   5.238   1.764   1.595
 3806WAT     H212481   5.188   1.759   1.737
 3807WAT      O12482   6.582   1.093   1.749
 3807WAT     H112483   6.554   1.139   1.828
 3807WAT     H212484   6.662   1.047   1.776
 3808WAT      O12485   5.201   1.530   3.107
 3808WAT     H112486   5.212   1.436   3.093
 3808WAT     H212487   5.136   1.557   3.043
 3809WAT      O12488   6.000   1.358   3.247
 3809WAT     H112489   5.968   1.286   3.302
 3809WAT     H212490   5.933   1.425   3.255
 3810WAT      O12491   5.804   1.442   1.742
 3810WAT     H112492   5.803   1.516   1.680
 3810WAT     H212493   5.712   1.418   1.751
 3811WAT      O12494   5.364   0.964   1.816
 3811WAT     H112495   5.304   1.038   1.817
 3811WAT     H212496   5.412   0.973   1.734
 3812WAT      O12497   6.322   0.381   2.784
 3812WAT     H112498   6.358   0.299   2.817
 3812WAT     H212499   6.236   0.387   2.825
 3813WAT      O12500   6.658   0.276   1.865
 3813WAT     H112501   6.595   0.287   1.793
 3813WAT     H212502   6.609   0.298   1.944
 3814WAT      O12503   6.103   1.449   1.608
 3814WAT     H112504   6.113   1.428   1.515
 3814WAT     H212505   6.013   1.423   1.629
 3815WAT      O12506   5.855   0.504   2.006
 3815WAT     H112507   5.784   0.551   2.050
 3815WAT     H212508   5.883   0.439   2.070
 3816WAT      O12509   6.018   0.646   2.806
 3816WAT     H112510   6.067   0.694   2.873
 3816WAT     H212511   6.032   0.554   2.827
 3817WAT      O12512   6.258   0.177   2.150
 3817WAT     H112513   6.246   0.179   2.055
 3817WAT     H212514   6.353   0.182   2.162
 3818WAT      O12515   5.967   1.700   2.078
 3818WAT     H112516   5.992   1.697   1.985
 3818WAT     H212517   5.872   1.688   2.077
 3819WAT      O12518   5.675   0.335   1.744
 3819WAT     H112519   5.760   0.379   1.737
 3819WAT     H212520   5.639   0.366   1.827
 3820WAT      O12521   6.738   0.268   2.890
 3820WAT     H112522   6.688   0.342   2.924
 3820WAT     H212523   6.820   0.307   2.859
 3821WAT      O12524   6.567   0.792   2.235
 3821WAT     H112525   6.473   0.794   2.253
 3821WAT     H212526   6.599   0.714   2.280
 3822WAT      O12527   5.565   0.960   1.591
 3822WAT     H112528   5.642   0.949   1.647
 3822WAT     H212529   5.573   0.891   1.526
 3823WAT      O12530   5.435   0.704   1.659
 3823WAT     H112531   5.443   0.609   1.671
 3823WAT     H212532   5.524   0.737   1.670
 3824WAT      O12533   6.768   1.509   2.403
 3824WAT     H112534   6.780   1.592   2.450
 3824WAT     H212535   6.854   1.488   2.368
 3825WAT      O12536   5.515   1.719   2.370
 3825WAT     H112537   5.589   1.664   2.397
 3825WAT     H212538   5.553   1.805   2.356
 3826WAT      O12539   5.203   1.325   1.957
 3826WAT     H112540   5.111   1.350   1.956
 3826WAT     H212541   5.250   1.408   1.945
 3827WAT      O12542   5.415   1.637   3.289
 3827WAT     H112543   5.496   1.669   3.330
 3827WAT     H212544   5.364   1.601   3.361
 3828WAT      O12545   5.826   1.636   1.552
 3828WAT     H112546   5.905   1.665   1.507
 3828WAT     H212547   5.774   1.593   1.484
 3829WAT      O12548   6.299   1.248   3.283
 3829WAT     H112549   6.239   1.250   3.209
 3829WAT     H212550   6.269   1.175   3.337
 3830WAT      O12551   6.442   1.621   3.145
 3830WAT     H112552   6.537   1.612   3.140
 3830WAT     H212553   6.427   1.687   3.212
 3831WAT      O12554   6.731   1.559   1.694
 3831WAT     H112555   6.703   1.517   1.613
 3831WAT     H212556   6.711   1.652   1.682
 3832WAT      O12557   5.187   0.886   3.183
 3832WAT     H112558   5.238   0.828   3.240
 3832WAT     H212559   5.114   0.914   3.237
 3833WAT      O12560   5.878   1.158   1.538
 3833WAT     H112561   5.867   1.097   1.611
 3833WAT     H212562   5.861   1.106   1.460
 3834WAT      O12563   5.893   1.027   3.136
 3834WAT     H112564   5.816   1.083   3.128
 3834WAT     H212565   5.911   0.997   3.047
 3835WAT      O12566   6.202   1.064   1.599
 3835WAT     H112567   6.147   1.109   1.663
 3835WAT     H212568   6.264   1.014   1.651
 3836WAT      O12569   6.607   1.200   3.192
 3836WAT     H112570   6.681   1.233   3.142
 3836WAT     H212571   6.531   1.217   3.137
 3837WAT      O12572   5.391   0.700   3.273
 3837WAT     H112573   5.395   0.670   3.363
 3837WAT     H212574   5.476   0.740   3.257
 3838WAT      O12575   5.768   0.960   1.789
 3838WAT     H112576   5.811   0.944   1.873
 3838WAT     H212577   5.781   0.879   1.739
 3839WAT      O12578   5.585   0.558   3.069
 3839WAT     H112579   5.532   0.509   3.007
 3839WAT     H212580   5.652   0.601   3.016
 3840WAT      O12581   6.020   0.863   1.513
 3840WAT     H112582   6.072   0.791   1.477
 3840WAT     H212583   6.084   0.926   1.543
 3841WAT      O12584   6.475   1.005   3.046
 3841WAT     H112585   6.516   1.020   3.131
 3841WAT     H212586   6.381   1.017   3.062
 3842WAT      O12587   6.522   0.739   3.246
 3842WAT     H112588   6.580   0.663   3.237
 3842WAT     H212589   6.539   0.792   3.168
 3843WAT      O12590   5.633   0.255   3.077
 3843WAT     H112591   5.624   0.193   3.005
 3843WAT     H212592   5.575   0.327   3.055
 3844WAT      O12593   5.951   1.000   2.843
 3844WAT     H112594   5.993   1.084   2.825
 3844WAT     H212595   5.859   1.014   2.820
 3845WAT      O12596   6.184   0.773   2.981
 3845WAT     H112597   6.196   0.714   3.055
 3845WAT     H212598   6.270   0.777   2.939
 3846WAT      O12599   6.418   0.829   2.839
 3846WAT     H112600   6.366   0.881   2.778
 3846WAT     H212601   6.453   0.892   2.902
 3847WAT      O12602   5.658   0.567   1.483
 3847WAT     H112603   5.638   0.481   1.519
 3847WAT     H212604   5.641   0.559   1.389
 3848WAT      O12605   5.736   1.631   2.954
 3848WAT     H112606   5.682   1.703   2.922
 3848WAT     H212607   5.761   1.583   2.875
 3849WAT      O12608   5.861   0.427   3.107
 3849WAT     H112609   5.920   0.397   3.176
 3849WAT     H212610   5.779   0.380   3.122
 3850WAT      O12611   6.343   0.389   3.130
 3850WAT     H112612   6.274   0.323   3.124
 3850WAT     H212613   6.415   0.344   3.175
 3851WAT      O12614   5.538   0.277   1.482
 3851WAT     H112615   5.568   0.278   1.391
 3851WAT     H212616   5.612   0.242   1.532
 3852WAT      O12617   6.021   1.754   2.980
 3852WAT     H112618   6.014   1.844   3.011
 3852WAT     H212619   5.931   1.722   2.977
 3853WAT      O12620   6.076   1.671   1.742
 3853WAT     H112621   6.166   1.704   1.745
 3853WAT     H212622   6.079   1.598   1.680
 3854WAT      O12623   5.440   1.208   1.565
 3854WAT     H112624   5.484   1.262   1.631
 3854WAT     H212625   5.489   1.125   1.566
 3855WAT      O12626   5.162   1.487   2.310
 3855WAT     H112627   5.195   1.400   2.287
 3855WAT     H212628   5.205   1.507   2.393
 3856WAT      O12629   5.621   1.320   2.076
 3856WAT     H112630   5.591   1.308   2.166
 3856WAT     H212631   5.611   1.234   2.036
 3857WAT      O12632   5.211   1.574   2.584
 3857WAT     H112633   5.167   1.592   2.667
 3857WAT     H212634   5.267   1.649   2.570
 3858WAT      O12635   6.774   1.524   3.013
 3858WAT     H112636   6.714   1.530   2.939
 3858WAT     H212637   6.787   1.430   3.026
 3859WAT      O12638   6.898   1.298   1.547
 3859WAT     H112639   6.815   1.305   1.594
 3859WAT     H212640   6.916   1.387   1.516
 3860WAT      O12641   6.844   0.972   1.797
 3860WAT     H112642   6.920   1.029   1.808
 3860WAT     H212643   6.845   0.916   1.874
 3861WAT      O12644   5.194   0.825   2.220
 3861WAT     H112645   5.128   0.798   2.156
 3861WAT     H212646   5.278   0.814   2.175
 3862WAT      O12647   6.944   1.058   2.281
 3862WAT     H112648   6.981   0.980   2.241
 3862WAT     H212649   7.008   1.127   2.264
 3863WAT      O12650   6.643   1.196   2.823
 3863WAT     H112651   6.561   1.239   2.849
 3863WAT     H212652   6.683   1.257   2.761
 3864WAT      O12653   6.849   1.002   1.513
 3864WAT     H112654   6.876   1.092   1.500
 3864WAT     H212655   6.830   0.995   1.606
 3865WAT      O12656   6.489   0.304   1.642
 3865WAT     H112657   6.531   0.285   1.558
 3865WAT     H212658   6.458   0.219   1.673
 3866WAT      O12659   6.839   0.795   2.012
 3866WAT     H112660   6.801   0.719   1.969
 3866WAT     H212661   6.766   0.834   2.061
 3867WAT      O12662   5.298   0.863   2.674
 3867WAT     H112663   5.334   0.855   2.762
 3867WAT     H212664   5.241   0.787   2.664
 3868WAT      O12665   6.778   0.710   2.975
 3868WAT     H112666   6.754   0.687   2.885
 3868WAT     H212667   6.804   0.802   2.971
 3869WAT      O12668   5.253   0.554   3.065
 3869WAT     H112669   5.163   0.551   3.099
 3869WAT     H212670   5.307   0.574   3.141
 3870WAT      O12671   6.621   0.233   3.253
 3870WAT     H112672   6.709   0.233   3.292
 3870WAT     H212673   6.623   0.159   3.192
 3871WAT      O12674   5.115   0.546   1.814
 3871WAT     H112675   5.025   0.572   1.797
 3871WAT     H212676   5.164   0.573   1.736
 3872WAT      O12677   6.766   0.618   2.342
 3872WAT     H112678   6.818   0.569   2.279
 3872WAT     H212679   6.825   0.631   2.417
 3873WAT      O12680   6.784   0.626   2.694
 3873WAT     H112681   6.689   0.623   2.706
 3873WAT     H212682   6.802   0.717   2.671
 3874WAT      O12683   5.369   0.451   1.605
 3874WAT     H112684   5.440   0.409   1.557
 3874WAT     H212685   5.298   0.458   1.542
 3875WAT      O12686   6.715   0.544   1.936
 3875WAT     H112687   6.765   0.520   2.015
 3875WAT     H212688   6.695   0.460   1.894
 3876WAT      O12689   6.858   0.407   2.189
 3876WAT     H112690   6.847   0.392   2.283
 3876WAT     H212691   6.934   0.354   2.165
 3877WAT      O12692   6.947   0.190   1.514
 3877WAT     H112693   7.039   0.177   1.493
 3877WAT     H212694   6.945   0.198   1.609
 3878WAT      O12695   6.954   0.267   1.776
 3878WAT     H112696   6.875   0.261   1.829
 3878WAT     H212697   6.975   0.361   1.775
 3879WAT      O12698   6.648   1.671   2.175
 3879WAT     H112699   6.708   1.639   2.108
 3879WAT     H212700   6.674   1.624   2.255
 3880WAT      O12701   5.439   1.315   3.190
 3880WAT     H112702   5.435   1.277   3.279
 3880WAT     H212703   5.452   1.408   3.204
 3881WAT      O12704   5.809   1.470   2.750
 3881WAT     H112705   5.785   1.497   2.662
 3881WAT     H212706   5.903   1.487   2.756
 3882WAT      O12707   6.935   1.672   2.831
 3882WAT     H112708   6.886   1.712   2.759
 3882WAT     H212709   6.874   1.610   2.870
 3883WAT      O12710   5.423   1.609   2.902
 3883WAT     H112711   5.364   1.596   2.976
 3883WAT     H212712   5.422   1.526   2.856
 3884WAT      O12713   6.704   1.736   2.558
 3884WAT     H112714   6.658   1.811   2.521
 3884WAT     H212715   6.641   1.664   2.553
 3885WAT      O12716   5.386   1.346   2.797
 3885WAT     H112717   5.313   1.284   2.791
 3885WAT     H212718   5.392   1.385   2.710
 3886WAT      O12719   5.747   1.567   2.476
 3886WAT     H112720   5.798   1.506   2.423
 3886WAT     H212721   5.812   1.618   2.525
 3887WAT      O12722   6.020   1.656   2.559
 3887WAT     H112723   6.049   1.631   2.471
 3887WAT     H212724   6.072   1.601   2.618
 3888WAT      O12725   5.214   1.678   2.118
 3888WAT     H112726   5.198   1.614   2.188
 3888WAT     H212727   5.128   1.698   2.083
 3889WAT      O12728   5.931   0.272   2.168
 3889WAT     H112729   5.850   0.235   2.134
 3889WAT     H212730   5.981   0.197   2.198
 3890WAT      O12731   5.375   1.547   1.863
 3890WAT     H112732   5.322   1.585   1.793
 3890WAT     H212733   5.367   1.609   1.935
 3891WAT      O12734   6.027   1.748   3.295
 3891WAT     H112735   6.120   1.725   3.300
 3891WAT     H212736   6.026   1.831   3.247
 3892WAT      O12737   6.851   1.703   1.995
 3892WAT     H112738   6.868   1.634   1.931
 3892WAT     H212739   6.781   1.755   1.956
 3893WAT      O12740   5.635   1.742   1.750
 3893WAT     H112741   5.708   1.713   1.696
 3893WAT     H212742   5.661   1.718   1.839
 3894WAT      O12743   5.551   1.353   1.751
 3894WAT     H112744   5.488   1.400   1.806
 3894WAT     H212745   5.563   1.269   1.794
 3895WAT      O12746   6.684   1.671   3.278
 3895WAT     H112747   6.763   1.622   3.257
 3895WAT     H212748   6.713   1.739   3.338
 3896WAT      O12749   6.297   0.758   0.366
 3896WAT     H112750   6.289   0.667   0.339
 3896WAT     H212751   6.255   0.808   0.295
 3897WAT      O12752   6.110   0.936   0.554
 3897WAT     H112753   6.032   0.888   0.583
 3897WAT     H212754   6.175   0.868   0.537
 3898WAT      O12755   5.511   0.967   0.642
 3898WAT     H112756   5.428   0.942   0.682
 3898WAT     H212757   5.572   0.974   0.715
 3899WAT      O12758   6.512   1.377   0.432
 3899WAT     H112759   6.466   1.300   0.465
 3899WAT     H212760   6.593   1.379   0.482
 3900WAT      O12761   5.509   1.371   0.661
 3900WAT     H112762   5.540   1.282   0.643
 3900WAT     H212763   5.584   1.426   0.639
 3901WAT      O12764   5.149   0.723   0.609
 3901WAT     H112765   5.206   0.647   0.609
 3901WAT     H212766   5.149   0.753   0.518
 3902WAT      O12767   6.134   1.605   0.394
 3902WAT     H112768   6.073   1.651   0.337
 3902WAT     H212769   6.220   1.621   0.354
 3903WAT      O12770   6.054   1.204   0.555
 3903WAT     H112771   6.047   1.110   0.539
 3903WAT     H212772   6.130   1.213   0.612
 3904WAT      O12773   5.273   0.264   0.787
 3904WAT     H112774   5.255   0.175   0.815
 3904WAT     H212775   5.233   0.319   0.855
 3905WAT      O12776   6.157   0.484   0.577
 3905WAT     H112777   6.195   0.397   0.566
 3905WAT     H212778   6.147   0.518   0.488
 3906WAT      O12779   6.535   0.234   0.271
 3906WAT     H112780   6.617   0.185   0.275
 3906WAT     H212781   6.538   0.293   0.346
 3907WAT      O12782   5.335   0.514   0.648
 3907WAT     H112783   5.403   0.540   0.710
 3907WAT     H212784   5.303   0.430   0.681
 3908WAT      O12785   5.754   0.619   0.557
 3908WAT     H112786   5.805   0.668   0.621
 3908WAT     H212787   5.807   0.541   0.539
 3909WAT      O12788   6.964   0.436   0.927
 3909WAT     H112789   6.894   0.474   0.875
 3909WAT     H212790   6.991   0.505   0.987
 3910WAT      O12791   5.707   1.046   0.801
 3910WAT     H112792   5.674   1.109   0.865
 3910WAT     H212793   5.725   1.099   0.723
 3911WAT      O12794   6.559   0.428   0.548
 3911WAT     H112795   6.488   0.457   0.606
 3911WAT     H212796   6.595   0.509   0.512
 3912WAT      O12797   5.551   0.254   0.784
 3912WAT     H112798   5.585   0.338   0.755
 3912WAT     H212799   5.457   0.268   0.796
 3913WAT      O12800   5.629   1.243   0.983
 3913WAT     H112801   5.690   1.311   0.954
 3913WAT     H212802   5.543   1.284   0.974
 3914WAT      O12803   6.720   1.390   0.774
 3914WAT     H112804   6.652   1.457   0.773
 3914WAT     H212805   6.774   1.410   0.698
 3915WAT      O12806   6.866   0.372   0.587
 3915WAT     H112807   6.771   0.376   0.600
 3915WAT     H212808   6.898   0.454   0.625
 3916WAT      O12809   6.474   1.574   0.646
 3916WAT     H112810   6.475   1.534   0.559
 3916WAT     H212811   6.419   1.652   0.635
 3917WAT      O12812   6.414   1.064   0.778
 3917WAT     H112813   6.456   1.043   0.695
 3917WAT     H212814   6.486   1.090   0.836
 3918WAT      O12815   6.808   0.904   0.788
 3918WAT     H112816   6.726   0.911   0.740
 3918WAT     H212817   6.868   0.963   0.741
 3919WAT      O12818   6.505   0.583   0.882
 3919WAT     H112819   6.464   0.666   0.908
 3919WAT     H212820   6.432   0.524   0.863
 3920WAT      O12821   5.718   0.862   0.368
 3920WAT     H112822   5.678   0.790   0.319
 3920WAT     H212823   5.727   0.827   0.457
 3921WAT      O12824   5.765   1.230   0.585
 3921WAT     H112825   5.735   1.170   0.517
 3921WAT     H212826   5.860   1.234   0.574
 3922WAT      O12827   5.589   0.539   0.746
 3922WAT     H112828   5.645   0.550   0.669
 3922WAT     H212829   5.641   0.576   0.818
 3923WAT      O12830   6.574   1.588   0.951
 3923WAT     H112831   6.526   1.668   0.932
 3923WAT     H212832   6.505   1.522   0.966
 3924WAT      O12833   5.674   1.204   1.250
 3924WAT     H112834   5.584   1.226   1.275
 3924WAT     H212835   5.677   1.216   1.155
 3925WAT      O12836   5.557   0.891   1.107
 3925WAT     H112837   5.543   0.978   1.144
 3925WAT     H212838   5.469   0.857   1.093
 3926WAT      O12839   6.189   1.383   0.238
 3926WAT     H112840   6.233   1.457   0.197
 3926WAT     H212841   6.183   1.407   0.330
 3927WAT      O12842   5.737   1.485   1.328
 3927WAT     H112843   5.734   1.526   1.242
 3927WAT     H212844   5.720   1.393   1.312
 3928WAT      O12845   6.932   1.564   1.458
 3928WAT     H112846   6.979   1.612   1.526
 3928WAT     H212847   6.994   1.557   1.385
 3929WAT      O12848   5.152   1.068   0.699
 3929WAT     H112849   5.160   1.082   0.605
 3929WAT     H212850   5.214   0.997   0.718
 3930WAT      O12851   5.277   1.238   0.340
 3930WAT     H112852   5.236   1.252   0.255
 3930WAT     H212853   5.366   1.210   0.320
 3931WAT      O12854   6.872   1.283   1.174
 3931WAT     H112855   6.885   1.259   1.082
 3931WAT     H212856   6.876   1.200   1.221
 3932WAT      O12857   6.258   1.653   1.031
 3932WAT     H112858   6.310   1.644   1.111
 3932WAT     H212859   6.174   1.688   1.060
 3933WAT      O12860   6.383   1.595   0.237
 3933WAT     H112861   6.428   1.517   0.269
 3933WAT     H212862   6.417   1.666   0.292
 3934WAT      O12863   6.857   0.488   1.270
 3934WAT     H112864   6.796   0.539   1.218
 3934WAT     H212865   6.825   0.398   1.265
 3935WAT      O12866   5.158   1.172   0.953
 3935WAT     H112867   5.174   1.125   0.871
 3935WAT     H212868   5.204   1.122   1.020
 3936WAT      O12869   6.064   0.372   1.017
 3936WAT     H112870   6.017   0.393   1.098
 3936WAT     H212871   6.023   0.291   0.987
 3937WAT      O12872   6.564   0.494   1.130
 3937WAT     H112873   6.479   0.464   1.162
 3937WAT     H212874   6.548   0.519   1.039
 3938WAT      O12875   6.273   0.644   1.340
 3938WAT     H112876   6.306   0.561   1.306
 3938WAT     H212877   6.352   0.696   1.355
 3939WAT      O12878   5.614   0.598   0.229
 3939WAT     H112879   5.591   0.576   0.320
 3939WAT     H212880   5.536   0.641   0.195
 3940WAT      O12881   5.858   0.688   1.296
 3940WAT     H112882   5.848   0.594   1.281
 3940WAT     H212883   5.942   0.710   1.257
 3941WAT      O12884   6.198   0.462   0.292
 3941WAT     H112885   6.237   0.494   0.211
 3941WAT     H212886   6.234   0.374   0.304
 3942WAT      O12887   5.371   0.329   1.111
 3942WAT     H112888   5.332   0.413   1.132
 3942WAT     H212889   5.302   0.265   1.130
 3943WAT      O12890   6.029   0.337   1.418
 3943WAT     H112891   5.960   0.318   1.482
 3943WAT     H212892   6.103   0.365   1.472
 3944WAT      O12893   6.256   0.721   0.702
 3944WAT     H112894   6.183   0.772   0.737
 3944WAT     H212895   6.216   0.639   0.672
 3945WAT      O12896   5.900   0.389   0.542
 3945WAT     H112897   5.900   0.345   0.457
 3945WAT     H212898   5.989   0.421   0.553
 3946WAT      O12899   5.485   0.377   0.438
 3946WAT     H112900   5.451   0.425   0.514
 3946WAT     H212901   5.409   0.332   0.402
 3947WAT      O12902   6.302   0.266   0.643
 3947WAT     H112903   6.304   0.311   0.728
 3947WAT     H212904   6.278   0.176   0.664
 3948WAT      O12905   5.315   1.110   1.169
 3948WAT     H112906   5.277   1.046   1.229
 3948WAT     H212907   5.346   1.180   1.226
 3949WAT      O12908   5.930   0.795   0.717
 3949WAT     H112909   5.967   0.747   0.792
 3949WAT     H212910   5.911   0.882   0.751
 3950WAT      O12911   5.216   0.269   0.330
 3950WAT     H112912   5.188   0.233   0.414
 3950WAT     H212913   5.210   0.196   0.269
 3951WAT      O12914   5.709   0.699   0.949
 3951WAT     H112915   5.679   0.787   0.971
 3951WAT     H212916   5.805   0.705   0.953
 3952WAT      O12917   6.638   1.019   0.588
 3952WAT     H112918   6.710   1.069   0.549
 3952WAT     H212919   6.618   0.951   0.523
 3953WAT      O12920   6.176   1.026   1.177
 3953WAT     H112921   6.169   0.934   1.151
 3953WAT     H212922   6.113   1.036   1.248
 3954WAT      O12923   5.566   1.086   0.372
 3954WAT     H112924   5.618   1.006   0.367
 3954WAT     H212925   5.521   1.080   0.457
 3955WAT      O12926   5.315   0.783   1.064
 3955WAT     H112927   5.279   0.849   1.122
 3955WAT     H212928   5.285   0.700   1.101
 3956WAT      O12929   5.635   0.829   1.352
 3956WAT     H112930   5.605   0.843   1.262
 3956WAT     H212931   5.712   0.773   1.343
 3957WAT      O12932   6.169   1.308   1.152
 3957WAT     H112933   6.171   1.215   1.130
 3957WAT     H212934   6.098   1.317   1.215
 3958WAT      O12935   6.790   0.972   1.086
 3958WAT     H112936   6.718   1.032   1.067
 3958WAT     H212937   6.843   0.972   1.006
 3959WAT      O12938   6.343   1.145   0.436
 3959WAT     H112939   6.378   1.085   0.370
 3959WAT     H212940   6.255   1.112   0.453
 3960WAT      O12941   5.952   1.221   0.177
 3960WAT     H112942   6.021   1.276   0.215
 3960WAT     H212943   5.873   1.275   0.180
 3961WAT      O12944   6.112   1.472   0.861
 3961WAT     H112945   6.177   1.493   0.929
 3961WAT     H212946   6.149   1.396   0.816
 3962WAT      O12947   6.240   1.273   0.733
 3962WAT     H112948   6.304   1.203   0.744
 3962WAT     H212949   6.292   1.351   0.715
 3963WAT      O12950   6.417   1.353   1.053
 3963WAT     H112951   6.451   1.411   1.121
 3963WAT     H212952   6.325   1.340   1.076
 3964WAT      O12953   5.201   1.530   1.230
 3964WAT     H112954   5.212   1.436   1.216
 3964WAT     H212955   5.136   1.557   1.165
 3965WAT      O12956   6.000   1.358   1.370
 3965WAT     H112957   5.968   1.286   1.424
 3965WAT     H212958   5.933   1.425   1.377
 3966WAT      O12959   6.322   0.381   0.906
 3966WAT     H112960   6.358   0.299   0.939
 3966WAT     H212961   6.236   0.387   0.948
 3967WAT      O12962   6.018   0.646   0.929
 3967WAT     H112963   6.067   0.694   0.995
 3967WAT     H212964   6.032   0.554   0.949
 3968WAT      O12965   6.258   0.177   0.273
 3968WAT     H112966   6.246   0.179   0.178
 3968WAT     H212967   6.353   0.182   0.285
 3969WAT      O12968   6.738   0.268   1.013
 3969WAT     H112969   6.688   0.342   1.047
 3969WAT     H212970   6.820   0.307   0.981
 3970WAT      O12971   6.567   0.792   0.358
 3970WAT     H112972   6.473   0.794   0.375
 3970WAT     H212973   6.599   0.714   0.402
 3971WAT      O12974   6.768   1.509   0.525
 3971WAT     H112975   6.780   1.592   0.572
 3971WAT     H212976   6.854   1.488   0.490
 3972WAT      O12977   5.515   1.719   0.492
 3972WAT     H112978   5.589   1.664   0.519
 3972WAT     H212979   5.553   1.805   0.478
 3973WAT      O12980   5.415   1.637   1.411
 3973WAT     H112981   5.496   1.669   1.453
 3973WAT     H212982   5.364   1.601   1.483
 3974WAT      O12983   6.299   1.248   1.406
 3974WAT     H112984   6.239   1.250   1.332
 3974WAT     H212985   6.269   1.175   1.460
 3975WAT      O12986   6.442   1.621   1.267
 3975WAT     H112987   6.537   1.612   1.262
 3975WAT     H212988   6.427   1.687   1.334
 3976WAT      O12989   5.187   0.886   1.306
 3976WAT     H112990   5.238   0.828   1.363
 3976WAT     H212991   5.114   0.914   1.359
 3977WAT      O12992   5.893   1.027   1.259
 3977WAT     H112993   5.816   1.083   1.250
 3977WAT     H212994   5.911   0.997   1.170
 3978WAT      O12995   6.607   1.200   1.315
 3978WAT     H112996   6.681   1.233   1.264
 3978WAT     H212997   6.531   1.217   1.259
 3979WAT      O12998   5.391   0.700   1.395
 3979WAT     H112999   5.395   0.670   1.486
 3979WAT     H213000   5.476   0.740   1.379
 3980WAT      O13001   5.585   0.558   1.192
 3980WAT     H113002   5.532   0.509   1.129
 3980WAT     H213003   5.652   0.601   1.138
 3981WAT      O13004   6.475   1.005   1.168
 3981WAT     H113005   6.516   1.020   1.253
 3981WAT     H213006   6.381   1.017   1.185
 3982WAT      O13007   6.522   0.739   1.369
 3982WAT     H113008   6.580   0.663   1.360
 3982WAT     H213009   6.539   0.792   1.291
 3983WAT      O13010   5.633   0.255   1.200
 3983WAT     H113011   5.624   0.193   1.127
 3983WAT     H213012   5.575   0.327   1.177
 3984WAT      O13013   5.951   1.000   0.965
 3984WAT     H113014   5.993   1.084   0.948
 3984WAT     H213015   5.859   1.014   0.942
 3985WAT      O13016   6.184   0.773   1.104
 3985WAT     H113017   6.196   0.714   1.178
 3985WAT     H213018   6.270   0.777   1.062
 3986WAT      O13019   6.418   0.829   0.961
 3986WAT     H113020   6.366   0.881   0.901
 3986WAT     H213021   6.453   0.892   1.024
 3987WAT      O13022   5.736   1.631   1.077
 3987WAT     H113023   5.682   1.703   1.045
 3987WAT     H213024   5.761   1.583   0.998
 3988WAT      O13025   5.861   0.427   1.229
 3988WAT     H113026   5.920   0.397   1.298
 3988WAT     H213027   5.779   0.380   1.245
 3989WAT      O13028   6.343   0.389   1.253
 3989WAT     H113029   6.274   0.323   1.246
 3989WAT     H213030   6.415   0.344   1.297
 3990WAT      O13031   6.021   1.754   1.103
 3990WAT     H113032   6.014   1.844   1.133
 3990WAT     H213033   5.931   1.722   1.100
 3991WAT      O13034   5.162   1.487   0.433
 3991WAT     H113035   5.195   1.400   0.410
 3991WAT     H213036   5.205   1.507   0.516
 3992WAT      O13037   5.211   1.574   0.707
 3992WAT     H113038   5.167   1.592   0.790
 3992WAT     H213039   5.267   1.649   0.693
 3993WAT      O13040   6.774   1.524   1.136
 3993WAT     H113041   6.714   1.530   1.061
 3993WAT     H213042   6.787   1.430   1.149
 3994WAT      O13043   5.194   0.825   0.343
 3994WAT     H113044   5.128   0.798   0.278
 3994WAT     H213045   5.278   0.814   0.298
 3995WAT      O13046   6.944   1.058   0.404
 3995WAT     H113047   6.981   0.980   0.363
 3995WAT     H213048   7.008   1.127   0.386
 3996WAT      O13049   6.643   1.196   0.945
 3996WAT     H113050   6.561   1.239   0.972
 3996WAT     H213051   6.683   1.257   0.884
 3997WAT      O13052   5.298   0.863   0.797
 3997WAT     H113053   5.334   0.855   0.885
 3997WAT     H213054   5.241   0.787   0.787
 3998WAT      O13055   6.778   0.710   1.098
 3998WAT     H113056   6.754   0.687   1.008
 3998WAT     H213057   6.804   0.802   1.093
 3999WAT      O13058   5.253   0.554   1.187
 3999WAT     H113059   5.163   0.551   1.221
 3999WAT     H213060   5.307   0.574   1.264
 4000WAT      O13061   6.621   0.233   1.376
 4000WAT     H113062   6.709   0.233   1.414
 4000WAT     H213063   6.623   0.159   1.315
 4001WAT      O13064   6.766   0.618   0.465
 4001WAT     H113065   6.818   0.569   0.402
 4001WAT     H213066   6.825   0.631   0.539
 4002WAT      O13067   6.784   0.626   0.817
 4002WAT     H113068   6.689   0.623   0.828
 4002WAT     H213069   6.802   0.717   0.793
 4003WAT      O13070   6.858   0.407   0.312
 4003WAT     H113071   6.847   0.392   0.406
 4003WAT     H213072   6.934   0.354   0.288
 4004WAT      O13073   6.648   1.671   0.298
 4004WAT     H113074   6.708   1.639   0.230
 4004WAT     H213075   6.674   1.624   0.377
 4005WAT      O13076   5.439   1.315   1.313
 4005WAT     H113077   5.435   1.277   1.401
 4005WAT     H213078   5.452   1.408   1.327
 4006WAT      O13079   5.809   1.470   0.873
 4006WAT     H113080   5.785   1.497   0.784
 4006WAT     H213081   5.903   1.487   0.879
 4007WAT      O13082   6.935   1.672   0.953
 4007WAT     H113083   6.886   1.712   0.881
 4007WAT     H213084   6.874   1.610   0.993
 4008WAT      O13085   5.423   1.609   1.025
 4008WAT     H113086   5.364   1.596   1.099
 4008WAT     H213087   5.422   1.526   0.978
 4009WAT      O13088   6.704   1.736   0.681
 4009WAT     H113089   6.658   1.811   0.644
 4009WAT     H213090   6.641   1.664   0.675
 4010WAT      O13091   5.386   1.346   0.920
 4010WAT     H113092   5.313   1.284   0.913
 4010WAT     H213093   5.392   1.385   0.833
 4011WAT      O13094   5.747   1.567   0.598
 4011WAT     H113095   5.798   1.506   0.546
 4011WAT     H213096   5.812   1.618   0.648
 4012WAT      O13097   6.020   1.656   0.681
 4012WAT     H113098   6.049   1.631   0.594
 4012WAT     H213099   6.072   1.601   0.740
 4013WAT      O13100   5.214   1.678   0.241
 4013WAT     H113101   5.198   1.614   0.311
 4013WAT     H213102   5.128   1.698   0.206
 4014WAT      O13103   5.931   0.272   0.290
 4014WAT     H113104   5.850   0.235   0.256
 4014WAT     H213105   5.981   0.197   0.321
 4015WAT      O13106   6.027   1.748   1.418
 4015WAT     H113107   6.120   1.725   1.422
 4015WAT     H213108   6.026   1.831   1.370
 4016WAT      O13109   6.684   1.671   1.400
 4016WAT     H113110   6.763   1.622   1.380
 4016WAT     H213111   6.713   1.739   1.461
 4017WAT      O13112   4.419   6.391   5.998
 4017WAT     H113113   4.411   6.299   5.971
 4017WAT     H213114   4.378   6.440   5.928
 4018WAT      O13115   4.232   6.568   6.186
 4018WAT     H113116   4.155   6.520   6.215
 4018WAT     H213117   4.297   6.501   6.169
 4019WAT      O13118   3.634   6.600   6.274
 4019WAT     H113119   3.551   6.574   6.314
 4019WAT     H213120   3.695   6.607   6.348
 4020WAT      O13121   4.634   7.009   6.064
 4020WAT     H113122   4.588   6.932   6.097
 4020WAT     H213123   4.716   7.012   6.115
 4021WAT      O13124   3.632   7.003   6.294
 4021WAT     H113125   3.662   6.914   6.276
 4021WAT     H213126   3.706   7.059   6.271
 4022WAT      O13127   3.475   6.096   5.652
 4022WAT     H113128   3.386   6.130   5.642
 4022WAT     H213129   3.503   6.076   5.563
 4023WAT      O13130   3.271   6.356   6.241
 4023WAT     H113131   3.328   6.279   6.241
 4023WAT     H213132   3.271   6.386   6.150
 4024WAT      O13133   4.176   6.836   6.187
 4024WAT     H113134   4.169   6.742   6.171
 4024WAT     H213135   4.253   6.845   6.244
 4025WAT      O13136   3.395   5.897   6.420
 4025WAT     H113137   3.378   5.807   6.448
 4025WAT     H213138   3.355   5.951   6.487
 4026WAT      O13139   4.279   6.117   6.210
 4026WAT     H113140   4.317   6.029   6.198
 4026WAT     H213141   4.270   6.150   6.121
 4027WAT      O13142   3.693   5.954   5.756
 4027WAT     H113143   3.703   6.044   5.787
 4027WAT     H213144   3.601   5.949   5.727
 4028WAT      O13145   4.658   5.866   5.903
 4028WAT     H113146   4.740   5.817   5.907
 4028WAT     H213147   4.661   5.925   5.978
 4029WAT      O13148   3.457   6.146   6.280
 4029WAT     H113149   3.525   6.173   6.342
 4029WAT     H213150   3.426   6.062   6.314
 4030WAT      O13151   3.877   6.251   6.189
 4030WAT     H113152   3.927   6.301   6.253
 4030WAT     H213153   3.930   6.173   6.171
 4031WAT      O13154   4.344   6.726   5.766
 4031WAT     H113155   4.282   6.773   5.709
 4031WAT     H213156   4.395   6.795   5.807
 4032WAT      O13157   3.830   6.679   6.433
 4032WAT     H113158   3.797   6.741   6.498
 4032WAT     H213159   3.848   6.731   6.355
 4033WAT      O13160   4.681   6.060   6.180
 4033WAT     H113161   4.611   6.089   6.238
 4033WAT     H213162   4.717   6.141   6.144
 4034WAT      O13163   3.673   5.886   6.416
 4034WAT     H113164   3.707   5.970   6.387
 4034WAT     H213165   3.579   5.901   6.428
 4035WAT      O13166   3.280   6.795   5.503
 4035WAT     H113167   3.243   6.843   5.430
 4035WAT     H213168   3.306   6.862   5.566
 4036WAT      O13169   4.843   7.022   6.406
 4036WAT     H113170   4.775   7.089   6.406
 4036WAT     H213171   4.897   7.042   6.330
 4037WAT      O13172   4.988   6.005   6.219
 4037WAT     H113173   4.893   6.008   6.232
 4037WAT     H213174   5.021   6.086   6.258
 4038WAT      O13175   4.041   5.635   6.049
 4038WAT     H113176   4.072   5.579   5.977
 4038WAT     H213177   3.948   5.648   6.031
 4039WAT      O13178   4.726   6.879   5.787
 4039WAT     H113179   4.715   6.784   5.799
 4039WAT     H213180   4.726   6.915   5.875
 4040WAT      O13181   4.536   6.697   6.411
 4040WAT     H113182   4.578   6.675   6.327
 4040WAT     H213183   4.609   6.722   6.468
 4041WAT      O13184   4.280   6.441   5.722
 4041WAT     H113185   4.187   6.435   5.745
 4041WAT     H213186   4.295   6.535   5.711
 4042WAT      O13187   4.279   6.068   5.422
 4042WAT     H113188   4.185   6.085   5.431
 4042WAT     H213189   4.311   6.140   5.367
 4043WAT      O13190   4.931   6.537   6.420
 4043WAT     H113191   4.848   6.544   6.372
 4043WAT     H213192   4.991   6.595   6.373
 4044WAT      O13193   4.683   6.597   5.773
 4044WAT     H113194   4.621   6.564   5.708
 4044WAT     H213195   4.681   6.533   5.844
 4045WAT      O13196   3.841   6.494   6.001
 4045WAT     H113197   3.800   6.423   5.951
 4045WAT     H213198   3.849   6.459   6.090
 4046WAT      O13199   3.888   6.863   6.217
 4046WAT     H113200   3.858   6.802   6.149
 4046WAT     H213201   3.983   6.866   6.206
 4047WAT      O13202   3.712   6.171   6.379
 4047WAT     H113203   3.767   6.182   6.301
 4047WAT     H213204   3.763   6.209   6.450
 4048WAT      O13205   4.501   6.521   5.474
 4048WAT     H113206   4.545   6.438   5.459
 4048WAT     H213207   4.572   6.585   5.482
 4049WAT      O13208   4.312   7.015   5.870
 4049WAT     H113209   4.356   7.090   5.829
 4049WAT     H213210   4.306   7.040   5.963
 4050WAT      O13211   4.859   5.647   5.305
 4050WAT     H113212   4.828   5.656   5.395
 4050WAT     H213213   4.935   5.705   5.300
 4051WAT      O13214   3.511   6.383   5.751
 4051WAT     H113215   3.499   6.456   5.690
 4051WAT     H213216   3.480   6.306   5.703
 4052WAT      O13217   3.275   6.701   6.331
 4052WAT     H113218   3.282   6.714   6.237
 4052WAT     H213219   3.336   6.630   6.351
 4053WAT      O13220   3.399   6.871   5.972
 4053WAT     H113221   3.358   6.885   5.887
 4053WAT     H213222   3.488   6.842   5.952
 4054WAT      O13223   4.549   7.065   5.462
 4054WAT     H113224   4.479   7.065   5.396
 4054WAT     H213225   4.623   7.022   5.419
 4055WAT      O13226   3.757   5.718   6.089
 4055WAT     H113227   3.713   5.796   6.056
 4055WAT     H213228   3.813   5.750   6.160
 4056WAT      O13229   4.069   5.680   5.577
 4056WAT     H113230   4.007   5.679   5.650
 4056WAT     H213231   4.060   5.593   5.537
 4057WAT      O13232   3.961   5.772   6.275
 4057WAT     H113233   3.991   5.863   6.267
 4057WAT     H213234   4.016   5.723   6.213
 4058WAT      O13235   3.737   6.230   5.862
 4058WAT     H113236   3.714   6.208   5.952
 4058WAT     H213237   3.659   6.273   5.827
 4059WAT      O13238   4.460   6.231   5.722
 4059WAT     H113239   4.400   6.303   5.703
 4059WAT     H213240   4.514   6.224   5.643
 4060WAT      O13241   4.320   6.094   5.925
 4060WAT     H113242   4.360   6.126   5.843
 4060WAT     H213243   4.356   6.006   5.936
 4061WAT      O13244   3.224   5.753   6.147
 4061WAT     H113245   3.195   5.810   6.218
 4061WAT     H213246   3.298   5.705   6.183
 4062WAT      O13247   3.243   6.148   5.268
 4062WAT     H113248   3.234   6.242   5.282
 4062WAT     H213249   3.207   6.133   5.180
 4063WAT      O13250   4.379   6.353   6.334
 4063WAT     H113251   4.306   6.404   6.369
 4063WAT     H213252   4.339   6.272   6.304
 4064WAT      O13253   4.023   6.021   6.175
 4064WAT     H113254   4.023   5.977   6.090
 4064WAT     H213255   4.112   6.053   6.185
 4065WAT      O13256   3.608   6.009   6.071
 4065WAT     H113257   3.574   6.057   6.146
 4065WAT     H213258   3.531   5.964   6.035
 4066WAT      O13259   4.029   6.121   5.474
 4066WAT     H113260   4.041   6.117   5.569
 4066WAT     H213261   3.990   6.207   5.458
 4067WAT      O13262   4.425   5.899   6.275
 4067WAT     H113263   4.427   5.944   6.360
 4067WAT     H213264   4.400   5.809   6.297
 4068WAT      O13265   3.930   6.352   5.414
 4068WAT     H113266   3.873   6.307   5.351
 4068WAT     H213267   4.001   6.388   5.360
 4069WAT      O13268   4.053   6.427   6.349
 4069WAT     H113269   4.089   6.380   6.424
 4069WAT     H213270   4.034   6.514   6.383
 4070WAT      O13271   3.339   5.901   5.962
 4070WAT     H113272   3.310   5.865   6.046
 4070WAT     H213273   3.333   5.828   5.901
 4071WAT      O13274   3.684   6.752   5.641
 4071WAT     H113275   3.607   6.698   5.625
 4071WAT     H213276   3.757   6.700   5.607
 4072WAT      O13277   4.760   6.651   6.220
 4072WAT     H113278   4.832   6.701   6.181
 4072WAT     H213279   4.740   6.583   6.156
 4073WAT      O13280   4.306   5.791   5.634
 4073WAT     H113281   4.225   5.741   5.627
 4073WAT     H213282   4.287   5.875   5.593
 4074WAT      O13283   4.578   6.228   5.464
 4074WAT     H113284   4.667   6.259   5.447
 4074WAT     H213285   4.575   6.141   5.425
 4075WAT      O13286   3.689   6.718   6.005
 4075WAT     H113287   3.741   6.638   5.999
 4075WAT     H213288   3.644   6.712   6.089
 4076WAT      O13289   4.177   6.845   5.532
 4076WAT     H113290   4.212   6.920   5.482
 4076WAT     H213291   4.095   6.876   5.568
 4077WAT      O13292   4.805   6.359   5.411
 4077WAT     H113293   4.797   6.402   5.326
 4077WAT     H213294   4.877   6.405   5.454
 4078WAT      O13295   4.908   7.044   5.684
 4078WAT     H113296   4.844   6.979   5.711
 4078WAT     H213297   4.869   7.085   5.606
 4079WAT      O13298   4.466   6.777   6.068
 4079WAT     H113299   4.501   6.718   6.002
 4079WAT     H213300   4.377   6.745   6.086
 4080WAT      O13301   4.074   6.853   5.809
 4080WAT     H113302   4.143   6.908   5.847
 4080WAT     H213303   3.996   6.908   5.813
 4081WAT      O13304   3.288   6.415   5.358
 4081WAT     H113305   3.375   6.443   5.387
 4081WAT     H213306   3.239   6.496   5.347
 4082WAT      O13307   4.005   6.554   5.770
 4082WAT     H113308   4.050   6.635   5.793
 4082WAT     H213309   3.970   6.522   5.854
 4083WAT      O13310   3.595   5.588   5.818
 4083WAT     H113311   3.582   5.587   5.912
 4083WAT     H213312   3.512   5.622   5.783
 4084WAT      O13313   4.362   6.905   6.365
 4084WAT     H113314   4.427   6.835   6.376
 4084WAT     H213315   4.415   6.983   6.347
 4085WAT      O13316   4.747   6.934   5.337
 4085WAT     H113317   4.724   6.862   5.397
 4085WAT     H213318   4.708   6.909   5.254
 4086WAT      O13319   4.705   6.725   5.504
 4086WAT     H113320   4.676   6.771   5.582
 4086WAT     H213321   4.785   6.679   5.530
 4087WAT      O13322   3.927   7.075   5.497
 4087WAT     H113323   3.926   7.148   5.435
 4087WAT     H213324   3.835   7.050   5.506
 4088WAT      O13325   3.487   6.597   5.571
 4088WAT     H113326   3.426   6.671   5.572
 4088WAT     H213327   3.534   6.606   5.489
 4089WAT      O13328   4.781   5.909   5.620
 4089WAT     H113329   4.718   5.919   5.548
 4089WAT     H213330   4.731   5.931   5.699
 4090WAT      O13331   4.225   7.081   5.363
 4090WAT     H113332   4.235   7.060   5.270
 4090WAT     H213333   4.135   7.055   5.383
 4091WAT      O13334   3.978   6.137   5.761
 4091WAT     H113335   3.907   6.183   5.805
 4091WAT     H213336   4.006   6.071   5.825
 4092WAT      O13337   4.381   5.809   5.905
 4092WAT     H113338   4.368   5.811   5.810
 4092WAT     H213339   4.476   5.814   5.917
 4093WAT      O13340   3.798   5.967   5.499
 4093WAT     H113341   3.883   6.011   5.492
 4093WAT     H213342   3.761   5.999   5.581
 4094WAT      O13343   4.690   6.425   5.990
 4094WAT     H113344   4.596   6.426   6.007
 4094WAT     H213345   4.721   6.346   6.035
 4095WAT      O13346   3.688   6.593   5.346
 4095WAT     H113347   3.764   6.582   5.402
 4095WAT     H213348   3.696   6.523   5.281
 4096WAT      O13349   3.557   6.336   5.414
 4096WAT     H113350   3.565   6.241   5.426
 4096WAT     H213351   3.647   6.369   5.425
 4097WAT      O13352   3.326   6.958   5.712
 4097WAT     H113353   3.233   6.982   5.711
 4097WAT     H213354   3.372   7.040   5.700
 4098WAT      O13355   4.000   6.790   5.293
 4098WAT     H113356   3.990   6.729   5.366
 4098WAT     H213357   3.984   6.738   5.215
 4099WAT      O13358   4.324   6.697   5.354
 4099WAT     H113359   4.269   6.741   5.418
 4099WAT     H213360   4.386   6.646   5.406
 4100WAT      O13361   3.891   6.592   5.543
 4100WAT     H113362   3.933   6.576   5.628
 4100WAT     H213363   3.904   6.511   5.494
 4101WAT      O13364   4.142   6.495   5.268
 4101WAT     H113365   4.194   6.423   5.232
 4101WAT     H213366   4.207   6.559   5.298
 4102WAT      O13367   3.781   6.200   5.238
 4102WAT     H113368   3.761   6.113   5.274
 4102WAT     H213369   3.764   6.191   5.144
 4103WAT      O13370   4.529   5.681   5.491
 4103WAT     H113371   4.557   5.597   5.526
 4103WAT     H213372   4.451   5.704   5.542
 4104WAT      O13373   3.660   5.910   5.237
 4104WAT     H113374   3.691   5.910   5.146
 4104WAT     H213375   3.734   5.875   5.286
 4105WAT      O13376   3.982   5.804   5.335
 4105WAT     H113377   3.948   5.736   5.277
 4105WAT     H213378   4.002   5.758   5.417
 4106WAT      O13379   3.563   6.840   5.320
 4106WAT     H113380   3.607   6.895   5.386
 4106WAT     H213381   3.611   6.758   5.321
 4107WAT      O13382   3.284   7.119   6.065
 4107WAT     H113383   3.317   7.032   6.042
 4107WAT     H213384   3.327   7.140   6.148
 4108WAT      O13385   3.744   6.952   5.831
 4108WAT     H113386   3.714   6.940   5.921
 4108WAT     H213387   3.733   6.866   5.790
 4109WAT      O13388   5.021   6.930   5.302
 4109WAT     H113389   4.938   6.937   5.349
 4109WAT     H213390   5.038   7.019   5.271
 4110WAT      O13391   4.966   6.605   5.552
 4110WAT     H113392   5.043   6.662   5.563
 4110WAT     H213393   4.968   6.548   5.629
 4111WAT      O13394   3.316   6.457   5.975
 4111WAT     H113395   3.251   6.430   5.911
 4111WAT     H213396   3.400   6.446   5.930
 4112WAT      O13397   5.067   6.690   6.036
 4112WAT     H113398   5.104   6.612   5.996
 4112WAT     H213399   5.131   6.759   6.019
 4113WAT      O13400   4.972   6.634   5.268
 4113WAT     H113401   4.999   6.725   5.255
 4113WAT     H213402   4.953   6.628   5.361
 4114WAT      O13403   4.611   5.936   5.397
 4114WAT     H113404   4.653   5.918   5.313
 4114WAT     H213405   4.581   5.851   5.428
 4115WAT      O13406   4.961   6.428   5.767
 4115WAT     H113407   4.924   6.351   5.724
 4115WAT     H213408   4.888   6.466   5.816
 4116WAT      O13409   3.420   6.496   6.429
 4116WAT     H113410   3.457   6.487   6.517
 4116WAT     H213411   3.363   6.419   6.419
 4117WAT      O13412   3.238   6.178   5.569
 4117WAT     H113413   3.147   6.204   5.552
 4117WAT     H213414   3.286   6.205   5.491
 4118WAT      O13415   4.889   6.250   6.097
 4118WAT     H113416   4.941   6.201   6.034
 4118WAT     H213417   4.947   6.264   6.171
 4119WAT      O13418   4.907   6.259   6.449
 4119WAT     H113419   4.812   6.255   6.461
 4119WAT     H213420   4.925   6.350   6.426
 4120WAT      O13421   3.492   6.084   5.360
 4120WAT     H113422   3.563   6.041   5.312
 4120WAT     H213423   3.420   6.090   5.297
 4121WAT      O13424   3.457   5.689   5.264
 4121WAT     H113425   3.529   5.743   5.296
 4121WAT     H213426   3.484   5.662   5.177
 4122WAT      O13427   4.838   6.176   5.691
 4122WAT     H113428   4.887   6.153   5.769
 4122WAT     H213429   4.818   6.092   5.649
 4123WAT      O13430   3.426   5.614   6.254
 4123WAT     H113431   3.490   5.559   6.210
 4123WAT     H213432   3.468   5.640   6.337
 4124WAT      O13433   4.981   6.040   5.944
 4124WAT     H113434   4.970   6.024   6.038
 4124WAT     H213435   5.057   5.987   5.920
 4125WAT      O13436   5.069   5.823   5.268
 4125WAT     H113437   5.162   5.809   5.248
 4125WAT     H213438   5.067   5.831   5.364
 4126WAT      O13439   5.077   5.900   5.531
 4126WAT     H113440   4.997   5.893   5.584
 4126WAT     H213441   5.097   5.993   5.530
 4127WAT      O13442   3.932   7.102   6.505
 4127WAT     H113443   3.908   7.129   6.417
 4127WAT     H213444   4.026   7.120   6.511
 4128WAT      O13445   4.265   5.663   6.371
 4128WAT     H113446   4.187   5.710   6.399
 4128WAT     H213447   4.235   5.572   6.361
 4129WAT      O13448   4.720   5.733   6.176
 4129WAT     H113449   4.764   5.727   6.091
 4129WAT     H213450   4.693   5.824   6.183
 4130WAT      O13451   4.906   5.696   5.977
 4130WAT     H113452   4.900   5.602   5.962
 4130WAT     H213453   4.984   5.707   6.032
 4131WAT      O13454   3.399   5.693   5.624
 4131WAT     H113455   3.475   5.704   5.566
 4131WAT     H213456   3.353   5.777   5.619
 4132WAT      O13457   4.053   5.904   5.923
 4132WAT     H113458   3.972   5.867   5.889
 4132WAT     H213459   4.104   5.829   5.953
 4133WAT      O13460   4.504   5.571   6.046
 4133WAT     H113461   4.564   5.628   6.094
 4133WAT     H213462   4.430   5.627   6.024
 4134WAT      O13463   4.818   5.611   5.574
 4134WAT     H113464   4.837   5.701   5.601
 4134WAT     H213465   4.739   5.588   5.623
 4135WAT      O13466   3.636   5.746   5.478
 4135WAT     H113467   3.689   5.667   5.465
 4135WAT     H213468   3.700   5.814   5.501
 4136WAT      O13469   3.856   5.719   5.783
 4136WAT     H113470   3.793   5.649   5.800
 4136WAT     H213471   3.802   5.795   5.761
 4137WAT      O13472   3.674   6.986   5.506
 4137WAT     H113473   3.611   7.032   5.561
 4137WAT     H213474   3.685   6.901   5.549
 4138WAT      O13475   4.419   6.391   4.121
 4138WAT     H113476   4.411   6.299   4.094
 4138WAT     H213477   4.378   6.440   4.050
 4139WAT      O13478   4.232   6.568   4.309
 4139WAT     H113479   4.155   6.520   4.338
 4139WAT     H213480   4.297   6.501   4.291
 4140WAT      O13481   3.634   6.600   4.397
 4140WAT     H113482   3.551   6.574   4.437
 4140WAT     H213483   3.695   6.607   4.470
 4141WAT      O13484   4.634   7.009   4.187
 4141WAT     H113485   4.588   6.932   4.220
 4141WAT     H213486   4.716   7.012   4.237
 4142WAT      O13487   3.632   7.003   4.416
 4142WAT     H113488   3.662   6.914   4.398
 4142WAT     H213489   3.706   7.059   4.393
 4143WAT      O13490   3.475   6.096   3.775
 4143WAT     H113491   3.386   6.130   3.765
 4143WAT     H213492   3.503   6.076   3.686
 4144WAT      O13493   3.271   6.356   4.363
 4144WAT     H113494   3.328   6.279   4.363
 4144WAT     H213495   3.271   6.386   4.272
 4145WAT      O13496   4.176   6.836   4.310
 4145WAT     H113497   4.169   6.742   4.293
 4145WAT     H213498   4.253   6.845   4.367
 4146WAT      O13499   3.395   5.897   4.542
 4146WAT     H113500   3.378   5.807   4.570
 4146WAT     H213501   3.355   5.951   4.610
 4147WAT      O13502   4.279   6.117   4.332
 4147WAT     H113503   4.317   6.029   4.321
 4147WAT     H213504   4.270   6.150   4.243
 4148WAT      O13505   3.693   5.954   3.878
 4148WAT     H113506   3.703   6.044   3.909
 4148WAT     H213507   3.601   5.949   3.849
 4149WAT      O13508   4.658   5.866   4.026
 4149WAT     H113509   4.740   5.817   4.030
 4149WAT     H213510   4.661   5.925   4.101
 4150WAT      O13511   3.457   6.146   4.403
 4150WAT     H113512   3.525   6.173   4.465
 4150WAT     H213513   3.426   6.062   4.436
 4151WAT      O13514   3.877   6.251   4.312
 4151WAT     H113515   3.927   6.301   4.376
 4151WAT     H213516   3.930   6.173   4.294
 4152WAT      O13517   5.087   6.068   4.682
 4152WAT     H113518   5.016   6.107   4.630
 4152WAT     H213519   5.113   6.137   4.742
 4153WAT      O13520   3.705   5.715   4.738
 4153WAT     H113521   3.705   5.767   4.658
 4153WAT     H213522   3.622   5.667   4.736
 4154WAT      O13523   4.344   6.726   3.888
 4154WAT     H113524   4.282   6.773   3.832
 4154WAT     H213525   4.395   6.795   3.930
 4155WAT      O13526   3.830   6.679   4.556
 4155WAT     H113527   3.797   6.741   4.620
 4155WAT     H213528   3.848   6.731   4.478
 4156WAT      O13529   4.681   6.060   4.303
 4156WAT     H113530   4.611   6.089   4.361
 4156WAT     H213531   4.717   6.141   4.267
 4157WAT      O13532   3.673   5.886   4.539
 4157WAT     H113533   3.707   5.970   4.510
 4157WAT     H213534   3.579   5.901   4.551
 4158WAT      O13535   3.751   6.876   4.738
 4158WAT     H113536   3.813   6.943   4.709
 4158WAT     H213537   3.665   6.916   4.728
 4159WAT      O13538   3.280   6.795   3.626
 4159WAT     H113539   3.243   6.843   3.552
 4159WAT     H213540   3.306   6.862   3.689
 4160WAT      O13541   4.843   7.022   4.529
 4160WAT     H113542   4.775   7.089   4.528
 4160WAT     H213543   4.897   7.042   4.452
 4161WAT      O13544   4.988   6.005   4.342
 4161WAT     H113545   4.893   6.008   4.355
 4161WAT     H213546   5.021   6.086   4.380
 4162WAT      O13547   4.041   5.635   4.171
 4162WAT     H113548   4.072   5.579   4.100
 4162WAT     H213549   3.948   5.648   4.153
 4163WAT      O13550   4.726   6.879   3.909
 4163WAT     H113551   4.715   6.784   3.922
 4163WAT     H213552   4.726   6.915   3.998
 4164WAT      O13553   4.536   6.697   4.533
 4164WAT     H113554   4.578   6.675   4.450
 4164WAT     H213555   4.609   6.722   4.590
 4165WAT      O13556   4.280   6.441   3.845
 4165WAT     H113557   4.187   6.435   3.868
 4165WAT     H213558   4.295   6.535   3.834
 4166WAT      O13559   4.279   6.068   3.545
 4166WAT     H113560   4.185   6.085   3.553
 4166WAT     H213561   4.311   6.140   3.490
 4167WAT      O13562   4.931   6.537   4.542
 4167WAT     H113563   4.848   6.544   4.495
 4167WAT     H213564   4.991   6.595   4.496
 4168WAT      O13565   4.683   6.597   3.895
 4168WAT     H113566   4.621   6.564   3.831
 4168WAT     H213567   4.681   6.533   3.966
 4169WAT      O13568   4.627   6.215   4.637
 4169WAT     H113569   4.586   6.298   4.662
 4169WAT     H213570   4.554   6.157   4.618
 4170WAT      O13571   3.841   6.494   4.123
 4170WAT     H113572   3.800   6.423   4.074
 4170WAT     H213573   3.849   6.459   4.212
 4171WAT      O13574   3.888   6.863   4.340
 4171WAT     H113575   3.858   6.802   4.272
 4171WAT     H213576   3.983   6.866   4.329
 4172WAT      O13577   3.712   6.171   4.501
 4172WAT     H113578   3.767   6.182   4.424
 4172WAT     H213579   3.763   6.209   4.573
 4173WAT      O13580   3.797   6.836   5.005
 4173WAT     H113581   3.707   6.859   5.029
 4173WAT     H213582   3.799   6.849   4.910
 4174WAT      O13583   4.501   6.521   3.596
 4174WAT     H113584   4.545   6.438   3.581
 4174WAT     H213585   4.572   6.585   3.605
 4175WAT      O13586   3.679   6.524   4.862
 4175WAT     H113587   3.666   6.611   4.899
 4175WAT     H213588   3.591   6.489   4.848
 4176WAT      O13589   4.312   7.015   3.993
 4176WAT     H113590   4.356   7.090   3.951
 4176WAT     H213591   4.306   7.040   4.085
 4177WAT      O13592   3.859   7.118   5.083
 4177WAT     H113593   3.856   7.158   4.996
 4177WAT     H213594   3.843   7.025   5.067
 4178WAT      O13595   4.859   5.647   3.428
 4178WAT     H113596   4.828   5.656   3.518
 4178WAT     H213597   4.935   5.705   3.422
 4179WAT      O13598   3.511   6.383   3.873
 4179WAT     H113599   3.499   6.456   3.812
 4179WAT     H213600   3.480   6.306   3.826
 4180WAT      O13601   3.275   6.701   4.454
 4180WAT     H113602   3.282   6.714   4.360
 4180WAT     H213603   3.336   6.630   4.473
 4181WAT      O13604   3.399   6.871   4.095
 4181WAT     H113605   3.358   6.885   4.010
 4181WAT     H213606   3.488   6.842   4.075
 4182WAT      O13607   4.995   6.915   4.929
 4182WAT     H113608   5.007   6.891   4.837
 4182WAT     H213609   4.999   6.832   4.976
 4183WAT      O13610   4.549   7.065   3.585
 4183WAT     H113611   4.479   7.065   3.519
 4183WAT     H213612   4.623   7.022   3.541
 4184WAT      O13613   4.980   6.120   5.025
 4184WAT     H113614   4.918   6.171   4.972
 4184WAT     H213615   4.948   6.030   5.020
 4185WAT      O13616   3.280   6.805   4.708
 4185WAT     H113617   3.297   6.758   4.626
 4185WAT     H213618   3.327   6.754   4.774
 4186WAT      O13619   3.757   5.718   4.212
 4186WAT     H113620   3.713   5.796   4.178
 4186WAT     H213621   3.813   5.750   4.282
 4187WAT      O13622   4.186   6.004   4.772
 4187WAT     H113623   4.140   6.025   4.853
 4187WAT     H213624   4.146   5.923   4.742
 4188WAT      O13625   4.686   6.126   4.885
 4188WAT     H113626   4.601   6.097   4.917
 4188WAT     H213627   4.670   6.151   4.794
 4189WAT      O13628   4.396   6.277   5.095
 4189WAT     H113629   4.428   6.193   5.061
 4189WAT     H213630   4.474   6.329   5.110
 4190WAT      O13631   4.069   5.680   3.700
 4190WAT     H113632   4.007   5.679   3.772
 4190WAT     H213633   4.060   5.593   3.660
 4191WAT      O13634   3.961   5.772   4.397
 4191WAT     H113635   3.991   5.863   4.389
 4191WAT     H213636   4.016   5.723   4.336
 4192WAT      O13637   3.737   6.230   3.984
 4192WAT     H113638   3.714   6.208   4.075
 4192WAT     H213639   3.659   6.273   3.950
 4193WAT      O13640   4.460   6.231   3.844
 4193WAT     H113641   4.400   6.303   3.826
 4193WAT     H213642   4.514   6.224   3.766
 4194WAT      O13643   3.981   6.320   5.051
 4194WAT     H113644   3.971   6.226   5.036
 4194WAT     H213645   4.065   6.342   5.011
 4195WAT      O13646   4.320   6.094   4.047
 4195WAT     H113647   4.360   6.126   3.966
 4195WAT     H213648   4.356   6.006   4.059
 4196WAT      O13649   3.494   5.961   4.866
 4196WAT     H113650   3.454   6.046   4.887
 4196WAT     H213651   3.425   5.897   4.885
 4197WAT      O13652   4.151   5.969   5.173
 4197WAT     H113653   4.082   5.950   5.237
 4197WAT     H213654   4.225   5.998   5.226
 4198WAT      O13655   3.224   5.753   4.270
 4198WAT     H113656   3.195   5.810   4.341
 4198WAT     H213657   3.298   5.705   4.306
 4199WAT      O13658   3.243   6.148   3.391
 4199WAT     H113659   3.234   6.242   3.405
 4199WAT     H213660   3.207   6.133   3.303
 4200WAT      O13661   4.379   6.353   4.457
 4200WAT     H113662   4.306   6.404   4.492
 4200WAT     H213663   4.339   6.272   4.427
 4201WAT      O13664   4.023   6.021   4.297
 4201WAT     H113665   4.023   5.977   4.212
 4201WAT     H213666   4.112   6.053   4.308
 4202WAT      O13667   3.608   6.009   4.193
 4202WAT     H113668   3.574   6.057   4.269
 4202WAT     H213669   3.531   5.964   4.157
 4203WAT      O13670   4.029   6.121   3.596
 4203WAT     H113671   4.041   6.117   3.691
 4203WAT     H213672   3.990   6.207   3.581
 4204WAT      O13673   4.425   5.899   4.398
 4204WAT     H113674   4.427   5.944   4.482
 4204WAT     H213675   4.400   5.809   4.419
 4205WAT      O13676   3.930   6.352   3.536
 4205WAT     H113677   3.873   6.307   3.474
 4205WAT     H213678   4.001   6.388   3.483
 4206WAT      O13679   4.768   5.640   4.982
 4206WAT     H113680   4.800   5.567   5.034
 4206WAT     H213681   4.771   5.608   4.892
 4207WAT      O13682   3.438   6.742   4.924
 4207WAT     H113683   3.399   6.678   4.984
 4207WAT     H213684   3.469   6.813   4.981
 4208WAT      O13685   4.053   6.427   4.472
 4208WAT     H113686   4.089   6.380   4.547
 4208WAT     H213687   4.034   6.514   4.506
 4209WAT      O13688   3.339   5.901   4.085
 4209WAT     H113689   3.310   5.865   4.169
 4209WAT     H213690   3.333   5.828   4.024
 4210WAT      O13691   3.832   6.331   4.704
 4210WAT     H113692   3.801   6.419   4.726
 4210WAT     H213693   3.927   6.337   4.707
 4211WAT      O13694   3.684   6.752   3.763
 4211WAT     H113695   3.607   6.698   3.747
 4211WAT     H213696   3.757   6.700   3.730
 4212WAT      O13697   4.760   6.651   4.343
 4212WAT     H113698   4.832   6.701   4.304
 4212WAT     H213699   4.740   6.583   4.278
 4213WAT      O13700   4.306   5.791   3.757
 4213WAT     H113701   4.225   5.741   3.749
 4213WAT     H213702   4.287   5.875   3.715
 4214WAT      O13703   4.298   6.658   4.931
 4214WAT     H113704   4.292   6.566   4.906
 4214WAT     H213705   4.236   6.668   5.003
 4215WAT      O13706   4.578   6.228   3.587
 4215WAT     H113707   4.667   6.259   3.569
 4215WAT     H213708   4.575   6.141   3.547
 4216WAT      O13709   3.689   6.718   4.127
 4216WAT     H113710   3.741   6.638   4.122
 4216WAT     H213711   3.644   6.712   4.211
 4217WAT      O13712   4.177   6.845   3.655
 4217WAT     H113713   4.212   6.920   3.605
 4217WAT     H213714   4.095   6.876   3.691
 4218WAT      O13715   3.437   6.415   4.819
 4218WAT     H113716   3.401   6.482   4.877
 4218WAT     H213717   3.408   6.332   4.856
 4219WAT      O13718   3.757   6.461   5.107
 4219WAT     H113719   3.727   6.475   5.017
 4219WAT     H213720   3.834   6.405   5.098
 4220WAT      O13721   4.292   6.941   4.906
 4220WAT     H113722   4.293   6.847   4.885
 4220WAT     H213723   4.221   6.949   4.970
 4221WAT      O13724   4.805   6.359   3.533
 4221WAT     H113725   4.797   6.402   3.448
 4221WAT     H213726   4.877   6.405   3.577
 4222WAT      O13727   4.913   6.605   4.841
 4222WAT     H113728   4.840   6.664   4.821
 4222WAT     H213729   4.966   6.604   4.761
 4223WAT      O13730   4.908   7.044   3.806
 4223WAT     H113731   4.844   6.979   3.834
 4223WAT     H213732   4.869   7.085   3.729
 4224WAT      O13733   4.466   6.777   4.191
 4224WAT     H113734   4.501   6.718   4.125
 4224WAT     H213735   4.377   6.745   4.208
 4225WAT      O13736   4.074   6.853   3.932
 4225WAT     H113737   4.143   6.908   3.970
 4225WAT     H213738   3.996   6.908   3.935
 4226WAT      O13739   3.288   6.415   3.481
 4226WAT     H113740   3.375   6.443   3.509
 4226WAT     H213741   3.239   6.496   3.469
 4227WAT      O13742   4.005   6.554   3.893
 4227WAT     H113743   4.050   6.635   3.916
 4227WAT     H213744   3.970   6.522   3.976
 4228WAT      O13745   4.235   7.105   4.616
 4228WAT     H113746   4.299   7.125   4.684
 4228WAT     H213747   4.271   7.029   4.571
 4229WAT      O13748   3.595   5.588   3.940
 4229WAT     H113749   3.582   5.587   4.035
 4229WAT     H213750   3.512   5.622   3.905
 4230WAT      O13751   4.362   6.905   4.488
 4230WAT     H113752   4.427   6.835   4.499
 4230WAT     H213753   4.415   6.983   4.470
 4231WAT      O13754   4.747   6.934   3.460
 4231WAT     H113755   4.724   6.862   3.519
 4231WAT     H213756   4.708   6.909   3.376
 4232WAT      O13757   4.540   6.985   4.808
 4232WAT     H113758   4.573   7.044   4.876
 4232WAT     H213759   4.448   6.972   4.831
 4233WAT      O13760   3.295   5.764   4.886
 4233WAT     H113761   3.223   5.784   4.947
 4233WAT     H213762   3.337   5.686   4.923
 4234WAT      O13763   4.705   6.725   3.626
 4234WAT     H113764   4.676   6.771   3.705
 4234WAT     H213765   4.785   6.679   3.653
 4235WAT      O13766   3.323   7.163   4.985
 4235WAT     H113767   3.334   7.069   4.971
 4235WAT     H213768   3.258   7.189   4.920
 4236WAT      O13769   4.123   6.990   5.125
 4236WAT     H113770   4.091   6.918   5.179
 4236WAT     H213771   4.055   7.057   5.132
 4237WAT      O13772   3.927   7.075   3.619
 4237WAT     H113773   3.926   7.148   3.558
 4237WAT     H213774   3.835   7.050   3.628
 4238WAT      O13775   3.487   6.597   3.694
 4238WAT     H113776   3.426   6.671   3.695
 4238WAT     H213777   3.534   6.606   3.611
 4239WAT      O13778   4.444   6.013   4.661
 4239WAT     H113779   4.481   5.931   4.694
 4239WAT     H213780   4.358   6.019   4.703
 4240WAT      O13781   4.781   5.909   3.742
 4240WAT     H113782   4.718   5.919   3.671
 4240WAT     H213783   4.731   5.931   3.821
 4241WAT      O13784   4.225   7.081   3.485
 4241WAT     H113785   4.235   7.060   3.392
 4241WAT     H213786   4.135   7.055   3.506
 4242WAT      O13787   3.978   6.137   3.884
 4242WAT     H113788   3.907   6.183   3.928
 4242WAT     H213789   4.006   6.071   3.947
 4243WAT      O13790   4.140   6.279   4.684
 4243WAT     H113791   4.190   6.326   4.750
 4243WAT     H213792   4.154   6.186   4.704
 4244WAT      O13793   4.381   5.809   4.028
 4244WAT     H113794   4.368   5.811   3.933
 4244WAT     H213795   4.476   5.814   4.040
 4245WAT      O13796   3.798   5.967   3.621
 4245WAT     H113797   3.883   6.011   3.615
 4245WAT     H213798   3.761   5.999   3.704
 4246WAT      O13799   4.861   5.900   4.768
 4246WAT     H113800   4.811   5.974   4.802
 4246WAT     H213801   4.942   5.939   4.736
 4247WAT      O13802   4.690   6.425   4.113
 4247WAT     H113803   4.596   6.426   4.130
 4247WAT     H213804   4.721   6.346   4.157
 4248WAT      O13805   3.688   6.593   3.469
 4248WAT     H113806   3.764   6.582   3.525
 4248WAT     H213807   3.696   6.523   3.403
 4249WAT      O13808   3.557   6.336   3.537
 4249WAT     H113809   3.565   6.241   3.548
 4249WAT     H213810   3.647   6.369   3.548
 4250WAT      O13811   3.326   6.958   3.835
 4250WAT     H113812   3.233   6.982   3.834
 4250WAT     H213813   3.372   7.040   3.823
 4251WAT      O13814   4.422   6.880   5.161
 4251WAT     H113815   4.361   6.883   5.087
 4251WAT     H213816   4.391   6.807   5.215
 4252WAT      O13817   3.310   6.518   5.060
 4252WAT     H113818   3.360   6.460   5.118
 4252WAT     H213819   3.236   6.547   5.114
 4253WAT      O13820   4.000   6.790   3.416
 4253WAT     H113821   3.990   6.729   3.489
 4253WAT     H213822   3.984   6.738   3.338
 4254WAT      O13823   4.015   6.659   5.014
 4254WAT     H113824   3.939   6.716   5.005
 4254WAT     H213825   4.034   6.630   4.925
 4255WAT      O13826   4.324   6.697   3.476
 4255WAT     H113827   4.269   6.741   3.541
 4255WAT     H213828   4.386   6.646   3.529
 4256WAT      O13829   4.730   6.832   5.070
 4256WAT     H113830   4.804   6.866   5.019
 4256WAT     H213831   4.653   6.849   5.014
 4257WAT      O13832   3.513   6.332   5.150
 4257WAT     H113833   3.517   6.303   5.241
 4257WAT     H213834   3.599   6.373   5.134
 4258WAT      O13835   3.891   6.592   3.666
 4258WAT     H113836   3.933   6.576   3.750
 4258WAT     H213837   3.904   6.511   3.617
 4259WAT      O13838   3.707   6.190   4.947
 4259WAT     H113839   3.654   6.141   4.884
 4259WAT     H213840   3.774   6.233   4.893
 4260WAT      O13841   4.142   6.495   3.391
 4260WAT     H113842   4.194   6.423   3.354
 4260WAT     H213843   4.207   6.559   3.421
 4261WAT      O13844   4.597   6.637   4.923
 4261WAT     H113845   4.639   6.653   5.008
 4261WAT     H213846   4.504   6.650   4.939
 4262WAT      O13847   4.644   6.371   5.124
 4262WAT     H113848   4.703   6.296   5.115
 4262WAT     H213849   4.662   6.424   5.046
 4263WAT      O13850   3.756   5.887   4.955
 4263WAT     H113851   3.747   5.825   4.882
 4263WAT     H213852   3.698   5.960   4.932
 4264WAT      O13853   4.033   5.743   4.658
 4264WAT     H113854   3.988   5.745   4.573
 4264WAT     H213855   3.969   5.703   4.718
 4265WAT      O13856   4.073   6.632   4.720
 4265WAT     H113857   4.115   6.717   4.703
 4265WAT     H213858   3.981   6.646   4.697
 4266WAT      O13859   4.307   6.405   4.858
 4266WAT     H113860   4.319   6.346   4.932
 4266WAT     H213861   4.393   6.409   4.816
 4267WAT      O13862   4.541   6.461   4.716
 4267WAT     H113863   4.488   6.513   4.656
 4267WAT     H213864   4.575   6.524   4.779
 4268WAT      O13865   3.781   6.200   3.361
 4268WAT     H113866   3.761   6.113   3.397
 4268WAT     H213867   3.764   6.191   3.267
 4269WAT      O13868   3.984   6.060   4.984
 4269WAT     H113869   4.043   6.029   5.053
 4269WAT     H213870   3.902   6.012   5.000
 4270WAT      O13871   4.466   6.021   5.008
 4270WAT     H113872   4.397   5.955   5.001
 4270WAT     H213873   4.538   5.977   5.052
 4271WAT      O13874   4.529   5.681   3.613
 4271WAT     H113875   4.557   5.597   3.649
 4271WAT     H213876   4.451   5.704   3.665
 4272WAT      O13877   3.660   5.910   3.359
 4272WAT     H113878   3.691   5.910   3.269
 4272WAT     H213879   3.734   5.875   3.409
 4273WAT      O13880   3.982   5.804   3.458
 4273WAT     H113881   3.948   5.736   3.400
 4273WAT     H213882   4.002   5.758   3.539
 4274WAT      O13883   3.563   6.840   3.443
 4274WAT     H113884   3.607   6.895   3.508
 4274WAT     H213885   3.611   6.758   3.444
 4275WAT      O13886   3.284   7.119   4.188
 4275WAT     H113887   3.317   7.032   4.165
 4275WAT     H213888   3.327   7.140   4.271
 4276WAT      O13889   3.744   6.952   3.954
 4276WAT     H113890   3.714   6.940   4.044
 4276WAT     H213891   3.733   6.866   3.913
 4277WAT      O13892   4.897   7.156   4.890
 4277WAT     H113893   4.837   7.162   4.816
 4277WAT     H213894   4.910   7.062   4.903
 4278WAT      O13895   5.021   6.930   3.424
 4278WAT     H113896   4.938   6.937   3.471
 4278WAT     H213897   5.038   7.019   3.394
 4279WAT      O13898   4.966   6.605   3.674
 4279WAT     H113899   5.043   6.662   3.685
 4279WAT     H213900   4.968   6.548   3.752
 4280WAT      O13901   3.316   6.457   4.098
 4280WAT     H113902   3.251   6.430   4.033
 4280WAT     H213903   3.400   6.446   4.053
 4281WAT      O13904   5.067   6.690   4.159
 4281WAT     H113905   5.104   6.612   4.118
 4281WAT     H213906   5.131   6.759   4.141
 4282WAT      O13907   4.765   6.829   4.700
 4282WAT     H113908   4.684   6.871   4.726
 4282WAT     H213909   4.806   6.890   4.639
 4283WAT      O13910   4.972   6.634   3.390
 4283WAT     H113911   4.999   6.725   3.377
 4283WAT     H213912   4.953   6.628   3.484
 4284WAT      O13913   4.611   5.936   3.520
 4284WAT     H113914   4.653   5.918   3.436
 4284WAT     H213915   4.581   5.851   3.551
 4285WAT      O13916   4.961   6.428   3.890
 4285WAT     H113917   4.924   6.351   3.846
 4285WAT     H213918   4.888   6.466   3.938
 4286WAT      O13919   3.420   6.496   4.552
 4286WAT     H113920   3.457   6.487   4.640
 4286WAT     H213921   3.363   6.419   4.542
 4287WAT      O13922   4.900   6.342   4.853
 4287WAT     H113923   4.877   6.320   4.763
 4287WAT     H213924   4.926   6.434   4.848
 4288WAT      O13925   3.375   6.187   4.942
 4288WAT     H113926   3.286   6.183   4.976
 4288WAT     H213927   3.429   6.206   5.019
 4289WAT      O13928   4.744   5.865   5.131
 4289WAT     H113929   4.832   5.866   5.169
 4289WAT     H213930   4.745   5.791   5.070
 4290WAT      O13931   3.238   6.178   3.692
 4290WAT     H113932   3.147   6.204   3.674
 4290WAT     H213933   3.286   6.205   3.614
 4291WAT      O13934   4.889   6.250   4.220
 4291WAT     H113935   4.941   6.201   4.156
 4291WAT     H213936   4.947   6.264   4.294
 4292WAT      O13937   4.907   6.259   4.572
 4292WAT     H113938   4.812   6.255   4.583
 4292WAT     H213939   4.925   6.350   4.548
 4293WAT      O13940   3.492   6.084   3.483
 4293WAT     H113941   3.563   6.041   3.434
 4293WAT     H213942   3.420   6.090   3.420
 4294WAT      O13943   3.457   5.689   3.387
 4294WAT     H113944   3.529   5.743   3.419
 4294WAT     H213945   3.484   5.662   3.299
 4295WAT      O13946   4.838   6.176   3.814
 4295WAT     H113947   4.887   6.153   3.892
 4295WAT     H213948   4.818   6.092   3.772
 4296WAT      O13949   3.426   5.614   4.377
 4296WAT     H113950   3.490   5.559   4.333
 4296WAT     H213951   3.468   5.640   4.459
 4297WAT      O13952   4.981   6.040   4.067
 4297WAT     H113953   4.970   6.024   4.161
 4297WAT     H213954   5.057   5.987   4.043
 4298WAT      O13955   4.815   5.634   4.713
 4298WAT     H113956   4.879   5.695   4.749
 4298WAT     H213957   4.830   5.637   4.618
 4299WAT      O13958   5.069   5.823   3.391
 4299WAT     H113959   5.162   5.809   3.370
 4299WAT     H213960   5.067   5.831   3.486
 4300WAT      O13961   5.077   5.900   3.654
 4300WAT     H113962   4.997   5.893   3.706
 4300WAT     H213963   5.097   5.993   3.652
 4301WAT      O13964   3.401   5.630   4.651
 4301WAT     H113965   3.366   5.675   4.728
 4301WAT     H213966   3.368   5.540   4.659
 4302WAT      O13967   3.562   6.947   5.068
 4302WAT     H113968   3.557   6.910   5.156
 4302WAT     H213969   3.575   7.041   5.082
 4303WAT      O13970   3.932   7.102   4.628
 4303WAT     H113971   3.908   7.129   4.539
 4303WAT     H213972   4.026   7.120   4.633
 4304WAT      O13973   4.152   5.749   5.003
 4304WAT     H113974   4.146   5.808   5.078
 4304WAT     H213975   4.246   5.738   4.989
 4305WAT      O13976   4.416   5.714   4.967
 4305WAT     H113977   4.477   5.746   4.901
 4305WAT     H213978   4.470   5.666   5.029
 4306WAT      O13979   3.468   5.582   4.979
 4306WAT     H113980   3.523   5.564   4.902
 4306WAT     H213981   3.475   5.503   5.032
 4307WAT      O13982   4.490   5.571   4.600
 4307WAT     H113983   4.403   5.604   4.580
 4307WAT     H213984   4.479   5.524   4.683
 4308WAT      O13985   4.581   5.792   4.738
 4308WAT     H113986   4.548   5.710   4.701
 4308WAT     H213987   4.676   5.787   4.726
 4309WAT      O13988   3.509   6.978   4.675
 4309WAT     H113989   3.436   6.916   4.668
 4309WAT     H213990   3.515   7.017   4.588
 4310WAT      O13991   4.265   5.663   4.494
 4310WAT     H113992   4.187   5.710   4.522
 4310WAT     H213993   4.235   5.572   4.483
 4311WAT      O13994   4.720   5.733   4.299
 4311WAT     H113995   4.764   5.727   4.214
 4311WAT     H213996   4.693   5.824   4.306
 4312WAT      O13997   4.906   5.696   4.100
 4312WAT     H113998   4.900   5.602   4.085
 4312WAT     H213999   4.984   5.707   4.154
 4313WAT      O14000   3.399   5.693   3.746
 4313WAT     H114001   3.475   5.704   3.689
 4313WAT     H214002   3.353   5.777   3.742
 4314WAT      O14003   4.053   5.904   4.045
 4314WAT     H114004   3.972   5.867   4.011
 4314WAT     H214005   4.104   5.829   4.075
 4315WAT      O14006   4.504   5.571   4.169
 4315WAT     H114007   4.564   5.628   4.216
 4315WAT     H214008   4.430   5.627   4.147
 4316WAT      O14009   4.818   5.611   3.696
 4316WAT     H114010   4.837   5.701   3.723
 4316WAT     H214011   4.739   5.588   3.746
 4317WAT      O14012   3.636   5.746   3.600
 4317WAT     H114013   3.689   5.667   3.587
 4317WAT     H214014   3.700   5.814   3.624
 4318WAT      O14015   3.856   5.719   3.906
 4318WAT     H114016   3.793   5.649   3.922
 4318WAT     H214017   3.802   5.795   3.884
 4319WAT      O14018   3.868   5.647   5.149
 4319WAT     H114019   3.840   5.698   5.073
 4319WAT     H214020   3.907   5.567   5.113
 4320WAT      O14021   3.674   6.986   3.628
 4320WAT     H114022   3.611   7.032   3.683
 4320WAT     H214023   3.685   6.901   3.672
 4321WAT      O14024   4.529   5.589   5.207
 4321WAT     H114025   4.517   5.621   5.296
 4321WAT     H214026   4.610   5.629   5.177
 4322WAT      O14027   4.419   6.391   2.243
 4322WAT     H114028   4.411   6.299   2.216
 4322WAT     H214029   4.378   6.440   2.173
 4323WAT      O14030   4.232   6.568   2.431
 4323WAT     H114031   4.155   6.520   2.460
 4323WAT     H214032   4.297   6.501   2.414
 4324WAT      O14033   3.634   6.600   2.519
 4324WAT     H114034   3.551   6.574   2.559
 4324WAT     H214035   3.695   6.607   2.593
 4325WAT      O14036   4.634   7.009   2.309
 4325WAT     H114037   4.588   6.932   2.342
 4325WAT     H214038   4.716   7.012   2.360
 4326WAT      O14039   3.632   7.003   2.539
 4326WAT     H114040   3.662   6.914   2.521
 4326WAT     H214041   3.706   7.059   2.516
 4327WAT      O14042   3.475   6.096   1.898
 4327WAT     H114043   3.386   6.130   1.887
 4327WAT     H214044   3.503   6.076   1.808
 4328WAT      O14045   3.271   6.356   2.486
 4328WAT     H114046   3.328   6.279   2.486
 4328WAT     H214047   3.271   6.386   2.395
 4329WAT      O14048   4.176   6.836   2.432
 4329WAT     H114049   4.169   6.742   2.416
 4329WAT     H214050   4.253   6.845   2.489
 4330WAT      O14051   3.395   5.897   2.665
 4330WAT     H114052   3.378   5.807   2.693
 4330WAT     H214053   3.355   5.951   2.732
 4331WAT      O14054   4.279   6.117   2.455
 4331WAT     H114055   4.317   6.029   2.444
 4331WAT     H214056   4.270   6.150   2.366
 4332WAT      O14057   3.693   5.954   2.001
 4332WAT     H114058   3.703   6.044   2.032
 4332WAT     H214059   3.601   5.949   1.972
 4333WAT      O14060   4.658   5.866   2.148
 4333WAT     H114061   4.740   5.817   2.152
 4333WAT     H214062   4.661   5.925   2.223
 4334WAT      O14063   3.457   6.146   2.525
 4334WAT     H114064   3.525   6.173   2.587
 4334WAT     H214065   3.426   6.062   2.559
 4335WAT      O14066   3.877   6.251   2.434
 4335WAT     H114067   3.927   6.301   2.498
 4335WAT     H214068   3.930   6.173   2.417
 4336WAT      O14069   5.087   6.068   2.805
 4336WAT     H114070   5.016   6.107   2.753
 4336WAT     H214071   5.113   6.137   2.865
 4337WAT      O14072   3.705   5.715   2.861
 4337WAT     H114073   3.705   5.767   2.780
 4337WAT     H214074   3.622   5.667   2.859
 4338WAT      O14075   4.344   6.726   2.011
 4338WAT     H114076   4.282   6.773   1.954
 4338WAT     H214077   4.395   6.795   2.052
 4339WAT      O14078   3.830   6.679   2.679
 4339WAT     H114079   3.797   6.741   2.743
 4339WAT     H214080   3.848   6.731   2.601
 4340WAT      O14081   4.681   6.060   2.425
 4340WAT     H114082   4.611   6.089   2.483
 4340WAT     H214083   4.717   6.141   2.389
 4341WAT      O14084   3.673   5.886   2.662
 4341WAT     H114085   3.707   5.970   2.632
 4341WAT     H214086   3.579   5.901   2.673
 4342WAT      O14087   3.751   6.876   2.860
 4342WAT     H114088   3.813   6.943   2.832
 4342WAT     H214089   3.665   6.916   2.851
 4343WAT      O14090   3.280   6.795   1.748
 4343WAT     H114091   3.243   6.843   1.675
 4343WAT     H214092   3.306   6.862   1.811
 4344WAT      O14093   4.843   7.022   2.652
 4344WAT     H114094   4.775   7.089   2.651
 4344WAT     H214095   4.897   7.042   2.575
 4345WAT      O14096   4.988   6.005   2.464
 4345WAT     H114097   4.893   6.008   2.478
 4345WAT     H214098   5.021   6.086   2.503
 4346WAT      O14099   4.041   5.635   2.294
 4346WAT     H114100   4.072   5.579   2.222
 4346WAT     H214101   3.948   5.648   2.276
 4347WAT      O14102   4.726   6.879   2.032
 4347WAT     H114103   4.715   6.784   2.044
 4347WAT     H214104   4.726   6.915   2.121
 4348WAT      O14105   4.536   6.697   2.656
 4348WAT     H114106   4.578   6.675   2.572
 4348WAT     H214107   4.609   6.722   2.713
 4349WAT      O14108   4.280   6.441   1.968
 4349WAT     H114109   4.187   6.435   1.990
 4349WAT     H214110   4.295   6.535   1.956
 4350WAT      O14111   4.279   6.068   1.667
 4350WAT     H114112   4.185   6.085   1.676
 4350WAT     H214113   4.311   6.140   1.613
 4351WAT      O14114   4.931   6.537   2.665
 4351WAT     H114115   4.848   6.544   2.618
 4351WAT     H214116   4.991   6.595   2.618
 4352WAT      O14117   4.683   6.597   2.018
 4352WAT     H114118   4.621   6.564   1.953
 4352WAT     H214119   4.681   6.533   2.089
 4353WAT      O14120   4.627   6.215   2.760
 4353WAT     H114121   4.586   6.298   2.785
 4353WAT     H214122   4.554   6.157   2.740
 4354WAT      O14123   3.841   6.494   2.246
 4354WAT     H114124   3.800   6.423   2.196
 4354WAT     H214125   3.849   6.459   2.335
 4355WAT      O14126   3.888   6.863   2.462
 4355WAT     H114127   3.858   6.802   2.394
 4355WAT     H214128   3.983   6.866   2.451
 4356WAT      O14129   3.712   6.171   2.624
 4356WAT     H114130   3.767   6.182   2.546
 4356WAT     H214131   3.763   6.209   2.695
 4357WAT      O14132   3.797   6.836   3.127
 4357WAT     H114133   3.707   6.859   3.152
 4357WAT     H214134   3.799   6.849   3.032
 4358WAT      O14135   4.501   6.521   1.719
 4358WAT     H114136   4.545   6.438   1.704
 4358WAT     H214137   4.572   6.585   1.727
 4359WAT      O14138   3.679   6.524   2.985
 4359WAT     H114139   3.666   6.611   3.022
 4359WAT     H214140   3.591   6.489   2.970
 4360WAT      O14141   4.312   7.015   2.115
 4360WAT     H114142   4.356   7.090   2.074
 4360WAT     H214143   4.306   7.040   2.208
 4361WAT      O14144   3.859   7.118   3.206
 4361WAT     H114145   3.856   7.158   3.119
 4361WAT     H214146   3.843   7.025   3.189
 4362WAT      O14147   4.859   5.647   1.550
 4362WAT     H114148   4.828   5.656   1.640
 4362WAT     H214149   4.935   5.705   1.545
 4363WAT      O14150   3.511   6.383   1.996
 4363WAT     H114151   3.499   6.456   1.935
 4363WAT     H214152   3.480   6.306   1.948
 4364WAT      O14153   3.275   6.701   2.577
 4364WAT     H114154   3.282   6.714   2.482
 4364WAT     H214155   3.336   6.630   2.596
 4365WAT      O14156   3.399   6.871   2.218
 4365WAT     H114157   3.358   6.885   2.132
 4365WAT     H214158   3.488   6.842   2.197
 4366WAT      O14159   4.995   6.915   3.051
 4366WAT     H114160   5.007   6.891   2.960
 4366WAT     H214161   4.999   6.832   3.099
 4367WAT      O14162   4.549   7.065   1.707
 4367WAT     H114163   4.479   7.065   1.641
 4367WAT     H214164   4.623   7.022   1.664
 4368WAT      O14165   4.980   6.120   3.148
 4368WAT     H114166   4.918   6.171   3.095
 4368WAT     H214167   4.948   6.030   3.142
 4369WAT      O14168   3.280   6.805   2.830
 4369WAT     H114169   3.297   6.758   2.749
 4369WAT     H214170   3.327   6.754   2.897
 4370WAT      O14171   3.757   5.718   2.334
 4370WAT     H114172   3.713   5.796   2.301
 4370WAT     H214173   3.813   5.750   2.405
 4371WAT      O14174   4.186   6.004   2.894
 4371WAT     H114175   4.140   6.025   2.976
 4371WAT     H214176   4.146   5.923   2.864
 4372WAT      O14177   4.686   6.126   3.007
 4372WAT     H114178   4.601   6.097   3.040
 4372WAT     H214179   4.670   6.151   2.916
 4373WAT      O14180   4.396   6.277   3.217
 4373WAT     H114181   4.428   6.193   3.183
 4373WAT     H214182   4.474   6.329   3.232
 4374WAT      O14183   4.069   5.680   1.822
 4374WAT     H114184   4.007   5.679   1.895
 4374WAT     H214185   4.060   5.593   1.783
 4375WAT      O14186   3.961   5.772   2.520
 4375WAT     H114187   3.991   5.863   2.512
 4375WAT     H214188   4.016   5.723   2.459
 4376WAT      O14189   3.737   6.230   2.107
 4376WAT     H114190   3.714   6.208   2.197
 4376WAT     H214191   3.659   6.273   2.072
 4377WAT      O14192   4.460   6.231   1.967
 4377WAT     H114193   4.400   6.303   1.948
 4377WAT     H214194   4.514   6.224   1.889
 4378WAT      O14195   3.981   6.320   3.174
 4378WAT     H114196   3.971   6.226   3.159
 4378WAT     H214197   4.065   6.342   3.134
 4379WAT      O14198   4.320   6.094   2.170
 4379WAT     H114199   4.360   6.126   2.089
 4379WAT     H214200   4.356   6.006   2.181
 4380WAT      O14201   3.494   5.961   2.989
 4380WAT     H114202   3.454   6.046   3.010
 4380WAT     H214203   3.425   5.897   3.008
 4381WAT      O14204   4.151   5.969   3.296
 4381WAT     H114205   4.082   5.950   3.359
 4381WAT     H214206   4.225   5.998   3.349
 4382WAT      O14207   3.224   5.753   2.392
 4382WAT     H114208   3.195   5.810   2.463
 4382WAT     H214209   3.298   5.705   2.428
 4383WAT      O14210   3.243   6.148   1.513
 4383WAT     H114211   3.234   6.242   1.527
 4383WAT     H214212   3.207   6.133   1.425
 4384WAT      O14213   4.379   6.353   2.579
 4384WAT     H114214   4.306   6.404   2.614
 4384WAT     H214215   4.339   6.272   2.549
 4385WAT      O14216   4.023   6.021   2.420
 4385WAT     H114217   4.023   5.977   2.335
 4385WAT     H214218   4.112   6.053   2.431
 4386WAT      O14219   3.608   6.009   2.316
 4386WAT     H114220   3.574   6.057   2.391
 4386WAT     H214221   3.531   5.964   2.280
 4387WAT      O14222   4.029   6.121   1.719
 4387WAT     H114223   4.041   6.117   1.814
 4387WAT     H214224   3.990   6.207   1.703
 4388WAT      O14225   4.425   5.899   2.521
 4388WAT     H114226   4.427   5.944   2.605
 4388WAT     H214227   4.400   5.809   2.542
 4389WAT      O14228   3.930   6.352   1.659
 4389WAT     H114229   3.873   6.307   1.596
 4389WAT     H214230   4.001   6.388   1.605
 4390WAT      O14231   4.768   5.640   3.104
 4390WAT     H114232   4.800   5.567   3.157
 4390WAT     H214233   4.771   5.608   3.014
 4391WAT      O14234   3.438   6.742   3.046
 4391WAT     H114235   3.399   6.678   3.106
 4391WAT     H214236   3.469   6.813   3.103
 4392WAT      O14237   4.053   6.427   2.595
 4392WAT     H114238   4.089   6.380   2.669
 4392WAT     H214239   4.034   6.514   2.629
 4393WAT      O14240   3.339   5.901   2.207
 4393WAT     H114241   3.310   5.865   2.291
 4393WAT     H214242   3.333   5.828   2.146
 4394WAT      O14243   3.832   6.331   2.826
 4394WAT     H114244   3.801   6.419   2.849
 4394WAT     H214245   3.927   6.337   2.830
 4395WAT      O14246   3.684   6.752   1.886
 4395WAT     H114247   3.607   6.698   1.870
 4395WAT     H214248   3.757   6.700   1.852
 4396WAT      O14249   4.760   6.651   2.465
 4396WAT     H114250   4.832   6.701   2.426
 4396WAT     H214251   4.740   6.583   2.401
 4397WAT      O14252   4.306   5.791   1.880
 4397WAT     H114253   4.225   5.741   1.872
 4397WAT     H214254   4.287   5.875   1.838
 4398WAT      O14255   4.298   6.658   3.054
 4398WAT     H114256   4.292   6.566   3.029
 4398WAT     H214257   4.236   6.668   3.125
 4399WAT      O14258   4.578   6.228   1.709
 4399WAT     H114259   4.667   6.259   1.692
 4399WAT     H214260   4.575   6.141   1.670
 4400WAT      O14261   3.689   6.718   2.250
 4400WAT     H114262   3.741   6.638   2.244
 4400WAT     H214263   3.644   6.712   2.334
 4401WAT      O14264   4.177   6.845   1.777
 4401WAT     H114265   4.212   6.920   1.728
 4401WAT     H214266   4.095   6.876   1.813
 4402WAT      O14267   3.437   6.415   2.941
 4402WAT     H114268   3.401   6.482   3.000
 4402WAT     H214269   3.408   6.332   2.978
 4403WAT      O14270   3.757   6.461   3.229
 4403WAT     H114271   3.727   6.475   3.140
 4403WAT     H214272   3.834   6.405   3.220
 4404WAT      O14273   4.292   6.941   3.029
 4404WAT     H114274   4.293   6.847   3.007
 4404WAT     H214275   4.221   6.949   3.093
 4405WAT      O14276   4.805   6.359   1.656
 4405WAT     H114277   4.797   6.402   1.571
 4405WAT     H214278   4.877   6.405   1.699
 4406WAT      O14279   4.913   6.605   2.964
 4406WAT     H114280   4.840   6.664   2.944
 4406WAT     H214281   4.966   6.604   2.884
 4407WAT      O14282   4.908   7.044   1.929
 4407WAT     H114283   4.844   6.979   1.956
 4407WAT     H214284   4.869   7.085   1.851
 4408WAT      O14285   4.466   6.777   2.314
 4408WAT     H114286   4.501   6.718   2.248
 4408WAT     H214287   4.377   6.745   2.331
 4409WAT      O14288   4.074   6.853   2.054
 4409WAT     H114289   4.143   6.908   2.092
 4409WAT     H214290   3.996   6.908   2.058
 4410WAT      O14291   3.288   6.415   1.603
 4410WAT     H114292   3.375   6.443   1.632
 4410WAT     H214293   3.239   6.496   1.592
 4411WAT      O14294   4.005   6.554   2.016
 4411WAT     H114295   4.050   6.635   2.038
 4411WAT     H214296   3.970   6.522   2.099
 4412WAT      O14297   4.235   7.105   2.738
 4412WAT     H114298   4.299   7.125   2.806
 4412WAT     H214299   4.271   7.029   2.693
 4413WAT      O14300   3.595   5.588   2.063
 4413WAT     H114301   3.582   5.587   2.158
 4413WAT     H214302   3.512   5.622   2.028
 4414WAT      O14303   4.362   6.905   2.610
 4414WAT     H114304   4.427   6.835   2.622
 4414WAT     H214305   4.415   6.983   2.592
 4415WAT      O14306   4.747   6.934   1.583
 4415WAT     H114307   4.724   6.862   1.642
 4415WAT     H214308   4.708   6.909   1.499
 4416WAT      O14309   4.540   6.985   2.931
 4416WAT     H114310   4.573   7.044   2.998
 4416WAT     H214311   4.448   6.972   2.954
 4417WAT      O14312   3.295   5.764   3.009
 4417WAT     H114313   3.223   5.784   3.069
 4417WAT     H214314   3.337   5.686   3.046
 4418WAT      O14315   4.705   6.725   1.749
 4418WAT     H114316   4.676   6.771   1.828
 4418WAT     H214317   4.785   6.679   1.776
 4419WAT      O14318   3.323   7.163   3.107
 4419WAT     H114319   3.334   7.069   3.093
 4419WAT     H214320   3.258   7.189   3.043
 4420WAT      O14321   4.123   6.990   3.247
 4420WAT     H114322   4.091   6.918   3.302
 4420WAT     H214323   4.055   7.057   3.255
 4421WAT      O14324   3.927   7.075   1.742
 4421WAT     H114325   3.926   7.148   1.680
 4421WAT     H214326   3.835   7.050   1.751
 4422WAT      O14327   3.487   6.597   1.816
 4422WAT     H114328   3.426   6.671   1.817
 4422WAT     H214329   3.534   6.606   1.734
 4423WAT      O14330   4.444   6.013   2.784
 4423WAT     H114331   4.481   5.931   2.817
 4423WAT     H214332   4.358   6.019   2.825
 4424WAT      O14333   4.781   5.909   1.865
 4424WAT     H114334   4.718   5.919   1.793
 4424WAT     H214335   4.731   5.931   1.944
 4425WAT      O14336   4.225   7.081   1.608
 4425WAT     H114337   4.235   7.060   1.515
 4425WAT     H214338   4.135   7.055   1.629
 4426WAT      O14339   3.978   6.137   2.006
 4426WAT     H114340   3.907   6.183   2.050
 4426WAT     H214341   4.006   6.071   2.070
 4427WAT      O14342   4.140   6.279   2.806
 4427WAT     H114343   4.190   6.326   2.873
 4427WAT     H214344   4.154   6.186   2.827
 4428WAT      O14345   4.381   5.809   2.150
 4428WAT     H114346   4.368   5.811   2.055
 4428WAT     H214347   4.476   5.814   2.162
 4429WAT      O14348   3.798   5.967   1.744
 4429WAT     H114349   3.883   6.011   1.737
 4429WAT     H214350   3.761   5.999   1.827
 4430WAT      O14351   4.861   5.900   2.890
 4430WAT     H114352   4.811   5.974   2.924
 4430WAT     H214353   4.942   5.939   2.859
 4431WAT      O14354   4.690   6.425   2.235
 4431WAT     H114355   4.596   6.426   2.253
 4431WAT     H214356   4.721   6.346   2.280
 4432WAT      O14357   3.688   6.593   1.591
 4432WAT     H114358   3.764   6.582   1.647
 4432WAT     H214359   3.696   6.523   1.526
 4433WAT      O14360   3.557   6.336   1.659
 4433WAT     H114361   3.565   6.241   1.671
 4433WAT     H214362   3.647   6.369   1.670
 4434WAT      O14363   3.326   6.958   1.957
 4434WAT     H114364   3.233   6.982   1.956
 4434WAT     H214365   3.372   7.040   1.945
 4435WAT      O14366   4.422   6.880   3.283
 4435WAT     H114367   4.361   6.883   3.209
 4435WAT     H214368   4.391   6.807   3.337
 4436WAT      O14369   3.310   6.518   3.183
 4436WAT     H114370   3.360   6.460   3.240
 4436WAT     H214371   3.236   6.547   3.237
 4437WAT      O14372   4.000   6.790   1.538
 4437WAT     H114373   3.990   6.729   1.611
 4437WAT     H214374   3.984   6.738   1.460
 4438WAT      O14375   4.015   6.659   3.136
 4438WAT     H114376   3.939   6.716   3.128
 4438WAT     H214377   4.034   6.630   3.047
 4439WAT      O14378   4.324   6.697   1.599
 4439WAT     H114379   4.269   6.741   1.663
 4439WAT     H214380   4.386   6.646   1.651
 4440WAT      O14381   4.730   6.832   3.192
 4440WAT     H114382   4.804   6.866   3.142
 4440WAT     H214383   4.653   6.849   3.137
 4441WAT      O14384   3.513   6.332   3.273
 4441WAT     H114385   3.517   6.303   3.363
 4441WAT     H214386   3.599   6.373   3.257
 4442WAT      O14387   3.891   6.592   1.789
 4442WAT     H114388   3.933   6.576   1.873
 4442WAT     H214389   3.904   6.511   1.739
 4443WAT      O14390   3.707   6.190   3.069
 4443WAT     H114391   3.654   6.141   3.007
 4443WAT     H214392   3.774   6.233   3.016
 4444WAT      O14393   4.142   6.495   1.513
 4444WAT     H114394   4.194   6.423   1.477
 4444WAT     H214395   4.207   6.559   1.543
 4445WAT      O14396   4.597   6.637   3.046
 4445WAT     H114397   4.639   6.653   3.131
 4445WAT     H214398   4.504   6.650   3.062
 4446WAT      O14399   4.644   6.371   3.246
 4446WAT     H114400   4.703   6.296   3.237
 4446WAT     H214401   4.662   6.424   3.168
 4447WAT      O14402   3.756   5.887   3.077
 4447WAT     H114403   3.747   5.825   3.005
 4447WAT     H214404   3.698   5.960   3.055
 4448WAT      O14405   4.033   5.743   2.781
 4448WAT     H114406   3.988   5.745   2.696
 4448WAT     H214407   3.969   5.703   2.840
 4449WAT      O14408   4.073   6.632   2.843
 4449WAT     H114409   4.115   6.717   2.825
 4449WAT     H214410   3.981   6.646   2.820
 4450WAT      O14411   4.307   6.405   2.981
 4450WAT     H114412   4.319   6.346   3.055
 4450WAT     H214413   4.393   6.409   2.939
 4451WAT      O14414   4.541   6.461   2.839
 4451WAT     H114415   4.488   6.513   2.778
 4451WAT     H214416   4.575   6.524   2.902
 4452WAT      O14417   3.781   6.200   1.483
 4452WAT     H114418   3.761   6.113   1.519
 4452WAT     H214419   3.764   6.191   1.389
 4453WAT      O14420   3.984   6.060   3.107
 4453WAT     H114421   4.043   6.029   3.176
 4453WAT     H214422   3.902   6.012   3.122
 4454WAT      O14423   4.466   6.021   3.130
 4454WAT     H114424   4.397   5.955   3.124
 4454WAT     H214425   4.538   5.977   3.175
 4455WAT      O14426   4.529   5.681   1.736
 4455WAT     H114427   4.557   5.597   1.772
 4455WAT     H214428   4.451   5.704   1.787
 4456WAT      O14429   3.660   5.910   1.482
 4456WAT     H114430   3.691   5.910   1.391
 4456WAT     H214431   3.734   5.875   1.532
 4457WAT      O14432   3.982   5.804   1.580
 4457WAT     H114433   3.948   5.736   1.523
 4457WAT     H214434   4.002   5.758   1.662
 4458WAT      O14435   3.563   6.840   1.565
 4458WAT     H114436   3.607   6.895   1.631
 4458WAT     H214437   3.611   6.758   1.566
 4459WAT      O14438   3.284   7.119   2.310
 4459WAT     H114439   3.317   7.032   2.287
 4459WAT     H214440   3.327   7.140   2.393
 4460WAT      O14441   3.744   6.952   2.076
 4460WAT     H114442   3.714   6.940   2.166
 4460WAT     H214443   3.733   6.866   2.036
 4461WAT      O14444   4.897   7.156   3.013
 4461WAT     H114445   4.837   7.162   2.939
 4461WAT     H214446   4.910   7.062   3.026
 4462WAT      O14447   5.021   6.930   1.547
 4462WAT     H114448   4.938   6.937   1.594
 4462WAT     H214449   5.038   7.019   1.516
 4463WAT      O14450   4.966   6.605   1.797
 4463WAT     H114451   5.043   6.662   1.808
 4463WAT     H214452   4.968   6.548   1.874
 4464WAT      O14453   3.316   6.457   2.220
 4464WAT     H114454   3.251   6.430   2.156
 4464WAT     H214455   3.400   6.446   2.175
 4465WAT      O14456   5.067   6.690   2.281
 4465WAT     H114457   5.104   6.612   2.241
 4465WAT     H214458   5.131   6.759   2.264
 4466WAT      O14459   4.765   6.829   2.823
 4466WAT     H114460   4.684   6.871   2.849
 4466WAT     H214461   4.806   6.890   2.761
 4467WAT      O14462   4.972   6.634   1.513
 4467WAT     H114463   4.999   6.725   1.500
 4467WAT     H214464   4.953   6.628   1.606
 4468WAT      O14465   4.611   5.936   1.642
 4468WAT     H114466   4.653   5.918   1.558
 4468WAT     H214467   4.581   5.851   1.673
 4469WAT      O14468   4.961   6.428   2.012
 4469WAT     H114469   4.924   6.351   1.969
 4469WAT     H214470   4.888   6.466   2.061
 4470WAT      O14471   3.420   6.496   2.674
 4470WAT     H114472   3.457   6.487   2.762
 4470WAT     H214473   3.363   6.419   2.664
 4471WAT      O14474   4.900   6.342   2.975
 4471WAT     H114475   4.877   6.320   2.885
 4471WAT     H214476   4.926   6.434   2.971
 4472WAT      O14477   3.375   6.187   3.065
 4472WAT     H114478   3.286   6.183   3.099
 4472WAT     H214479   3.429   6.206   3.141
 4473WAT      O14480   4.744   5.865   3.253
 4473WAT     H114481   4.832   5.866   3.292
 4473WAT     H214482   4.745   5.791   3.192
 4474WAT      O14483   3.238   6.178   1.814
 4474WAT     H114484   3.147   6.204   1.797
 4474WAT     H214485   3.286   6.205   1.736
 4475WAT      O14486   4.889   6.250   2.342
 4475WAT     H114487   4.941   6.201   2.279
 4475WAT     H214488   4.947   6.264   2.417
 4476WAT      O14489   4.907   6.259   2.694
 4476WAT     H114490   4.812   6.255   2.706
 4476WAT     H214491   4.925   6.350   2.671
 4477WAT      O14492   3.492   6.084   1.605
 4477WAT     H114493   3.563   6.041   1.557
 4477WAT     H214494   3.420   6.090   1.542
 4478WAT      O14495   3.457   5.689   1.509
 4478WAT     H114496   3.529   5.743   1.541
 4478WAT     H214497   3.484   5.662   1.422
 4479WAT      O14498   4.838   6.176   1.936
 4479WAT     H114499   4.887   6.153   2.015
 4479WAT     H214500   4.818   6.092   1.894
 4480WAT      O14501   3.426   5.614   2.500
 4480WAT     H114502   3.490   5.559   2.456
 4480WAT     H214503   3.468   5.640   2.582
 4481WAT      O14504   4.981   6.040   2.189
 4481WAT     H114505   4.970   6.024   2.283
 4481WAT     H214506   5.057   5.987   2.165
 4482WAT      O14507   4.815   5.634   2.835
 4482WAT     H114508   4.879   5.695   2.872
 4482WAT     H214509   4.830   5.637   2.741
 4483WAT      O14510   5.069   5.823   1.514
 4483WAT     H114511   5.162   5.809   1.493
 4483WAT     H214512   5.067   5.831   1.609
 4484WAT      O14513   3.401   5.630   2.774
 4484WAT     H114514   3.366   5.675   2.850
 4484WAT     H214515   3.368   5.540   2.782
 4485WAT      O14516   3.562   6.947   3.190
 4485WAT     H114517   3.557   6.910   3.279
 4485WAT     H214518   3.575   7.041   3.204
 4486WAT      O14519   3.932   7.102   2.750
 4486WAT     H114520   3.908   7.129   2.662
 4486WAT     H214521   4.026   7.120   2.756
 4487WAT      O14522   4.152   5.749   3.126
 4487WAT     H114523   4.146   5.808   3.201
 4487WAT     H214524   4.246   5.738   3.112
 4488WAT      O14525   4.416   5.714   3.090
 4488WAT     H114526   4.477   5.746   3.024
 4488WAT     H214527   4.470   5.666   3.152
 4489WAT      O14528   3.468   5.582   3.101
 4489WAT     H114529   3.523   5.564   3.025
 4489WAT     H214530   3.475   5.503   3.155
 4490WAT      O14531   4.490   5.571   2.723
 4490WAT     H114532   4.403   5.604   2.702
 4490WAT     H214533   4.479   5.524   2.805
 4491WAT      O14534   4.581   5.792   2.861
 4491WAT     H114535   4.548   5.710   2.823
 4491WAT     H214536   4.676   5.787   2.849
 4492WAT      O14537   3.509   6.978   2.797
 4492WAT     H114538   3.436   6.916   2.791
 4492WAT     H214539   3.515   7.017   2.710
 4493WAT      O14540   4.265   5.663   2.617
 4493WAT     H114541   4.187   5.710   2.645
 4493WAT     H214542   4.235   5.572   2.606
 4494WAT      O14543   4.720   5.733   2.421
 4494WAT     H114544   4.764   5.727   2.336
 4494WAT     H214545   4.693   5.824   2.428
 4495WAT      O14546   3.399   5.693   1.869
 4495WAT     H114547   3.475   5.704   1.811
 4495WAT     H214548   3.353   5.777   1.864
 4496WAT      O14549   4.053   5.904   2.168
 4496WAT     H114550   3.972   5.867   2.134
 4496WAT     H214551   4.104   5.829   2.198
 4497WAT      O14552   4.504   5.571   2.292
 4497WAT     H114553   4.564   5.628   2.339
 4497WAT     H214554   4.430   5.627   2.269
 4498WAT      O14555   3.636   5.746   1.723
 4498WAT     H114556   3.689   5.667   1.710
 4498WAT     H214557   3.700   5.814   1.746
 4499WAT      O14558   3.856   5.719   2.028
 4499WAT     H114559   3.793   5.649   2.045
 4499WAT     H214560   3.802   5.795   2.007
 4500WAT      O14561   3.868   5.647   3.272
 4500WAT     H114562   3.840   5.698   3.195
 4500WAT     H214563   3.907   5.567   3.235
 4501WAT      O14564   3.674   6.986   1.751
 4501WAT     H114565   3.611   7.032   1.806
 4501WAT     H214566   3.685   6.901   1.794
 4502WAT      O14567   4.529   5.589   3.330
 4502WAT     H114568   4.517   5.621   3.419
 4502WAT     H214569   4.610   5.629   3.300
 4503WAT      O14570   4.419   6.391   0.366
 4503WAT     H114571   4.411   6.299   0.339
 4503WAT     H214572   4.378   6.440   0.295
 4504WAT      O14573   4.232   6.568   0.554
 4504WAT     H114574   4.155   6.520   0.583
 4504WAT     H214575   4.297   6.501   0.537
 4505WAT      O14576   3.634   6.600   0.642
 4505WAT     H114577   3.551   6.574   0.682
 4505WAT     H214578   3.695   6.607   0.715
 4506WAT      O14579   4.634   7.009   0.432
 4506WAT     H114580   4.588   6.932   0.465
 4506WAT     H214581   4.716   7.012   0.482
 4507WAT      O14582   3.632   7.003   0.661
 4507WAT     H114583   3.662   6.914   0.643
 4507WAT     H214584   3.706   7.059   0.639
 4508WAT      O14585   3.271   6.356   0.609
 4508WAT     H114586   3.328   6.279   0.609
 4508WAT     H214587   3.271   6.386   0.518
 4509WAT      O14588   4.176   6.836   0.555
 4509WAT     H114589   4.169   6.742   0.539
 4509WAT     H214590   4.253   6.845   0.612
 4510WAT      O14591   3.395   5.897   0.787
 4510WAT     H114592   3.378   5.807   0.815
 4510WAT     H214593   3.355   5.951   0.855
 4511WAT      O14594   4.279   6.117   0.577
 4511WAT     H114595   4.317   6.029   0.566
 4511WAT     H214596   4.270   6.150   0.488
 4512WAT      O14597   4.658   5.866   0.271
 4512WAT     H114598   4.740   5.817   0.275
 4512WAT     H214599   4.661   5.925   0.346
 4513WAT      O14600   3.457   6.146   0.648
 4513WAT     H114601   3.525   6.173   0.710
 4513WAT     H214602   3.426   6.062   0.681
 4514WAT      O14603   3.877   6.251   0.557
 4514WAT     H114604   3.927   6.301   0.621
 4514WAT     H214605   3.930   6.173   0.539
 4515WAT      O14606   5.087   6.068   0.927
 4515WAT     H114607   5.016   6.107   0.875
 4515WAT     H214608   5.113   6.137   0.987
 4516WAT      O14609   3.705   5.715   0.983
 4516WAT     H114610   3.705   5.767   0.903
 4516WAT     H214611   3.622   5.667   0.981
 4517WAT      O14612   3.830   6.679   0.801
 4517WAT     H114613   3.797   6.741   0.865
 4517WAT     H214614   3.848   6.731   0.723
 4518WAT      O14615   4.681   6.060   0.548
 4518WAT     H114616   4.611   6.089   0.606
 4518WAT     H214617   4.717   6.141   0.512
 4519WAT      O14618   3.673   5.886   0.784
 4519WAT     H114619   3.707   5.970   0.755
 4519WAT     H214620   3.579   5.901   0.796
 4520WAT      O14621   3.751   6.876   0.983
 4520WAT     H114622   3.813   6.943   0.954
 4520WAT     H214623   3.665   6.916   0.974
 4521WAT      O14624   4.843   7.022   0.774
 4521WAT     H114625   4.775   7.089   0.773
 4521WAT     H214626   4.897   7.042   0.698
 4522WAT      O14627   4.988   6.005   0.587
 4522WAT     H114628   4.893   6.008   0.600
 4522WAT     H214629   5.021   6.086   0.625
 4523WAT      O14630   4.041   5.635   0.417
 4523WAT     H114631   4.072   5.579   0.345
 4523WAT     H214632   3.948   5.648   0.398
 4524WAT      O14633   4.536   6.697   0.778
 4524WAT     H114634   4.578   6.675   0.695
 4524WAT     H214635   4.609   6.722   0.836
 4525WAT      O14636   4.931   6.537   0.788
 4525WAT     H114637   4.848   6.544   0.740
 4525WAT     H214638   4.991   6.595   0.741
 4526WAT      O14639   4.627   6.215   0.882
 4526WAT     H114640   4.586   6.298   0.908
 4526WAT     H214641   4.554   6.157   0.863
 4527WAT      O14642   3.841   6.494   0.368
 4527WAT     H114643   3.800   6.423   0.319
 4527WAT     H214644   3.849   6.459   0.457
 4528WAT      O14645   3.888   6.863   0.585
 4528WAT     H114646   3.858   6.802   0.517
 4528WAT     H214647   3.983   6.866   0.574
 4529WAT      O14648   3.712   6.171   0.746
 4529WAT     H114649   3.767   6.182   0.669
 4529WAT     H214650   3.763   6.209   0.818
 4530WAT      O14651   3.797   6.836   1.250
 4530WAT     H114652   3.707   6.859   1.275
 4530WAT     H214653   3.799   6.849   1.155
 4531WAT      O14654   3.679   6.524   1.107
 4531WAT     H114655   3.666   6.611   1.144
 4531WAT     H214656   3.591   6.489   1.093
 4532WAT      O14657   4.312   7.015   0.238
 4532WAT     H114658   4.356   7.090   0.197
 4532WAT     H214659   4.306   7.040   0.330
 4533WAT      O14660   3.859   7.118   1.328
 4533WAT     H114661   3.856   7.158   1.242
 4533WAT     H214662   3.843   7.025   1.312
 4534WAT      O14663   3.275   6.701   0.699
 4534WAT     H114664   3.282   6.714   0.605
 4534WAT     H214665   3.336   6.630   0.718
 4535WAT      O14666   3.399   6.871   0.340
 4535WAT     H114667   3.358   6.885   0.255
 4535WAT     H214668   3.488   6.842   0.320
 4536WAT      O14669   4.995   6.915   1.174
 4536WAT     H114670   5.007   6.891   1.082
 4536WAT     H214671   4.999   6.832   1.221
 4537WAT      O14672   4.980   6.120   1.270
 4537WAT     H114673   4.918   6.171   1.218
 4537WAT     H214674   4.948   6.030   1.265
 4538WAT      O14675   3.280   6.805   0.953
 4538WAT     H114676   3.297   6.758   0.871
 4538WAT     H214677   3.327   6.754   1.020
 4539WAT      O14678   3.757   5.718   0.457
 4539WAT     H114679   3.713   5.796   0.424
 4539WAT     H214680   3.813   5.750   0.527
 4540WAT      O14681   4.186   6.004   1.017
 4540WAT     H114682   4.140   6.025   1.098
 4540WAT     H214683   4.146   5.923   0.987
 4541WAT      O14684   4.686   6.126   1.130
 4541WAT     H114685   4.601   6.097   1.162
 4541WAT     H214686   4.670   6.151   1.039
 4542WAT      O14687   4.396   6.277   1.340
 4542WAT     H114688   4.428   6.193   1.306
 4542WAT     H214689   4.474   6.329   1.355
 4543WAT      O14690   3.961   5.772   0.643
 4543WAT     H114691   3.991   5.863   0.634
 4543WAT     H214692   4.016   5.723   0.581
 4544WAT      O14693   3.737   6.230   0.229
 4544WAT     H114694   3.714   6.208   0.320
 4544WAT     H214695   3.659   6.273   0.195
 4545WAT      O14696   3.981   6.320   1.296
 4545WAT     H114697   3.971   6.226   1.281
 4545WAT     H214698   4.065   6.342   1.257
 4546WAT      O14699   4.320   6.094   0.292
 4546WAT     H114700   4.360   6.126   0.211
 4546WAT     H214701   4.356   6.006   0.304
 4547WAT      O14702   3.494   5.961   1.111
 4547WAT     H114703   3.454   6.046   1.132
 4547WAT     H214704   3.425   5.897   1.130
 4548WAT      O14705   4.151   5.969   1.418
 4548WAT     H114706   4.082   5.950   1.482
 4548WAT     H214707   4.225   5.998   1.472
 4549WAT      O14708   3.224   5.753   0.515
 4549WAT     H114709   3.195   5.810   0.586
 4549WAT     H214710   3.298   5.705   0.551
 4550WAT      O14711   4.379   6.353   0.702
 4550WAT     H114712   4.306   6.404   0.737
 4550WAT     H214713   4.339   6.272   0.672
 4551WAT      O14714   4.023   6.021   0.542
 4551WAT     H114715   4.023   5.977   0.457
 4551WAT     H214716   4.112   6.053   0.553
 4552WAT      O14717   3.608   6.009   0.438
 4552WAT     H114718   3.574   6.057   0.514
 4552WAT     H214719   3.531   5.964   0.402
 4553WAT      O14720   4.425   5.899   0.643
 4553WAT     H114721   4.427   5.944   0.728
 4553WAT     H214722   4.400   5.809   0.664
 4554WAT      O14723   4.768   5.640   1.227
 4554WAT     H114724   4.800   5.567   1.280
 4554WAT     H214725   4.771   5.608   1.137
 4555WAT      O14726   3.438   6.742   1.169
 4555WAT     H114727   3.399   6.678   1.229
 4555WAT     H214728   3.469   6.813   1.226
 4556WAT      O14729   4.053   6.427   0.717
 4556WAT     H114730   4.089   6.380   0.792
 4556WAT     H214731   4.034   6.514   0.751
 4557WAT      O14732   3.339   5.901   0.330
 4557WAT     H114733   3.310   5.865   0.414
 4557WAT     H214734   3.333   5.828   0.269
 4558WAT      O14735   3.832   6.331   0.949
 4558WAT     H114736   3.801   6.419   0.971
 4558WAT     H214737   3.927   6.337   0.953
 4559WAT      O14738   4.760   6.651   0.588
 4559WAT     H114739   4.832   6.701   0.549
 4559WAT     H214740   4.740   6.583   0.523
 4560WAT      O14741   4.298   6.658   1.177
 4560WAT     H114742   4.292   6.566   1.151
 4560WAT     H214743   4.236   6.668   1.248
 4561WAT      O14744   3.689   6.718   0.372
 4561WAT     H114745   3.741   6.638   0.367
 4561WAT     H214746   3.644   6.712   0.457
 4562WAT      O14747   3.437   6.415   1.064
 4562WAT     H114748   3.401   6.482   1.122
 4562WAT     H214749   3.408   6.332   1.101
 4563WAT      O14750   3.757   6.461   1.352
 4563WAT     H114751   3.727   6.475   1.262
 4563WAT     H214752   3.834   6.405   1.343
 4564WAT      O14753   4.292   6.941   1.152
 4564WAT     H114754   4.293   6.847   1.130
 4564WAT     H214755   4.221   6.949   1.215
 4565WAT      O14756   4.913   6.605   1.086
 4565WAT     H114757   4.840   6.664   1.067
 4565WAT     H214758   4.966   6.604   1.006
 4566WAT      O14759   4.466   6.777   0.436
 4566WAT     H114760   4.501   6.718   0.370
 4566WAT     H214761   4.377   6.745   0.453
 4567WAT      O14762   4.074   6.853   0.177
 4567WAT     H114763   4.143   6.908   0.215
 4567WAT     H214764   3.996   6.908   0.180
 4568WAT      O14765   4.235   7.105   0.861
 4568WAT     H114766   4.299   7.125   0.929
 4568WAT     H214767   4.271   7.029   0.816
 4569WAT      O14768   4.362   6.905   0.733
 4569WAT     H114769   4.427   6.835   0.744
 4569WAT     H214770   4.415   6.983   0.715
 4570WAT      O14771   4.540   6.985   1.053
 4570WAT     H114772   4.573   7.044   1.121
 4570WAT     H214773   4.448   6.972   1.076
 4571WAT      O14774   3.295   5.764   1.131
 4571WAT     H114775   3.223   5.784   1.192
 4571WAT     H214776   3.337   5.686   1.169
 4572WAT      O14777   3.323   7.163   1.230
 4572WAT     H114778   3.334   7.069   1.216
 4572WAT     H214779   3.258   7.189   1.165
 4573WAT      O14780   4.123   6.990   1.370
 4573WAT     H114781   4.091   6.918   1.424
 4573WAT     H214782   4.055   7.057   1.377
 4574WAT      O14783   4.444   6.013   0.906
 4574WAT     H114784   4.481   5.931   0.939
 4574WAT     H214785   4.358   6.019   0.948
 4575WAT      O14786   4.140   6.279   0.929
 4575WAT     H114787   4.190   6.326   0.995
 4575WAT     H214788   4.154   6.186   0.949
 4576WAT      O14789   4.381   5.809   0.273
 4576WAT     H114790   4.368   5.811   0.178
 4576WAT     H214791   4.476   5.814   0.285
 4577WAT      O14792   4.861   5.900   1.013
 4577WAT     H114793   4.811   5.974   1.047
 4577WAT     H214794   4.942   5.939   0.981
 4578WAT      O14795   4.690   6.425   0.358
 4578WAT     H114796   4.596   6.426   0.375
 4578WAT     H214797   4.721   6.346   0.402
 4579WAT      O14798   4.422   6.880   1.406
 4579WAT     H114799   4.361   6.883   1.332
 4579WAT     H214800   4.391   6.807   1.460
 4580WAT      O14801   3.310   6.518   1.306
 4580WAT     H114802   3.360   6.460   1.363
 4580WAT     H214803   3.236   6.547   1.359
 4581WAT      O14804   4.015   6.659   1.259
 4581WAT     H114805   3.939   6.716   1.250
 4581WAT     H214806   4.034   6.630   1.170
 4582WAT      O14807   4.730   6.832   1.315
 4582WAT     H114808   4.804   6.866   1.264
 4582WAT     H214809   4.653   6.849   1.259
 4583WAT      O14810   3.513   6.332   1.395
 4583WAT     H114811   3.517   6.303   1.486
 4583WAT     H214812   3.599   6.373   1.379
 4584WAT      O14813   3.707   6.190   1.192
 4584WAT     H114814   3.654   6.141   1.129
 4584WAT     H214815   3.774   6.233   1.138
 4585WAT      O14816   4.597   6.637   1.168
 4585WAT     H114817   4.639   6.653   1.253
 4585WAT     H214818   4.504   6.650   1.185
 4586WAT      O14819   4.644   6.371   1.369
 4586WAT     H114820   4.703   6.296   1.360
 4586WAT     H214821   4.662   6.424   1.291
 4587WAT      O14822   3.756   5.887   1.200
 4587WAT     H114823   3.747   5.825   1.127
 4587WAT     H214824   3.698   5.960   1.177
 4588WAT      O14825   4.033   5.743   0.903
 4588WAT     H114826   3.988   5.745   0.819
 4588WAT     H214827   3.969   5.703   0.963
 4589WAT      O14828   4.073   6.632   0.965
 4589WAT     H114829   4.115   6.717   0.948
 4589WAT     H214830   3.981   6.646   0.942
 4590WAT      O14831   4.307   6.405   1.104
 4590WAT     H114832   4.319   6.346   1.178
 4590WAT     H214833   4.393   6.409   1.062
 4591WAT      O14834   4.541   6.461   0.961
 4591WAT     H114835   4.488   6.513   0.901
 4591WAT     H214836   4.575   6.524   1.024
 4592WAT      O14837   3.984   6.060   1.229
 4592WAT     H114838   4.043   6.029   1.298
 4592WAT     H214839   3.902   6.012   1.245
 4593WAT      O14840   4.466   6.021   1.253
 4593WAT     H114841   4.397   5.955   1.246
 4593WAT     H214842   4.538   5.977   1.297
 4594WAT      O14843   3.284   7.119   0.433
 4594WAT     H114844   3.317   7.032   0.410
 4594WAT     H214845   3.327   7.140   0.516
 4595WAT      O14846   4.897   7.156   1.136
 4595WAT     H114847   4.837   7.162   1.061
 4595WAT     H214848   4.910   7.062   1.149
 4596WAT      O14849   3.316   6.457   0.343
 4596WAT     H114850   3.251   6.430   0.278
 4596WAT     H214851   3.400   6.446   0.298
 4597WAT      O14852   5.067   6.690   0.404
 4597WAT     H114853   5.104   6.612   0.363
 4597WAT     H214854   5.131   6.759   0.386
 4598WAT      O14855   4.765   6.829   0.945
 4598WAT     H114856   4.684   6.871   0.972
 4598WAT     H214857   4.806   6.890   0.884
 4599WAT      O14858   3.420   6.496   0.797
 4599WAT     H114859   3.457   6.487   0.885
 4599WAT     H214860   3.363   6.419   0.787
 4600WAT      O14861   4.900   6.342   1.098
 4600WAT     H114862   4.877   6.320   1.008
 4600WAT     H214863   4.926   6.434   1.093
 4601WAT      O14864   3.375   6.187   1.187
 4601WAT     H114865   3.286   6.183   1.221
 4601WAT     H214866   3.429   6.206   1.264
 4602WAT      O14867   4.744   5.865   1.376
 4602WAT     H114868   4.832   5.866   1.414
 4602WAT     H214869   4.745   5.791   1.315
 4603WAT      O14870   4.889   6.250   0.465
 4603WAT     H114871   4.941   6.201   0.402
 4603WAT     H214872   4.947   6.264   0.539
 4604WAT      O14873   4.907   6.259   0.817
 4604WAT     H114874   4.812   6.255   0.828
 4604WAT     H214875   4.925   6.350   0.793
 4605WAT      O14876   3.426   5.614   0.622
 4605WAT     H114877   3.490   5.559   0.578
 4605WAT     H214878   3.468   5.640   0.704
 4606WAT      O14879   4.981   6.040   0.312
 4606WAT     H114880   4.970   6.024   0.406
 4606WAT     H214881   5.057   5.987   0.288
 4607WAT      O14882   4.815   5.634   0.958
 4607WAT     H114883   4.879   5.695   0.994
 4607WAT     H214884   4.830   5.637   0.863
 4608WAT      O14885   3.401   5.630   0.896
 4608WAT     H114886   3.366   5.675   0.973
 4608WAT     H214887   3.368   5.540   0.905
 4609WAT      O14888   3.562   6.947   1.313
 4609WAT     H114889   3.557   6.910   1.401
 4609WAT     H214890   3.575   7.041   1.327
 4610WAT      O14891   3.932   7.102   0.873
 4610WAT     H114892   3.908   7.129   0.784
 4610WAT     H214893   4.026   7.120   0.879
 4611WAT      O14894   4.152   5.749   1.249
 4611WAT     H114895   4.146   5.808   1.324
 4611WAT     H214896   4.246   5.738   1.234
 4612WAT      O14897   4.416   5.714   1.213
 4612WAT     H114898   4.477   5.746   1.146
 4612WAT     H214899   4.470   5.666   1.274
 4613WAT      O14900   3.468   5.582   1.224
 4613WAT     H114901   3.523   5.564   1.148
 4613WAT     H214902   3.475   5.503   1.277
 4614WAT      O14903   4.490   5.571   0.845
 4614WAT     H114904   4.403   5.604   0.825
 4614WAT     H214905   4.479   5.524   0.928
 4615WAT      O14906   4.581   5.792   0.984
 4615WAT     H114907   4.548   5.710   0.946
 4615WAT     H214908   4.676   5.787   0.971
 4616WAT      O14909   3.509   6.978   0.920
 4616WAT     H114910   3.436   6.916   0.913
 4616WAT     H214911   3.515   7.017   0.833
 4617WAT      O14912   4.265   5.663   0.739
 4617WAT     H114913   4.187   5.710   0.767
 4617WAT     H214914   4.235   5.572   0.728
 4618WAT      O14915   4.720   5.733   0.544
 4618WAT     H114916   4.764   5.727   0.459
 4618WAT     H214917   4.693   5.824   0.551
 4619WAT      O14918   4.906   5.696   0.345
 4619WAT     H114919   4.900   5.602   0.330
 4619WAT     H214920   4.984   5.707   0.399
 4620WAT      O14921   4.053   5.904   0.290
 4620WAT     H114922   3.972   5.867   0.256
 4620WAT     H214923   4.104   5.829   0.321
 4621WAT      O14924   4.504   5.571   0.414
 4621WAT     H114925   4.564   5.628   0.462
 4621WAT     H214926   4.430   5.627   0.392
 4622WAT      O14927   3.868   5.647   1.394
 4622WAT     H114928   3.840   5.698   1.318
 4622WAT     H214929   3.907   5.567   1.358
 4623WAT      O14930   4.529   5.589   1.452
 4623WAT     H114931   4.517   5.621   1.542
 4623WAT     H214932   4.610   5.629   1.422
 4624WAT      O14933   4.419   4.513   5.998
 4624WAT     H114934   4.411   4.422   5.971
 4624WAT     H214935   4.378   4.563   5.928
 4625WAT      O14936   4.232   4.691   6.186
 4625WAT     H114937   4.155   4.643   6.215
 4625WAT     H214938   4.297   4.623   6.169
 4626WAT      O14939   3.634   4.722   6.274
 4626WAT     H114940   3.551   4.697   6.314
 4626WAT     H214941   3.695   4.729   6.348
 4627WAT      O14942   4.634   5.132   6.064
 4627WAT     H114943   4.588   5.055   6.097
 4627WAT     H214944   4.716   5.134   6.115
 4628WAT      O14945   3.632   5.126   6.294
 4628WAT     H114946   3.662   5.037   6.276
 4628WAT     H214947   3.706   5.181   6.271
 4629WAT      O14948   3.475   4.218   5.652
 4629WAT     H114949   3.386   4.252   5.642
 4629WAT     H214950   3.503   4.198   5.563
 4630WAT      O14951   3.271   4.478   6.241
 4630WAT     H114952   3.328   4.402   6.241
 4630WAT     H214953   3.271   4.508   6.150
 4631WAT      O14954   4.257   5.360   6.026
 4631WAT     H114955   4.195   5.406   5.969
 4631WAT     H214956   4.343   5.376   5.986
 4632WAT      O14957   4.176   4.959   6.187
 4632WAT     H114958   4.169   4.865   6.171
 4632WAT     H214959   4.253   4.968   6.244
 4633WAT      O14960   3.395   4.019   6.420
 4633WAT     H114961   3.378   3.929   6.448
 4633WAT     H214962   3.355   4.074   6.487
 4634WAT      O14963   4.279   4.239   6.210
 4634WAT     H114964   4.317   4.152   6.198
 4634WAT     H214965   4.270   4.273   6.121
 4635WAT      O14966   3.693   4.077   5.756
 4635WAT     H114967   3.703   4.167   5.787
 4635WAT     H214968   3.601   4.072   5.727
 4636WAT      O14969   4.658   3.989   5.903
 4636WAT     H114970   4.740   3.940   5.907
 4636WAT     H214971   4.661   4.048   5.978
 4637WAT      O14972   3.457   4.269   6.280
 4637WAT     H114973   3.525   4.295   6.342
 4637WAT     H214974   3.426   4.185   6.314
 4638WAT      O14975   3.877   4.373   6.189
 4638WAT     H114976   3.927   4.423   6.253
 4638WAT     H214977   3.930   4.296   6.171
 4639WAT      O14978   4.344   4.849   5.766
 4639WAT     H114979   4.282   4.895   5.709
 4639WAT     H214980   4.395   4.918   5.807
 4640WAT      O14981   3.830   4.801   6.433
 4640WAT     H114982   3.797   4.864   6.498
 4640WAT     H214983   3.848   4.854   6.355
 4641WAT      O14984   4.681   4.183   6.180
 4641WAT     H114985   4.611   4.212   6.238
 4641WAT     H214986   4.717   4.264   6.144
 4642WAT      O14987   3.673   4.009   6.416
 4642WAT     H114988   3.707   4.093   6.387
 4642WAT     H214989   3.579   4.023   6.428
 4643WAT      O14990   3.280   4.917   5.503
 4643WAT     H114991   3.243   4.966   5.430
 4643WAT     H214992   3.306   4.984   5.566
 4644WAT      O14993   4.843   5.145   6.406
 4644WAT     H114994   4.775   5.212   6.406
 4644WAT     H214995   4.897   5.164   6.330
 4645WAT      O14996   4.988   4.127   6.219
 4645WAT     H114997   4.893   4.131   6.232
 4645WAT     H214998   5.021   4.209   6.258
 4646WAT      O14999   4.041   3.757   6.049
 4646WAT     H115000   4.072   3.702   5.977
 4646WAT     H215001   3.948   3.771   6.031
 4647WAT      O15002   4.597   5.329   6.278
 4647WAT     H115003   4.598   5.289   6.191
 4647WAT     H215004   4.541   5.406   6.268
 4648WAT      O15005   4.726   5.001   5.787
 4648WAT     H115006   4.715   4.907   5.799
 4648WAT     H215007   4.726   5.037   5.875
 4649WAT      O15008   4.536   4.819   6.411
 4649WAT     H115009   4.578   4.798   6.327
 4649WAT     H215010   4.609   4.845   6.468
 4650WAT      O15011   4.280   4.564   5.722
 4650WAT     H115012   4.187   4.557   5.745
 4650WAT     H215013   4.295   4.658   5.711
 4651WAT      O15014   4.279   4.191   5.422
 4651WAT     H115015   4.185   4.207   5.431
 4651WAT     H215016   4.311   4.263   5.367
 4652WAT      O15017   4.931   4.659   6.420
 4652WAT     H115018   4.848   4.666   6.372
 4652WAT     H215019   4.991   4.718   6.373
 4653WAT      O15020   4.683   4.720   5.773
 4653WAT     H115021   4.621   4.686   5.708
 4653WAT     H215022   4.681   4.656   5.844
 4654WAT      O15023   3.841   4.616   6.001
 4654WAT     H115024   3.800   4.545   5.951
 4654WAT     H215025   3.849   4.582   6.090
 4655WAT      O15026   3.888   4.985   6.217
 4655WAT     H115027   3.858   4.925   6.149
 4655WAT     H215028   3.983   4.989   6.206
 4656WAT      O15029   3.712   4.294   6.379
 4656WAT     H115030   3.767   4.305   6.301
 4656WAT     H215031   3.763   4.331   6.450
 4657WAT      O15032   4.501   4.644   5.474
 4657WAT     H115033   4.545   4.560   5.459
 4657WAT     H215034   4.572   4.707   5.482
 4658WAT      O15035   4.312   5.138   5.870
 4658WAT     H115036   4.356   5.212   5.829
 4658WAT     H215037   4.306   5.162   5.963
 4659WAT      O15038   4.859   3.769   5.305
 4659WAT     H115039   4.828   3.779   5.395
 4659WAT     H215040   4.935   3.827   5.300
 4660WAT      O15041   3.511   4.506   5.751
 4660WAT     H115042   3.499   4.579   5.690
 4660WAT     H215043   3.480   4.429   5.703
 4661WAT      O15044   3.275   4.823   6.331
 4661WAT     H115045   3.282   4.837   6.237
 4661WAT     H215046   3.336   4.752   6.351
 4662WAT      O15047   3.399   4.993   5.972
 4662WAT     H115048   3.358   5.007   5.887
 4662WAT     H215049   3.488   4.965   5.952
 4663WAT      O15050   4.578   5.437   5.606
 4663WAT     H115051   4.562   5.408   5.696
 4663WAT     H215052   4.562   5.359   5.552
 4664WAT      O15053   3.826   5.415   5.784
 4664WAT     H115054   3.809   5.323   5.762
 4664WAT     H215055   3.741   5.450   5.808
 4665WAT      O15056   4.549   5.187   5.462
 4665WAT     H115057   4.479   5.187   5.396
 4665WAT     H215058   4.623   5.145   5.419
 4666WAT      O15059   4.505   5.350   5.869
 4666WAT     H115060   4.551   5.272   5.901
 4666WAT     H215061   4.539   5.421   5.924
 4667WAT      O15062   3.757   3.840   6.089
 4667WAT     H115063   3.713   3.918   6.056
 4667WAT     H215064   3.813   3.873   6.160
 4668WAT      O15065   4.069   3.802   5.577
 4668WAT     H115066   4.007   3.802   5.650
 4668WAT     H215067   4.060   3.716   5.537
 4669WAT      O15068   3.961   3.895   6.275
 4669WAT     H115069   3.991   3.985   6.267
 4669WAT     H215070   4.016   3.846   6.213
 4670WAT      O15071   3.737   4.353   5.862
 4670WAT     H115072   3.714   4.331   5.952
 4670WAT     H215073   3.659   4.396   5.827
 4671WAT      O15074   4.460   4.353   5.722
 4671WAT     H115075   4.400   4.426   5.703
 4671WAT     H215076   4.514   4.347   5.643
 4672WAT      O15077   4.320   4.217   5.925
 4672WAT     H115078   4.360   4.249   5.843
 4672WAT     H215079   4.356   4.129   5.936
 4673WAT      O15080   3.224   3.876   6.147
 4673WAT     H115081   3.195   3.933   6.218
 4673WAT     H215082   3.298   3.828   6.183
 4674WAT      O15083   3.243   4.270   5.268
 4674WAT     H115084   3.234   4.364   5.282
 4674WAT     H215085   3.207   4.256   5.180
 4675WAT      O15086   4.379   4.476   6.334
 4675WAT     H115087   4.306   4.527   6.369
 4675WAT     H215088   4.339   4.394   6.304
 4676WAT      O15089   4.023   4.143   6.175
 4676WAT     H115090   4.023   4.099   6.090
 4676WAT     H215091   4.112   4.176   6.185
 4677WAT      O15092   3.608   4.132   6.071
 4677WAT     H115093   3.574   4.179   6.146
 4677WAT     H215094   3.531   4.086   6.035
 4678WAT      O15095   4.029   4.244   5.474
 4678WAT     H115096   4.041   4.239   5.569
 4678WAT     H215097   3.990   4.330   5.458
 4679WAT      O15098   4.425   4.021   6.275
 4679WAT     H115099   4.427   4.066   6.360
 4679WAT     H215100   4.400   3.931   6.297
 4680WAT      O15101   3.930   4.475   5.414
 4680WAT     H115102   3.873   4.430   5.351
 4680WAT     H215103   4.001   4.511   5.360
 4681WAT      O15104   4.053   4.549   6.349
 4681WAT     H115105   4.089   4.502   6.424
 4681WAT     H215106   4.034   4.637   6.383
 4682WAT      O15107   3.339   4.024   5.962
 4682WAT     H115108   3.310   3.987   6.046
 4682WAT     H215109   3.333   3.951   5.901
 4683WAT      O15110   3.684   4.874   5.641
 4683WAT     H115111   3.607   4.820   5.625
 4683WAT     H215112   3.757   4.822   5.607
 4684WAT      O15113   4.760   4.774   6.220
 4684WAT     H115114   4.832   4.823   6.181
 4684WAT     H215115   4.740   4.706   6.156
 4685WAT      O15116   4.306   3.913   5.634
 4685WAT     H115117   4.225   3.863   5.627
 4685WAT     H215118   4.287   3.997   5.593
 4686WAT      O15119   4.578   4.350   5.464
 4686WAT     H115120   4.667   4.382   5.447
 4686WAT     H215121   4.575   4.263   5.425
 4687WAT      O15122   3.689   4.841   6.005
 4687WAT     H115123   3.741   4.761   5.999
 4687WAT     H215124   3.644   4.835   6.089
 4688WAT      O15125   4.177   4.968   5.532
 4688WAT     H115126   4.212   5.042   5.482
 4688WAT     H215127   4.095   4.999   5.568
 4689WAT      O15128   4.805   4.482   5.411
 4689WAT     H115129   4.797   4.525   5.326
 4689WAT     H215130   4.877   4.528   5.454
 4690WAT      O15131   4.908   5.167   5.684
 4690WAT     H115132   4.844   5.102   5.711
 4690WAT     H215133   4.869   5.208   5.606
 4691WAT      O15134   4.466   4.900   6.068
 4691WAT     H115135   4.501   4.840   6.002
 4691WAT     H215136   4.377   4.867   6.086
 4692WAT      O15137   4.074   4.976   5.809
 4692WAT     H115138   4.143   5.030   5.847
 4692WAT     H215139   3.996   5.030   5.813
 4693WAT      O15140   3.288   4.538   5.358
 4693WAT     H115141   3.375   4.566   5.387
 4693WAT     H215142   3.239   4.619   5.347
 4694WAT      O15143   4.005   4.676   5.770
 4694WAT     H115144   4.050   4.757   5.793
 4694WAT     H215145   3.970   4.644   5.854
 4695WAT      O15146   3.595   3.711   5.818
 4695WAT     H115147   3.582   3.710   5.912
 4695WAT     H215148   3.512   3.744   5.783
 4696WAT      O15149   4.362   5.028   6.365
 4696WAT     H115150   4.427   4.958   6.376
 4696WAT     H215151   4.415   5.106   6.347
 4697WAT      O15152   4.747   5.056   5.337
 4697WAT     H115153   4.724   4.984   5.397
 4697WAT     H215154   4.708   5.031   5.254
 4698WAT      O15155   3.325   5.459   5.415
 4698WAT     H115156   3.361   5.519   5.349
 4698WAT     H215157   3.311   5.513   5.492
 4699WAT      O15158   4.705   4.848   5.504
 4699WAT     H115159   4.676   4.894   5.582
 4699WAT     H215160   4.785   4.802   5.530
 4700WAT      O15161   3.927   5.197   5.497
 4700WAT     H115162   3.926   5.270   5.435
 4700WAT     H215163   3.835   5.172   5.506
 4701WAT      O15164   3.487   4.719   5.571
 4701WAT     H115165   3.426   4.793   5.572
 4701WAT     H215166   3.534   4.728   5.489
 4702WAT      O15167   4.781   4.031   5.620
 4702WAT     H115168   4.718   4.042   5.548
 4702WAT     H215169   4.731   4.053   5.699
 4703WAT      O15170   4.225   5.203   5.363
 4703WAT     H115171   4.235   5.183   5.270
 4703WAT     H215172   4.135   5.178   5.383
 4704WAT      O15173   3.978   4.259   5.761
 4704WAT     H115174   3.907   4.306   5.805
 4704WAT     H215175   4.006   4.193   5.825
 4705WAT      O15176   4.381   3.932   5.905
 4705WAT     H115177   4.368   3.934   5.810
 4705WAT     H215178   4.476   3.936   5.917
 4706WAT      O15179   4.090   5.455   5.832
 4706WAT     H115180   4.115   5.451   5.740
 4706WAT     H215181   3.995   5.443   5.832
 4707WAT      O15182   3.798   4.090   5.499
 4707WAT     H115183   3.883   4.134   5.492
 4707WAT     H215184   3.761   4.121   5.581
 4708WAT      O15185   4.690   4.547   5.990
 4708WAT     H115186   4.596   4.549   6.007
 4708WAT     H215187   4.721   4.469   6.035
 4709WAT      O15188   3.688   4.715   5.346
 4709WAT     H115189   3.764   4.704   5.402
 4709WAT     H215190   3.696   4.646   5.281
 4710WAT      O15191   3.557   4.459   5.414
 4710WAT     H115192   3.565   4.364   5.426
 4710WAT     H215193   3.647   4.492   5.425
 4711WAT      O15194   4.890   5.264   6.158
 4711WAT     H115195   4.903   5.347   6.205
 4711WAT     H215196   4.977   5.243   6.123
 4712WAT      O15197   3.637   5.474   6.125
 4712WAT     H115198   3.711   5.419   6.152
 4712WAT     H215199   3.676   5.560   6.111
 4713WAT      O15200   3.326   5.080   5.712
 4713WAT     H115201   3.233   5.105   5.711
 4713WAT     H215202   3.372   5.163   5.700
 4714WAT      O15203   3.948   5.391   5.307
 4714WAT     H115204   4.028   5.420   5.262
 4714WAT     H215205   3.897   5.348   5.239
 4715WAT      O15206   4.854   5.314   5.449
 4715WAT     H115207   4.825   5.272   5.368
 4715WAT     H215208   4.834   5.406   5.437
 4716WAT      O15209   4.000   4.913   5.293
 4716WAT     H115210   3.990   4.851   5.366
 4716WAT     H215211   3.984   4.861   5.215
 4717WAT      O15212   4.324   4.819   5.354
 4717WAT     H115213   4.269   4.864   5.418
 4717WAT     H215214   4.386   4.769   5.406
 4718WAT      O15215   3.891   4.715   5.543
 4718WAT     H115216   3.933   4.698   5.628
 4718WAT     H215217   3.904   4.634   5.494
 4719WAT      O15218   4.142   4.617   5.268
 4719WAT     H115219   4.194   4.546   5.232
 4719WAT     H215220   4.207   4.681   5.298
 4720WAT      O15221   3.781   4.322   5.238
 4720WAT     H115222   3.761   4.236   5.274
 4720WAT     H215223   3.764   4.314   5.144
 4721WAT      O15224   4.529   3.803   5.491
 4721WAT     H115225   4.557   3.719   5.526
 4721WAT     H215226   4.451   3.827   5.542
 4722WAT      O15227   3.660   4.032   5.237
 4722WAT     H115228   3.691   4.033   5.146
 4722WAT     H215229   3.734   3.997   5.286
 4723WAT      O15230   3.982   3.927   5.335
 4723WAT     H115231   3.948   3.859   5.277
 4723WAT     H215232   4.002   3.881   5.417
 4724WAT      O15233   4.199   5.426   5.497
 4724WAT     H115234   4.288   5.459   5.499
 4724WAT     H215235   4.202   5.353   5.434
 4725WAT      O15236   3.563   4.963   5.320
 4725WAT     H115237   3.607   5.017   5.386
 4725WAT     H215238   3.611   4.880   5.321
 4726WAT      O15239   3.284   5.242   6.065
 4726WAT     H115240   3.317   5.155   6.042
 4726WAT     H215241   3.327   5.262   6.148
 4727WAT      O15242   3.744   5.075   5.831
 4727WAT     H115243   3.714   5.062   5.921
 4727WAT     H215244   3.733   4.989   5.790
 4728WAT      O15245   3.333   5.328   6.339
 4728WAT     H115246   3.289   5.346   6.422
 4728WAT     H215247   3.390   5.404   6.325
 4729WAT      O15248   5.021   5.053   5.302
 4729WAT     H115249   4.938   5.059   5.349
 4729WAT     H215250   5.038   5.142   5.271
 4730WAT      O15251   4.966   4.727   5.552
 4730WAT     H115252   5.043   4.784   5.563
 4730WAT     H215253   4.968   4.670   5.629
 4731WAT      O15254   3.316   4.580   5.975
 4731WAT     H115255   3.251   4.553   5.911
 4731WAT     H215256   3.400   4.569   5.930
 4732WAT      O15257   5.067   4.813   6.036
 4732WAT     H115258   5.104   4.734   5.996
 4732WAT     H215259   5.131   4.882   6.019
 4733WAT      O15260   4.972   4.757   5.268
 4733WAT     H115261   4.999   4.847   5.255
 4733WAT     H215262   4.953   4.750   5.361
 4734WAT      O15263   4.611   4.059   5.397
 4734WAT     H115264   4.653   4.040   5.313
 4734WAT     H215265   4.581   3.974   5.428
 4735WAT      O15266   4.961   4.550   5.767
 4735WAT     H115267   4.924   4.474   5.724
 4735WAT     H215268   4.888   4.588   5.816
 4736WAT      O15269   3.420   4.618   6.429
 4736WAT     H115270   3.457   4.609   6.517
 4736WAT     H215271   3.363   4.542   6.419
 4737WAT      O15272   3.238   4.301   5.569
 4737WAT     H115273   3.147   4.327   5.552
 4737WAT     H215274   3.286   4.328   5.491
 4738WAT      O15275   4.889   4.373   6.097
 4738WAT     H115276   4.941   4.323   6.034
 4738WAT     H215277   4.947   4.386   6.171
 4739WAT      O15278   4.907   4.381   6.449
 4739WAT     H115279   4.812   4.378   6.461
 4739WAT     H215280   4.925   4.472   6.426
 4740WAT      O15281   3.492   4.206   5.360
 4740WAT     H115282   3.563   4.164   5.312
 4740WAT     H215283   3.420   4.213   5.297
 4741WAT      O15284   3.457   3.812   5.264
 4741WAT     H115285   3.529   3.866   5.296
 4741WAT     H215286   3.484   3.784   5.177
 4742WAT      O15287   4.838   4.299   5.691
 4742WAT     H115288   4.887   4.275   5.769
 4742WAT     H215289   4.818   4.215   5.649
 4743WAT      O15290   3.426   3.737   6.254
 4743WAT     H115291   3.490   3.682   6.210
 4743WAT     H215292   3.468   3.762   6.337
 4744WAT      O15293   4.981   4.162   5.944
 4744WAT     H115294   4.970   4.147   6.038
 4744WAT     H215295   5.057   4.109   5.920
 4745WAT      O15296   5.069   3.945   5.268
 4745WAT     H115297   5.162   3.932   5.248
 4745WAT     H215298   5.067   3.953   5.364
 4746WAT      O15299   5.077   4.022   5.531
 4746WAT     H115300   4.997   4.016   5.584
 4746WAT     H215301   5.097   4.116   5.530
 4747WAT      O15302   4.771   5.426   5.930
 4747WAT     H115303   4.831   5.394   5.863
 4747WAT     H215304   4.797   5.379   6.009
 4748WAT      O15305   3.932   5.225   6.505
 4748WAT     H115306   3.908   5.252   6.417
 4748WAT     H215307   4.026   5.242   6.511
 4749WAT      O15308   4.826   5.491   6.313
 4749WAT     H115309   4.780   5.566   6.276
 4749WAT     H215310   4.763   5.419   6.307
 4750WAT      O15311   3.869   5.322   6.231
 4750WAT     H115312   3.921   5.261   6.178
 4750WAT     H215313   3.934   5.372   6.280
 4751WAT      O15314   4.143   5.411   6.313
 4751WAT     H115315   4.172   5.386   6.226
 4751WAT     H215316   4.194   5.356   6.373
 4752WAT      O15317   4.265   3.785   6.371
 4752WAT     H115318   4.187   3.833   6.399
 4752WAT     H215319   4.235   3.695   6.361
 4753WAT      O15320   4.720   3.855   6.176
 4753WAT     H115321   4.764   3.850   6.091
 4753WAT     H215322   4.693   3.947   6.183
 4754WAT      O15323   4.906   3.818   5.977
 4754WAT     H115324   4.900   3.724   5.962
 4754WAT     H215325   4.984   3.829   6.032
 4755WAT      O15326   3.337   5.432   5.873
 4755WAT     H115327   3.320   5.369   5.943
 4755WAT     H215328   3.250   5.453   5.838
 4756WAT      O15329   3.399   3.816   5.624
 4756WAT     H115330   3.475   3.827   5.566
 4756WAT     H215331   3.353   3.899   5.619
 4757WAT      O15332   4.053   4.027   5.923
 4757WAT     H115333   3.972   3.990   5.889
 4757WAT     H215334   4.104   3.951   5.953
 4758WAT      O15335   4.504   3.693   6.046
 4758WAT     H115336   4.564   3.751   6.094
 4758WAT     H215337   4.430   3.750   6.024
 4759WAT      O15338   4.818   3.734   5.574
 4759WAT     H115339   4.837   3.823   5.601
 4759WAT     H215340   4.739   3.710   5.623
 4760WAT      O15341   3.498   5.302   5.618
 4760WAT     H115342   3.445   5.340   5.547
 4760WAT     H215343   3.490   5.364   5.690
 4761WAT      O15344   3.636   3.868   5.478
 4761WAT     H115345   3.689   3.789   5.465
 4761WAT     H215346   3.700   3.936   5.501
 4762WAT      O15347   3.856   3.842   5.783
 4762WAT     H115348   3.793   3.772   5.800
 4762WAT     H215349   3.802   3.918   5.761
 4763WAT      O15350   4.973   5.458   5.750
 4763WAT     H115351   4.991   5.389   5.686
 4763WAT     H215352   4.903   5.510   5.711
 4764WAT      O15353   3.757   5.497   5.505
 4764WAT     H115354   3.831   5.468   5.450
 4764WAT     H215355   3.783   5.473   5.594
 4765WAT      O15356   3.674   5.108   5.506
 4765WAT     H115357   3.611   5.155   5.561
 4765WAT     H215358   3.685   5.024   5.549
 4766WAT      O15359   4.419   4.513   4.121
 4766WAT     H115360   4.411   4.422   4.094
 4766WAT     H215361   4.378   4.563   4.050
 4767WAT      O15362   4.232   4.691   4.309
 4767WAT     H115363   4.155   4.643   4.338
 4767WAT     H215364   4.297   4.623   4.291
 4768WAT      O15365   3.634   4.722   4.397
 4768WAT     H115366   3.551   4.697   4.437
 4768WAT     H215367   3.695   4.729   4.470
 4769WAT      O15368   4.634   5.132   4.187
 4769WAT     H115369   4.588   5.055   4.220
 4769WAT     H215370   4.716   5.134   4.237
 4770WAT      O15371   3.632   5.126   4.416
 4770WAT     H115372   3.662   5.037   4.398
 4770WAT     H215373   3.706   5.181   4.393
 4771WAT      O15374   4.257   5.360   4.149
 4771WAT     H115375   4.195   5.406   4.092
 4771WAT     H215376   4.343   5.376   4.109
 4772WAT      O15377   4.176   4.959   4.310
 4772WAT     H115378   4.169   4.865   4.293
 4772WAT     H215379   4.253   4.968   4.367
 4773WAT      O15380   4.279   4.239   4.332
 4773WAT     H115381   4.317   4.152   4.321
 4773WAT     H215382   4.270   4.273   4.243
 4774WAT      O15383   3.877   4.373   4.312
 4774WAT     H115384   3.927   4.423   4.376
 4774WAT     H215385   3.930   4.296   4.294
 4775WAT      O15386   5.087   4.190   4.682
 4775WAT     H115387   5.016   4.229   4.630
 4775WAT     H215388   5.113   4.260   4.742
 4776WAT      O15389   3.705   3.837   4.738
 4776WAT     H115390   3.705   3.889   4.658
 4776WAT     H215391   3.622   3.790   4.736
 4777WAT      O15392   4.344   4.849   3.888
 4777WAT     H115393   4.282   4.895   3.832
 4777WAT     H215394   4.395   4.918   3.930
 4778WAT      O15395   3.830   4.801   4.556
 4778WAT     H115396   3.797   4.864   4.620
 4778WAT     H215397   3.848   4.854   4.478
 4779WAT      O15398   3.673   4.009   4.539
 4779WAT     H115399   3.707   4.093   4.510
 4779WAT     H215400   3.579   4.023   4.551
 4780WAT      O15401   3.751   4.998   4.738
 4780WAT     H115402   3.813   5.066   4.709
 4780WAT     H215403   3.665   5.039   4.728
 4781WAT      O15404   3.280   4.917   3.626
 4781WAT     H115405   3.243   4.966   3.552
 4781WAT     H215406   3.306   4.984   3.689
 4782WAT      O15407   4.843   5.145   4.529
 4782WAT     H115408   4.775   5.212   4.528
 4782WAT     H215409   4.897   5.164   4.452
 4783WAT      O15410   4.041   3.757   4.171
 4783WAT     H115411   4.072   3.702   4.100
 4783WAT     H215412   3.948   3.771   4.153
 4784WAT      O15413   4.597   5.329   4.401
 4784WAT     H115414   4.598   5.289   4.314
 4784WAT     H215415   4.541   5.406   4.390
 4785WAT      O15416   4.726   5.001   3.909
 4785WAT     H115417   4.715   4.907   3.922
 4785WAT     H215418   4.726   5.037   3.998
 4786WAT      O15419   4.536   4.819   4.533
 4786WAT     H115420   4.578   4.798   4.450
 4786WAT     H215421   4.609   4.845   4.590
 4787WAT      O15422   4.280   4.564   3.845
 4787WAT     H115423   4.187   4.557   3.868
 4787WAT     H215424   4.295   4.658   3.834
 4788WAT      O15425   4.931   4.659   4.542
 4788WAT     H115426   4.848   4.666   4.495
 4788WAT     H215427   4.991   4.718   4.496
 4789WAT      O15428   4.683   4.720   3.895
 4789WAT     H115429   4.621   4.686   3.831
 4789WAT     H215430   4.681   4.656   3.966
 4790WAT      O15431   4.627   4.338   4.637
 4790WAT     H115432   4.586   4.420   4.662
 4790WAT     H215433   4.554   4.279   4.618
 4791WAT      O15434   3.841   4.616   4.123
 4791WAT     H115435   3.800   4.545   4.074
 4791WAT     H215436   3.849   4.582   4.212
 4792WAT      O15437   3.888   4.985   4.340
 4792WAT     H115438   3.858   4.925   4.272
 4792WAT     H215439   3.983   4.989   4.329
 4793WAT      O15440   3.712   4.294   4.501
 4793WAT     H115441   3.767   4.305   4.424
 4793WAT     H215442   3.763   4.331   4.573
 4794WAT      O15443   4.696   5.342   4.706
 4794WAT     H115444   4.649   5.423   4.687
 4794WAT     H215445   4.628   5.277   4.721
 4795WAT      O15446   3.797   4.959   5.005
 4795WAT     H115447   3.707   4.981   5.029
 4795WAT     H215448   3.799   4.971   4.910
 4796WAT      O15449   4.501   4.644   3.596
 4796WAT     H115450   4.545   4.560   3.581
 4796WAT     H215451   4.572   4.707   3.605
 4797WAT      O15452   3.679   4.646   4.862
 4797WAT     H115453   3.666   4.733   4.899
 4797WAT     H215454   3.591   4.612   4.848
 4798WAT      O15455   4.312   5.138   3.993
 4798WAT     H115456   4.356   5.212   3.951
 4798WAT     H215457   4.306   5.162   4.085
 4799WAT      O15458   3.859   5.240   5.083
 4799WAT     H115459   3.856   5.281   4.996
 4799WAT     H215460   3.843   5.147   5.067
 4800WAT      O15461   3.511   4.506   3.873
 4800WAT     H115462   3.499   4.579   3.812
 4800WAT     H215463   3.480   4.429   3.826
 4801WAT      O15464   5.054   5.319   5.213
 4801WAT     H115465   5.102   5.366   5.281
 4801WAT     H215466   5.116   5.312   5.140
 4802WAT      O15467   3.399   4.993   4.095
 4802WAT     H115468   3.358   5.007   4.010
 4802WAT     H215469   3.488   4.965   4.075
 4803WAT      O15470   4.995   5.038   4.929
 4803WAT     H115471   5.007   5.014   4.837
 4803WAT     H215472   4.999   4.955   4.976
 4804WAT      O15473   4.381   5.408   4.786
 4804WAT     H115474   4.432   5.399   4.866
 4804WAT     H215475   4.297   5.443   4.815
 4805WAT      O15476   4.578   5.437   3.729
 4805WAT     H115477   4.562   5.408   3.818
 4805WAT     H215478   4.562   5.359   3.675
 4806WAT      O15479   3.826   5.415   3.906
 4806WAT     H115480   3.809   5.323   3.885
 4806WAT     H215481   3.741   5.450   3.930
 4807WAT      O15482   4.549   5.187   3.585
 4807WAT     H115483   4.479   5.187   3.519
 4807WAT     H215484   4.623   5.145   3.541
 4808WAT      O15485   4.505   5.350   3.992
 4808WAT     H115486   4.551   5.272   4.023
 4808WAT     H215487   4.539   5.421   4.046
 4809WAT      O15488   4.980   4.243   5.025
 4809WAT     H115489   4.918   4.294   4.972
 4809WAT     H215490   4.948   4.153   5.020
 4810WAT      O15491   3.280   4.927   4.708
 4810WAT     H115492   3.297   4.880   4.626
 4810WAT     H215493   3.327   4.876   4.774
 4811WAT      O15494   3.757   3.840   4.212
 4811WAT     H115495   3.713   3.918   4.178
 4811WAT     H215496   3.813   3.873   4.282
 4812WAT      O15497   4.186   4.127   4.772
 4812WAT     H115498   4.140   4.148   4.853
 4812WAT     H215499   4.146   4.046   4.742
 4813WAT      O15500   4.686   4.249   4.885
 4813WAT     H115501   4.601   4.219   4.917
 4813WAT     H215502   4.670   4.273   4.794
 4814WAT      O15503   4.396   4.399   5.095
 4814WAT     H115504   4.428   4.316   5.061
 4814WAT     H215505   4.474   4.451   5.110
 4815WAT      O15506   3.961   3.895   4.397
 4815WAT     H115507   3.991   3.985   4.389
 4815WAT     H215508   4.016   3.846   4.336
 4816WAT      O15509   3.737   4.353   3.984
 4816WAT     H115510   3.714   4.331   4.075
 4816WAT     H215511   3.659   4.396   3.950
 4817WAT      O15512   4.460   4.353   3.844
 4817WAT     H115513   4.400   4.426   3.826
 4817WAT     H215514   4.514   4.347   3.766
 4818WAT      O15515   3.981   4.442   5.051
 4818WAT     H115516   3.971   4.348   5.036
 4818WAT     H215517   4.065   4.465   5.011
 4819WAT      O15518   4.320   4.217   4.047
 4819WAT     H115519   4.360   4.249   3.966
 4819WAT     H215520   4.356   4.129   4.059
 4820WAT      O15521   3.494   4.084   4.866
 4820WAT     H115522   3.454   4.168   4.887
 4820WAT     H215523   3.425   4.020   4.885
 4821WAT      O15524   4.151   4.092   5.173
 4821WAT     H115525   4.082   4.073   5.237
 4821WAT     H215526   4.225   4.120   5.226
 4822WAT      O15527   4.379   4.476   4.457
 4822WAT     H115528   4.306   4.527   4.492
 4822WAT     H215529   4.339   4.394   4.427
 4823WAT      O15530   4.023   4.143   4.297
 4823WAT     H115531   4.023   4.099   4.212
 4823WAT     H215532   4.112   4.176   4.308
 4824WAT      O15533   3.608   4.132   4.193
 4824WAT     H115534   3.574   4.179   4.269
 4824WAT     H215535   3.531   4.086   4.157
 4825WAT      O15536   4.425   4.021   4.398
 4825WAT     H115537   4.427   4.066   4.482
 4825WAT     H215538   4.400   3.931   4.419
 4826WAT      O15539   4.768   3.763   4.982
 4826WAT     H115540   4.800   3.689   5.034
 4826WAT     H215541   4.771   3.731   4.892
 4827WAT      O15542   3.438   4.865   4.924
 4827WAT     H115543   3.399   4.801   4.984
 4827WAT     H215544   3.469   4.935   4.981
 4828WAT      O15545   4.053   4.549   4.472
 4828WAT     H115546   4.089   4.502   4.547
 4828WAT     H215547   4.034   4.637   4.506
 4829WAT      O15548   3.832   4.454   4.704
 4829WAT     H115549   3.801   4.542   4.726
 4829WAT     H215550   3.927   4.460   4.707
 4830WAT      O15551   3.684   4.874   3.763
 4830WAT     H115552   3.607   4.820   3.747
 4830WAT     H215553   3.757   4.822   3.730
 4831WAT      O15554   4.760   4.774   4.343
 4831WAT     H115555   4.832   4.823   4.304
 4831WAT     H215556   4.740   4.706   4.278
 4832WAT      O15557   4.306   3.913   3.757
 4832WAT     H115558   4.225   3.863   3.749
 4832WAT     H215559   4.287   3.997   3.715
 4833WAT      O15560   4.298   4.781   4.931
 4833WAT     H115561   4.292   4.689   4.906
 4833WAT     H215562   4.236   4.791   5.003
 4834WAT      O15563   4.578   4.350   3.587
 4834WAT     H115564   4.667   4.382   3.569
 4834WAT     H215565   4.575   4.263   3.547
 4835WAT      O15566   3.689   4.841   4.127
 4835WAT     H115567   3.741   4.761   4.122
 4835WAT     H215568   3.644   4.835   4.211
 4836WAT      O15569   4.177   4.968   3.655
 4836WAT     H115570   4.212   5.042   3.605
 4836WAT     H215571   4.095   4.999   3.691
 4837WAT      O15572   3.757   4.583   5.107
 4837WAT     H115573   3.727   4.598   5.017
 4837WAT     H215574   3.834   4.528   5.098
 4838WAT      O15575   4.292   5.063   4.906
 4838WAT     H115576   4.293   4.970   4.885
 4838WAT     H215577   4.221   5.072   4.970
 4839WAT      O15578   4.805   4.482   3.533
 4839WAT     H115579   4.797   4.525   3.448
 4839WAT     H215580   4.877   4.528   3.577
 4840WAT      O15581   4.913   4.727   4.841
 4840WAT     H115582   4.840   4.787   4.821
 4840WAT     H215583   4.966   4.726   4.761
 4841WAT      O15584   4.908   5.167   3.806
 4841WAT     H115585   4.844   5.102   3.834
 4841WAT     H215586   4.869   5.208   3.729
 4842WAT      O15587   4.466   4.900   4.191
 4842WAT     H115588   4.501   4.840   4.125
 4842WAT     H215589   4.377   4.867   4.208
 4843WAT      O15590   4.074   4.976   3.932
 4843WAT     H115591   4.143   5.030   3.970
 4843WAT     H215592   3.996   5.030   3.935
 4844WAT      O15593   4.005   4.676   3.893
 4844WAT     H115594   4.050   4.757   3.916
 4844WAT     H215595   3.970   4.644   3.976
 4845WAT      O15596   4.235   5.227   4.616
 4845WAT     H115597   4.299   5.248   4.684
 4845WAT     H215598   4.271   5.151   4.571
 4846WAT      O15599   4.362   5.028   4.488
 4846WAT     H115600   4.427   4.958   4.499
 4846WAT     H215601   4.415   5.106   4.470
 4847WAT      O15602   4.747   5.056   3.460
 4847WAT     H115603   4.724   4.984   3.519
 4847WAT     H215604   4.708   5.031   3.376
 4848WAT      O15605   4.540   5.108   4.808
 4848WAT     H115606   4.573   5.166   4.876
 4848WAT     H215607   4.448   5.095   4.831
 4849WAT      O15608   3.325   5.459   3.537
 4849WAT     H115609   3.361   5.519   3.472
 4849WAT     H215610   3.311   5.513   3.615
 4850WAT      O15611   3.295   3.887   4.886
 4850WAT     H115612   3.223   3.907   4.947
 4850WAT     H215613   3.337   3.809   4.923
 4851WAT      O15614   4.705   4.848   3.626
 4851WAT     H115615   4.676   4.894   3.705
 4851WAT     H215616   4.785   4.802   3.653
 4852WAT      O15617   3.323   5.285   4.985
 4852WAT     H115618   3.334   5.191   4.971
 4852WAT     H215619   3.258   5.312   4.920
 4853WAT      O15620   4.123   5.113   5.125
 4853WAT     H115621   4.091   5.041   5.179
 4853WAT     H215622   4.055   5.180   5.132
 4854WAT      O15623   3.927   5.197   3.619
 4854WAT     H115624   3.926   5.270   3.558
 4854WAT     H215625   3.835   5.172   3.628
 4855WAT      O15626   3.487   4.719   3.694
 4855WAT     H115627   3.426   4.793   3.695
 4855WAT     H215628   3.534   4.728   3.611
 4856WAT      O15629   4.444   4.136   4.661
 4856WAT     H115630   4.481   4.054   4.694
 4856WAT     H215631   4.358   4.142   4.703
 4857WAT      O15632   4.225   5.203   3.485
 4857WAT     H115633   4.235   5.183   3.392
 4857WAT     H215634   4.135   5.178   3.506
 4858WAT      O15635   4.140   4.401   4.684
 4858WAT     H115636   4.190   4.449   4.750
 4858WAT     H215637   4.154   4.309   4.704
 4859WAT      O15638   4.090   5.455   3.955
 4859WAT     H115639   4.115   5.451   3.863
 4859WAT     H215640   3.995   5.443   3.954
 4860WAT      O15641   4.861   4.023   4.768
 4860WAT     H115642   4.811   4.097   4.802
 4860WAT     H215643   4.942   4.062   4.736
 4861WAT      O15644   4.690   4.547   4.113
 4861WAT     H115645   4.596   4.549   4.130
 4861WAT     H215646   4.721   4.469   4.157
 4862WAT      O15647   3.688   4.715   3.469
 4862WAT     H115648   3.764   4.704   3.525
 4862WAT     H215649   3.696   4.646   3.403
 4863WAT      O15650   4.890   5.264   4.280
 4863WAT     H115651   4.903   5.347   4.327
 4863WAT     H215652   4.977   5.243   4.245
 4864WAT      O15653   3.637   5.474   4.247
 4864WAT     H115654   3.711   5.419   4.274
 4864WAT     H215655   3.676   5.560   4.233
 4865WAT      O15656   3.326   5.080   3.835
 4865WAT     H115657   3.233   5.105   3.834
 4865WAT     H215658   3.372   5.163   3.823
 4866WAT      O15659   3.538   5.392   5.166
 4866WAT     H115660   3.618   5.424   5.207
 4866WAT     H215661   3.487   5.356   5.238
 4867WAT      O15662   3.948   5.391   3.430
 4867WAT     H115663   4.028   5.420   3.384
 4867WAT     H215664   3.897   5.348   3.362
 4868WAT      O15665   4.422   5.003   5.161
 4868WAT     H115666   4.361   5.005   5.087
 4868WAT     H215667   4.391   4.930   5.215
 4869WAT      O15668   4.565   5.376   5.022
 4869WAT     H115669   4.660   5.367   5.017
 4869WAT     H215670   4.550   5.442   5.089
 4870WAT      O15671   4.854   5.314   3.572
 4870WAT     H115672   4.825   5.272   3.490
 4870WAT     H215673   4.834   5.406   3.560
 4871WAT      O15674   3.310   4.641   5.060
 4871WAT     H115675   3.360   4.583   5.118
 4871WAT     H215676   3.236   4.669   5.114
 4872WAT      O15677   4.000   4.913   3.416
 4872WAT     H115678   3.990   4.851   3.489
 4872WAT     H215679   3.984   4.861   3.338
 4873WAT      O15680   4.015   4.781   5.014
 4873WAT     H115681   3.939   4.838   5.005
 4873WAT     H215682   4.034   4.752   4.925
 4874WAT      O15683   4.324   4.819   3.476
 4874WAT     H115684   4.269   4.864   3.541
 4874WAT     H215685   4.386   4.769   3.529
 4875WAT      O15686   4.730   4.955   5.070
 4875WAT     H115687   4.804   4.988   5.019
 4875WAT     H215688   4.653   4.971   5.014
 4876WAT      O15689   3.513   4.455   5.150
 4876WAT     H115690   3.517   4.425   5.241
 4876WAT     H215691   3.599   4.495   5.134
 4877WAT      O15692   3.891   4.715   3.666
 4877WAT     H115693   3.933   4.698   3.750
 4877WAT     H215694   3.904   4.634   3.617
 4878WAT      O15695   3.707   4.313   4.947
 4878WAT     H115696   3.654   4.264   4.884
 4878WAT     H215697   3.774   4.356   4.893
 4879WAT      O15698   4.142   4.617   3.391
 4879WAT     H115699   4.194   4.546   3.354
 4879WAT     H215700   4.207   4.681   3.421
 4880WAT      O15701   4.597   4.760   4.923
 4880WAT     H115702   4.639   4.775   5.008
 4880WAT     H215703   4.504   4.772   4.939
 4881WAT      O15704   4.644   4.494   5.124
 4881WAT     H115705   4.703   4.418   5.115
 4881WAT     H215706   4.662   4.547   5.046
 4882WAT      O15707   3.756   4.010   4.955
 4882WAT     H115708   3.747   3.948   4.882
 4882WAT     H215709   3.698   4.082   4.932
 4883WAT      O15710   4.033   3.865   4.658
 4883WAT     H115711   3.988   3.868   4.573
 4883WAT     H215712   3.969   3.826   4.718
 4884WAT      O15713   4.073   4.755   4.720
 4884WAT     H115714   4.115   4.839   4.703
 4884WAT     H215715   3.981   4.769   4.697
 4885WAT      O15716   4.307   4.528   4.858
 4885WAT     H115717   4.319   4.468   4.932
 4885WAT     H215718   4.393   4.532   4.816
 4886WAT      O15719   4.541   4.583   4.716
 4886WAT     H115720   4.488   4.636   4.656
 4886WAT     H215721   4.575   4.647   4.779
 4887WAT      O15722   3.858   5.385   4.832
 4887WAT     H115723   3.805   5.458   4.800
 4887WAT     H215724   3.884   5.338   4.753
 4888WAT      O15725   3.984   4.182   4.984
 4888WAT     H115726   4.043   4.151   5.053
 4888WAT     H215727   3.902   4.135   5.000
 4889WAT      O15728   4.466   4.144   5.008
 4889WAT     H115729   4.397   4.078   5.001
 4889WAT     H215730   4.538   4.099   5.052
 4890WAT      O15731   4.529   3.803   3.613
 4890WAT     H115732   4.557   3.719   3.649
 4890WAT     H215733   4.451   3.827   3.665
 4891WAT      O15734   4.144   5.509   4.858
 4891WAT     H115735   4.137   5.599   4.888
 4891WAT     H215736   4.054   5.477   4.855
 4892WAT      O15737   4.199   5.426   3.620
 4892WAT     H115738   4.288   5.459   3.622
 4892WAT     H215739   4.202   5.353   3.557
 4893WAT      O15740   3.563   4.963   3.443
 4893WAT     H115741   3.607   5.017   3.508
 4893WAT     H215742   3.611   4.880   3.444
 4894WAT      O15743   3.284   5.242   4.188
 4894WAT     H115744   3.317   5.155   4.165
 4894WAT     H215745   3.327   5.262   4.271
 4895WAT      O15746   3.744   5.075   3.954
 4895WAT     H115747   3.714   5.062   4.044
 4895WAT     H215748   3.733   4.989   3.913
 4896WAT      O15749   3.333   5.328   4.462
 4896WAT     H115750   3.289   5.346   4.545
 4896WAT     H215751   3.390   5.404   4.447
 4897WAT      O15752   4.897   5.279   4.890
 4897WAT     H115753   4.837   5.284   4.816
 4897WAT     H215754   4.910   5.185   4.903
 4898WAT      O15755   5.021   5.053   3.424
 4898WAT     H115756   4.938   5.059   3.471
 4898WAT     H215757   5.038   5.142   3.394
 4899WAT      O15758   4.966   4.727   3.674
 4899WAT     H115759   5.043   4.784   3.685
 4899WAT     H215760   4.968   4.670   3.752
 4900WAT      O15761   5.067   4.813   4.159
 4900WAT     H115762   5.104   4.734   4.118
 4900WAT     H215763   5.131   4.882   4.141
 4901WAT      O15764   4.765   4.951   4.700
 4901WAT     H115765   4.684   4.994   4.726
 4901WAT     H215766   4.806   5.012   4.639
 4902WAT      O15767   4.611   4.059   3.520
 4902WAT     H115768   4.653   4.040   3.436
 4902WAT     H215769   4.581   3.974   3.551
 4903WAT      O15770   4.961   4.550   3.890
 4903WAT     H115771   4.924   4.474   3.846
 4903WAT     H215772   4.888   4.588   3.938
 4904WAT      O15773   4.900   4.465   4.853
 4904WAT     H115774   4.877   4.442   4.763
 4904WAT     H215775   4.926   4.557   4.848
 4905WAT      O15776   4.744   3.988   5.131
 4905WAT     H115777   4.832   3.988   5.169
 4905WAT     H215778   4.745   3.914   5.070
 4906WAT      O15779   4.889   4.373   4.220
 4906WAT     H115780   4.941   4.323   4.156
 4906WAT     H215781   4.947   4.386   4.294
 4907WAT      O15782   4.907   4.381   4.572
 4907WAT     H115783   4.812   4.378   4.583
 4907WAT     H215784   4.925   4.472   4.548
 4908WAT      O15785   4.838   4.299   3.814
 4908WAT     H115786   4.887   4.275   3.892
 4908WAT     H215787   4.818   4.215   3.772
 4909WAT      O15788   3.426   3.737   4.377
 4909WAT     H115789   3.490   3.682   4.333
 4909WAT     H215790   3.468   3.762   4.459
 4910WAT      O15791   4.815   3.756   4.713
 4910WAT     H115792   4.879   3.817   4.749
 4910WAT     H215793   4.830   3.760   4.618
 4911WAT      O15794   4.771   5.426   4.053
 4911WAT     H115795   4.831   5.394   3.985
 4911WAT     H215796   4.797   5.379   4.132
 4912WAT      O15797   3.401   3.752   4.651
 4912WAT     H115798   3.366   3.798   4.728
 4912WAT     H215799   3.368   3.663   4.659
 4913WAT      O15800   3.562   5.069   5.068
 4913WAT     H115801   3.557   5.032   5.156
 4913WAT     H215802   3.575   5.163   5.082
 4914WAT      O15803   3.932   5.225   4.628
 4914WAT     H115804   3.908   5.252   4.539
 4914WAT     H215805   4.026   5.242   4.633
 4915WAT      O15806   4.152   3.871   5.003
 4915WAT     H115807   4.146   3.931   5.078
 4915WAT     H215808   4.246   3.861   4.989
 4916WAT      O15809   4.416   3.837   4.967
 4916WAT     H115810   4.477   3.869   4.901
 4916WAT     H215811   4.470   3.789   5.029
 4917WAT      O15812   5.058   5.427   4.708
 4917WAT     H115813   5.008   5.467   4.636
 4917WAT     H215814   4.997   5.364   4.747
 4918WAT      O15815   3.468   3.705   4.979
 4918WAT     H115816   3.523   3.687   4.902
 4918WAT     H215817   3.475   3.626   5.032
 4919WAT      O15818   3.546   5.364   4.780
 4919WAT     H115819   3.486   5.351   4.854
 4919WAT     H215820   3.545   5.280   4.733
 4920WAT      O15821   4.490   3.693   4.600
 4920WAT     H115822   4.403   3.727   4.580
 4920WAT     H215823   4.479   3.646   4.683
 4921WAT      O15824   4.581   3.914   4.738
 4921WAT     H115825   4.548   3.833   4.701
 4921WAT     H215826   4.676   3.910   4.726
 4922WAT      O15827   4.826   5.491   4.436
 4922WAT     H115828   4.780   5.566   4.398
 4922WAT     H215829   4.763   5.419   4.430
 4923WAT      O15830   3.509   5.101   4.675
 4923WAT     H115831   3.436   5.039   4.668
 4923WAT     H215832   3.515   5.140   4.588
 4924WAT      O15833   3.869   5.322   4.353
 4924WAT     H115834   3.921   5.261   4.301
 4924WAT     H215835   3.934   5.372   4.402
 4925WAT      O15836   4.143   5.411   4.436
 4925WAT     H115837   4.172   5.386   4.348
 4925WAT     H215838   4.194   5.356   4.495
 4926WAT      O15839   4.265   3.785   4.494
 4926WAT     H115840   4.187   3.833   4.522
 4926WAT     H215841   4.235   3.695   4.483
 4927WAT      O15842   3.337   5.432   3.996
 4927WAT     H115843   3.320   5.369   4.066
 4927WAT     H215844   3.250   5.453   3.961
 4928WAT      O15845   4.053   4.027   4.045
 4928WAT     H115846   3.972   3.990   4.011
 4928WAT     H215847   4.104   3.951   4.075
 4929WAT      O15848   3.498   5.302   3.740
 4929WAT     H115849   3.445   5.340   3.670
 4929WAT     H215850   3.490   5.364   3.812
 4930WAT      O15851   3.856   3.842   3.906
 4930WAT     H115852   3.793   3.772   3.922
 4930WAT     H215853   3.802   3.918   3.884
 4931WAT      O15854   4.150   5.503   5.173
 4931WAT     H115855   4.242   5.480   5.177
 4931WAT     H215856   4.148   5.586   5.125
 4932WAT      O15857   4.973   5.458   3.872
 4932WAT     H115858   4.991   5.389   3.808
 4932WAT     H215859   4.903   5.510   3.833
 4933WAT      O15860   3.868   3.770   5.149
 4933WAT     H115861   3.840   3.820   5.073
 4933WAT     H215862   3.907   3.690   5.113
 4934WAT      O15863   3.757   5.497   3.628
 4934WAT     H115864   3.831   5.468   3.573
 4934WAT     H215865   3.783   5.473   3.717
 4935WAT      O15866   3.674   5.108   3.628
 4935WAT     H115867   3.611   5.155   3.683
 4935WAT     H215868   3.685   5.024   3.672
 4936WAT      O15869   4.529   3.711   5.207
 4936WAT     H115870   4.517   3.743   5.296
 4936WAT     H215871   4.610   3.751   5.177
 4937WAT      O15872   4.807   5.426   5.155
 4937WAT     H115873   4.886   5.377   5.134
 4937WAT     H215874   4.836   5.494   5.216
 4938WAT      O15875   4.419   4.513   2.243
 4938WAT     H115876   4.411   4.422   2.216
 4938WAT     H215877   4.378   4.563   2.173
 4939WAT      O15878   4.232   4.691   2.431
 4939WAT     H115879   4.155   4.643   2.460
 4939WAT     H215880   4.297   4.623   2.414
 4940WAT      O15881   3.634   4.722   2.519
 4940WAT     H115882   3.551   4.697   2.559
 4940WAT     H215883   3.695   4.729   2.593
 4941WAT      O15884   4.634   5.132   2.309
 4941WAT     H115885   4.588   5.055   2.342
 4941WAT     H215886   4.716   5.134   2.360
 4942WAT      O15887   3.632   5.126   2.539
 4942WAT     H115888   3.662   5.037   2.521
 4942WAT     H215889   3.706   5.181   2.516
 4943WAT      O15890   3.475   4.218   1.898
 4943WAT     H115891   3.386   4.252   1.887
 4943WAT     H215892   3.503   4.198   1.808
 4944WAT      O15893   3.271   4.478   2.486
 4944WAT     H115894   3.328   4.402   2.486
 4944WAT     H215895   3.271   4.508   2.395
 4945WAT      O15896   4.257   5.360   2.271
 4945WAT     H115897   4.195   5.406   2.214
 4945WAT     H215898   4.343   5.376   2.231
 4946WAT      O15899   4.176   4.959   2.432
 4946WAT     H115900   4.169   4.865   2.416
 4946WAT     H215901   4.253   4.968   2.489
 4947WAT      O15902   3.395   4.019   2.665
 4947WAT     H115903   3.378   3.929   2.693
 4947WAT     H215904   3.355   4.074   2.732
 4948WAT      O15905   4.279   4.239   2.455
 4948WAT     H115906   4.317   4.152   2.444
 4948WAT     H215907   4.270   4.273   2.366
 4949WAT      O15908   3.693   4.077   2.001
 4949WAT     H115909   3.703   4.167   2.032
 4949WAT     H215910   3.601   4.072   1.972
 4950WAT      O15911   4.658   3.989   2.148
 4950WAT     H115912   4.740   3.940   2.152
 4950WAT     H215913   4.661   4.048   2.223
 4951WAT      O15914   3.457   4.269   2.525
 4951WAT     H115915   3.525   4.295   2.587
 4951WAT     H215916   3.426   4.185   2.559
 4952WAT      O15917   3.877   4.373   2.434
 4952WAT     H115918   3.927   4.423   2.498
 4952WAT     H215919   3.930   4.296   2.417
 4953WAT      O15920   3.705   3.837   2.861
 4953WAT     H115921   3.705   3.889   2.780
 4953WAT     H215922   3.622   3.790   2.859
 4954WAT      O15923   4.344   4.849   2.011
 4954WAT     H115924   4.282   4.895   1.954
 4954WAT     H215925   4.395   4.918   2.052
 4955WAT      O15926   3.830   4.801   2.679
 4955WAT     H115927   3.797   4.864   2.743
 4955WAT     H215928   3.848   4.854   2.601
 4956WAT      O15929   4.681   4.183   2.425
 4956WAT     H115930   4.611   4.212   2.483
 4956WAT     H215931   4.717   4.264   2.389
 4957WAT      O15932   3.673   4.009   2.662
 4957WAT     H115933   3.707   4.093   2.632
 4957WAT     H215934   3.579   4.023   2.673
 4958WAT      O15935   3.751   4.998   2.860
 4958WAT     H115936   3.813   5.066   2.832
 4958WAT     H215937   3.665   5.039   2.851
 4959WAT      O15938   3.280   4.917   1.748
 4959WAT     H115939   3.243   4.966   1.675
 4959WAT     H215940   3.306   4.984   1.811
 4960WAT      O15941   4.843   5.145   2.652
 4960WAT     H115942   4.775   5.212   2.651
 4960WAT     H215943   4.897   5.164   2.575
 4961WAT      O15944   4.597   5.329   2.523
 4961WAT     H115945   4.598   5.289   2.436
 4961WAT     H215946   4.541   5.406   2.513
 4962WAT      O15947   4.726   5.001   2.032
 4962WAT     H115948   4.715   4.907   2.044
 4962WAT     H215949   4.726   5.037   2.121
 4963WAT      O15950   4.536   4.819   2.656
 4963WAT     H115951   4.578   4.798   2.572
 4963WAT     H215952   4.609   4.845   2.713
 4964WAT      O15953   4.280   4.564   1.968
 4964WAT     H115954   4.187   4.557   1.990
 4964WAT     H215955   4.295   4.658   1.956
 4965WAT      O15956   4.279   4.191   1.667
 4965WAT     H115957   4.185   4.207   1.676
 4965WAT     H215958   4.311   4.263   1.613
 4966WAT      O15959   4.683   4.720   2.018
 4966WAT     H115960   4.621   4.686   1.953
 4966WAT     H215961   4.681   4.656   2.089
 4967WAT      O15962   4.627   4.338   2.760
 4967WAT     H115963   4.586   4.420   2.785
 4967WAT     H215964   4.554   4.279   2.740
 4968WAT      O15965   3.841   4.616   2.246
 4968WAT     H115966   3.800   4.545   2.196
 4968WAT     H215967   3.849   4.582   2.335
 4969WAT      O15968   3.888   4.985   2.462
 4969WAT     H115969   3.858   4.925   2.394
 4969WAT     H215970   3.983   4.989   2.451
 4970WAT      O15971   3.712   4.294   2.624
 4970WAT     H115972   3.767   4.305   2.546
 4970WAT     H215973   3.763   4.331   2.695
 4971WAT      O15974   4.696   5.342   2.828
 4971WAT     H115975   4.649   5.423   2.809
 4971WAT     H215976   4.628   5.277   2.844
 4972WAT      O15977   3.797   4.959   3.127
 4972WAT     H115978   3.707   4.981   3.152
 4972WAT     H215979   3.799   4.971   3.032
 4973WAT      O15980   4.501   4.644   1.719
 4973WAT     H115981   4.545   4.560   1.704
 4973WAT     H215982   4.572   4.707   1.727
 4974WAT      O15983   3.679   4.646   2.985
 4974WAT     H115984   3.666   4.733   3.022
 4974WAT     H215985   3.591   4.612   2.970
 4975WAT      O15986   4.312   5.138   2.115
 4975WAT     H115987   4.356   5.212   2.074
 4975WAT     H215988   4.306   5.162   2.208
 4976WAT      O15989   3.859   5.240   3.206
 4976WAT     H115990   3.856   5.281   3.119
 4976WAT     H215991   3.843   5.147   3.189
 4977WAT      O15992   3.511   4.506   1.996
 4977WAT     H115993   3.499   4.579   1.935
 4977WAT     H215994   3.480   4.429   1.948
 4978WAT      O15995   5.054   5.319   3.335
 4978WAT     H115996   5.102   5.366   3.403
 4978WAT     H215997   5.116   5.312   3.263
 4979WAT      O15998   3.275   4.823   2.577
 4979WAT     H115999   3.282   4.837   2.482
 4979WAT     H216000   3.336   4.752   2.596
 4980WAT      O16001   3.399   4.993   2.218
 4980WAT     H116002   3.358   5.007   2.132
 4980WAT     H216003   3.488   4.965   2.197
 4981WAT      O16004   4.381   5.408   2.908
 4981WAT     H116005   4.432   5.399   2.989
 4981WAT     H216006   4.297   5.443   2.938
 4982WAT      O16007   4.578   5.437   1.851
 4982WAT     H116008   4.562   5.408   1.941
 4982WAT     H216009   4.562   5.359   1.798
 4983WAT      O16010   3.826   5.415   2.029
 4983WAT     H116011   3.809   5.323   2.008
 4983WAT     H216012   3.741   5.450   2.053
 4984WAT      O16013   4.549   5.187   1.707
 4984WAT     H116014   4.479   5.187   1.641
 4984WAT     H216015   4.623   5.145   1.664
 4985WAT      O16016   4.505   5.350   2.115
 4985WAT     H116017   4.551   5.272   2.146
 4985WAT     H216018   4.539   5.421   2.169
 4986WAT      O16019   3.280   4.927   2.830
 4986WAT     H116020   3.297   4.880   2.749
 4986WAT     H216021   3.327   4.876   2.897
 4987WAT      O16022   3.757   3.840   2.334
 4987WAT     H116023   3.713   3.918   2.301
 4987WAT     H216024   3.813   3.873   2.405
 4988WAT      O16025   4.186   4.127   2.894
 4988WAT     H116026   4.140   4.148   2.976
 4988WAT     H216027   4.146   4.046   2.864
 4989WAT      O16028   4.396   4.399   3.217
 4989WAT     H116029   4.428   4.316   3.183
 4989WAT     H216030   4.474   4.451   3.232
 4990WAT      O16031   4.069   3.802   1.822
 4990WAT     H116032   4.007   3.802   1.895
 4990WAT     H216033   4.060   3.716   1.783
 4991WAT      O16034   3.961   3.895   2.520
 4991WAT     H116035   3.991   3.985   2.512
 4991WAT     H216036   4.016   3.846   2.459
 4992WAT      O16037   3.737   4.353   2.107
 4992WAT     H116038   3.714   4.331   2.197
 4992WAT     H216039   3.659   4.396   2.072
 4993WAT      O16040   4.460   4.353   1.967
 4993WAT     H116041   4.400   4.426   1.948
 4993WAT     H216042   4.514   4.347   1.889
 4994WAT      O16043   3.981   4.442   3.174
 4994WAT     H116044   3.971   4.348   3.159
 4994WAT     H216045   4.065   4.465   3.134
 4995WAT      O16046   4.320   4.217   2.170
 4995WAT     H116047   4.360   4.249   2.089
 4995WAT     H216048   4.356   4.129   2.181
 4996WAT      O16049   3.224   3.876   2.392
 4996WAT     H116050   3.195   3.933   2.463
 4996WAT     H216051   3.298   3.828   2.428
 4997WAT      O16052   3.243   4.270   1.513
 4997WAT     H116053   3.234   4.364   1.527
 4997WAT     H216054   3.207   4.256   1.425
 4998WAT      O16055   4.379   4.476   2.579
 4998WAT     H116056   4.306   4.527   2.614
 4998WAT     H216057   4.339   4.394   2.549
 4999WAT      O16058   4.023   4.143   2.420
 4999WAT     H116059   4.023   4.099   2.335
 4999WAT     H216060   4.112   4.176   2.431
 5000WAT      O16061   3.608   4.132   2.316
 5000WAT     H116062   3.574   4.179   2.391
 5000WAT     H216063   3.531   4.086   2.280
 5001WAT      O16064   4.029   4.244   1.719
 5001WAT     H116065   4.041   4.239   1.814
 5001WAT     H216066   3.990   4.330   1.703
 5002WAT      O16067   4.425   4.021   2.521
 5002WAT     H116068   4.427   4.066   2.605
 5002WAT     H216069   4.400   3.931   2.542
 5003WAT      O16070   3.930   4.475   1.659
 5003WAT     H116071   3.873   4.430   1.596
 5003WAT     H216072   4.001   4.511   1.605
 5004WAT      O16073   3.438   4.865   3.046
 5004WAT     H116074   3.399   4.801   3.106
 5004WAT     H216075   3.469   4.935   3.103
 5005WAT      O16076   4.053   4.549   2.595
 5005WAT     H116077   4.089   4.502   2.669
 5005WAT     H216078   4.034   4.637   2.629
 5006WAT      O16079   3.339   4.024   2.207
 5006WAT     H116080   3.310   3.987   2.291
 5006WAT     H216081   3.333   3.951   2.146
 5007WAT      O16082   3.832   4.454   2.826
 5007WAT     H116083   3.801   4.542   2.849
 5007WAT     H216084   3.927   4.460   2.830
 5008WAT      O16085   3.684   4.874   1.886
 5008WAT     H116086   3.607   4.820   1.870
 5008WAT     H216087   3.757   4.822   1.852
 5009WAT      O16088   4.760   4.774   2.465
 5009WAT     H116089   4.832   4.823   2.426
 5009WAT     H216090   4.740   4.706   2.401
 5010WAT      O16091   4.306   3.913   1.880
 5010WAT     H116092   4.225   3.863   1.872
 5010WAT     H216093   4.287   3.997   1.838
 5011WAT      O16094   4.298   4.781   3.054
 5011WAT     H116095   4.292   4.689   3.029
 5011WAT     H216096   4.236   4.791   3.125
 5012WAT      O16097   4.578   4.350   1.709
 5012WAT     H116098   4.667   4.382   1.692
 5012WAT     H216099   4.575   4.263   1.670
 5013WAT      O16100   3.689   4.841   2.250
 5013WAT     H116101   3.741   4.761   2.244
 5013WAT     H216102   3.644   4.835   2.334
 5014WAT      O16103   4.177   4.968   1.777
 5014WAT     H116104   4.212   5.042   1.728
 5014WAT     H216105   4.095   4.999   1.813
 5015WAT      O16106   3.437   4.538   2.941
 5015WAT     H116107   3.401   4.604   3.000
 5015WAT     H216108   3.408   4.454   2.978
 5016WAT      O16109   3.757   4.583   3.229
 5016WAT     H116110   3.727   4.598   3.140
 5016WAT     H216111   3.834   4.528   3.220
 5017WAT      O16112   4.292   5.063   3.029
 5017WAT     H116113   4.293   4.970   3.007
 5017WAT     H216114   4.221   5.072   3.093
 5018WAT      O16115   4.805   4.482   1.656
 5018WAT     H116116   4.797   4.525   1.571
 5018WAT     H216117   4.877   4.528   1.699
 5019WAT      O16118   4.466   4.900   2.314
 5019WAT     H116119   4.501   4.840   2.248
 5019WAT     H216120   4.377   4.867   2.331
 5020WAT      O16121   4.074   4.976   2.054
 5020WAT     H116122   4.143   5.030   2.092
 5020WAT     H216123   3.996   5.030   2.058
 5021WAT      O16124   3.288   4.538   1.603
 5021WAT     H116125   3.375   4.566   1.632
 5021WAT     H216126   3.239   4.619   1.592
 5022WAT      O16127   4.005   4.676   2.016
 5022WAT     H116128   4.050   4.757   2.038
 5022WAT     H216129   3.970   4.644   2.099
 5023WAT      O16130   4.235   5.227   2.738
 5023WAT     H116131   4.299   5.248   2.806
 5023WAT     H216132   4.271   5.151   2.693
 5024WAT      O16133   3.595   3.711   2.063
 5024WAT     H116134   3.582   3.710   2.158
 5024WAT     H216135   3.512   3.744   2.028
 5025WAT      O16136   4.362   5.028   2.610
 5025WAT     H116137   4.427   4.958   2.622
 5025WAT     H216138   4.415   5.106   2.592
 5026WAT      O16139   4.747   5.056   1.583
 5026WAT     H116140   4.724   4.984   1.642
 5026WAT     H216141   4.708   5.031   1.499
 5027WAT      O16142   4.540   5.108   2.931
 5027WAT     H116143   4.573   5.166   2.998
 5027WAT     H216144   4.448   5.095   2.954
 5028WAT      O16145   3.325   5.459   1.660
 5028WAT     H116146   3.361   5.519   1.595
 5028WAT     H216147   3.311   5.513   1.737
 5029WAT      O16148   4.705   4.848   1.749
 5029WAT     H116149   4.676   4.894   1.828
 5029WAT     H216150   4.785   4.802   1.776
 5030WAT      O16151   3.323   5.285   3.107
 5030WAT     H116152   3.334   5.191   3.093
 5030WAT     H216153   3.258   5.312   3.043
 5031WAT      O16154   4.123   5.113   3.247
 5031WAT     H116155   4.091   5.041   3.302
 5031WAT     H216156   4.055   5.180   3.255
 5032WAT      O16157   3.927   5.197   1.742
 5032WAT     H116158   3.926   5.270   1.680
 5032WAT     H216159   3.835   5.172   1.751
 5033WAT      O16160   3.487   4.719   1.816
 5033WAT     H116161   3.426   4.793   1.817
 5033WAT     H216162   3.534   4.728   1.734
 5034WAT      O16163   4.444   4.136   2.784
 5034WAT     H116164   4.481   4.054   2.817
 5034WAT     H216165   4.358   4.142   2.825
 5035WAT      O16166   4.781   4.031   1.865
 5035WAT     H116167   4.718   4.042   1.793
 5035WAT     H216168   4.731   4.053   1.944
 5036WAT      O16169   4.225   5.203   1.608
 5036WAT     H116170   4.235   5.183   1.515
 5036WAT     H216171   4.135   5.178   1.629
 5037WAT      O16172   3.978   4.259   2.006
 5037WAT     H116173   3.907   4.306   2.050
 5037WAT     H216174   4.006   4.193   2.070
 5038WAT      O16175   4.140   4.401   2.806
 5038WAT     H116176   4.190   4.449   2.873
 5038WAT     H216177   4.154   4.309   2.827
 5039WAT      O16178   4.381   3.932   2.150
 5039WAT     H116179   4.368   3.934   2.055
 5039WAT     H216180   4.476   3.936   2.162
 5040WAT      O16181   4.090   5.455   2.078
 5040WAT     H116182   4.115   5.451   1.985
 5040WAT     H216183   3.995   5.443   2.077
 5041WAT      O16184   3.798   4.090   1.744
 5041WAT     H116185   3.883   4.134   1.737
 5041WAT     H216186   3.761   4.121   1.827
 5042WAT      O16187   4.690   4.547   2.235
 5042WAT     H116188   4.596   4.549   2.253
 5042WAT     H216189   4.721   4.469   2.280
 5043WAT      O16190   3.688   4.715   1.591
 5043WAT     H116191   3.764   4.704   1.647
 5043WAT     H216192   3.696   4.646   1.526
 5044WAT      O16193   3.557   4.459   1.659
 5044WAT     H116194   3.565   4.364   1.671
 5044WAT     H216195   3.647   4.492   1.670
 5045WAT      O16196   4.890   5.264   2.403
 5045WAT     H116197   4.903   5.347   2.450
 5045WAT     H216198   4.977   5.243   2.368
 5046WAT      O16199   3.637   5.474   2.370
 5046WAT     H116200   3.711   5.419   2.397
 5046WAT     H216201   3.676   5.560   2.356
 5047WAT      O16202   3.326   5.080   1.957
 5047WAT     H116203   3.233   5.105   1.956
 5047WAT     H216204   3.372   5.163   1.945
 5048WAT      O16205   3.538   5.392   3.289
 5048WAT     H116206   3.618   5.424   3.330
 5048WAT     H216207   3.487   5.356   3.361
 5049WAT      O16208   3.948   5.391   1.552
 5049WAT     H116209   4.028   5.420   1.507
 5049WAT     H216210   3.897   5.348   1.484
 5050WAT      O16211   4.422   5.003   3.283
 5050WAT     H116212   4.361   5.005   3.209
 5050WAT     H216213   4.391   4.930   3.337
 5051WAT      O16214   4.565   5.376   3.145
 5051WAT     H116215   4.660   5.367   3.140
 5051WAT     H216216   4.550   5.442   3.212
 5052WAT      O16217   4.854   5.314   1.694
 5052WAT     H116218   4.825   5.272   1.613
 5052WAT     H216219   4.834   5.406   1.682
 5053WAT      O16220   3.310   4.641   3.183
 5053WAT     H116221   3.360   4.583   3.240
 5053WAT     H216222   3.236   4.669   3.237
 5054WAT      O16223   4.000   4.913   1.538
 5054WAT     H116224   3.990   4.851   1.611
 5054WAT     H216225   3.984   4.861   1.460
 5055WAT      O16226   4.015   4.781   3.136
 5055WAT     H116227   3.939   4.838   3.128
 5055WAT     H216228   4.034   4.752   3.047
 5056WAT      O16229   4.324   4.819   1.599
 5056WAT     H116230   4.269   4.864   1.663
 5056WAT     H216231   4.386   4.769   1.651
 5057WAT      O16232   4.730   4.955   3.192
 5057WAT     H116233   4.804   4.988   3.142
 5057WAT     H216234   4.653   4.971   3.137
 5058WAT      O16235   3.891   4.715   1.789
 5058WAT     H116236   3.933   4.698   1.873
 5058WAT     H216237   3.904   4.634   1.739
 5059WAT      O16238   3.707   4.313   3.069
 5059WAT     H116239   3.654   4.264   3.007
 5059WAT     H216240   3.774   4.356   3.016
 5060WAT      O16241   4.142   4.617   1.513
 5060WAT     H116242   4.194   4.546   1.477
 5060WAT     H216243   4.207   4.681   1.543
 5061WAT      O16244   4.597   4.760   3.046
 5061WAT     H116245   4.639   4.775   3.131
 5061WAT     H216246   4.504   4.772   3.062
 5062WAT      O16247   4.644   4.494   3.246
 5062WAT     H116248   4.703   4.418   3.237
 5062WAT     H216249   4.662   4.547   3.168
 5063WAT      O16250   4.033   3.865   2.781
 5063WAT     H116251   3.988   3.868   2.696
 5063WAT     H216252   3.969   3.826   2.840
 5064WAT      O16253   4.073   4.755   2.843
 5064WAT     H116254   4.115   4.839   2.825
 5064WAT     H216255   3.981   4.769   2.820
 5065WAT      O16256   4.307   4.528   2.981
 5065WAT     H116257   4.319   4.468   3.055
 5065WAT     H216258   4.393   4.532   2.939
 5066WAT      O16259   4.541   4.583   2.839
 5066WAT     H116260   4.488   4.636   2.778
 5066WAT     H216261   4.575   4.647   2.902
 5067WAT      O16262   3.781   4.322   1.483
 5067WAT     H116263   3.761   4.236   1.519
 5067WAT     H216264   3.764   4.314   1.389
 5068WAT      O16265   3.858   5.385   2.954
 5068WAT     H116266   3.805   5.458   2.922
 5068WAT     H216267   3.884   5.338   2.875
 5069WAT      O16268   4.466   4.144   3.130
 5069WAT     H116269   4.397   4.078   3.124
 5069WAT     H216270   4.538   4.099   3.175
 5070WAT      O16271   4.529   3.803   1.736
 5070WAT     H116272   4.557   3.719   1.772
 5070WAT     H216273   4.451   3.827   1.787
 5071WAT      O16274   3.660   4.032   1.482
 5071WAT     H116275   3.691   4.033   1.391
 5071WAT     H216276   3.734   3.997   1.532
 5072WAT      O16277   4.144   5.509   2.980
 5072WAT     H116278   4.137   5.599   3.011
 5072WAT     H216279   4.054   5.477   2.977
 5073WAT      O16280   3.982   3.927   1.580
 5073WAT     H116281   3.948   3.859   1.523
 5073WAT     H216282   4.002   3.881   1.662
 5074WAT      O16283   4.199   5.426   1.742
 5074WAT     H116284   4.288   5.459   1.745
 5074WAT     H216285   4.202   5.353   1.680
 5075WAT      O16286   3.563   4.963   1.565
 5075WAT     H116287   3.607   5.017   1.631
 5075WAT     H216288   3.611   4.880   1.566
 5076WAT      O16289   3.284   5.242   2.310
 5076WAT     H116290   3.317   5.155   2.287
 5076WAT     H216291   3.327   5.262   2.393
 5077WAT      O16292   3.744   5.075   2.076
 5077WAT     H116293   3.714   5.062   2.166
 5077WAT     H216294   3.733   4.989   2.036
 5078WAT      O16295   3.333   5.328   2.584
 5078WAT     H116296   3.289   5.346   2.667
 5078WAT     H216297   3.390   5.404   2.570
 5079WAT      O16298   4.897   5.279   3.013
 5079WAT     H116299   4.837   5.284   2.939
 5079WAT     H216300   4.910   5.185   3.026
 5080WAT      O16301   5.021   5.053   1.547
 5080WAT     H116302   4.938   5.059   1.594
 5080WAT     H216303   5.038   5.142   1.516
 5081WAT      O16304   4.966   4.727   1.797
 5081WAT     H116305   5.043   4.784   1.808
 5081WAT     H216306   4.968   4.670   1.874
 5082WAT      O16307   3.316   4.580   2.220
 5082WAT     H116308   3.251   4.553   2.156
 5082WAT     H216309   3.400   4.569   2.175
 5083WAT      O16310   5.067   4.813   2.281
 5083WAT     H116311   5.104   4.734   2.241
 5083WAT     H216312   5.131   4.882   2.264
 5084WAT      O16313   4.972   4.757   1.513
 5084WAT     H116314   4.999   4.847   1.500
 5084WAT     H216315   4.953   4.750   1.606
 5085WAT      O16316   4.611   4.059   1.642
 5085WAT     H116317   4.653   4.040   1.558
 5085WAT     H216318   4.581   3.974   1.673
 5086WAT      O16319   4.961   4.550   2.012
 5086WAT     H116320   4.924   4.474   1.969
 5086WAT     H216321   4.888   4.588   2.061
 5087WAT      O16322   3.420   4.618   2.674
 5087WAT     H116323   3.457   4.609   2.762
 5087WAT     H216324   3.363   4.542   2.664
 5088WAT      O16325   3.238   4.301   1.814
 5088WAT     H116326   3.147   4.327   1.797
 5088WAT     H216327   3.286   4.328   1.736
 5089WAT      O16328   4.889   4.373   2.342
 5089WAT     H116329   4.941   4.323   2.279
 5089WAT     H216330   4.947   4.386   2.417
 5090WAT      O16331   3.492   4.206   1.605
 5090WAT     H116332   3.563   4.164   1.557
 5090WAT     H216333   3.420   4.213   1.542
 5091WAT      O16334   3.457   3.812   1.509
 5091WAT     H116335   3.529   3.866   1.541
 5091WAT     H216336   3.484   3.784   1.422
 5092WAT      O16337   4.838   4.299   1.936
 5092WAT     H116338   4.887   4.275   2.015
 5092WAT     H216339   4.818   4.215   1.894
 5093WAT      O16340   3.426   3.737   2.500
 5093WAT     H116341   3.490   3.682   2.456
 5093WAT     H216342   3.468   3.762   2.582
 5094WAT      O16343   4.981   4.162   2.189
 5094WAT     H116344   4.970   4.147   2.283
 5094WAT     H216345   5.057   4.109   2.165
 5095WAT      O16346   3.401   3.752   2.774
 5095WAT     H116347   3.366   3.798   2.850
 5095WAT     H216348   3.368   3.663   2.782
 5096WAT      O16349   3.562   5.069   3.190
 5096WAT     H116350   3.557   5.032   3.279
 5096WAT     H216351   3.575   5.163   3.204
 5097WAT      O16352   3.932   5.225   2.750
 5097WAT     H116353   3.908   5.252   2.662
 5097WAT     H216354   4.026   5.242   2.756
 5098WAT      O16355   4.416   3.837   3.090
 5098WAT     H116356   4.477   3.869   3.024
 5098WAT     H216357   4.470   3.789   3.152
 5099WAT      O16358   5.058   5.427   2.831
 5099WAT     H116359   5.008   5.467   2.759
 5099WAT     H216360   4.997   5.364   2.870
 5100WAT      O16361   3.546   5.364   2.902
 5100WAT     H116362   3.486   5.351   2.976
 5100WAT     H216363   3.545   5.280   2.856
 5101WAT      O16364   4.490   3.693   2.723
 5101WAT     H116365   4.403   3.727   2.702
 5101WAT     H216366   4.479   3.646   2.805
 5102WAT      O16367   4.826   5.491   2.558
 5102WAT     H116368   4.780   5.566   2.521
 5102WAT     H216369   4.763   5.419   2.553
 5103WAT      O16370   3.509   5.101   2.797
 5103WAT     H116371   3.436   5.039   2.791
 5103WAT     H216372   3.515   5.140   2.710
 5104WAT      O16373   3.869   5.322   2.476
 5104WAT     H116374   3.921   5.261   2.423
 5104WAT     H216375   3.934   5.372   2.525
 5105WAT      O16376   4.143   5.411   2.559
 5105WAT     H116377   4.172   5.386   2.471
 5105WAT     H216378   4.194   5.356   2.618
 5106WAT      O16379   4.720   3.855   2.421
 5106WAT     H116380   4.764   3.850   2.336
 5106WAT     H216381   4.693   3.947   2.428
 5107WAT      O16382   4.906   3.818   2.222
 5107WAT     H116383   4.900   3.724   2.207
 5107WAT     H216384   4.984   3.829   2.277
 5108WAT      O16385   3.337   5.432   2.118
 5108WAT     H116386   3.320   5.369   2.188
 5108WAT     H216387   3.250   5.453   2.083
 5109WAT      O16388   3.399   3.816   1.869
 5109WAT     H116389   3.475   3.827   1.811
 5109WAT     H216390   3.353   3.899   1.864
 5110WAT      O16391   4.053   4.027   2.168
 5110WAT     H116392   3.972   3.990   2.134
 5110WAT     H216393   4.104   3.951   2.198
 5111WAT      O16394   4.818   3.734   1.819
 5111WAT     H116395   4.837   3.823   1.846
 5111WAT     H216396   4.739   3.710   1.868
 5112WAT      O16397   3.498   5.302   1.863
 5112WAT     H116398   3.445   5.340   1.793
 5112WAT     H216399   3.490   5.364   1.935
 5113WAT      O16400   3.636   3.868   1.723
 5113WAT     H116401   3.689   3.789   1.710
 5113WAT     H216402   3.700   3.936   1.746
 5114WAT      O16403   3.856   3.842   2.028
 5114WAT     H116404   3.793   3.772   2.045
 5114WAT     H216405   3.802   3.918   2.007
 5115WAT      O16406   4.150   5.503   3.295
 5115WAT     H116407   4.242   5.480   3.300
 5115WAT     H216408   4.148   5.586   3.247
 5116WAT      O16409   3.757   5.497   1.750
 5116WAT     H116410   3.831   5.468   1.696
 5116WAT     H216411   3.783   5.473   1.839
 5117WAT      O16412   3.674   5.108   1.751
 5117WAT     H116413   3.611   5.155   1.806
 5117WAT     H216414   3.685   5.024   1.794
 5118WAT      O16415   4.529   3.711   3.330
 5118WAT     H116416   4.517   3.743   3.419
 5118WAT     H216417   4.610   3.751   3.300
 5119WAT      O16418   4.807   5.426   3.278
 5119WAT     H116419   4.886   5.377   3.257
 5119WAT     H216420   4.836   5.494   3.338
 5120WAT      O16421   4.419   4.513   0.366
 5120WAT     H116422   4.411   4.422   0.339
 5120WAT     H216423   4.378   4.563   0.295
 5121WAT      O16424   4.232   4.691   0.554
 5121WAT     H116425   4.155   4.643   0.583
 5121WAT     H216426   4.297   4.623   0.537
 5122WAT      O16427   3.634   4.722   0.642
 5122WAT     H116428   3.551   4.697   0.682
 5122WAT     H216429   3.695   4.729   0.715
 5123WAT      O16430   4.634   5.132   0.432
 5123WAT     H116431   4.588   5.055   0.465
 5123WAT     H216432   4.716   5.134   0.482
 5124WAT      O16433   3.632   5.126   0.661
 5124WAT     H116434   3.662   5.037   0.643
 5124WAT     H216435   3.706   5.181   0.639
 5125WAT      O16436   3.271   4.478   0.609
 5125WAT     H116437   3.328   4.402   0.609
 5125WAT     H216438   3.271   4.508   0.518
 5126WAT      O16439   4.257   5.360   0.394
 5126WAT     H116440   4.195   5.406   0.337
 5126WAT     H216441   4.343   5.376   0.354
 5127WAT      O16442   4.176   4.959   0.555
 5127WAT     H116443   4.169   4.865   0.539
 5127WAT     H216444   4.253   4.968   0.612
 5128WAT      O16445   3.395   4.019   0.787
 5128WAT     H116446   3.378   3.929   0.815
 5128WAT     H216447   3.355   4.074   0.855
 5129WAT      O16448   4.279   4.239   0.577
 5129WAT     H116449   4.317   4.152   0.566
 5129WAT     H216450   4.270   4.273   0.488
 5130WAT      O16451   4.658   3.989   0.271
 5130WAT     H116452   4.740   3.940   0.275
 5130WAT     H216453   4.661   4.048   0.346
 5131WAT      O16454   3.457   4.269   0.648
 5131WAT     H116455   3.525   4.295   0.710
 5131WAT     H216456   3.426   4.185   0.681
 5132WAT      O16457   3.877   4.373   0.557
 5132WAT     H116458   3.927   4.423   0.621
 5132WAT     H216459   3.930   4.296   0.539
 5133WAT      O16460   5.087   4.190   0.927
 5133WAT     H116461   5.016   4.229   0.875
 5133WAT     H216462   5.113   4.260   0.987
 5134WAT      O16463   3.705   3.837   0.983
 5134WAT     H116464   3.705   3.889   0.903
 5134WAT     H216465   3.622   3.790   0.981
 5135WAT      O16466   3.830   4.801   0.801
 5135WAT     H116467   3.797   4.864   0.865
 5135WAT     H216468   3.848   4.854   0.723
 5136WAT      O16469   4.681   4.183   0.548
 5136WAT     H116470   4.611   4.212   0.606
 5136WAT     H216471   4.717   4.264   0.512
 5137WAT      O16472   3.673   4.009   0.784
 5137WAT     H116473   3.707   4.093   0.755
 5137WAT     H216474   3.579   4.023   0.796
 5138WAT      O16475   3.751   4.998   0.983
 5138WAT     H116476   3.813   5.066   0.954
 5138WAT     H216477   3.665   5.039   0.974
 5139WAT      O16478   4.843   5.145   0.774
 5139WAT     H116479   4.775   5.212   0.773
 5139WAT     H216480   4.897   5.164   0.698
 5140WAT      O16481   4.988   4.127   0.587
 5140WAT     H116482   4.893   4.131   0.600
 5140WAT     H216483   5.021   4.209   0.625
 5141WAT      O16484   4.041   3.757   0.417
 5141WAT     H116485   4.072   3.702   0.345
 5141WAT     H216486   3.948   3.771   0.398
 5142WAT      O16487   4.597   5.329   0.646
 5142WAT     H116488   4.598   5.289   0.559
 5142WAT     H216489   4.541   5.406   0.635
 5143WAT      O16490   4.536   4.819   0.778
 5143WAT     H116491   4.578   4.798   0.695
 5143WAT     H216492   4.609   4.845   0.836
 5144WAT      O16493   4.931   4.659   0.788
 5144WAT     H116494   4.848   4.666   0.740
 5144WAT     H216495   4.991   4.718   0.741
 5145WAT      O16496   4.627   4.338   0.882
 5145WAT     H116497   4.586   4.420   0.908
 5145WAT     H216498   4.554   4.279   0.863
 5146WAT      O16499   3.841   4.616   0.368
 5146WAT     H116500   3.800   4.545   0.319
 5146WAT     H216501   3.849   4.582   0.457
 5147WAT      O16502   3.888   4.985   0.585
 5147WAT     H116503   3.858   4.925   0.517
 5147WAT     H216504   3.983   4.989   0.574
 5148WAT      O16505   3.712   4.294   0.746
 5148WAT     H116506   3.767   4.305   0.669
 5148WAT     H216507   3.763   4.331   0.818
 5149WAT      O16508   4.696   5.342   0.951
 5149WAT     H116509   4.649   5.423   0.932
 5149WAT     H216510   4.628   5.277   0.966
 5150WAT      O16511   3.797   4.959   1.250
 5150WAT     H116512   3.707   4.981   1.275
 5150WAT     H216513   3.799   4.971   1.155
 5151WAT      O16514   3.679   4.646   1.107
 5151WAT     H116515   3.666   4.733   1.144
 5151WAT     H216516   3.591   4.612   1.093
 5152WAT      O16517   4.312   5.138   0.238
 5152WAT     H116518   4.356   5.212   0.197
 5152WAT     H216519   4.306   5.162   0.330
 5153WAT      O16520   3.859   5.240   1.328
 5153WAT     H116521   3.856   5.281   1.242
 5153WAT     H216522   3.843   5.147   1.312
 5154WAT      O16523   5.054   5.319   1.458
 5154WAT     H116524   5.102   5.366   1.526
 5154WAT     H216525   5.116   5.312   1.385
 5155WAT      O16526   3.275   4.823   0.699
 5155WAT     H116527   3.282   4.837   0.605
 5155WAT     H216528   3.336   4.752   0.718
 5156WAT      O16529   3.399   4.993   0.340
 5156WAT     H116530   3.358   5.007   0.255
 5156WAT     H216531   3.488   4.965   0.320
 5157WAT      O16532   4.995   5.038   1.174
 5157WAT     H116533   5.007   5.014   1.082
 5157WAT     H216534   4.999   4.955   1.221
 5158WAT      O16535   4.381   5.408   1.031
 5158WAT     H116536   4.432   5.399   1.111
 5158WAT     H216537   4.297   5.443   1.060
 5159WAT      O16538   4.505   5.350   0.237
 5159WAT     H116539   4.551   5.272   0.269
 5159WAT     H216540   4.539   5.421   0.292
 5160WAT      O16541   4.980   4.243   1.270
 5160WAT     H116542   4.918   4.294   1.218
 5160WAT     H216543   4.948   4.153   1.265
 5161WAT      O16544   3.280   4.927   0.953
 5161WAT     H116545   3.297   4.880   0.871
 5161WAT     H216546   3.327   4.876   1.020
 5162WAT      O16547   3.757   3.840   0.457
 5162WAT     H116548   3.713   3.918   0.424
 5162WAT     H216549   3.813   3.873   0.527
 5163WAT      O16550   4.186   4.127   1.017
 5163WAT     H116551   4.140   4.148   1.098
 5163WAT     H216552   4.146   4.046   0.987
 5164WAT      O16553   4.686   4.249   1.130
 5164WAT     H116554   4.601   4.219   1.162
 5164WAT     H216555   4.670   4.273   1.039
 5165WAT      O16556   4.396   4.399   1.340
 5165WAT     H116557   4.428   4.316   1.306
 5165WAT     H216558   4.474   4.451   1.355
 5166WAT      O16559   3.961   3.895   0.643
 5166WAT     H116560   3.991   3.985   0.634
 5166WAT     H216561   4.016   3.846   0.581
 5167WAT      O16562   3.737   4.353   0.229
 5167WAT     H116563   3.714   4.331   0.320
 5167WAT     H216564   3.659   4.396   0.195
 5168WAT      O16565   3.981   4.442   1.296
 5168WAT     H116566   3.971   4.348   1.281
 5168WAT     H216567   4.065   4.465   1.257
 5169WAT      O16568   4.320   4.217   0.292
 5169WAT     H116569   4.360   4.249   0.211
 5169WAT     H216570   4.356   4.129   0.304
 5170WAT      O16571   3.494   4.084   1.111
 5170WAT     H116572   3.454   4.168   1.132
 5170WAT     H216573   3.425   4.020   1.130
 5171WAT      O16574   4.151   4.092   1.418
 5171WAT     H116575   4.082   4.073   1.482
 5171WAT     H216576   4.225   4.120   1.472
 5172WAT      O16577   3.224   3.876   0.515
 5172WAT     H116578   3.195   3.933   0.586
 5172WAT     H216579   3.298   3.828   0.551
 5173WAT      O16580   4.379   4.476   0.702
 5173WAT     H116581   4.306   4.527   0.737
 5173WAT     H216582   4.339   4.394   0.672
 5174WAT      O16583   4.023   4.143   0.542
 5174WAT     H116584   4.023   4.099   0.457
 5174WAT     H216585   4.112   4.176   0.553
 5175WAT      O16586   3.608   4.132   0.438
 5175WAT     H116587   3.574   4.179   0.514
 5175WAT     H216588   3.531   4.086   0.402
 5176WAT      O16589   4.425   4.021   0.643
 5176WAT     H116590   4.427   4.066   0.728
 5176WAT     H216591   4.400   3.931   0.664
 5177WAT      O16592   4.768   3.763   1.227
 5177WAT     H116593   4.800   3.689   1.280
 5177WAT     H216594   4.771   3.731   1.137
 5178WAT      O16595   3.438   4.865   1.169
 5178WAT     H116596   3.399   4.801   1.229
 5178WAT     H216597   3.469   4.935   1.226
 5179WAT      O16598   4.053   4.549   0.717
 5179WAT     H116599   4.089   4.502   0.792
 5179WAT     H216600   4.034   4.637   0.751
 5180WAT      O16601   3.339   4.024   0.330
 5180WAT     H116602   3.310   3.987   0.414
 5180WAT     H216603   3.333   3.951   0.269
 5181WAT      O16604   3.832   4.454   0.949
 5181WAT     H116605   3.801   4.542   0.971
 5181WAT     H216606   3.927   4.460   0.953
 5182WAT      O16607   4.760   4.774   0.588
 5182WAT     H116608   4.832   4.823   0.549
 5182WAT     H216609   4.740   4.706   0.523
 5183WAT      O16610   4.298   4.781   1.177
 5183WAT     H116611   4.292   4.689   1.151
 5183WAT     H216612   4.236   4.791   1.248
 5184WAT      O16613   3.689   4.841   0.372
 5184WAT     H116614   3.741   4.761   0.367
 5184WAT     H216615   3.644   4.835   0.457
 5185WAT      O16616   3.437   4.538   1.064
 5185WAT     H116617   3.401   4.604   1.122
 5185WAT     H216618   3.408   4.454   1.101
 5186WAT      O16619   3.757   4.583   1.352
 5186WAT     H116620   3.727   4.598   1.262
 5186WAT     H216621   3.834   4.528   1.343
 5187WAT      O16622   4.292   5.063   1.152
 5187WAT     H116623   4.293   4.970   1.130
 5187WAT     H216624   4.221   5.072   1.215
 5188WAT      O16625   4.913   4.727   1.086
 5188WAT     H116626   4.840   4.787   1.067
 5188WAT     H216627   4.966   4.726   1.006
 5189WAT      O16628   4.466   4.900   0.436
 5189WAT     H116629   4.501   4.840   0.370
 5189WAT     H216630   4.377   4.867   0.453
 5190WAT      O16631   4.074   4.976   0.177
 5190WAT     H116632   4.143   5.030   0.215
 5190WAT     H216633   3.996   5.030   0.180
 5191WAT      O16634   4.235   5.227   0.861
 5191WAT     H116635   4.299   5.248   0.929
 5191WAT     H216636   4.271   5.151   0.816
 5192WAT      O16637   4.362   5.028   0.733
 5192WAT     H116638   4.427   4.958   0.744
 5192WAT     H216639   4.415   5.106   0.715
 5193WAT      O16640   4.540   5.108   1.053
 5193WAT     H116641   4.573   5.166   1.121
 5193WAT     H216642   4.448   5.095   1.076
 5194WAT      O16643   3.295   3.887   1.131
 5194WAT     H116644   3.223   3.907   1.192
 5194WAT     H216645   3.337   3.809   1.169
 5195WAT      O16646   3.323   5.285   1.230
 5195WAT     H116647   3.334   5.191   1.216
 5195WAT     H216648   3.258   5.312   1.165
 5196WAT      O16649   4.123   5.113   1.370
 5196WAT     H116650   4.091   5.041   1.424
 5196WAT     H216651   4.055   5.180   1.377
 5197WAT      O16652   4.444   4.136   0.906
 5197WAT     H116653   4.481   4.054   0.939
 5197WAT     H216654   4.358   4.142   0.948
 5198WAT      O16655   4.140   4.401   0.929
 5198WAT     H116656   4.190   4.449   0.995
 5198WAT     H216657   4.154   4.309   0.949
 5199WAT      O16658   4.381   3.932   0.273
 5199WAT     H116659   4.368   3.934   0.178
 5199WAT     H216660   4.476   3.936   0.285
 5200WAT      O16661   4.861   4.023   1.013
 5200WAT     H116662   4.811   4.097   1.047
 5200WAT     H216663   4.942   4.062   0.981
 5201WAT      O16664   4.690   4.547   0.358
 5201WAT     H116665   4.596   4.549   0.375
 5201WAT     H216666   4.721   4.469   0.402
 5202WAT      O16667   4.890   5.264   0.525
 5202WAT     H116668   4.903   5.347   0.572
 5202WAT     H216669   4.977   5.243   0.490
 5203WAT      O16670   3.637   5.474   0.492
 5203WAT     H116671   3.711   5.419   0.519
 5203WAT     H216672   3.676   5.560   0.478
 5204WAT      O16673   3.538   5.392   1.411
 5204WAT     H116674   3.618   5.424   1.453
 5204WAT     H216675   3.487   5.356   1.483
 5205WAT      O16676   4.422   5.003   1.406
 5205WAT     H116677   4.361   5.005   1.332
 5205WAT     H216678   4.391   4.930   1.460
 5206WAT      O16679   4.565   5.376   1.267
 5206WAT     H116680   4.660   5.367   1.262
 5206WAT     H216681   4.550   5.442   1.334
 5207WAT      O16682   3.310   4.641   1.306
 5207WAT     H116683   3.360   4.583   1.363
 5207WAT     H216684   3.236   4.669   1.359
 5208WAT      O16685   4.015   4.781   1.259
 5208WAT     H116686   3.939   4.838   1.250
 5208WAT     H216687   4.034   4.752   1.170
 5209WAT      O16688   4.730   4.955   1.315
 5209WAT     H116689   4.804   4.988   1.264
 5209WAT     H216690   4.653   4.971   1.259
 5210WAT      O16691   3.513   4.455   1.395
 5210WAT     H116692   3.517   4.425   1.486
 5210WAT     H216693   3.599   4.495   1.379
 5211WAT      O16694   3.707   4.313   1.192
 5211WAT     H116695   3.654   4.264   1.129
 5211WAT     H216696   3.774   4.356   1.138
 5212WAT      O16697   4.597   4.760   1.168
 5212WAT     H116698   4.639   4.775   1.253
 5212WAT     H216699   4.504   4.772   1.185
 5213WAT      O16700   4.644   4.494   1.369
 5213WAT     H116701   4.703   4.418   1.360
 5213WAT     H216702   4.662   4.547   1.291
 5214WAT      O16703   3.756   4.010   1.200
 5214WAT     H116704   3.747   3.948   1.127
 5214WAT     H216705   3.698   4.082   1.177
 5215WAT      O16706   4.033   3.865   0.903
 5215WAT     H116707   3.988   3.868   0.819
 5215WAT     H216708   3.969   3.826   0.963
 5216WAT      O16709   4.073   4.755   0.965
 5216WAT     H116710   4.115   4.839   0.948
 5216WAT     H216711   3.981   4.769   0.942
 5217WAT      O16712   4.307   4.528   1.104
 5217WAT     H116713   4.319   4.468   1.178
 5217WAT     H216714   4.393   4.532   1.062
 5218WAT      O16715   4.541   4.583   0.961
 5218WAT     H116716   4.488   4.636   0.901
 5218WAT     H216717   4.575   4.647   1.024
 5219WAT      O16718   3.858   5.385   1.077
 5219WAT     H116719   3.805   5.458   1.045
 5219WAT     H216720   3.884   5.338   0.998
 5220WAT      O16721   3.984   4.182   1.229
 5220WAT     H116722   4.043   4.151   1.298
 5220WAT     H216723   3.902   4.135   1.245
 5221WAT      O16724   4.466   4.144   1.253
 5221WAT     H116725   4.397   4.078   1.246
 5221WAT     H216726   4.538   4.099   1.297
 5222WAT      O16727   4.144   5.509   1.103
 5222WAT     H116728   4.137   5.599   1.133
 5222WAT     H216729   4.054   5.477   1.100
 5223WAT      O16730   3.284   5.242   0.433
 5223WAT     H116731   3.317   5.155   0.410
 5223WAT     H216732   3.327   5.262   0.516
 5224WAT      O16733   3.333   5.328   0.707
 5224WAT     H116734   3.289   5.346   0.790
 5224WAT     H216735   3.390   5.404   0.693
 5225WAT      O16736   4.897   5.279   1.136
 5225WAT     H116737   4.837   5.284   1.061
 5225WAT     H216738   4.910   5.185   1.149
 5226WAT      O16739   3.316   4.580   0.343
 5226WAT     H116740   3.251   4.553   0.278
 5226WAT     H216741   3.400   4.569   0.298
 5227WAT      O16742   5.067   4.813   0.404
 5227WAT     H116743   5.104   4.734   0.363
 5227WAT     H216744   5.131   4.882   0.386
 5228WAT      O16745   4.765   4.951   0.945
 5228WAT     H116746   4.684   4.994   0.972
 5228WAT     H216747   4.806   5.012   0.884
 5229WAT      O16748   3.420   4.618   0.797
 5229WAT     H116749   3.457   4.609   0.885
 5229WAT     H216750   3.363   4.542   0.787
 5230WAT      O16751   4.900   4.465   1.098
 5230WAT     H116752   4.877   4.442   1.008
 5230WAT     H216753   4.926   4.557   1.093
 5231WAT      O16754   3.375   4.309   1.187
 5231WAT     H116755   3.286   4.306   1.221
 5231WAT     H216756   3.429   4.329   1.264
 5232WAT      O16757   4.889   4.373   0.465
 5232WAT     H116758   4.941   4.323   0.402
 5232WAT     H216759   4.947   4.386   0.539
 5233WAT      O16760   4.907   4.381   0.817
 5233WAT     H116761   4.812   4.378   0.828
 5233WAT     H216762   4.925   4.472   0.793
 5234WAT      O16763   3.426   3.737   0.622
 5234WAT     H116764   3.490   3.682   0.578
 5234WAT     H216765   3.468   3.762   0.704
 5235WAT      O16766   4.981   4.162   0.312
 5235WAT     H116767   4.970   4.147   0.406
 5235WAT     H216768   5.057   4.109   0.288
 5236WAT      O16769   4.815   3.756   0.958
 5236WAT     H116770   4.879   3.817   0.994
 5236WAT     H216771   4.830   3.760   0.863
 5237WAT      O16772   4.771   5.426   0.298
 5237WAT     H116773   4.831   5.394   0.230
 5237WAT     H216774   4.797   5.379   0.377
 5238WAT      O16775   3.401   3.752   0.896
 5238WAT     H116776   3.366   3.798   0.973
 5238WAT     H216777   3.368   3.663   0.905
 5239WAT      O16778   3.562   5.069   1.313
 5239WAT     H116779   3.557   5.032   1.401
 5239WAT     H216780   3.575   5.163   1.327
 5240WAT      O16781   3.932   5.225   0.873
 5240WAT     H116782   3.908   5.252   0.784
 5240WAT     H216783   4.026   5.242   0.879
 5241WAT      O16784   4.152   3.871   1.249
 5241WAT     H116785   4.146   3.931   1.324
 5241WAT     H216786   4.246   3.861   1.234
 5242WAT      O16787   4.416   3.837   1.213
 5242WAT     H116788   4.477   3.869   1.146
 5242WAT     H216789   4.470   3.789   1.274
 5243WAT      O16790   5.058   5.427   0.953
 5243WAT     H116791   5.008   5.467   0.881
 5243WAT     H216792   4.997   5.364   0.993
 5244WAT      O16793   3.468   3.705   1.224
 5244WAT     H116794   3.523   3.687   1.148
 5244WAT     H216795   3.475   3.626   1.277
 5245WAT      O16796   3.546   5.364   1.025
 5245WAT     H116797   3.486   5.351   1.099
 5245WAT     H216798   3.545   5.280   0.978
 5246WAT      O16799   4.490   3.693   0.845
 5246WAT     H116800   4.403   3.727   0.825
 5246WAT     H216801   4.479   3.646   0.928
 5247WAT      O16802   4.581   3.914   0.984
 5247WAT     H116803   4.548   3.833   0.946
 5247WAT     H216804   4.676   3.910   0.971
 5248WAT      O16805   4.826   5.491   0.681
 5248WAT     H116806   4.780   5.566   0.644
 5248WAT     H216807   4.763   5.419   0.675
 5249WAT      O16808   3.509   5.101   0.920
 5249WAT     H116809   3.436   5.039   0.913
 5249WAT     H216810   3.515   5.140   0.833
 5250WAT      O16811   3.869   5.322   0.598
 5250WAT     H116812   3.921   5.261   0.546
 5250WAT     H216813   3.934   5.372   0.648
 5251WAT      O16814   4.143   5.411   0.681
 5251WAT     H116815   4.172   5.386   0.594
 5251WAT     H216816   4.194   5.356   0.740
 5252WAT      O16817   4.265   3.785   0.739
 5252WAT     H116818   4.187   3.833   0.767
 5252WAT     H216819   4.235   3.695   0.728
 5253WAT      O16820   4.720   3.855   0.544
 5253WAT     H116821   4.764   3.850   0.459
 5253WAT     H216822   4.693   3.947   0.551
 5254WAT      O16823   4.906   3.818   0.345
 5254WAT     H116824   4.900   3.724   0.330
 5254WAT     H216825   4.984   3.829   0.399
 5255WAT      O16826   3.337   5.432   0.241
 5255WAT     H116827   3.320   5.369   0.311
 5255WAT     H216828   3.250   5.453   0.206
 5256WAT      O16829   4.053   4.027   0.290
 5256WAT     H116830   3.972   3.990   0.256
 5256WAT     H216831   4.104   3.951   0.321
 5257WAT      O16832   4.504   3.693   0.414
 5257WAT     H116833   4.564   3.751   0.462
 5257WAT     H216834   4.430   3.750   0.392
 5258WAT      O16835   4.150   5.503   1.418
 5258WAT     H116836   4.242   5.480   1.422
 5258WAT     H216837   4.148   5.586   1.370
 5259WAT      O16838   3.868   3.770   1.394
 5259WAT     H116839   3.840   3.820   1.318
 5259WAT     H216840   3.907   3.690   1.358
 5260WAT      O16841   4.529   3.711   1.452
 5260WAT     H116842   4.517   3.743   1.542
 5260WAT     H216843   4.610   3.751   1.422
 5261WAT      O16844   4.807   5.426   1.400
 5261WAT     H116845   4.886   5.377   1.380
 5261WAT     H216846   4.836   5.494   1.461
 5262WAT      O16847   4.419   2.636   5.998
 5262WAT     H116848   4.411   2.544   5.971
 5262WAT     H216849   4.378   2.685   5.928
 5263WAT      O16850   4.232   2.814   6.186
 5263WAT     H116851   4.155   2.766   6.215
 5263WAT     H216852   4.297   2.746   6.169
 5264WAT      O16853   3.634   2.845   6.274
 5264WAT     H116854   3.551   2.819   6.314
 5264WAT     H216855   3.695   2.852   6.348
 5265WAT      O16856   4.634   3.254   6.064
 5265WAT     H116857   4.588   3.177   6.097
 5265WAT     H216858   4.716   3.257   6.115
 5266WAT      O16859   3.632   3.248   6.294
 5266WAT     H116860   3.662   3.159   6.276
 5266WAT     H216861   3.706   3.304   6.271
 5267WAT      O16862   3.475   2.341   5.652
 5267WAT     H116863   3.386   2.375   5.642
 5267WAT     H216864   3.503   2.321   5.563
 5268WAT      O16865   3.271   2.601   6.241
 5268WAT     H116866   3.328   2.524   6.241
 5268WAT     H216867   3.271   2.631   6.150
 5269WAT      O16868   4.257   3.483   6.026
 5269WAT     H116869   4.195   3.528   5.969
 5269WAT     H216870   4.343   3.498   5.986
 5270WAT      O16871   4.176   3.081   6.187
 5270WAT     H116872   4.169   2.987   6.171
 5270WAT     H216873   4.253   3.090   6.244
 5271WAT      O16874   3.395   2.142   6.420
 5271WAT     H116875   3.378   2.052   6.448
 5271WAT     H216876   3.355   2.196   6.487
 5272WAT      O16877   4.279   2.362   6.210
 5272WAT     H116878   4.317   2.275   6.198
 5272WAT     H216879   4.270   2.395   6.121
 5273WAT      O16880   3.693   2.199   5.756
 5273WAT     H116881   3.703   2.289   5.787
 5273WAT     H216882   3.601   2.194   5.727
 5274WAT      O16883   4.658   2.111   5.903
 5274WAT     H116884   4.740   2.062   5.907
 5274WAT     H216885   4.661   2.170   5.978
 5275WAT      O16886   3.457   2.391   6.280
 5275WAT     H116887   3.525   2.418   6.342
 5275WAT     H216888   3.426   2.307   6.314
 5276WAT      O16889   3.877   2.496   6.189
 5276WAT     H116890   3.927   2.546   6.253
 5276WAT     H216891   3.930   2.418   6.171
 5277WAT      O16892   4.344   2.971   5.766
 5277WAT     H116893   4.282   3.018   5.709
 5277WAT     H216894   4.395   3.040   5.807
 5278WAT      O16895   3.830   2.924   6.433
 5278WAT     H116896   3.797   2.987   6.498
 5278WAT     H216897   3.848   2.977   6.355
 5279WAT      O16898   4.681   2.305   6.180
 5279WAT     H116899   4.611   2.334   6.238
 5279WAT     H216900   4.717   2.386   6.144
 5280WAT      O16901   3.673   2.131   6.416
 5280WAT     H116902   3.707   2.215   6.387
 5280WAT     H216903   3.579   2.146   6.428
 5281WAT      O16904   3.280   3.040   5.503
 5281WAT     H116905   3.243   3.089   5.430
 5281WAT     H216906   3.306   3.107   5.566
 5282WAT      O16907   4.843   3.267   6.406
 5282WAT     H116908   4.775   3.334   6.406
 5282WAT     H216909   4.897   3.287   6.330
 5283WAT      O16910   4.988   2.250   6.219
 5283WAT     H116911   4.893   2.253   6.232
 5283WAT     H216912   5.021   2.331   6.258
 5284WAT      O16913   4.041   1.880   6.049
 5284WAT     H116914   4.072   1.824   5.977
 5284WAT     H216915   3.948   1.893   6.031
 5285WAT      O16916   4.597   3.452   6.278
 5285WAT     H116917   4.598   3.411   6.191
 5285WAT     H216918   4.541   3.529   6.268
 5286WAT      O16919   4.726   3.124   5.787
 5286WAT     H116920   4.715   3.029   5.799
 5286WAT     H216921   4.726   3.160   5.875
 5287WAT      O16922   4.536   2.942   6.411
 5287WAT     H116923   4.578   2.920   6.327
 5287WAT     H216924   4.609   2.968   6.468
 5288WAT      O16925   4.280   2.686   5.722
 5288WAT     H116926   4.187   2.680   5.745
 5288WAT     H216927   4.295   2.780   5.711
 5289WAT      O16928   4.279   2.314   5.422
 5289WAT     H116929   4.185   2.330   5.431
 5289WAT     H216930   4.311   2.385   5.367
 5290WAT      O16931   4.931   2.782   6.420
 5290WAT     H116932   4.848   2.789   6.372
 5290WAT     H216933   4.991   2.840   6.373
 5291WAT      O16934   4.683   2.843   5.773
 5291WAT     H116935   4.621   2.809   5.708
 5291WAT     H216936   4.681   2.778   5.844
 5292WAT      O16937   3.841   2.739   6.001
 5292WAT     H116938   3.800   2.668   5.951
 5292WAT     H216939   3.849   2.705   6.090
 5293WAT      O16940   3.888   3.108   6.217
 5293WAT     H116941   3.858   3.047   6.149
 5293WAT     H216942   3.983   3.111   6.206
 5294WAT      O16943   3.712   2.416   6.379
 5294WAT     H116944   3.767   2.427   6.301
 5294WAT     H216945   3.763   2.454   6.450
 5295WAT      O16946   4.501   2.766   5.474
 5295WAT     H116947   4.545   2.683   5.459
 5295WAT     H216948   4.572   2.830   5.482
 5296WAT      O16949   4.312   3.260   5.870
 5296WAT     H116950   4.356   3.335   5.829
 5296WAT     H216951   4.306   3.285   5.963
 5297WAT      O16952   4.859   1.892   5.305
 5297WAT     H116953   4.828   1.901   5.395
 5297WAT     H216954   4.935   1.950   5.300
 5298WAT      O16955   3.511   2.628   5.751
 5298WAT     H116956   3.499   2.701   5.690
 5298WAT     H216957   3.480   2.552   5.703
 5299WAT      O16958   3.275   2.946   6.331
 5299WAT     H116959   3.282   2.959   6.237
 5299WAT     H216960   3.336   2.875   6.351
 5300WAT      O16961   3.399   3.116   5.972
 5300WAT     H116962   3.358   3.130   5.887
 5300WAT     H216963   3.488   3.087   5.952
 5301WAT      O16964   4.578   3.559   5.606
 5301WAT     H116965   4.562   3.530   5.696
 5301WAT     H216966   4.562   3.482   5.552
 5302WAT      O16967   3.826   3.537   5.784
 5302WAT     H116968   3.809   3.445   5.762
 5302WAT     H216969   3.741   3.573   5.808
 5303WAT      O16970   4.549   3.310   5.462
 5303WAT     H116971   4.479   3.310   5.396
 5303WAT     H216972   4.623   3.268   5.419
 5304WAT      O16973   4.505   3.473   5.869
 5304WAT     H116974   4.551   3.395   5.901
 5304WAT     H216975   4.539   3.544   5.924
 5305WAT      O16976   3.757   1.963   6.089
 5305WAT     H116977   3.713   2.041   6.056
 5305WAT     H216978   3.813   1.995   6.160
 5306WAT      O16979   4.069   1.925   5.577
 5306WAT     H116980   4.007   1.925   5.650
 5306WAT     H216981   4.060   1.838   5.537
 5307WAT      O16982   3.961   2.017   6.275
 5307WAT     H116983   3.991   2.108   6.267
 5307WAT     H216984   4.016   1.968   6.213
 5308WAT      O16985   3.737   2.475   5.862
 5308WAT     H116986   3.714   2.454   5.952
 5308WAT     H216987   3.659   2.518   5.827
 5309WAT      O16988   4.460   2.476   5.722
 5309WAT     H116989   4.400   2.548   5.703
 5309WAT     H216990   4.514   2.470   5.643
 5310WAT      O16991   4.320   2.339   5.925
 5310WAT     H116992   4.360   2.371   5.843
 5310WAT     H216993   4.356   2.252   5.936
 5311WAT      O16994   3.224   1.998   6.147
 5311WAT     H116995   3.195   2.055   6.218
 5311WAT     H216996   3.298   1.950   6.183
 5312WAT      O16997   3.243   2.393   5.268
 5312WAT     H116998   3.234   2.487   5.282
 5312WAT     H216999   3.207   2.378   5.180
 5313WAT      O17000   4.379   2.599   6.334
 5313WAT     H117001   4.306   2.649   6.369
 5313WAT     H217002   4.339   2.517   6.304
 5314WAT      O17003   4.023   2.266   6.175
 5314WAT     H117004   4.023   2.222   6.090
 5314WAT     H217005   4.112   2.298   6.185
 5315WAT      O17006   3.608   2.254   6.071
 5315WAT     H117007   3.574   2.302   6.146
 5315WAT     H217008   3.531   2.209   6.035
 5316WAT      O17009   4.029   2.366   5.474
 5316WAT     H117010   4.041   2.362   5.569
 5316WAT     H217011   3.990   2.452   5.458
 5317WAT      O17012   4.425   2.144   6.275
 5317WAT     H117013   4.427   2.189   6.360
 5317WAT     H217014   4.400   2.054   6.297
 5318WAT      O17015   3.930   2.597   5.414
 5318WAT     H117016   3.873   2.552   5.351
 5318WAT     H217017   4.001   2.633   5.360
 5319WAT      O17018   4.053   2.672   6.349
 5319WAT     H117019   4.089   2.625   6.424
 5319WAT     H217020   4.034   2.759   6.383
 5320WAT      O17021   3.339   2.146   5.962
 5320WAT     H117022   3.310   2.110   6.046
 5320WAT     H217023   3.333   2.073   5.901
 5321WAT      O17024   3.684   2.997   5.641
 5321WAT     H117025   3.607   2.943   5.625
 5321WAT     H217026   3.757   2.945   5.607
 5322WAT      O17027   4.760   2.896   6.220
 5322WAT     H117028   4.832   2.946   6.181
 5322WAT     H217029   4.740   2.829   6.156
 5323WAT      O17030   4.306   2.036   5.634
 5323WAT     H117031   4.225   1.986   5.627
 5323WAT     H217032   4.287   2.120   5.593
 5324WAT      O17033   4.578   2.473   5.464
 5324WAT     H117034   4.667   2.504   5.447
 5324WAT     H217035   4.575   2.386   5.425
 5325WAT      O17036   3.689   2.964   6.005
 5325WAT     H117037   3.741   2.883   5.999
 5325WAT     H217038   3.644   2.957   6.089
 5326WAT      O17039   4.177   3.090   5.532
 5326WAT     H117040   4.212   3.165   5.482
 5326WAT     H217041   4.095   3.122   5.568
 5327WAT      O17042   4.805   2.604   5.411
 5327WAT     H117043   4.797   2.647   5.326
 5327WAT     H217044   4.877   2.650   5.454
 5328WAT      O17045   4.908   3.290   5.684
 5328WAT     H117046   4.844   3.224   5.711
 5328WAT     H217047   4.869   3.330   5.606
 5329WAT      O17048   4.466   3.022   6.068
 5329WAT     H117049   4.501   2.963   6.002
 5329WAT     H217050   4.377   2.990   6.086
 5330WAT      O17051   4.074   3.098   5.809
 5330WAT     H117052   4.143   3.153   5.847
 5330WAT     H217053   3.996   3.153   5.813
 5331WAT      O17054   3.288   2.660   5.358
 5331WAT     H117055   3.375   2.688   5.387
 5331WAT     H217056   3.239   2.741   5.347
 5332WAT      O17057   4.005   2.799   5.770
 5332WAT     H117058   4.050   2.880   5.793
 5332WAT     H217059   3.970   2.767   5.854
 5333WAT      O17060   3.595   1.833   5.818
 5333WAT     H117061   3.582   1.832   5.912
 5333WAT     H217062   3.512   1.867   5.783
 5334WAT      O17063   4.362   3.150   6.365
 5334WAT     H117064   4.427   3.080   6.376
 5334WAT     H217065   4.415   3.228   6.347
 5335WAT      O17066   4.747   3.179   5.337
 5335WAT     H117067   4.724   3.107   5.397
 5335WAT     H217068   4.708   3.154   5.254
 5336WAT      O17069   3.325   3.581   5.415
 5336WAT     H117070   3.361   3.641   5.349
 5336WAT     H217071   3.311   3.636   5.492
 5337WAT      O17072   4.705   2.970   5.504
 5337WAT     H117073   4.676   3.017   5.582
 5337WAT     H217074   4.785   2.924   5.530
 5338WAT      O17075   3.927   3.320   5.497
 5338WAT     H117076   3.926   3.393   5.435
 5338WAT     H217077   3.835   3.295   5.506
 5339WAT      O17078   3.487   2.842   5.571
 5339WAT     H117079   3.426   2.916   5.572
 5339WAT     H217080   3.534   2.851   5.489
 5340WAT      O17081   4.781   2.154   5.620
 5340WAT     H117082   4.718   2.164   5.548
 5340WAT     H217083   4.731   2.176   5.699
 5341WAT      O17084   4.225   3.326   5.363
 5341WAT     H117085   4.235   3.306   5.270
 5341WAT     H217086   4.135   3.301   5.383
 5342WAT      O17087   3.978   2.382   5.761
 5342WAT     H117088   3.907   2.429   5.805
 5342WAT     H217089   4.006   2.316   5.825
 5343WAT      O17090   4.381   2.054   5.905
 5343WAT     H117091   4.368   2.056   5.810
 5343WAT     H217092   4.476   2.059   5.917
 5344WAT      O17093   4.090   3.578   5.832
 5344WAT     H117094   4.115   3.574   5.740
 5344WAT     H217095   3.995   3.565   5.832
 5345WAT      O17096   3.798   2.213   5.499
 5345WAT     H117097   3.883   2.256   5.492
 5345WAT     H217098   3.761   2.244   5.581
 5346WAT      O17099   4.690   2.670   5.990
 5346WAT     H117100   4.596   2.671   6.007
 5346WAT     H217101   4.721   2.591   6.035
 5347WAT      O17102   3.688   2.838   5.346
 5347WAT     H117103   3.764   2.827   5.402
 5347WAT     H217104   3.696   2.768   5.281
 5348WAT      O17105   3.557   2.581   5.414
 5348WAT     H117106   3.565   2.486   5.426
 5348WAT     H217107   3.647   2.614   5.425
 5349WAT      O17108   4.890   3.387   6.158
 5349WAT     H117109   4.903   3.469   6.205
 5349WAT     H217110   4.977   3.366   6.123
 5350WAT      O17111   3.637   3.596   6.125
 5350WAT     H117112   3.711   3.541   6.152
 5350WAT     H217113   3.676   3.683   6.111
 5351WAT      O17114   3.326   3.203   5.712
 5351WAT     H117115   3.233   3.227   5.711
 5351WAT     H217116   3.372   3.286   5.700
 5352WAT      O17117   3.948   3.513   5.307
 5352WAT     H117118   4.028   3.542   5.262
 5352WAT     H217119   3.897   3.470   5.239
 5353WAT      O17120   4.854   3.436   5.449
 5353WAT     H117121   4.825   3.395   5.368
 5353WAT     H217122   4.834   3.529   5.437
 5354WAT      O17123   4.000   3.035   5.293
 5354WAT     H117124   3.990   2.974   5.366
 5354WAT     H217125   3.984   2.983   5.215
 5355WAT      O17126   4.324   2.942   5.354
 5355WAT     H117127   4.269   2.986   5.418
 5355WAT     H217128   4.386   2.891   5.406
 5356WAT      O17129   3.891   2.838   5.543
 5356WAT     H117130   3.933   2.821   5.628
 5356WAT     H217131   3.904   2.757   5.494
 5357WAT      O17132   4.142   2.740   5.268
 5357WAT     H117133   4.194   2.668   5.232
 5357WAT     H217134   4.207   2.804   5.298
 5358WAT      O17135   3.781   2.445   5.238
 5358WAT     H117136   3.761   2.359   5.274
 5358WAT     H217137   3.764   2.436   5.144
 5359WAT      O17138   4.529   1.926   5.491
 5359WAT     H117139   4.557   1.842   5.526
 5359WAT     H217140   4.451   1.949   5.542
 5360WAT      O17141   3.660   2.155   5.237
 5360WAT     H117142   3.691   2.156   5.146
 5360WAT     H217143   3.734   2.120   5.286
 5361WAT      O17144   3.982   2.049   5.335
 5361WAT     H117145   3.948   1.982   5.277
 5361WAT     H217146   4.002   2.003   5.417
 5362WAT      O17147   4.199   3.548   5.497
 5362WAT     H117148   4.288   3.582   5.499
 5362WAT     H217149   4.202   3.476   5.434
 5363WAT      O17150   3.563   3.085   5.320
 5363WAT     H117151   3.607   3.140   5.386
 5363WAT     H217152   3.611   3.003   5.321
 5364WAT      O17153   3.284   3.364   6.065
 5364WAT     H117154   3.317   3.277   6.042
 5364WAT     H217155   3.327   3.385   6.148
 5365WAT      O17156   3.744   3.197   5.831
 5365WAT     H117157   3.714   3.185   5.921
 5365WAT     H217158   3.733   3.111   5.790
 5366WAT      O17159   3.333   3.451   6.339
 5366WAT     H117160   3.289   3.469   6.422
 5366WAT     H217161   3.390   3.527   6.325
 5367WAT      O17162   5.021   3.175   5.302
 5367WAT     H117163   4.938   3.182   5.349
 5367WAT     H217164   5.038   3.264   5.271
 5368WAT      O17165   4.966   2.850   5.552
 5368WAT     H117166   5.043   2.907   5.563
 5368WAT     H217167   4.968   2.793   5.629
 5369WAT      O17168   3.316   2.702   5.975
 5369WAT     H117169   3.251   2.675   5.911
 5369WAT     H217170   3.400   2.691   5.930
 5370WAT      O17171   5.067   2.935   6.036
 5370WAT     H117172   5.104   2.857   5.996
 5370WAT     H217173   5.131   3.004   6.019
 5371WAT      O17174   4.972   2.879   5.268
 5371WAT     H117175   4.999   2.970   5.255
 5371WAT     H217176   4.953   2.873   5.361
 5372WAT      O17177   4.611   2.182   5.397
 5372WAT     H117178   4.653   2.163   5.313
 5372WAT     H217179   4.581   2.096   5.428
 5373WAT      O17180   4.961   2.673   5.767
 5373WAT     H117181   4.924   2.596   5.724
 5373WAT     H217182   4.888   2.711   5.816
 5374WAT      O17183   3.420   2.741   6.429
 5374WAT     H117184   3.457   2.732   6.517
 5374WAT     H217185   3.363   2.664   6.419
 5375WAT      O17186   3.238   2.423   5.569
 5375WAT     H117187   3.147   2.449   5.552
 5375WAT     H217188   3.286   2.450   5.491
 5376WAT      O17189   4.889   2.495   6.097
 5376WAT     H117190   4.941   2.446   6.034
 5376WAT     H217191   4.947   2.509   6.171
 5377WAT      O17192   4.907   2.504   6.449
 5377WAT     H117193   4.812   2.500   6.461
 5377WAT     H217194   4.925   2.595   6.426
 5378WAT      O17195   3.492   2.329   5.360
 5378WAT     H117196   3.563   2.287   5.312
 5378WAT     H217197   3.420   2.336   5.297
 5379WAT      O17198   3.457   1.934   5.264
 5379WAT     H117199   3.529   1.988   5.296
 5379WAT     H217200   3.484   1.907   5.177
 5380WAT      O17201   4.838   2.421   5.691
 5380WAT     H117202   4.887   2.398   5.769
 5380WAT     H217203   4.818   2.337   5.649
 5381WAT      O17204   3.426   1.859   6.254
 5381WAT     H117205   3.490   1.804   6.210
 5381WAT     H217206   3.468   1.885   6.337
 5382WAT      O17207   4.981   2.285   5.944
 5382WAT     H117208   4.970   2.269   6.038
 5382WAT     H217209   5.057   2.232   5.920
 5383WAT      O17210   5.069   2.068   5.268
 5383WAT     H117211   5.162   2.055   5.248
 5383WAT     H217212   5.067   2.076   5.364
 5384WAT      O17213   5.077   2.145   5.531
 5384WAT     H117214   4.997   2.138   5.584
 5384WAT     H217215   5.097   2.238   5.530
 5385WAT      O17216   4.771   3.549   5.930
 5385WAT     H117217   4.831   3.517   5.863
 5385WAT     H217218   4.797   3.502   6.009
 5386WAT      O17219   3.932   3.348   6.505
 5386WAT     H117220   3.908   3.374   6.417
 5386WAT     H217221   4.026   3.365   6.511
 5387WAT      O17222   4.826   3.614   6.313
 5387WAT     H117223   4.780   3.689   6.276
 5387WAT     H217224   4.763   3.542   6.307
 5388WAT      O17225   3.869   3.445   6.231
 5388WAT     H117226   3.921   3.384   6.178
 5388WAT     H217227   3.934   3.495   6.280
 5389WAT      O17228   4.143   3.534   6.313
 5389WAT     H117229   4.172   3.508   6.226
 5389WAT     H217230   4.194   3.479   6.373
 5390WAT      O17231   4.265   1.908   6.371
 5390WAT     H117232   4.187   1.955   6.399
 5390WAT     H217233   4.235   1.817   6.361
 5391WAT      O17234   4.720   1.978   6.176
 5391WAT     H117235   4.764   1.972   6.091
 5391WAT     H217236   4.693   2.069   6.183
 5392WAT      O17237   4.906   1.941   5.977
 5392WAT     H117238   4.900   1.847   5.962
 5392WAT     H217239   4.984   1.952   6.032
 5393WAT      O17240   3.337   3.555   5.873
 5393WAT     H117241   3.320   3.492   5.943
 5393WAT     H217242   3.250   3.576   5.838
 5394WAT      O17243   3.399   1.938   5.624
 5394WAT     H117244   3.475   1.949   5.566
 5394WAT     H217245   3.353   2.022   5.619
 5395WAT      O17246   4.053   2.150   5.923
 5395WAT     H117247   3.972   2.112   5.889
 5395WAT     H217248   4.104   2.074   5.953
 5396WAT      O17249   4.504   1.816   6.046
 5396WAT     H117250   4.564   1.873   6.094
 5396WAT     H217251   4.430   1.872   6.024
 5397WAT      O17252   4.818   1.856   5.574
 5397WAT     H117253   4.837   1.946   5.601
 5397WAT     H217254   4.739   1.833   5.623
 5398WAT      O17255   3.498   3.424   5.618
 5398WAT     H117256   3.445   3.462   5.547
 5398WAT     H217257   3.490   3.487   5.690
 5399WAT      O17258   3.636   1.991   5.478
 5399WAT     H117259   3.689   1.912   5.465
 5399WAT     H217260   3.700   2.059   5.501
 5400WAT      O17261   3.856   1.965   5.783
 5400WAT     H117262   3.793   1.894   5.800
 5400WAT     H217263   3.802   2.041   5.761
 5401WAT      O17264   4.973   3.580   5.750
 5401WAT     H117265   4.991   3.512   5.686
 5401WAT     H217266   4.903   3.633   5.711
 5402WAT      O17267   3.757   3.619   5.505
 5402WAT     H117268   3.831   3.591   5.450
 5402WAT     H217269   3.783   3.595   5.594
 5403WAT      O17270   3.674   3.231   5.506
 5403WAT     H117271   3.611   3.278   5.561
 5403WAT     H217272   3.685   3.146   5.549
 5404WAT      O17273   4.634   3.254   4.187
 5404WAT     H117274   4.588   3.177   4.220
 5404WAT     H217275   4.716   3.257   4.237
 5405WAT      O17276   3.632   3.248   4.416
 5405WAT     H117277   3.662   3.159   4.398
 5405WAT     H217278   3.706   3.304   4.393
 5406WAT      O17279   4.257   3.483   4.149
 5406WAT     H117280   4.195   3.528   4.092
 5406WAT     H217281   4.343   3.498   4.109
 5407WAT      O17282   3.395   2.142   4.542
 5407WAT     H117283   3.378   2.052   4.570
 5407WAT     H217284   3.355   2.196   4.610
 5408WAT      O17285   4.658   2.111   4.026
 5408WAT     H117286   4.740   2.062   4.030
 5408WAT     H217287   4.661   2.170   4.101
 5409WAT      O17288   5.087   2.313   4.682
 5409WAT     H117289   5.016   2.352   4.630
 5409WAT     H217290   5.113   2.383   4.742
 5410WAT      O17291   3.705   1.960   4.738
 5410WAT     H117292   3.705   2.012   4.658
 5410WAT     H217293   3.622   1.912   4.736
 5411WAT      O17294   4.681   2.305   4.303
 5411WAT     H117295   4.611   2.334   4.361
 5411WAT     H217296   4.717   2.386   4.267
 5412WAT      O17297   3.673   2.131   4.539
 5412WAT     H117298   3.707   2.215   4.510
 5412WAT     H217299   3.579   2.146   4.551
 5413WAT      O17300   3.751   3.121   4.738
 5413WAT     H117301   3.813   3.188   4.709
 5413WAT     H217302   3.665   3.162   4.728
 5414WAT      O17303   4.843   3.267   4.529
 5414WAT     H117304   4.775   3.334   4.528
 5414WAT     H217305   4.897   3.287   4.452
 5415WAT      O17306   4.988   2.250   4.342
 5415WAT     H117307   4.893   2.253   4.355
 5415WAT     H217308   5.021   2.331   4.380
 5416WAT      O17309   4.041   1.880   4.171
 5416WAT     H117310   4.072   1.824   4.100
 5416WAT     H217311   3.948   1.893   4.153
 5417WAT      O17312   4.597   3.452   4.401
 5417WAT     H117313   4.598   3.411   4.314
 5417WAT     H217314   4.541   3.529   4.390
 5418WAT      O17315   4.536   2.942   4.533
 5418WAT     H117316   4.578   2.920   4.450
 5418WAT     H217317   4.609   2.968   4.590
 5419WAT      O17318   4.931   2.782   4.542
 5419WAT     H117319   4.848   2.789   4.495
 5419WAT     H217320   4.991   2.840   4.496
 5420WAT      O17321   4.683   2.843   3.895
 5420WAT     H117322   4.621   2.809   3.831
 5420WAT     H217323   4.681   2.778   3.966
 5421WAT      O17324   4.696   3.465   4.706
 5421WAT     H117325   4.649   3.546   4.687
 5421WAT     H217326   4.628   3.400   4.721
 5422WAT      O17327   3.797   3.082   5.005
 5422WAT     H117328   3.707   3.104   5.029
 5422WAT     H217329   3.799   3.094   4.910
 5423WAT      O17330   4.312   3.260   3.993
 5423WAT     H117331   4.356   3.335   3.951
 5423WAT     H217332   4.306   3.285   4.085
 5424WAT      O17333   3.859   3.363   5.083
 5424WAT     H117334   3.856   3.403   4.996
 5424WAT     H217335   3.843   3.270   5.067
 5425WAT      O17336   5.054   3.441   5.213
 5425WAT     H117337   5.102   3.489   5.281
 5425WAT     H217338   5.116   3.434   5.140
 5426WAT      O17339   3.275   2.946   4.454
 5426WAT     H117340   3.282   2.959   4.360
 5426WAT     H217341   3.336   2.875   4.473
 5427WAT      O17342   4.995   3.160   4.929
 5427WAT     H117343   5.007   3.136   4.837
 5427WAT     H217344   4.999   3.077   4.976
 5428WAT      O17345   4.381   3.531   4.786
 5428WAT     H117346   4.432   3.522   4.866
 5428WAT     H217347   4.297   3.565   4.815
 5429WAT      O17348   4.578   3.559   3.729
 5429WAT     H117349   4.562   3.530   3.818
 5429WAT     H217350   4.562   3.482   3.675
 5430WAT      O17351   4.549   3.310   3.585
 5430WAT     H117352   4.479   3.310   3.519
 5430WAT     H217353   4.623   3.268   3.541
 5431WAT      O17354   4.505   3.473   3.992
 5431WAT     H117355   4.551   3.395   4.023
 5431WAT     H217356   4.539   3.544   4.046
 5432WAT      O17357   4.980   2.366   5.025
 5432WAT     H117358   4.918   2.416   4.972
 5432WAT     H217359   4.948   2.276   5.020
 5433WAT      O17360   3.280   3.050   4.708
 5433WAT     H117361   3.297   3.003   4.626
 5433WAT     H217362   3.327   2.999   4.774
 5434WAT      O17363   3.757   1.963   4.212
 5434WAT     H117364   3.713   2.041   4.178
 5434WAT     H217365   3.813   1.995   4.282
 5435WAT      O17366   4.186   2.250   4.772
 5435WAT     H117367   4.140   2.270   4.853
 5435WAT     H217368   4.146   2.168   4.742
 5436WAT      O17369   4.686   2.372   4.885
 5436WAT     H117370   4.601   2.342   4.917
 5436WAT     H217371   4.670   2.396   4.794
 5437WAT      O17372   4.396   2.522   5.095
 5437WAT     H117373   4.428   2.438   5.061
 5437WAT     H217374   4.474   2.574   5.110
 5438WAT      O17375   4.069   1.925   3.700
 5438WAT     H117376   4.007   1.925   3.772
 5438WAT     H217377   4.060   1.838   3.660
 5439WAT      O17378   3.961   2.017   4.397
 5439WAT     H117379   3.991   2.108   4.389
 5439WAT     H217380   4.016   1.968   4.336
 5440WAT      O17381   4.460   2.476   3.844
 5440WAT     H117382   4.400   2.548   3.826
 5440WAT     H217383   4.514   2.470   3.766
 5441WAT      O17384   3.981   2.565   5.051
 5441WAT     H117385   3.971   2.471   5.036
 5441WAT     H217386   4.065   2.587   5.011
 5442WAT      O17387   3.494   2.206   4.866
 5442WAT     H117388   3.454   2.291   4.887
 5442WAT     H217389   3.425   2.142   4.885
 5443WAT      O17390   4.151   2.215   5.173
 5443WAT     H117391   4.082   2.195   5.237
 5443WAT     H217392   4.225   2.243   5.226
 5444WAT      O17393   4.425   2.144   4.398
 5444WAT     H117394   4.427   2.189   4.482
 5444WAT     H217395   4.400   2.054   4.419
 5445WAT      O17396   4.768   1.885   4.982
 5445WAT     H117397   4.800   1.812   5.034
 5445WAT     H217398   4.771   1.853   4.892
 5446WAT      O17399   3.438   2.987   4.924
 5446WAT     H117400   3.399   2.923   4.984
 5446WAT     H217401   3.469   3.058   4.981
 5447WAT      O17402   4.760   2.896   4.343
 5447WAT     H117403   4.832   2.946   4.304
 5447WAT     H217404   4.740   2.829   4.278
 5448WAT      O17405   4.306   2.036   3.757
 5448WAT     H117406   4.225   1.986   3.749
 5448WAT     H217407   4.287   2.120   3.715
 5449WAT      O17408   3.437   2.660   4.819
 5449WAT     H117409   3.401   2.727   4.877
 5449WAT     H217410   3.408   2.577   4.856
 5450WAT      O17411   3.757   2.706   5.107
 5450WAT     H117412   3.727   2.721   5.017
 5450WAT     H217413   3.834   2.650   5.098
 5451WAT      O17414   4.292   3.186   4.906
 5451WAT     H117415   4.293   3.093   4.885
 5451WAT     H217416   4.221   3.194   4.970
 5452WAT      O17417   4.913   2.850   4.841
 5452WAT     H117418   4.840   2.909   4.821
 5452WAT     H217419   4.966   2.849   4.761
 5453WAT      O17420   4.466   3.022   4.191
 5453WAT     H117421   4.501   2.963   4.125
 5453WAT     H217422   4.377   2.990   4.208
 5454WAT      O17423   4.235   3.350   4.616
 5454WAT     H117424   4.299   3.370   4.684
 5454WAT     H217425   4.271   3.274   4.571
 5455WAT      O17426   3.595   1.833   3.940
 5455WAT     H117427   3.582   1.832   4.035
 5455WAT     H217428   3.512   1.867   3.905
 5456WAT      O17429   4.362   3.150   4.488
 5456WAT     H117430   4.427   3.080   4.499
 5456WAT     H217431   4.415   3.228   4.470
 5457WAT      O17432   4.747   3.179   3.460
 5457WAT     H117433   4.724   3.107   3.519
 5457WAT     H217434   4.708   3.154   3.376
 5458WAT      O17435   4.540   3.230   4.808
 5458WAT     H117436   4.573   3.289   4.876
 5458WAT     H217437   4.448   3.217   4.831
 5459WAT      O17438   3.295   2.009   4.886
 5459WAT     H117439   3.223   2.029   4.947
 5459WAT     H217440   3.337   1.932   4.923
 5460WAT      O17441   4.705   2.970   3.626
 5460WAT     H117442   4.676   3.017   3.705
 5460WAT     H217443   4.785   2.924   3.653
 5461WAT      O17444   3.323   3.408   4.985
 5461WAT     H117445   3.334   3.314   4.971
 5461WAT     H217446   3.258   3.434   4.920
 5462WAT      O17447   4.123   3.235   5.125
 5462WAT     H117448   4.091   3.163   5.179
 5462WAT     H217449   4.055   3.303   5.132
 5463WAT      O17450   4.444   2.258   4.661
 5463WAT     H117451   4.481   2.176   4.694
 5463WAT     H217452   4.358   2.264   4.703
 5464WAT      O17453   4.781   2.154   3.742
 5464WAT     H117454   4.718   2.164   3.671
 5464WAT     H217455   4.731   2.176   3.821
 5465WAT      O17456   4.381   2.054   4.028
 5465WAT     H117457   4.368   2.056   3.933
 5465WAT     H217458   4.476   2.059   4.040
 5466WAT      O17459   4.090   3.578   3.955
 5466WAT     H117460   4.115   3.574   3.863
 5466WAT     H217461   3.995   3.565   3.954
 5467WAT      O17462   4.861   2.145   4.768
 5467WAT     H117463   4.811   2.219   4.802
 5467WAT     H217464   4.942   2.184   4.736
 5468WAT      O17465   4.690   2.670   4.113
 5468WAT     H117466   4.596   2.671   4.130
 5468WAT     H217467   4.721   2.591   4.157
 5469WAT      O17468   3.538   3.515   5.166
 5469WAT     H117469   3.618   3.547   5.207
 5469WAT     H217470   3.487   3.479   5.238
 5470WAT      O17471   4.422   3.125   5.161
 5470WAT     H117472   4.361   3.128   5.087
 5470WAT     H217473   4.391   3.052   5.215
 5471WAT      O17474   4.565   3.498   5.022
 5471WAT     H117475   4.660   3.490   5.017
 5471WAT     H217476   4.550   3.565   5.089
 5472WAT      O17477   3.310   2.763   5.060
 5472WAT     H117478   3.360   2.705   5.118
 5472WAT     H217479   3.236   2.792   5.114
 5473WAT      O17480   4.730   3.077   5.070
 5473WAT     H117481   4.804   3.111   5.019
 5473WAT     H217482   4.653   3.094   5.014
 5474WAT      O17483   3.513   2.578   5.150
 5474WAT     H117484   3.517   2.548   5.241
 5474WAT     H217485   3.599   2.618   5.134
 5475WAT      O17486   3.707   2.436   4.947
 5475WAT     H117487   3.654   2.386   4.884
 5475WAT     H217488   3.774   2.478   4.893
 5476WAT      O17489   4.597   2.882   4.923
 5476WAT     H117490   4.639   2.898   5.008
 5476WAT     H217491   4.504   2.895   4.939
 5477WAT      O17492   4.644   2.616   5.124
 5477WAT     H117493   4.703   2.541   5.115
 5477WAT     H217494   4.662   2.669   5.046
 5478WAT      O17495   3.756   2.132   4.955
 5478WAT     H117496   3.747   2.070   4.882
 5478WAT     H217497   3.698   2.205   4.932
 5479WAT      O17498   4.033   1.988   4.658
 5479WAT     H117499   3.988   1.990   4.573
 5479WAT     H217500   3.969   1.948   4.718
 5480WAT      O17501   3.858   3.508   4.832
 5480WAT     H117502   3.805   3.580   4.800
 5480WAT     H217503   3.884   3.460   4.753
 5481WAT      O17504   3.984   2.305   4.984
 5481WAT     H117505   4.043   2.274   5.053
 5481WAT     H217506   3.902   2.258   5.000
 5482WAT      O17507   4.466   2.266   5.008
 5482WAT     H117508   4.397   2.200   5.001
 5482WAT     H217509   4.538   2.222   5.052
 5483WAT      O17510   4.529   1.926   3.613
 5483WAT     H117511   4.557   1.842   3.649
 5483WAT     H217512   4.451   1.949   3.665
 5484WAT      O17513   4.144   3.631   4.858
 5484WAT     H117514   4.137   3.722   4.888
 5484WAT     H217515   4.054   3.600   4.855
 5485WAT      O17516   4.199   3.548   3.620
 5485WAT     H117517   4.288   3.582   3.622
 5485WAT     H217518   4.202   3.476   3.557
 5486WAT      O17519   3.333   3.451   4.462
 5486WAT     H117520   3.289   3.469   4.545
 5486WAT     H217521   3.390   3.527   4.447
 5487WAT      O17522   4.897   3.401   4.890
 5487WAT     H117523   4.837   3.407   4.816
 5487WAT     H217524   4.910   3.307   4.903
 5488WAT      O17525   4.765   3.074   4.700
 5488WAT     H117526   4.684   3.117   4.726
 5488WAT     H217527   4.806   3.135   4.639
 5489WAT      O17528   3.420   2.741   4.552
 5489WAT     H117529   3.457   2.732   4.640
 5489WAT     H217530   3.363   2.664   4.542
 5490WAT      O17531   4.900   2.588   4.853
 5490WAT     H117532   4.877   2.565   4.763
 5490WAT     H217533   4.926   2.680   4.848
 5491WAT      O17534   3.375   2.432   4.942
 5491WAT     H117535   3.286   2.428   4.976
 5491WAT     H217536   3.429   2.452   5.019
 5492WAT      O17537   4.744   2.110   5.131
 5492WAT     H117538   4.832   2.111   5.169
 5492WAT     H217539   4.745   2.036   5.070
 5493WAT      O17540   4.889   2.495   4.220
 5493WAT     H117541   4.941   2.446   4.156
 5493WAT     H217542   4.947   2.509   4.294
 5494WAT      O17543   4.907   2.504   4.572
 5494WAT     H117544   4.812   2.500   4.583
 5494WAT     H217545   4.925   2.595   4.548
 5495WAT      O17546   4.838   2.421   3.814
 5495WAT     H117547   4.887   2.398   3.892
 5495WAT     H217548   4.818   2.337   3.772
 5496WAT      O17549   3.426   1.859   4.377
 5496WAT     H117550   3.490   1.804   4.333
 5496WAT     H217551   3.468   1.885   4.459
 5497WAT      O17552   4.981   2.285   4.067
 5497WAT     H117553   4.970   2.269   4.161
 5497WAT     H217554   5.057   2.232   4.043
 5498WAT      O17555   4.815   1.879   4.713
 5498WAT     H117556   4.879   1.940   4.749
 5498WAT     H217557   4.830   1.882   4.618
 5499WAT      O17558   3.401   1.875   4.651
 5499WAT     H117559   3.366   1.920   4.728
 5499WAT     H217560   3.368   1.785   4.659
 5500WAT      O17561   3.562   3.192   5.068
 5500WAT     H117562   3.557   3.155   5.156
 5500WAT     H217563   3.575   3.286   5.082
 5501WAT      O17564   3.932   3.348   4.628
 5501WAT     H117565   3.908   3.374   4.539
 5501WAT     H217566   4.026   3.365   4.633
 5502WAT      O17567   4.152   1.994   5.003
 5502WAT     H117568   4.146   2.053   5.078
 5502WAT     H217569   4.246   1.983   4.989
 5503WAT      O17570   4.416   1.960   4.967
 5503WAT     H117571   4.477   1.991   4.901
 5503WAT     H217572   4.470   1.911   5.029
 5504WAT      O17573   5.058   3.550   4.708
 5504WAT     H117574   5.008   3.589   4.636
 5504WAT     H217575   4.997   3.487   4.747
 5505WAT      O17576   3.468   1.828   4.979
 5505WAT     H117577   3.523   1.809   4.902
 5505WAT     H217578   3.475   1.749   5.032
 5506WAT      O17579   3.546   3.487   4.780
 5506WAT     H117580   3.486   3.473   4.854
 5506WAT     H217581   3.545   3.403   4.733
 5507WAT      O17582   4.490   1.816   4.600
 5507WAT     H117583   4.403   1.849   4.580
 5507WAT     H217584   4.479   1.769   4.683
 5508WAT      O17585   4.581   2.037   4.738
 5508WAT     H117586   4.548   1.955   4.701
 5508WAT     H217587   4.676   2.032   4.726
 5509WAT      O17588   3.509   3.223   4.675
 5509WAT     H117589   3.436   3.161   4.668
 5509WAT     H217590   3.515   3.263   4.588
 5510WAT      O17591   3.869   3.445   4.353
 5510WAT     H117592   3.921   3.384   4.301
 5510WAT     H217593   3.934   3.495   4.402
 5511WAT      O17594   4.143   3.534   4.436
 5511WAT     H117595   4.172   3.508   4.348
 5511WAT     H217596   4.194   3.479   4.495
 5512WAT      O17597   4.265   1.908   4.494
 5512WAT     H117598   4.187   1.955   4.522
 5512WAT     H217599   4.235   1.817   4.483
 5513WAT      O17600   4.720   1.978   4.299
 5513WAT     H117601   4.764   1.972   4.214
 5513WAT     H217602   4.693   2.069   4.306
 5514WAT      O17603   4.906   1.941   4.100
 5514WAT     H117604   4.900   1.847   4.085
 5514WAT     H217605   4.984   1.952   4.154
 5515WAT      O17606   4.504   1.816   4.169
 5515WAT     H117607   4.564   1.873   4.216
 5515WAT     H217608   4.430   1.872   4.147
 5516WAT      O17609   4.818   1.856   3.696
 5516WAT     H117610   4.837   1.946   3.723
 5516WAT     H217611   4.739   1.833   3.746
 5517WAT      O17612   3.856   1.965   3.906
 5517WAT     H117613   3.793   1.894   3.922
 5517WAT     H217614   3.802   2.041   3.884
 5518WAT      O17615   4.150   3.626   5.173
 5518WAT     H117616   4.242   3.602   5.177
 5518WAT     H217617   4.148   3.709   5.125
 5519WAT      O17618   3.868   1.892   5.149
 5519WAT     H117619   3.840   1.943   5.073
 5519WAT     H217620   3.907   1.813   5.113
 5520WAT      O17621   4.529   1.834   5.207
 5520WAT     H117622   4.517   1.866   5.296
 5520WAT     H217623   4.610   1.874   5.177
 5521WAT      O17624   4.807   3.549   5.155
 5521WAT     H117625   4.886   3.499   5.134
 5521WAT     H217626   4.836   3.616   5.216
 5522WAT      O17627   4.419   2.636   2.243
 5522WAT     H117628   4.411   2.544   2.216
 5522WAT     H217629   4.378   2.685   2.173
 5523WAT      O17630   3.634   2.845   2.519
 5523WAT     H117631   3.551   2.819   2.559
 5523WAT     H217632   3.695   2.852   2.593
 5524WAT      O17633   4.634   3.254   2.309
 5524WAT     H117634   4.588   3.177   2.342
 5524WAT     H217635   4.716   3.257   2.360
 5525WAT      O17636   3.475   2.341   1.898
 5525WAT     H117637   3.386   2.375   1.887
 5525WAT     H217638   3.503   2.321   1.808
 5526WAT      O17639   3.271   2.601   2.486
 5526WAT     H117640   3.328   2.524   2.486
 5526WAT     H217641   3.271   2.631   2.395
 5527WAT      O17642   3.395   2.142   2.665
 5527WAT     H117643   3.378   2.052   2.693
 5527WAT     H217644   3.355   2.196   2.732
 5528WAT      O17645   4.279   2.362   2.455
 5528WAT     H117646   4.317   2.275   2.444
 5528WAT     H217647   4.270   2.395   2.366
 5529WAT      O17648   3.693   2.199   2.001
 5529WAT     H117649   3.703   2.289   2.032
 5529WAT     H217650   3.601   2.194   1.972
 5530WAT      O17651   4.658   2.111   2.148
 5530WAT     H117652   4.740   2.062   2.152
 5530WAT     H217653   4.661   2.170   2.223
 5531WAT      O17654   3.457   2.391   2.525
 5531WAT     H117655   3.525   2.418   2.587
 5531WAT     H217656   3.426   2.307   2.559
 5532WAT      O17657   3.877   2.496   2.434
 5532WAT     H117658   3.927   2.546   2.498
 5532WAT     H217659   3.930   2.418   2.417
 5533WAT      O17660   4.344   2.971   2.011
 5533WAT     H117661   4.282   3.018   1.954
 5533WAT     H217662   4.395   3.040   2.052
 5534WAT      O17663   4.681   2.305   2.425
 5534WAT     H117664   4.611   2.334   2.483
 5534WAT     H217665   4.717   2.386   2.389
 5535WAT      O17666   3.280   3.040   1.748
 5535WAT     H117667   3.243   3.089   1.675
 5535WAT     H217668   3.306   3.107   1.811
 5536WAT      O17669   4.988   2.250   2.464
 5536WAT     H117670   4.893   2.253   2.478
 5536WAT     H217671   5.021   2.331   2.503
 5537WAT      O17672   4.041   1.880   2.294
 5537WAT     H117673   4.072   1.824   2.222
 5537WAT     H217674   3.948   1.893   2.276
 5538WAT      O17675   4.726   3.124   2.032
 5538WAT     H117676   4.715   3.029   2.044
 5538WAT     H217677   4.726   3.160   2.121
 5539WAT      O17678   4.280   2.686   1.968
 5539WAT     H117679   4.187   2.680   1.990
 5539WAT     H217680   4.295   2.780   1.956
 5540WAT      O17681   4.279   2.314   1.667
 5540WAT     H117682   4.185   2.330   1.676
 5540WAT     H217683   4.311   2.385   1.613
 5541WAT      O17684   4.683   2.843   2.018
 5541WAT     H117685   4.621   2.809   1.953
 5541WAT     H217686   4.681   2.778   2.089
 5542WAT      O17687   3.841   2.739   2.246
 5542WAT     H117688   3.800   2.668   2.196
 5542WAT     H217689   3.849   2.705   2.335
 5543WAT      O17690   3.712   2.416   2.624
 5543WAT     H117691   3.767   2.427   2.546
 5543WAT     H217692   3.763   2.454   2.695
 5544WAT      O17693   4.696   3.465   2.828
 5544WAT     H117694   4.649   3.546   2.809
 5544WAT     H217695   4.628   3.400   2.844
 5545WAT      O17696   4.501   2.766   1.719
 5545WAT     H117697   4.545   2.683   1.704
 5545WAT     H217698   4.572   2.830   1.727
 5546WAT      O17699   4.312   3.260   2.115
 5546WAT     H117700   4.356   3.335   2.074
 5546WAT     H217701   4.306   3.285   2.208
 5547WAT      O17702   4.859   1.892   1.550
 5547WAT     H117703   4.828   1.901   1.640
 5547WAT     H217704   4.935   1.950   1.545
 5548WAT      O17705   3.511   2.628   1.996
 5548WAT     H117706   3.499   2.701   1.935
 5548WAT     H217707   3.480   2.552   1.948
 5549WAT      O17708   3.275   2.946   2.577
 5549WAT     H117709   3.282   2.959   2.482
 5549WAT     H217710   3.336   2.875   2.596
 5550WAT      O17711   3.399   3.116   2.218
 5550WAT     H117712   3.358   3.130   2.132
 5550WAT     H217713   3.488   3.087   2.197
 5551WAT      O17714   4.578   3.559   1.851
 5551WAT     H117715   4.562   3.530   1.941
 5551WAT     H217716   4.562   3.482   1.798
 5552WAT      O17717   3.826   3.537   2.029
 5552WAT     H117718   3.809   3.445   2.008
 5552WAT     H217719   3.741   3.573   2.053
 5553WAT      O17720   4.549   3.310   1.707
 5553WAT     H117721   4.479   3.310   1.641
 5553WAT     H217722   4.623   3.268   1.664
 5554WAT      O17723   4.505   3.473   2.115
 5554WAT     H117724   4.551   3.395   2.146
 5554WAT     H217725   4.539   3.544   2.169
 5555WAT      O17726   3.757   1.963   2.334
 5555WAT     H117727   3.713   2.041   2.301
 5555WAT     H217728   3.813   1.995   2.405
 5556WAT      O17729   4.069   1.925   1.822
 5556WAT     H117730   4.007   1.925   1.895
 5556WAT     H217731   4.060   1.838   1.783
 5557WAT      O17732   3.737   2.475   2.107
 5557WAT     H117733   3.714   2.454   2.197
 5557WAT     H217734   3.659   2.518   2.072
 5558WAT      O17735   4.460   2.476   1.967
 5558WAT     H117736   4.400   2.548   1.948
 5558WAT     H217737   4.514   2.470   1.889
 5559WAT      O17738   4.320   2.339   2.170
 5559WAT     H117739   4.360   2.371   2.089
 5559WAT     H217740   4.356   2.252   2.181
 5560WAT      O17741   3.224   1.998   2.392
 5560WAT     H117742   3.195   2.055   2.463
 5560WAT     H217743   3.298   1.950   2.428
 5561WAT      O17744   3.243   2.393   1.513
 5561WAT     H117745   3.234   2.487   1.527
 5561WAT     H217746   3.207   2.378   1.425
 5562WAT      O17747   4.023   2.266   2.420
 5562WAT     H117748   4.023   2.222   2.335
 5562WAT     H217749   4.112   2.298   2.431
 5563WAT      O17750   3.608   2.254   2.316
 5563WAT     H117751   3.574   2.302   2.391
 5563WAT     H217752   3.531   2.209   2.280
 5564WAT      O17753   4.029   2.366   1.719
 5564WAT     H117754   4.041   2.362   1.814
 5564WAT     H217755   3.990   2.452   1.703
 5565WAT      O17756   4.425   2.144   2.521
 5565WAT     H117757   4.427   2.189   2.605
 5565WAT     H217758   4.400   2.054   2.542
 5566WAT      O17759   3.930   2.597   1.659
 5566WAT     H117760   3.873   2.552   1.596
 5566WAT     H217761   4.001   2.633   1.605
 5567WAT      O17762   4.768   1.885   3.104
 5567WAT     H117763   4.800   1.812   3.157
 5567WAT     H217764   4.771   1.853   3.014
 5568WAT      O17765   3.339   2.146   2.207
 5568WAT     H117766   3.310   2.110   2.291
 5568WAT     H217767   3.333   2.073   2.146
 5569WAT      O17768   3.684   2.997   1.886
 5569WAT     H117769   3.607   2.943   1.870
 5569WAT     H217770   3.757   2.945   1.852
 5570WAT      O17771   4.760   2.896   2.465
 5570WAT     H117772   4.832   2.946   2.426
 5570WAT     H217773   4.740   2.829   2.401
 5571WAT      O17774   4.306   2.036   1.880
 5571WAT     H117775   4.225   1.986   1.872
 5571WAT     H217776   4.287   2.120   1.838
 5572WAT      O17777   4.578   2.473   1.709
 5572WAT     H117778   4.667   2.504   1.692
 5572WAT     H217779   4.575   2.386   1.670
 5573WAT      O17780   3.689   2.964   2.250
 5573WAT     H117781   3.741   2.883   2.244
 5573WAT     H217782   3.644   2.957   2.334
 5574WAT      O17783   4.177   3.090   1.777
 5574WAT     H117784   4.212   3.165   1.728
 5574WAT     H217785   4.095   3.122   1.813
 5575WAT      O17786   3.437   2.660   2.941
 5575WAT     H117787   3.401   2.727   3.000
 5575WAT     H217788   3.408   2.577   2.978
 5576WAT      O17789   4.805   2.604   1.656
 5576WAT     H117790   4.797   2.647   1.571
 5576WAT     H217791   4.877   2.650   1.699
 5577WAT      O17792   4.908   3.290   1.929
 5577WAT     H117793   4.844   3.224   1.956
 5577WAT     H217794   4.869   3.330   1.851
 5578WAT      O17795   4.074   3.098   2.054
 5578WAT     H117796   4.143   3.153   2.092
 5578WAT     H217797   3.996   3.153   2.058
 5579WAT      O17798   3.288   2.660   1.603
 5579WAT     H117799   3.375   2.688   1.632
 5579WAT     H217800   3.239   2.741   1.592
 5580WAT      O17801   4.005   2.799   2.016
 5580WAT     H117802   4.050   2.880   2.038
 5580WAT     H217803   3.970   2.767   2.099
 5581WAT      O17804   3.595   1.833   2.063
 5581WAT     H117805   3.582   1.832   2.158
 5581WAT     H217806   3.512   1.867   2.028
 5582WAT      O17807   4.747   3.179   1.583
 5582WAT     H117808   4.724   3.107   1.642
 5582WAT     H217809   4.708   3.154   1.499
 5583WAT      O17810   3.325   3.581   1.660
 5583WAT     H117811   3.361   3.641   1.595
 5583WAT     H217812   3.311   3.636   1.737
 5584WAT      O17813   3.295   2.009   3.009
 5584WAT     H117814   3.223   2.029   3.069
 5584WAT     H217815   3.337   1.932   3.046
 5585WAT      O17816   4.705   2.970   1.749
 5585WAT     H117817   4.676   3.017   1.828
 5585WAT     H217818   4.785   2.924   1.776
 5586WAT      O17819   3.927   3.320   1.742
 5586WAT     H117820   3.926   3.393   1.680
 5586WAT     H217821   3.835   3.295   1.751
 5587WAT      O17822   3.487   2.842   1.816
 5587WAT     H117823   3.426   2.916   1.817
 5587WAT     H217824   3.534   2.851   1.734
 5588WAT      O17825   4.781   2.154   1.865
 5588WAT     H117826   4.718   2.164   1.793
 5588WAT     H217827   4.731   2.176   1.944
 5589WAT      O17828   4.225   3.326   1.608
 5589WAT     H117829   4.235   3.306   1.515
 5589WAT     H217830   4.135   3.301   1.629
 5590WAT      O17831   3.978   2.382   2.006
 5590WAT     H117832   3.907   2.429   2.050
 5590WAT     H217833   4.006   2.316   2.070
 5591WAT      O17834   4.381   2.054   2.150
 5591WAT     H117835   4.368   2.056   2.055
 5591WAT     H217836   4.476   2.059   2.162
 5592WAT      O17837   4.090   3.578   2.078
 5592WAT     H117838   4.115   3.574   1.985
 5592WAT     H217839   3.995   3.565   2.077
 5593WAT      O17840   3.798   2.213   1.744
 5593WAT     H117841   3.883   2.256   1.737
 5593WAT     H217842   3.761   2.244   1.827
 5594WAT      O17843   4.690   2.670   2.235
 5594WAT     H117844   4.596   2.671   2.253
 5594WAT     H217845   4.721   2.591   2.280
 5595WAT      O17846   3.688   2.838   1.591
 5595WAT     H117847   3.764   2.827   1.647
 5595WAT     H217848   3.696   2.768   1.526
 5596WAT      O17849   3.557   2.581   1.659
 5596WAT     H117850   3.565   2.486   1.671
 5596WAT     H217851   3.647   2.614   1.670
 5597WAT      O17852   3.637   3.596   2.370
 5597WAT     H117853   3.711   3.541   2.397
 5597WAT     H217854   3.676   3.683   2.356
 5598WAT      O17855   3.326   3.203   1.957
 5598WAT     H117856   3.233   3.227   1.956
 5598WAT     H217857   3.372   3.286   1.945
 5599WAT      O17858   3.948   3.513   1.552
 5599WAT     H117859   4.028   3.542   1.507
 5599WAT     H217860   3.897   3.470   1.484
 5600WAT      O17861   4.565   3.498   3.145
 5600WAT     H117862   4.660   3.490   3.140
 5600WAT     H217863   4.550   3.565   3.212
 5601WAT      O17864   4.854   3.436   1.694
 5601WAT     H117865   4.825   3.395   1.613
 5601WAT     H217866   4.834   3.529   1.682
 5602WAT      O17867   4.000   3.035   1.538
 5602WAT     H117868   3.990   2.974   1.611
 5602WAT     H217869   3.984   2.983   1.460
 5603WAT      O17870   4.324   2.942   1.599
 5603WAT     H117871   4.269   2.986   1.663
 5603WAT     H217872   4.386   2.891   1.651
 5604WAT      O17873   3.891   2.838   1.789
 5604WAT     H117874   3.933   2.821   1.873
 5604WAT     H217875   3.904   2.757   1.739
 5605WAT      O17876   4.142   2.740   1.513
 5605WAT     H117877   4.194   2.668   1.477
 5605WAT     H217878   4.207   2.804   1.543
 5606WAT      O17879   3.781   2.445   1.483
 5606WAT     H117880   3.761   2.359   1.519
 5606WAT     H217881   3.764   2.436   1.389
 5607WAT      O17882   4.529   1.926   1.736
 5607WAT     H117883   4.557   1.842   1.772
 5607WAT     H217884   4.451   1.949   1.787
 5608WAT      O17885   3.660   2.155   1.482
 5608WAT     H117886   3.691   2.156   1.391
 5608WAT     H217887   3.734   2.120   1.532
 5609WAT      O17888   3.982   2.049   1.580
 5609WAT     H117889   3.948   1.982   1.523
 5609WAT     H217890   4.002   2.003   1.662
 5610WAT      O17891   4.199   3.548   1.742
 5610WAT     H117892   4.288   3.582   1.745
 5610WAT     H217893   4.202   3.476   1.680
 5611WAT      O17894   3.563   3.085   1.565
 5611WAT     H117895   3.607   3.140   1.631
 5611WAT     H217896   3.611   3.003   1.566
 5612WAT      O17897   3.284   3.364   2.310
 5612WAT     H117898   3.317   3.277   2.287
 5612WAT     H217899   3.327   3.385   2.393
 5613WAT      O17900   3.744   3.197   2.076
 5613WAT     H117901   3.714   3.185   2.166
 5613WAT     H217902   3.733   3.111   2.036
 5614WAT      O17903   3.333   3.451   2.584
 5614WAT     H117904   3.289   3.469   2.667
 5614WAT     H217905   3.390   3.527   2.570
 5615WAT      O17906   4.897   3.401   3.013
 5615WAT     H117907   4.837   3.407   2.939
 5615WAT     H217908   4.910   3.307   3.026
 5616WAT      O17909   5.021   3.175   1.547
 5616WAT     H117910   4.938   3.182   1.594
 5616WAT     H217911   5.038   3.264   1.516
 5617WAT      O17912   4.966   2.850   1.797
 5617WAT     H117913   5.043   2.907   1.808
 5617WAT     H217914   4.968   2.793   1.874
 5618WAT      O17915   3.316   2.702   2.220
 5618WAT     H117916   3.251   2.675   2.156
 5618WAT     H217917   3.400   2.691   2.175
 5619WAT      O17918   4.972   2.879   1.513
 5619WAT     H117919   4.999   2.970   1.500
 5619WAT     H217920   4.953   2.873   1.606
 5620WAT      O17921   4.611   2.182   1.642
 5620WAT     H117922   4.653   2.163   1.558
 5620WAT     H217923   4.581   2.096   1.673
 5621WAT      O17924   4.961   2.673   2.012
 5621WAT     H117925   4.924   2.596   1.969
 5621WAT     H217926   4.888   2.711   2.061
 5622WAT      O17927   3.420   2.741   2.674
 5622WAT     H117928   3.457   2.732   2.762
 5622WAT     H217929   3.363   2.664   2.664
 5623WAT      O17930   3.238   2.423   1.814
 5623WAT     H117931   3.147   2.449   1.797
 5623WAT     H217932   3.286   2.450   1.736
 5624WAT      O17933   4.889   2.495   2.342
 5624WAT     H117934   4.941   2.446   2.279
 5624WAT     H217935   4.947   2.509   2.417
 5625WAT      O17936   3.492   2.329   1.605
 5625WAT     H117937   3.563   2.287   1.557
 5625WAT     H217938   3.420   2.336   1.542
 5626WAT      O17939   3.457   1.934   1.509
 5626WAT     H117940   3.529   1.988   1.541
 5626WAT     H217941   3.484   1.907   1.422
 5627WAT      O17942   4.838   2.421   1.936
 5627WAT     H117943   4.887   2.398   2.015
 5627WAT     H217944   4.818   2.337   1.894
 5628WAT      O17945   3.426   1.859   2.500
 5628WAT     H117946   3.490   1.804   2.456
 5628WAT     H217947   3.468   1.885   2.582
 5629WAT      O17948   4.981   2.285   2.189
 5629WAT     H117949   4.970   2.269   2.283
 5629WAT     H217950   5.057   2.232   2.165
 5630WAT      O17951   4.815   1.879   2.835
 5630WAT     H117952   4.879   1.940   2.872
 5630WAT     H217953   4.830   1.882   2.741
 5631WAT      O17954   5.069   2.068   1.514
 5631WAT     H117955   5.162   2.055   1.493
 5631WAT     H217956   5.067   2.076   1.609
 5632WAT      O17957   5.077   2.145   1.776
 5632WAT     H117958   4.997   2.138   1.829
 5632WAT     H217959   5.097   2.238   1.775
 5633WAT      O17960   4.771   3.549   2.175
 5633WAT     H117961   4.831   3.517   2.108
 5633WAT     H217962   4.797   3.502   2.255
 5634WAT      O17963   3.401   1.875   2.774
 5634WAT     H117964   3.366   1.920   2.850
 5634WAT     H217965   3.368   1.785   2.782
 5635WAT      O17966   4.490   1.816   2.723
 5635WAT     H117967   4.403   1.849   2.702
 5635WAT     H217968   4.479   1.769   2.805
 5636WAT      O17969   4.826   3.614   2.558
 5636WAT     H117970   4.780   3.689   2.521
 5636WAT     H217971   4.763   3.542   2.553
 5637WAT      O17972   4.720   1.978   2.421
 5637WAT     H117973   4.764   1.972   2.336
 5637WAT     H217974   4.693   2.069   2.428
 5638WAT      O17975   4.906   1.941   2.222
 5638WAT     H117976   4.900   1.847   2.207
 5638WAT     H217977   4.984   1.952   2.277
 5639WAT      O17978   3.337   3.555   2.118
 5639WAT     H117979   3.320   3.492   2.188
 5639WAT     H217980   3.250   3.576   2.083
 5640WAT      O17981   3.399   1.938   1.869
 5640WAT     H117982   3.475   1.949   1.811
 5640WAT     H217983   3.353   2.022   1.864
 5641WAT      O17984   4.053   2.150   2.168
 5641WAT     H117985   3.972   2.112   2.134
 5641WAT     H217986   4.104   2.074   2.198
 5642WAT      O17987   4.504   1.816   2.292
 5642WAT     H117988   4.564   1.873   2.339
 5642WAT     H217989   4.430   1.872   2.269
 5643WAT      O17990   4.818   1.856   1.819
 5643WAT     H117991   4.837   1.946   1.846
 5643WAT     H217992   4.739   1.833   1.868
 5644WAT      O17993   3.498   3.424   1.863
 5644WAT     H117994   3.445   3.462   1.793
 5644WAT     H217995   3.490   3.487   1.935
 5645WAT      O17996   3.636   1.991   1.723
 5645WAT     H117997   3.689   1.912   1.710
 5645WAT     H217998   3.700   2.059   1.746
 5646WAT      O17999   3.856   1.965   2.028
 5646WAT     H118000   3.793   1.894   2.045
 5646WAT     H218001   3.802   2.041   2.007
 5647WAT      O18002   4.973   3.580   1.995
 5647WAT     H118003   4.991   3.512   1.931
 5647WAT     H218004   4.903   3.633   1.956
 5648WAT      O18005   3.757   3.619   1.750
 5648WAT     H118006   3.831   3.591   1.696
 5648WAT     H218007   3.783   3.595   1.839
 5649WAT      O18008   3.674   3.231   1.751
 5649WAT     H118009   3.611   3.278   1.806
 5649WAT     H218010   3.685   3.146   1.794
 5650WAT      O18011   4.529   1.834   3.330
 5650WAT     H118012   4.517   1.866   3.419
 5650WAT     H218013   4.610   1.874   3.300
 5651WAT      O18014   4.807   3.549   3.278
 5651WAT     H118015   4.886   3.499   3.257
 5651WAT     H218016   4.836   3.616   3.338
 5652WAT      O18017   4.419   2.636   0.366
 5652WAT     H118018   4.411   2.544   0.339
 5652WAT     H218019   4.378   2.685   0.295
 5653WAT      O18020   4.232   2.814   0.554
 5653WAT     H118021   4.155   2.766   0.583
 5653WAT     H218022   4.297   2.746   0.537
 5654WAT      O18023   3.634   2.845   0.642
 5654WAT     H118024   3.551   2.819   0.682
 5654WAT     H218025   3.695   2.852   0.715
 5655WAT      O18026   4.634   3.254   0.432
 5655WAT     H118027   4.588   3.177   0.465
 5655WAT     H218028   4.716   3.257   0.482
 5656WAT      O18029   3.632   3.248   0.661
 5656WAT     H118030   3.662   3.159   0.643
 5656WAT     H218031   3.706   3.304   0.639
 5657WAT      O18032   3.271   2.601   0.609
 5657WAT     H118033   3.328   2.524   0.609
 5657WAT     H218034   3.271   2.631   0.518
 5658WAT      O18035   4.257   3.483   0.394
 5658WAT     H118036   4.195   3.528   0.337
 5658WAT     H218037   4.343   3.498   0.354
 5659WAT      O18038   4.176   3.081   0.555
 5659WAT     H118039   4.169   2.987   0.539
 5659WAT     H218040   4.253   3.090   0.612
 5660WAT      O18041   3.395   2.142   0.787
 5660WAT     H118042   3.378   2.052   0.815
 5660WAT     H218043   3.355   2.196   0.855
 5661WAT      O18044   4.279   2.362   0.577
 5661WAT     H118045   4.317   2.275   0.566
 5661WAT     H218046   4.270   2.395   0.488
 5662WAT      O18047   4.658   2.111   0.271
 5662WAT     H118048   4.740   2.062   0.275
 5662WAT     H218049   4.661   2.170   0.346
 5663WAT      O18050   3.457   2.391   0.648
 5663WAT     H118051   3.525   2.418   0.710
 5663WAT     H218052   3.426   2.307   0.681
 5664WAT      O18053   3.877   2.496   0.557
 5664WAT     H118054   3.927   2.546   0.621
 5664WAT     H218055   3.930   2.418   0.539
 5665WAT      O18056   5.087   2.313   0.927
 5665WAT     H118057   5.016   2.352   0.875
 5665WAT     H218058   5.113   2.383   0.987
 5666WAT      O18059   3.705   1.960   0.983
 5666WAT     H118060   3.705   2.012   0.903
 5666WAT     H218061   3.622   1.912   0.981
 5667WAT      O18062   3.830   2.924   0.801
 5667WAT     H118063   3.797   2.987   0.865
 5667WAT     H218064   3.848   2.977   0.723
 5668WAT      O18065   4.681   2.305   0.548
 5668WAT     H118066   4.611   2.334   0.606
 5668WAT     H218067   4.717   2.386   0.512
 5669WAT      O18068   3.673   2.131   0.784
 5669WAT     H118069   3.707   2.215   0.755
 5669WAT     H218070   3.579   2.146   0.796
 5670WAT      O18071   3.751   3.121   0.983
 5670WAT     H118072   3.813   3.188   0.954
 5670WAT     H218073   3.665   3.162   0.974
 5671WAT      O18074   4.843   3.267   0.774
 5671WAT     H118075   4.775   3.334   0.773
 5671WAT     H218076   4.897   3.287   0.698
 5672WAT      O18077   4.988   2.250   0.587
 5672WAT     H118078   4.893   2.253   0.600
 5672WAT     H218079   5.021   2.331   0.625
 5673WAT      O18080   4.041   1.880   0.417
 5673WAT     H118081   4.072   1.824   0.345
 5673WAT     H218082   3.948   1.893   0.398
 5674WAT      O18083   4.597   3.452   0.646
 5674WAT     H118084   4.598   3.411   0.559
 5674WAT     H218085   4.541   3.529   0.635
 5675WAT      O18086   4.536   2.942   0.778
 5675WAT     H118087   4.578   2.920   0.695
 5675WAT     H218088   4.609   2.968   0.836
 5676WAT      O18089   4.931   2.782   0.788
 5676WAT     H118090   4.848   2.789   0.740
 5676WAT     H218091   4.991   2.840   0.741
 5677WAT      O18092   4.627   2.460   0.882
 5677WAT     H118093   4.586   2.543   0.908
 5677WAT     H218094   4.554   2.402   0.863
 5678WAT      O18095   3.841   2.739   0.368
 5678WAT     H118096   3.800   2.668   0.319
 5678WAT     H218097   3.849   2.705   0.457
 5679WAT      O18098   3.888   3.108   0.585
 5679WAT     H118099   3.858   3.047   0.517
 5679WAT     H218100   3.983   3.111   0.574
 5680WAT      O18101   3.712   2.416   0.746
 5680WAT     H118102   3.767   2.427   0.669
 5680WAT     H218103   3.763   2.454   0.818
 5681WAT      O18104   4.696   3.465   0.951
 5681WAT     H118105   4.649   3.546   0.932
 5681WAT     H218106   4.628   3.400   0.966
 5682WAT      O18107   3.797   3.082   1.250
 5682WAT     H118108   3.707   3.104   1.275
 5682WAT     H218109   3.799   3.094   1.155
 5683WAT      O18110   3.679   2.769   1.107
 5683WAT     H118111   3.666   2.856   1.144
 5683WAT     H218112   3.591   2.734   1.093
 5684WAT      O18113   4.312   3.260   0.238
 5684WAT     H118114   4.356   3.335   0.197
 5684WAT     H218115   4.306   3.285   0.330
 5685WAT      O18116   3.859   3.363   1.328
 5685WAT     H118117   3.856   3.403   1.242
 5685WAT     H218118   3.843   3.270   1.312
 5686WAT      O18119   3.275   2.946   0.699
 5686WAT     H118120   3.282   2.959   0.605
 5686WAT     H218121   3.336   2.875   0.718
 5687WAT      O18122   3.399   3.116   0.340
 5687WAT     H118123   3.358   3.130   0.255
 5687WAT     H218124   3.488   3.087   0.320
 5688WAT      O18125   4.995   3.160   1.174
 5688WAT     H118126   5.007   3.136   1.082
 5688WAT     H218127   4.999   3.077   1.221
 5689WAT      O18128   4.381   3.531   1.031
 5689WAT     H118129   4.432   3.522   1.111
 5689WAT     H218130   4.297   3.565   1.060
 5690WAT      O18131   4.505   3.473   0.237
 5690WAT     H118132   4.551   3.395   0.269
 5690WAT     H218133   4.539   3.544   0.292
 5691WAT      O18134   4.980   2.366   1.270
 5691WAT     H118135   4.918   2.416   1.218
 5691WAT     H218136   4.948   2.276   1.265
 5692WAT      O18137   3.280   3.050   0.953
 5692WAT     H118138   3.297   3.003   0.871
 5692WAT     H218139   3.327   2.999   1.020
 5693WAT      O18140   3.757   1.963   0.457
 5693WAT     H118141   3.713   2.041   0.424
 5693WAT     H218142   3.813   1.995   0.527
 5694WAT      O18143   4.186   2.250   1.017
 5694WAT     H118144   4.140   2.270   1.098
 5694WAT     H218145   4.146   2.168   0.987
 5695WAT      O18146   4.686   2.372   1.130
 5695WAT     H118147   4.601   2.342   1.162
 5695WAT     H218148   4.670   2.396   1.039
 5696WAT      O18149   4.396   2.522   1.340
 5696WAT     H118150   4.428   2.438   1.306
 5696WAT     H218151   4.474   2.574   1.355
 5697WAT      O18152   3.961   2.017   0.643
 5697WAT     H118153   3.991   2.108   0.634
 5697WAT     H218154   4.016   1.968   0.581
 5698WAT      O18155   3.737   2.475   0.229
 5698WAT     H118156   3.714   2.454   0.320
 5698WAT     H218157   3.659   2.518   0.195
 5699WAT      O18158   3.981   2.565   1.296
 5699WAT     H118159   3.971   2.471   1.281
 5699WAT     H218160   4.065   2.587   1.257
 5700WAT      O18161   4.320   2.339   0.292
 5700WAT     H118162   4.360   2.371   0.211
 5700WAT     H218163   4.356   2.252   0.304
 5701WAT      O18164   3.494   2.206   1.111
 5701WAT     H118165   3.454   2.291   1.132
 5701WAT     H218166   3.425   2.142   1.130
 5702WAT      O18167   4.151   2.215   1.418
 5702WAT     H118168   4.082   2.195   1.482
 5702WAT     H218169   4.225   2.243   1.472
 5703WAT      O18170   3.224   1.998   0.515
 5703WAT     H118171   3.195   2.055   0.586
 5703WAT     H218172   3.298   1.950   0.551
 5704WAT      O18173   4.379   2.599   0.702
 5704WAT     H118174   4.306   2.649   0.737
 5704WAT     H218175   4.339   2.517   0.672
 5705WAT      O18176   4.023   2.266   0.542
 5705WAT     H118177   4.023   2.222   0.457
 5705WAT     H218178   4.112   2.298   0.553
 5706WAT      O18179   3.608   2.254   0.438
 5706WAT     H118180   3.574   2.302   0.514
 5706WAT     H218181   3.531   2.209   0.402
 5707WAT      O18182   4.425   2.144   0.643
 5707WAT     H118183   4.427   2.189   0.728
 5707WAT     H218184   4.400   2.054   0.664
 5708WAT      O18185   4.768   1.885   1.227
 5708WAT     H118186   4.800   1.812   1.280
 5708WAT     H218187   4.771   1.853   1.137
 5709WAT      O18188   3.438   2.987   1.169
 5709WAT     H118189   3.399   2.923   1.229
 5709WAT     H218190   3.469   3.058   1.226
 5710WAT      O18191   4.053   2.672   0.717
 5710WAT     H118192   4.089   2.625   0.792
 5710WAT     H218193   4.034   2.759   0.751
 5711WAT      O18194   3.339   2.146   0.330
 5711WAT     H118195   3.310   2.110   0.414
 5711WAT     H218196   3.333   2.073   0.269
 5712WAT      O18197   3.832   2.576   0.949
 5712WAT     H118198   3.801   2.664   0.971
 5712WAT     H218199   3.927   2.582   0.953
 5713WAT      O18200   4.760   2.896   0.588
 5713WAT     H118201   4.832   2.946   0.549
 5713WAT     H218202   4.740   2.829   0.523
 5714WAT      O18203   4.298   2.904   1.177
 5714WAT     H118204   4.292   2.811   1.151
 5714WAT     H218205   4.236   2.913   1.248
 5715WAT      O18206   3.689   2.964   0.372
 5715WAT     H118207   3.741   2.883   0.367
 5715WAT     H218208   3.644   2.957   0.457
 5716WAT      O18209   3.437   2.660   1.064
 5716WAT     H118210   3.401   2.727   1.122
 5716WAT     H218211   3.408   2.577   1.101
 5717WAT      O18212   3.757   2.706   1.352
 5717WAT     H118213   3.727   2.721   1.262
 5717WAT     H218214   3.834   2.650   1.343
 5718WAT      O18215   4.292   3.186   1.152
 5718WAT     H118216   4.293   3.093   1.130
 5718WAT     H218217   4.221   3.194   1.215
 5719WAT      O18218   4.913   2.850   1.086
 5719WAT     H118219   4.840   2.909   1.067
 5719WAT     H218220   4.966   2.849   1.006
 5720WAT      O18221   4.466   3.022   0.436
 5720WAT     H118222   4.501   2.963   0.370
 5720WAT     H218223   4.377   2.990   0.453
 5721WAT      O18224   4.074   3.098   0.177
 5721WAT     H118225   4.143   3.153   0.215
 5721WAT     H218226   3.996   3.153   0.180
 5722WAT      O18227   4.235   3.350   0.861
 5722WAT     H118228   4.299   3.370   0.929
 5722WAT     H218229   4.271   3.274   0.816
 5723WAT      O18230   4.362   3.150   0.733
 5723WAT     H118231   4.427   3.080   0.744
 5723WAT     H218232   4.415   3.228   0.715
 5724WAT      O18233   4.540   3.230   1.053
 5724WAT     H118234   4.573   3.289   1.121
 5724WAT     H218235   4.448   3.217   1.076
 5725WAT      O18236   3.295   2.009   1.131
 5725WAT     H118237   3.223   2.029   1.192
 5725WAT     H218238   3.337   1.932   1.169
 5726WAT      O18239   3.323   3.408   1.230
 5726WAT     H118240   3.334   3.314   1.216
 5726WAT     H218241   3.258   3.434   1.165
 5727WAT      O18242   4.123   3.235   1.370
 5727WAT     H118243   4.091   3.163   1.424
 5727WAT     H218244   4.055   3.303   1.377
 5728WAT      O18245   4.444   2.258   0.906
 5728WAT     H118246   4.481   2.176   0.939
 5728WAT     H218247   4.358   2.264   0.948
 5729WAT      O18248   4.140   2.524   0.929
 5729WAT     H118249   4.190   2.571   0.995
 5729WAT     H218250   4.154   2.431   0.949
 5730WAT      O18251   4.381   2.054   0.273
 5730WAT     H118252   4.368   2.056   0.178
 5730WAT     H218253   4.476   2.059   0.285
 5731WAT      O18254   4.861   2.145   1.013
 5731WAT     H118255   4.811   2.219   1.047
 5731WAT     H218256   4.942   2.184   0.981
 5732WAT      O18257   4.690   2.670   0.358
 5732WAT     H118258   4.596   2.671   0.375
 5732WAT     H218259   4.721   2.591   0.402
 5733WAT      O18260   4.890   3.387   0.525
 5733WAT     H118261   4.903   3.469   0.572
 5733WAT     H218262   4.977   3.366   0.490
 5734WAT      O18263   3.637   3.596   0.492
 5734WAT     H118264   3.711   3.541   0.519
 5734WAT     H218265   3.676   3.683   0.478
 5735WAT      O18266   3.538   3.515   1.411
 5735WAT     H118267   3.618   3.547   1.453
 5735WAT     H218268   3.487   3.479   1.483
 5736WAT      O18269   4.422   3.125   1.406
 5736WAT     H118270   4.361   3.128   1.332
 5736WAT     H218271   4.391   3.052   1.460
 5737WAT      O18272   4.565   3.498   1.267
 5737WAT     H118273   4.660   3.490   1.262
 5737WAT     H218274   4.550   3.565   1.334
 5738WAT      O18275   3.310   2.763   1.306
 5738WAT     H118276   3.360   2.705   1.363
 5738WAT     H218277   3.236   2.792   1.359
 5739WAT      O18278   4.015   2.904   1.259
 5739WAT     H118279   3.939   2.961   1.250
 5739WAT     H218280   4.034   2.875   1.170
 5740WAT      O18281   4.730   3.077   1.315
 5740WAT     H118282   4.804   3.111   1.264
 5740WAT     H218283   4.653   3.094   1.259
 5741WAT      O18284   3.513   2.578   1.395
 5741WAT     H118285   3.517   2.548   1.486
 5741WAT     H218286   3.599   2.618   1.379
 5742WAT      O18287   3.707   2.436   1.192
 5742WAT     H118288   3.654   2.386   1.129
 5742WAT     H218289   3.774   2.478   1.138
 5743WAT      O18290   4.597   2.882   1.168
 5743WAT     H118291   4.639   2.898   1.253
 5743WAT     H218292   4.504   2.895   1.185
 5744WAT      O18293   4.644   2.616   1.369
 5744WAT     H118294   4.703   2.541   1.360
 5744WAT     H218295   4.662   2.669   1.291
 5745WAT      O18296   3.756   2.132   1.200
 5745WAT     H118297   3.747   2.070   1.127
 5745WAT     H218298   3.698   2.205   1.177
 5746WAT      O18299   4.033   1.988   0.903
 5746WAT     H118300   3.988   1.990   0.819
 5746WAT     H218301   3.969   1.948   0.963
 5747WAT      O18302   4.073   2.877   0.965
 5747WAT     H118303   4.115   2.962   0.948
 5747WAT     H218304   3.981   2.891   0.942
 5748WAT      O18305   4.307   2.651   1.104
 5748WAT     H118306   4.319   2.591   1.178
 5748WAT     H218307   4.393   2.654   1.062
 5749WAT      O18308   4.541   2.706   0.961
 5749WAT     H118309   4.488   2.758   0.901
 5749WAT     H218310   4.575   2.769   1.024
 5750WAT      O18311   3.858   3.508   1.077
 5750WAT     H118312   3.805   3.580   1.045
 5750WAT     H218313   3.884   3.460   0.998
 5751WAT      O18314   3.984   2.305   1.229
 5751WAT     H118315   4.043   2.274   1.298
 5751WAT     H218316   3.902   2.258   1.245
 5752WAT      O18317   4.466   2.266   1.253
 5752WAT     H118318   4.397   2.200   1.246
 5752WAT     H218319   4.538   2.222   1.297
 5753WAT      O18320   4.144   3.631   1.103
 5753WAT     H118321   4.137   3.722   1.133
 5753WAT     H218322   4.054   3.600   1.100
 5754WAT      O18323   3.284   3.364   0.433
 5754WAT     H118324   3.317   3.277   0.410
 5754WAT     H218325   3.327   3.385   0.516
 5755WAT      O18326   3.333   3.451   0.707
 5755WAT     H118327   3.289   3.469   0.790
 5755WAT     H218328   3.390   3.527   0.693
 5756WAT      O18329   4.897   3.401   1.136
 5756WAT     H118330   4.837   3.407   1.061
 5756WAT     H218331   4.910   3.307   1.149
 5757WAT      O18332   3.316   2.702   0.343
 5757WAT     H118333   3.251   2.675   0.278
 5757WAT     H218334   3.400   2.691   0.298
 5758WAT      O18335   5.067   2.935   0.404
 5758WAT     H118336   5.104   2.857   0.363
 5758WAT     H218337   5.131   3.004   0.386
 5759WAT      O18338   4.765   3.074   0.945
 5759WAT     H118339   4.684   3.117   0.972
 5759WAT     H218340   4.806   3.135   0.884
 5760WAT      O18341   3.420   2.741   0.797
 5760WAT     H118342   3.457   2.732   0.885
 5760WAT     H218343   3.363   2.664   0.787
 5761WAT      O18344   4.900   2.588   1.098
 5761WAT     H118345   4.877   2.565   1.008
 5761WAT     H218346   4.926   2.680   1.093
 5762WAT      O18347   3.375   2.432   1.187
 5762WAT     H118348   3.286   2.428   1.221
 5762WAT     H218349   3.429   2.452   1.264
 5763WAT      O18350   4.744   2.110   1.376
 5763WAT     H118351   4.832   2.111   1.414
 5763WAT     H218352   4.745   2.036   1.315
 5764WAT      O18353   4.889   2.495   0.465
 5764WAT     H118354   4.941   2.446   0.402
 5764WAT     H218355   4.947   2.509   0.539
 5765WAT      O18356   4.907   2.504   0.817
 5765WAT     H118357   4.812   2.500   0.828
 5765WAT     H218358   4.925   2.595   0.793
 5766WAT      O18359   3.426   1.859   0.622
 5766WAT     H118360   3.490   1.804   0.578
 5766WAT     H218361   3.468   1.885   0.704
 5767WAT      O18362   4.981   2.285   0.312
 5767WAT     H118363   4.970   2.269   0.406
 5767WAT     H218364   5.057   2.232   0.288
 5768WAT      O18365   4.815   1.879   0.958
 5768WAT     H118366   4.879   1.940   0.994
 5768WAT     H218367   4.830   1.882   0.863
 5769WAT      O18368   4.771   3.549   0.298
 5769WAT     H118369   4.831   3.517   0.230
 5769WAT     H218370   4.797   3.502   0.377
 5770WAT      O18371   3.401   1.875   0.896
 5770WAT     H118372   3.366   1.920   0.973
 5770WAT     H218373   3.368   1.785   0.905
 5771WAT      O18374   3.562   3.192   1.313
 5771WAT     H118375   3.557   3.155   1.401
 5771WAT     H218376   3.575   3.286   1.327
 5772WAT      O18377   3.932   3.348   0.873
 5772WAT     H118378   3.908   3.374   0.784
 5772WAT     H218379   4.026   3.365   0.879
 5773WAT      O18380   4.152   1.994   1.249
 5773WAT     H118381   4.146   2.053   1.324
 5773WAT     H218382   4.246   1.983   1.234
 5774WAT      O18383   4.416   1.960   1.213
 5774WAT     H118384   4.477   1.991   1.146
 5774WAT     H218385   4.470   1.911   1.274
 5775WAT      O18386   5.058   3.550   0.953
 5775WAT     H118387   5.008   3.589   0.881
 5775WAT     H218388   4.997   3.487   0.993
 5776WAT      O18389   3.468   1.828   1.224
 5776WAT     H118390   3.523   1.809   1.148
 5776WAT     H218391   3.475   1.749   1.277
 5777WAT      O18392   3.546   3.487   1.025
 5777WAT     H118393   3.486   3.473   1.099
 5777WAT     H218394   3.545   3.403   0.978
 5778WAT      O18395   4.490   1.816   0.845
 5778WAT     H118396   4.403   1.849   0.825
 5778WAT     H218397   4.479   1.769   0.928
 5779WAT      O18398   4.581   2.037   0.984
 5779WAT     H118399   4.548   1.955   0.946
 5779WAT     H218400   4.676   2.032   0.971
 5780WAT      O18401   4.826   3.614   0.681
 5780WAT     H118402   4.780   3.689   0.644
 5780WAT     H218403   4.763   3.542   0.675
 5781WAT      O18404   3.509   3.223   0.920
 5781WAT     H118405   3.436   3.161   0.913
 5781WAT     H218406   3.515   3.263   0.833
 5782WAT      O18407   3.869   3.445   0.598
 5782WAT     H118408   3.921   3.384   0.546
 5782WAT     H218409   3.934   3.495   0.648
 5783WAT      O18410   4.143   3.534   0.681
 5783WAT     H118411   4.172   3.508   0.594
 5783WAT     H218412   4.194   3.479   0.740
 5784WAT      O18413   4.265   1.908   0.739
 5784WAT     H118414   4.187   1.955   0.767
 5784WAT     H218415   4.235   1.817   0.728
 5785WAT      O18416   4.720   1.978   0.544
 5785WAT     H118417   4.764   1.972   0.459
 5785WAT     H218418   4.693   2.069   0.551
 5786WAT      O18419   4.906   1.941   0.345
 5786WAT     H118420   4.900   1.847   0.330
 5786WAT     H218421   4.984   1.952   0.399
 5787WAT      O18422   3.337   3.555   0.241
 5787WAT     H118423   3.320   3.492   0.311
 5787WAT     H218424   3.250   3.576   0.206
 5788WAT      O18425   4.053   2.150   0.290
 5788WAT     H118426   3.972   2.112   0.256
 5788WAT     H218427   4.104   2.074   0.321
 5789WAT      O18428   4.504   1.816   0.414
 5789WAT     H118429   4.564   1.873   0.462
 5789WAT     H218430   4.430   1.872   0.392
 5790WAT      O18431   4.150   3.626   1.418
 5790WAT     H118432   4.242   3.602   1.422
 5790WAT     H218433   4.148   3.709   1.370
 5791WAT      O18434   3.868   1.892   1.394
 5791WAT     H118435   3.840   1.943   1.318
 5791WAT     H218436   3.907   1.813   1.358
 5792WAT      O18437   4.529   1.834   1.452
 5792WAT     H118438   4.517   1.866   1.542
 5792WAT     H218439   4.610   1.874   1.422
 5793WAT      O18440   4.807   3.549   1.400
 5793WAT     H118441   4.886   3.499   1.380
 5793WAT     H218442   4.836   3.616   1.461
 5794WAT      O18443   4.419   0.758   5.998
 5794WAT     H118444   4.411   0.667   5.971
 5794WAT     H218445   4.378   0.808   5.928
 5795WAT      O18446   4.232   0.936   6.186
 5795WAT     H118447   4.155   0.888   6.215
 5795WAT     H218448   4.297   0.868   6.169
 5796WAT      O18449   3.634   0.967   6.274
 5796WAT     H118450   3.551   0.942   6.314
 5796WAT     H218451   3.695   0.974   6.348
 5797WAT      O18452   4.634   1.377   6.064
 5797WAT     H118453   4.588   1.300   6.097
 5797WAT     H218454   4.716   1.379   6.115
 5798WAT      O18455   3.632   1.371   6.294
 5798WAT     H118456   3.662   1.282   6.276
 5798WAT     H218457   3.706   1.426   6.271
 5799WAT      O18458   3.475   0.463   5.652
 5799WAT     H118459   3.386   0.498   5.642
 5799WAT     H218460   3.503   0.443   5.563
 5800WAT      O18461   3.271   0.723   6.241
 5800WAT     H118462   3.328   0.647   6.241
 5800WAT     H218463   3.271   0.753   6.150
 5801WAT      O18464   4.257   1.605   6.026
 5801WAT     H118465   4.195   1.651   5.969
 5801WAT     H218466   4.343   1.621   5.986
 5802WAT      O18467   4.176   1.204   6.187
 5802WAT     H118468   4.169   1.110   6.171
 5802WAT     H218469   4.253   1.213   6.244
 5803WAT      O18470   3.395   0.264   6.420
 5803WAT     H118471   3.378   0.175   6.448
 5803WAT     H218472   3.355   0.319   6.487
 5804WAT      O18473   4.279   0.484   6.210
 5804WAT     H118474   4.317   0.397   6.198
 5804WAT     H218475   4.270   0.518   6.121
 5805WAT      O18476   3.693   0.322   5.756
 5805WAT     H118477   3.703   0.412   5.787
 5805WAT     H218478   3.601   0.317   5.727
 5806WAT      O18479   4.658   0.234   5.903
 5806WAT     H118480   4.740   0.185   5.907
 5806WAT     H218481   4.661   0.293   5.978
 5807WAT      O18482   3.457   0.514   6.280
 5807WAT     H118483   3.525   0.540   6.342
 5807WAT     H218484   3.426   0.430   6.314
 5808WAT      O18485   3.877   0.619   6.189
 5808WAT     H118486   3.927   0.668   6.253
 5808WAT     H218487   3.930   0.541   6.171
 5809WAT      O18488   4.344   1.094   5.766
 5809WAT     H118489   4.282   1.140   5.709
 5809WAT     H218490   4.395   1.163   5.807
 5810WAT      O18491   3.830   1.046   6.433
 5810WAT     H118492   3.797   1.109   6.498
 5810WAT     H218493   3.848   1.099   6.355
 5811WAT      O18494   4.681   0.428   6.180
 5811WAT     H118495   4.611   0.457   6.238
 5811WAT     H218496   4.717   0.509   6.144
 5812WAT      O18497   3.673   0.254   6.416
 5812WAT     H118498   3.707   0.338   6.387
 5812WAT     H218499   3.579   0.268   6.428
 5813WAT      O18500   3.280   1.162   5.503
 5813WAT     H118501   3.243   1.211   5.430
 5813WAT     H218502   3.306   1.230   5.566
 5814WAT      O18503   4.843   1.390   6.406
 5814WAT     H118504   4.775   1.457   6.406
 5814WAT     H218505   4.897   1.410   6.330
 5815WAT      O18506   4.988   0.372   6.219
 5815WAT     H118507   4.893   0.376   6.232
 5815WAT     H218508   5.021   0.454   6.258
 5816WAT      O18509   4.597   1.574   6.278
 5816WAT     H118510   4.598   1.534   6.191
 5816WAT     H218511   4.541   1.652   6.268
 5817WAT      O18512   4.726   1.246   5.787
 5817WAT     H118513   4.715   1.152   5.799
 5817WAT     H218514   4.726   1.282   5.875
 5818WAT      O18515   4.536   1.064   6.411
 5818WAT     H118516   4.578   1.043   6.327
 5818WAT     H218517   4.609   1.090   6.468
 5819WAT      O18518   4.280   0.809   5.722
 5819WAT     H118519   4.187   0.802   5.745
 5819WAT     H218520   4.295   0.903   5.711
 5820WAT      O18521   4.279   0.436   5.422
 5820WAT     H118522   4.185   0.452   5.431
 5820WAT     H218523   4.311   0.508   5.367
 5821WAT      O18524   4.931   0.904   6.420
 5821WAT     H118525   4.848   0.911   6.372
 5821WAT     H218526   4.991   0.963   6.373
 5822WAT      O18527   4.683   0.965   5.773
 5822WAT     H118528   4.621   0.931   5.708
 5822WAT     H218529   4.681   0.901   5.844
 5823WAT      O18530   3.841   0.862   6.001
 5823WAT     H118531   3.800   0.790   5.951
 5823WAT     H218532   3.849   0.827   6.090
 5824WAT      O18533   3.888   1.230   6.217
 5824WAT     H118534   3.858   1.170   6.149
 5824WAT     H218535   3.983   1.234   6.206
 5825WAT      O18536   3.712   0.539   6.379
 5825WAT     H118537   3.767   0.550   6.301
 5825WAT     H218538   3.763   0.576   6.450
 5826WAT      O18539   4.501   0.889   5.474
 5826WAT     H118540   4.545   0.805   5.459
 5826WAT     H218541   4.572   0.952   5.482
 5827WAT      O18542   4.312   1.383   5.870
 5827WAT     H118543   4.356   1.457   5.829
 5827WAT     H218544   4.306   1.407   5.963
 5828WAT      O18545   3.511   0.751   5.751
 5828WAT     H118546   3.499   0.824   5.690
 5828WAT     H218547   3.480   0.674   5.703
 5829WAT      O18548   3.275   1.068   6.331
 5829WAT     H118549   3.282   1.082   6.237
 5829WAT     H218550   3.336   0.997   6.351
 5830WAT      O18551   3.399   1.238   5.972
 5830WAT     H118552   3.358   1.252   5.887
 5830WAT     H218553   3.488   1.210   5.952
 5831WAT      O18554   4.578   1.682   5.606
 5831WAT     H118555   4.562   1.653   5.696
 5831WAT     H218556   4.562   1.604   5.552
 5832WAT      O18557   3.826   1.660   5.784
 5832WAT     H118558   3.809   1.568   5.762
 5832WAT     H218559   3.741   1.696   5.808
 5833WAT      O18560   4.549   1.433   5.462
 5833WAT     H118561   4.479   1.432   5.396
 5833WAT     H218562   4.623   1.390   5.419
 5834WAT      O18563   4.505   1.595   5.869
 5834WAT     H118564   4.551   1.517   5.901
 5834WAT     H218565   4.539   1.666   5.924
 5835WAT      O18566   3.737   0.598   5.862
 5835WAT     H118567   3.714   0.576   5.952
 5835WAT     H218568   3.659   0.641   5.827
 5836WAT      O18569   4.460   0.598   5.722
 5836WAT     H118570   4.400   0.671   5.703
 5836WAT     H218571   4.514   0.592   5.643
 5837WAT      O18572   4.320   0.462   5.925
 5837WAT     H118573   4.360   0.494   5.843
 5837WAT     H218574   4.356   0.374   5.936
 5838WAT      O18575   3.243   0.515   5.268
 5838WAT     H118576   3.234   0.610   5.282
 5838WAT     H218577   3.207   0.501   5.180
 5839WAT      O18578   4.379   0.721   6.334
 5839WAT     H118579   4.306   0.772   6.369
 5839WAT     H218580   4.339   0.639   6.304
 5840WAT      O18581   4.023   0.389   6.175
 5840WAT     H118582   4.023   0.345   6.090
 5840WAT     H218583   4.112   0.421   6.185
 5841WAT      O18584   3.608   0.377   6.071
 5841WAT     H118585   3.574   0.425   6.146
 5841WAT     H218586   3.531   0.332   6.035
 5842WAT      O18587   4.029   0.489   5.474
 5842WAT     H118588   4.041   0.485   5.569
 5842WAT     H218589   3.990   0.575   5.458
 5843WAT      O18590   4.425   0.266   6.275
 5843WAT     H118591   4.427   0.311   6.360
 5843WAT     H218592   4.400   0.176   6.297
 5844WAT      O18593   3.930   0.720   5.414
 5844WAT     H118594   3.873   0.675   5.351
 5844WAT     H218595   4.001   0.756   5.360
 5845WAT      O18596   4.053   0.795   6.349
 5845WAT     H118597   4.089   0.747   6.424
 5845WAT     H218598   4.034   0.882   6.383
 5846WAT      O18599   3.339   0.269   5.962
 5846WAT     H118600   3.310   0.233   6.046
 5846WAT     H218601   3.333   0.196   5.901
 5847WAT      O18602   3.684   1.119   5.641
 5847WAT     H118603   3.607   1.065   5.625
 5847WAT     H218604   3.757   1.067   5.607
 5848WAT      O18605   4.760   1.019   6.220
 5848WAT     H118606   4.832   1.069   6.181
 5848WAT     H218607   4.740   0.951   6.156
 5849WAT      O18608   4.578   0.596   5.464
 5849WAT     H118609   4.667   0.627   5.447
 5849WAT     H218610   4.575   0.508   5.425
 5850WAT      O18611   3.689   1.086   6.005
 5850WAT     H118612   3.741   1.006   5.999
 5850WAT     H218613   3.644   1.080   6.089
 5851WAT      O18614   4.177   1.213   5.532
 5851WAT     H118615   4.212   1.287   5.482
 5851WAT     H218616   4.095   1.244   5.568
 5852WAT      O18617   4.805   0.727   5.411
 5852WAT     H118618   4.797   0.770   5.326
 5852WAT     H218619   4.877   0.773   5.454
 5853WAT      O18620   4.908   1.412   5.684
 5853WAT     H118621   4.844   1.347   5.711
 5853WAT     H218622   4.869   1.453   5.606
 5854WAT      O18623   4.466   1.145   6.068
 5854WAT     H118624   4.501   1.085   6.002
 5854WAT     H218625   4.377   1.112   6.086
 5855WAT      O18626   4.074   1.221   5.809
 5855WAT     H118627   4.143   1.276   5.847
 5855WAT     H218628   3.996   1.275   5.813
 5856WAT      O18629   3.288   0.783   5.358
 5856WAT     H118630   3.375   0.811   5.387
 5856WAT     H218631   3.239   0.864   5.347
 5857WAT      O18632   4.005   0.921   5.770
 5857WAT     H118633   4.050   1.002   5.793
 5857WAT     H218634   3.970   0.890   5.854
 5858WAT      O18635   4.362   1.273   6.365
 5858WAT     H118636   4.427   1.203   6.376
 5858WAT     H218637   4.415   1.351   6.347
 5859WAT      O18638   4.747   1.301   5.337
 5859WAT     H118639   4.724   1.230   5.397
 5859WAT     H218640   4.708   1.276   5.254
 5860WAT      O18641   3.325   1.704   5.415
 5860WAT     H118642   3.361   1.764   5.349
 5860WAT     H218643   3.311   1.759   5.492
 5861WAT      O18644   4.705   1.093   5.504
 5861WAT     H118645   4.676   1.139   5.582
 5861WAT     H218646   4.785   1.047   5.530
 5862WAT      O18647   3.927   1.442   5.497
 5862WAT     H118648   3.926   1.516   5.435
 5862WAT     H218649   3.835   1.418   5.506
 5863WAT      O18650   3.487   0.964   5.571
 5863WAT     H118651   3.426   1.038   5.572
 5863WAT     H218652   3.534   0.973   5.489
 5864WAT      O18653   4.781   0.276   5.620
 5864WAT     H118654   4.718   0.287   5.548
 5864WAT     H218655   4.731   0.298   5.699
 5865WAT      O18656   4.225   1.449   5.363
 5865WAT     H118657   4.235   1.428   5.270
 5865WAT     H218658   4.135   1.423   5.383
 5866WAT      O18659   3.978   0.504   5.761
 5866WAT     H118660   3.907   0.551   5.805
 5866WAT     H218661   4.006   0.439   5.825
 5867WAT      O18662   4.381   0.177   5.905
 5867WAT     H118663   4.368   0.179   5.810
 5867WAT     H218664   4.476   0.182   5.917
 5868WAT      O18665   4.090   1.700   5.832
 5868WAT     H118666   4.115   1.697   5.740
 5868WAT     H218667   3.995   1.688   5.832
 5869WAT      O18668   3.798   0.335   5.499
 5869WAT     H118669   3.883   0.379   5.492
 5869WAT     H218670   3.761   0.366   5.581
 5870WAT      O18671   4.690   0.792   5.990
 5870WAT     H118672   4.596   0.794   6.007
 5870WAT     H218673   4.721   0.714   6.035
 5871WAT      O18674   3.688   0.960   5.346
 5871WAT     H118675   3.764   0.949   5.402
 5871WAT     H218676   3.696   0.891   5.281
 5872WAT      O18677   3.557   0.704   5.414
 5872WAT     H118678   3.565   0.609   5.426
 5872WAT     H218679   3.647   0.737   5.425
 5873WAT      O18680   4.890   1.509   6.158
 5873WAT     H118681   4.903   1.592   6.205
 5873WAT     H218682   4.977   1.488   6.123
 5874WAT      O18683   3.637   1.719   6.125
 5874WAT     H118684   3.711   1.664   6.152
 5874WAT     H218685   3.676   1.805   6.111
 5875WAT      O18686   3.326   1.325   5.712
 5875WAT     H118687   3.233   1.350   5.711
 5875WAT     H218688   3.372   1.408   5.700
 5876WAT      O18689   3.948   1.636   5.307
 5876WAT     H118690   4.028   1.665   5.262
 5876WAT     H218691   3.897   1.593   5.239
 5877WAT      O18692   4.854   1.559   5.449
 5877WAT     H118693   4.825   1.517   5.368
 5877WAT     H218694   4.834   1.652   5.437
 5878WAT      O18695   4.000   1.158   5.293
 5878WAT     H118696   3.990   1.097   5.366
 5878WAT     H218697   3.984   1.106   5.215
 5879WAT      O18698   4.324   1.064   5.354
 5879WAT     H118699   4.269   1.109   5.418
 5879WAT     H218700   4.386   1.014   5.406
 5880WAT      O18701   3.891   0.960   5.543
 5880WAT     H118702   3.933   0.944   5.628
 5880WAT     H218703   3.904   0.879   5.494
 5881WAT      O18704   4.142   0.863   5.268
 5881WAT     H118705   4.194   0.791   5.232
 5881WAT     H218706   4.207   0.926   5.298
 5882WAT      O18707   3.781   0.567   5.238
 5882WAT     H118708   3.761   0.481   5.274
 5882WAT     H218709   3.764   0.559   5.144
 5883WAT      O18710   3.660   0.277   5.237
 5883WAT     H118711   3.691   0.278   5.146
 5883WAT     H218712   3.734   0.242   5.286
 5884WAT      O18713   4.199   1.671   5.497
 5884WAT     H118714   4.288   1.704   5.499
 5884WAT     H218715   4.202   1.598   5.434
 5885WAT      O18716   3.563   1.208   5.320
 5885WAT     H118717   3.607   1.262   5.386
 5885WAT     H218718   3.611   1.125   5.321
 5886WAT      O18719   3.284   1.487   6.065
 5886WAT     H118720   3.317   1.400   6.042
 5886WAT     H218721   3.327   1.507   6.148
 5887WAT      O18722   3.744   1.320   5.831
 5887WAT     H118723   3.714   1.308   5.921
 5887WAT     H218724   3.733   1.234   5.790
 5888WAT      O18725   3.333   1.574   6.339
 5888WAT     H118726   3.289   1.592   6.422
 5888WAT     H218727   3.390   1.649   6.325
 5889WAT      O18728   5.021   1.298   5.302
 5889WAT     H118729   4.938   1.305   5.349
 5889WAT     H218730   5.038   1.387   5.271
 5890WAT      O18731   4.966   0.972   5.552
 5890WAT     H118732   5.043   1.029   5.563
 5890WAT     H218733   4.968   0.916   5.629
 5891WAT      O18734   3.316   0.825   5.975
 5891WAT     H118735   3.251   0.798   5.911
 5891WAT     H218736   3.400   0.814   5.930
 5892WAT      O18737   5.067   1.058   6.036
 5892WAT     H118738   5.104   0.980   5.996
 5892WAT     H218739   5.131   1.127   6.019
 5893WAT      O18740   4.972   1.002   5.268
 5893WAT     H118741   4.999   1.092   5.255
 5893WAT     H218742   4.953   0.995   5.361
 5894WAT      O18743   4.611   0.304   5.397
 5894WAT     H118744   4.653   0.285   5.313
 5894WAT     H218745   4.581   0.219   5.428
 5895WAT      O18746   4.961   0.795   5.767
 5895WAT     H118747   4.924   0.719   5.724
 5895WAT     H218748   4.888   0.834   5.816
 5896WAT      O18749   3.420   0.863   6.429
 5896WAT     H118750   3.457   0.855   6.517
 5896WAT     H218751   3.363   0.787   6.419
 5897WAT      O18752   3.238   0.546   5.569
 5897WAT     H118753   3.147   0.572   5.552
 5897WAT     H218754   3.286   0.573   5.491
 5898WAT      O18755   4.889   0.618   6.097
 5898WAT     H118756   4.941   0.569   6.034
 5898WAT     H218757   4.947   0.631   6.171
 5899WAT      O18758   4.907   0.626   6.449
 5899WAT     H118759   4.812   0.623   6.461
 5899WAT     H218760   4.925   0.717   6.426
 5900WAT      O18761   3.492   0.451   5.360
 5900WAT     H118762   3.563   0.409   5.312
 5900WAT     H218763   3.420   0.458   5.297
 5901WAT      O18764   4.838   0.544   5.691
 5901WAT     H118765   4.887   0.520   5.769
 5901WAT     H218766   4.818   0.460   5.649
 5902WAT      O18767   4.981   0.407   5.944
 5902WAT     H118768   4.970   0.392   6.038
 5902WAT     H218769   5.057   0.354   5.920
 5903WAT      O18770   5.069   0.190   5.268
 5903WAT     H118771   5.162   0.177   5.248
 5903WAT     H218772   5.067   0.198   5.364
 5904WAT      O18773   5.077   0.267   5.531
 5904WAT     H118774   4.997   0.261   5.584
 5904WAT     H218775   5.097   0.361   5.530
 5905WAT      O18776   4.771   1.671   5.930
 5905WAT     H118777   4.831   1.639   5.863
 5905WAT     H218778   4.797   1.624   6.009
 5906WAT      O18779   3.932   1.470   6.505
 5906WAT     H118780   3.908   1.497   6.417
 5906WAT     H218781   4.026   1.487   6.511
 5907WAT      O18782   4.826   1.736   6.313
 5907WAT     H118783   4.780   1.811   6.276
 5907WAT     H218784   4.763   1.664   6.307
 5908WAT      O18785   3.869   1.567   6.231
 5908WAT     H118786   3.921   1.506   6.178
 5908WAT     H218787   3.934   1.618   6.280
 5909WAT      O18788   4.143   1.656   6.313
 5909WAT     H118789   4.172   1.631   6.226
 5909WAT     H218790   4.194   1.601   6.373
 5910WAT      O18791   3.337   1.678   5.873
 5910WAT     H118792   3.320   1.614   5.943
 5910WAT     H218793   3.250   1.698   5.838
 5911WAT      O18794   4.053   0.272   5.923
 5911WAT     H118795   3.972   0.235   5.889
 5911WAT     H218796   4.104   0.197   5.953
 5912WAT      O18797   3.498   1.547   5.618
 5912WAT     H118798   3.445   1.585   5.547
 5912WAT     H218799   3.490   1.609   5.690
 5913WAT      O18800   4.973   1.703   5.750
 5913WAT     H118801   4.991   1.634   5.686
 5913WAT     H218802   4.903   1.755   5.711
 5914WAT      O18803   3.757   1.742   5.505
 5914WAT     H118804   3.831   1.713   5.450
 5914WAT     H218805   3.783   1.718   5.594
 5915WAT      O18806   3.674   1.353   5.506
 5915WAT     H118807   3.611   1.400   5.561
 5915WAT     H218808   3.685   1.269   5.549
 5916WAT      O18809   4.419   0.758   4.121
 5916WAT     H118810   4.411   0.667   4.094
 5916WAT     H218811   4.378   0.808   4.050
 5917WAT      O18812   4.232   0.936   4.309
 5917WAT     H118813   4.155   0.888   4.338
 5917WAT     H218814   4.297   0.868   4.291
 5918WAT      O18815   3.634   0.967   4.397
 5918WAT     H118816   3.551   0.942   4.437
 5918WAT     H218817   3.695   0.974   4.470
 5919WAT      O18818   4.634   1.377   4.187
 5919WAT     H118819   4.588   1.300   4.220
 5919WAT     H218820   4.716   1.379   4.237
 5920WAT      O18821   3.632   1.371   4.416
 5920WAT     H118822   3.662   1.282   4.398
 5920WAT     H218823   3.706   1.426   4.393
 5921WAT      O18824   3.475   0.463   3.775
 5921WAT     H118825   3.386   0.498   3.765
 5921WAT     H218826   3.503   0.443   3.686
 5922WAT      O18827   3.271   0.723   4.363
 5922WAT     H118828   3.328   0.647   4.363
 5922WAT     H218829   3.271   0.753   4.272
 5923WAT      O18830   4.257   1.605   4.149
 5923WAT     H118831   4.195   1.651   4.092
 5923WAT     H218832   4.343   1.621   4.109
 5924WAT      O18833   4.176   1.204   4.310
 5924WAT     H118834   4.169   1.110   4.293
 5924WAT     H218835   4.253   1.213   4.367
 5925WAT      O18836   3.395   0.264   4.542
 5925WAT     H118837   3.378   0.175   4.570
 5925WAT     H218838   3.355   0.319   4.610
 5926WAT      O18839   4.279   0.484   4.332
 5926WAT     H118840   4.317   0.397   4.321
 5926WAT     H218841   4.270   0.518   4.243
 5927WAT      O18842   3.693   0.322   3.878
 5927WAT     H118843   3.703   0.412   3.909
 5927WAT     H218844   3.601   0.317   3.849
 5928WAT      O18845   4.658   0.234   4.026
 5928WAT     H118846   4.740   0.185   4.030
 5928WAT     H218847   4.661   0.293   4.101
 5929WAT      O18848   3.457   0.514   4.403
 5929WAT     H118849   3.525   0.540   4.465
 5929WAT     H218850   3.426   0.430   4.436
 5930WAT      O18851   3.877   0.619   4.312
 5930WAT     H118852   3.927   0.668   4.376
 5930WAT     H218853   3.930   0.541   4.294
 5931WAT      O18854   5.087   0.436   4.682
 5931WAT     H118855   5.016   0.474   4.630
 5931WAT     H218856   5.113   0.505   4.742
 5932WAT      O18857   4.344   1.094   3.888
 5932WAT     H118858   4.282   1.140   3.832
 5932WAT     H218859   4.395   1.163   3.930
 5933WAT      O18860   3.830   1.046   4.556
 5933WAT     H118861   3.797   1.109   4.620
 5933WAT     H218862   3.848   1.099   4.478
 5934WAT      O18863   4.681   0.428   4.303
 5934WAT     H118864   4.611   0.457   4.361
 5934WAT     H218865   4.717   0.509   4.267
 5935WAT      O18866   3.673   0.254   4.539
 5935WAT     H118867   3.707   0.338   4.510
 5935WAT     H218868   3.579   0.268   4.551
 5936WAT      O18869   3.751   1.243   4.738
 5936WAT     H118870   3.813   1.311   4.709
 5936WAT     H218871   3.665   1.284   4.728
 5937WAT      O18872   3.280   1.162   3.626
 5937WAT     H118873   3.243   1.211   3.552
 5937WAT     H218874   3.306   1.230   3.689
 5938WAT      O18875   4.843   1.390   4.529
 5938WAT     H118876   4.775   1.457   4.528
 5938WAT     H218877   4.897   1.410   4.452
 5939WAT      O18878   4.988   0.372   4.342
 5939WAT     H118879   4.893   0.376   4.355
 5939WAT     H218880   5.021   0.454   4.380
 5940WAT      O18881   4.597   1.574   4.401
 5940WAT     H118882   4.598   1.534   4.314
 5940WAT     H218883   4.541   1.652   4.390
 5941WAT      O18884   4.726   1.246   3.909
 5941WAT     H118885   4.715   1.152   3.922
 5941WAT     H218886   4.726   1.282   3.998
 5942WAT      O18887   4.536   1.064   4.533
 5942WAT     H118888   4.578   1.043   4.450
 5942WAT     H218889   4.609   1.090   4.590
 5943WAT      O18890   4.280   0.809   3.845
 5943WAT     H118891   4.187   0.802   3.868
 5943WAT     H218892   4.295   0.903   3.834
 5944WAT      O18893   4.279   0.436   3.545
 5944WAT     H118894   4.185   0.452   3.553
 5944WAT     H218895   4.311   0.508   3.490
 5945WAT      O18896   4.931   0.904   4.542
 5945WAT     H118897   4.848   0.911   4.495
 5945WAT     H218898   4.991   0.963   4.496
 5946WAT      O18899   4.683   0.965   3.895
 5946WAT     H118900   4.621   0.931   3.831
 5946WAT     H218901   4.681   0.901   3.966
 5947WAT      O18902   4.627   0.583   4.637
 5947WAT     H118903   4.586   0.666   4.662
 5947WAT     H218904   4.554   0.524   4.618
 5948WAT      O18905   3.841   0.862   4.123
 5948WAT     H118906   3.800   0.790   4.074
 5948WAT     H218907   3.849   0.827   4.212
 5949WAT      O18908   3.888   1.230   4.340
 5949WAT     H118909   3.858   1.170   4.272
 5949WAT     H218910   3.983   1.234   4.329
 5950WAT      O18911   3.712   0.539   4.501
 5950WAT     H118912   3.767   0.550   4.424
 5950WAT     H218913   3.763   0.576   4.573
 5951WAT      O18914   4.696   1.588   4.706
 5951WAT     H118915   4.649   1.668   4.687
 5951WAT     H218916   4.628   1.522   4.721
 5952WAT      O18917   3.797   1.204   5.005
 5952WAT     H118918   3.707   1.226   5.029
 5952WAT     H218919   3.799   1.216   4.910
 5953WAT      O18920   4.501   0.889   3.596
 5953WAT     H118921   4.545   0.805   3.581
 5953WAT     H218922   4.572   0.952   3.605
 5954WAT      O18923   3.679   0.891   4.862
 5954WAT     H118924   3.666   0.978   4.899
 5954WAT     H218925   3.591   0.857   4.848
 5955WAT      O18926   4.312   1.383   3.993
 5955WAT     H118927   4.356   1.457   3.951
 5955WAT     H218928   4.306   1.407   4.085
 5956WAT      O18929   3.859   1.485   5.083
 5956WAT     H118930   3.856   1.526   4.996
 5956WAT     H218931   3.843   1.393   5.067
 5957WAT      O18932   3.511   0.751   3.873
 5957WAT     H118933   3.499   0.824   3.812
 5957WAT     H218934   3.480   0.674   3.826
 5958WAT      O18935   5.054   1.564   5.213
 5958WAT     H118936   5.102   1.612   5.281
 5958WAT     H218937   5.116   1.557   5.140
 5959WAT      O18938   3.275   1.068   4.454
 5959WAT     H118939   3.282   1.082   4.360
 5959WAT     H218940   3.336   0.997   4.473
 5960WAT      O18941   3.399   1.238   4.095
 5960WAT     H118942   3.358   1.252   4.010
 5960WAT     H218943   3.488   1.210   4.075
 5961WAT      O18944   4.995   1.283   4.929
 5961WAT     H118945   5.007   1.259   4.837
 5961WAT     H218946   4.999   1.200   4.976
 5962WAT      O18947   4.381   1.653   4.786
 5962WAT     H118948   4.432   1.644   4.866
 5962WAT     H218949   4.297   1.688   4.815
 5963WAT      O18950   4.578   1.682   3.729
 5963WAT     H118951   4.562   1.653   3.818
 5963WAT     H218952   4.562   1.604   3.675
 5964WAT      O18953   3.826   1.660   3.906
 5964WAT     H118954   3.809   1.568   3.885
 5964WAT     H218955   3.741   1.696   3.930
 5965WAT      O18956   4.549   1.433   3.585
 5965WAT     H118957   4.479   1.432   3.519
 5965WAT     H218958   4.623   1.390   3.541
 5966WAT      O18959   4.505   1.595   3.992
 5966WAT     H118960   4.551   1.517   4.023
 5966WAT     H218961   4.539   1.666   4.046
 5967WAT      O18962   4.980   0.488   5.025
 5967WAT     H118963   4.918   0.539   4.972
 5967WAT     H218964   4.948   0.398   5.020
 5968WAT      O18965   3.280   1.172   4.708
 5968WAT     H118966   3.297   1.125   4.626
 5968WAT     H218967   3.327   1.122   4.774
 5969WAT      O18968   4.186   0.372   4.772
 5969WAT     H118969   4.140   0.393   4.853
 5969WAT     H218970   4.146   0.291   4.742
 5970WAT      O18971   4.686   0.494   4.885
 5970WAT     H118972   4.601   0.464   4.917
 5970WAT     H218973   4.670   0.519   4.794
 5971WAT      O18974   4.396   0.644   5.095
 5971WAT     H118975   4.428   0.561   5.061
 5971WAT     H218976   4.474   0.696   5.110
 5972WAT      O18977   3.737   0.598   3.984
 5972WAT     H118978   3.714   0.576   4.075
 5972WAT     H218979   3.659   0.641   3.950
 5973WAT      O18980   4.460   0.598   3.844
 5973WAT     H118981   4.400   0.671   3.826
 5973WAT     H218982   4.514   0.592   3.766
 5974WAT      O18983   3.981   0.688   5.051
 5974WAT     H118984   3.971   0.594   5.036
 5974WAT     H218985   4.065   0.710   5.011
 5975WAT      O18986   4.320   0.462   4.047
 5975WAT     H118987   4.360   0.494   3.966
 5975WAT     H218988   4.356   0.374   4.059
 5976WAT      O18989   3.494   0.329   4.866
 5976WAT     H118990   3.454   0.413   4.887
 5976WAT     H218991   3.425   0.265   4.885
 5977WAT      O18992   4.151   0.337   5.173
 5977WAT     H118993   4.082   0.318   5.237
 5977WAT     H218994   4.225   0.365   5.226
 5978WAT      O18995   3.243   0.515   3.391
 5978WAT     H118996   3.234   0.610   3.405
 5978WAT     H218997   3.207   0.501   3.303
 5979WAT      O18998   4.379   0.721   4.457
 5979WAT     H118999   4.306   0.772   4.492
 5979WAT     H219000   4.339   0.639   4.427
 5980WAT      O19001   4.023   0.389   4.297
 5980WAT     H119002   4.023   0.345   4.212
 5980WAT     H219003   4.112   0.421   4.308
 5981WAT      O19004   3.608   0.377   4.193
 5981WAT     H119005   3.574   0.425   4.269
 5981WAT     H219006   3.531   0.332   4.157
 5982WAT      O19007   4.029   0.489   3.596
 5982WAT     H119008   4.041   0.485   3.691
 5982WAT     H219009   3.990   0.575   3.581
 5983WAT      O19010   4.425   0.266   4.398
 5983WAT     H119011   4.427   0.311   4.482
 5983WAT     H219012   4.400   0.176   4.419
 5984WAT      O19013   3.930   0.720   3.536
 5984WAT     H119014   3.873   0.675   3.474
 5984WAT     H219015   4.001   0.756   3.483
 5985WAT      O19016   3.438   1.110   4.924
 5985WAT     H119017   3.399   1.046   4.984
 5985WAT     H219018   3.469   1.180   4.981
 5986WAT      O19019   4.053   0.795   4.472
 5986WAT     H119020   4.089   0.747   4.547
 5986WAT     H219021   4.034   0.882   4.506
 5987WAT      O19022   3.339   0.269   4.085
 5987WAT     H119023   3.310   0.233   4.169
 5987WAT     H219024   3.333   0.196   4.024
 5988WAT      O19025   3.832   0.699   4.704
 5988WAT     H119026   3.801   0.787   4.726
 5988WAT     H219027   3.927   0.705   4.707
 5989WAT      O19028   3.684   1.119   3.763
 5989WAT     H119029   3.607   1.065   3.747
 5989WAT     H219030   3.757   1.067   3.730
 5990WAT      O19031   4.760   1.019   4.343
 5990WAT     H119032   4.832   1.069   4.304
 5990WAT     H219033   4.740   0.951   4.278
 5991WAT      O19034   4.298   1.026   4.931
 5991WAT     H119035   4.292   0.934   4.906
 5991WAT     H219036   4.236   1.036   5.003
 5992WAT      O19037   4.578   0.596   3.587
 5992WAT     H119038   4.667   0.627   3.569
 5992WAT     H219039   4.575   0.508   3.547
 5993WAT      O19040   3.689   1.086   4.127
 5993WAT     H119041   3.741   1.006   4.122
 5993WAT     H219042   3.644   1.080   4.211
 5994WAT      O19043   4.177   1.213   3.655
 5994WAT     H119044   4.212   1.287   3.605
 5994WAT     H219045   4.095   1.244   3.691
 5995WAT      O19046   3.437   0.783   4.819
 5995WAT     H119047   3.401   0.849   4.877
 5995WAT     H219048   3.408   0.700   4.856
 5996WAT      O19049   3.757   0.829   5.107
 5996WAT     H119050   3.727   0.843   5.017
 5996WAT     H219051   3.834   0.773   5.098
 5997WAT      O19052   4.292   1.308   4.906
 5997WAT     H119053   4.293   1.215   4.885
 5997WAT     H219054   4.221   1.317   4.970
 5998WAT      O19055   4.805   0.727   3.533
 5998WAT     H119056   4.797   0.770   3.448
 5998WAT     H219057   4.877   0.773   3.577
 5999WAT      O19058   4.913   0.972   4.841
 5999WAT     H119059   4.840   1.032   4.821
 5999WAT     H219060   4.966   0.972   4.761
 6000WAT      O19061   4.908   1.412   3.806
 6000WAT     H119062   4.844   1.347   3.834
 6000WAT     H219063   4.869   1.453   3.729
 6001WAT      O19064   4.466   1.145   4.191
 6001WAT     H119065   4.501   1.085   4.125
 6001WAT     H219066   4.377   1.112   4.208
 6002WAT      O19067   4.074   1.221   3.932
 6002WAT     H119068   4.143   1.276   3.970
 6002WAT     H219069   3.996   1.275   3.935
 6003WAT      O19070   3.288   0.783   3.481
 6003WAT     H119071   3.375   0.811   3.509
 6003WAT     H219072   3.239   0.864   3.469
 6004WAT      O19073   4.005   0.921   3.893
 6004WAT     H119074   4.050   1.002   3.916
 6004WAT     H219075   3.970   0.890   3.976
 6005WAT      O19076   4.235   1.472   4.616
 6005WAT     H119077   4.299   1.493   4.684
 6005WAT     H219078   4.271   1.396   4.571
 6006WAT      O19079   4.362   1.273   4.488
 6006WAT     H119080   4.427   1.203   4.499
 6006WAT     H219081   4.415   1.351   4.470
 6007WAT      O19082   4.747   1.301   3.460
 6007WAT     H119083   4.724   1.230   3.519
 6007WAT     H219084   4.708   1.276   3.376
 6008WAT      O19085   4.540   1.353   4.808
 6008WAT     H119086   4.573   1.411   4.876
 6008WAT     H219087   4.448   1.340   4.831
 6009WAT      O19088   3.325   1.704   3.537
 6009WAT     H119089   3.361   1.764   3.472
 6009WAT     H219090   3.311   1.759   3.615
 6010WAT      O19091   4.705   1.093   3.626
 6010WAT     H119092   4.676   1.139   3.705
 6010WAT     H219093   4.785   1.047   3.653
 6011WAT      O19094   3.323   1.530   4.985
 6011WAT     H119095   3.334   1.436   4.971
 6011WAT     H219096   3.258   1.557   4.920
 6012WAT      O19097   4.123   1.358   5.125
 6012WAT     H119098   4.091   1.286   5.179
 6012WAT     H219099   4.055   1.425   5.132
 6013WAT      O19100   3.927   1.442   3.619
 6013WAT     H119101   3.926   1.516   3.558
 6013WAT     H219102   3.835   1.418   3.628
 6014WAT      O19103   3.487   0.964   3.694
 6014WAT     H119104   3.426   1.038   3.695
 6014WAT     H219105   3.534   0.973   3.611
 6015WAT      O19106   4.444   0.381   4.661
 6015WAT     H119107   4.481   0.299   4.694
 6015WAT     H219108   4.358   0.387   4.703
 6016WAT      O19109   4.781   0.276   3.742
 6016WAT     H119110   4.718   0.287   3.671
 6016WAT     H219111   4.731   0.298   3.821
 6017WAT      O19112   4.225   1.449   3.485
 6017WAT     H119113   4.235   1.428   3.392
 6017WAT     H219114   4.135   1.423   3.506
 6018WAT      O19115   3.978   0.504   3.884
 6018WAT     H119116   3.907   0.551   3.928
 6018WAT     H219117   4.006   0.439   3.947
 6019WAT      O19118   4.140   0.646   4.684
 6019WAT     H119119   4.190   0.694   4.750
 6019WAT     H219120   4.154   0.554   4.704
 6020WAT      O19121   4.381   0.177   4.028
 6020WAT     H119122   4.368   0.179   3.933
 6020WAT     H219123   4.476   0.182   4.040
 6021WAT      O19124   4.090   1.700   3.955
 6021WAT     H119125   4.115   1.697   3.863
 6021WAT     H219126   3.995   1.688   3.954
 6022WAT      O19127   3.798   0.335   3.621
 6022WAT     H119128   3.883   0.379   3.615
 6022WAT     H219129   3.761   0.366   3.704
 6023WAT      O19130   4.861   0.268   4.768
 6023WAT     H119131   4.811   0.342   4.802
 6023WAT     H219132   4.942   0.307   4.736
 6024WAT      O19133   4.690   0.792   4.113
 6024WAT     H119134   4.596   0.794   4.130
 6024WAT     H219135   4.721   0.714   4.157
 6025WAT      O19136   3.688   0.960   3.469
 6025WAT     H119137   3.764   0.949   3.525
 6025WAT     H219138   3.696   0.891   3.403
 6026WAT      O19139   3.557   0.704   3.537
 6026WAT     H119140   3.565   0.609   3.548
 6026WAT     H219141   3.647   0.737   3.548
 6027WAT      O19142   4.890   1.509   4.280
 6027WAT     H119143   4.903   1.592   4.327
 6027WAT     H219144   4.977   1.488   4.245
 6028WAT      O19145   3.637   1.719   4.247
 6028WAT     H119146   3.711   1.664   4.274
 6028WAT     H219147   3.676   1.805   4.233
 6029WAT      O19148   3.326   1.325   3.835
 6029WAT     H119149   3.233   1.350   3.834
 6029WAT     H219150   3.372   1.408   3.823
 6030WAT      O19151   3.538   1.637   5.166
 6030WAT     H119152   3.618   1.669   5.207
 6030WAT     H219153   3.487   1.601   5.238
 6031WAT      O19154   4.422   1.248   5.161
 6031WAT     H119155   4.361   1.250   5.087
 6031WAT     H219156   4.391   1.175   5.215
 6032WAT      O19157   4.565   1.621   5.022
 6032WAT     H119158   4.660   1.612   5.017
 6032WAT     H219159   4.550   1.687   5.089
 6033WAT      O19160   4.854   1.559   3.572
 6033WAT     H119161   4.825   1.517   3.490
 6033WAT     H219162   4.834   1.652   3.560
 6034WAT      O19163   3.310   0.886   5.060
 6034WAT     H119164   3.360   0.828   5.118
 6034WAT     H219165   3.236   0.914   5.114
 6035WAT      O19166   4.000   1.158   3.416
 6035WAT     H119167   3.990   1.097   3.489
 6035WAT     H219168   3.984   1.106   3.338
 6036WAT      O19169   4.015   1.027   5.014
 6036WAT     H119170   3.939   1.083   5.005
 6036WAT     H219171   4.034   0.997   4.925
 6037WAT      O19172   4.324   1.064   3.476
 6037WAT     H119173   4.269   1.109   3.541
 6037WAT     H219174   4.386   1.014   3.529
 6038WAT      O19175   4.730   1.200   5.070
 6038WAT     H119176   4.804   1.233   5.019
 6038WAT     H219177   4.653   1.217   5.014
 6039WAT      O19178   3.513   0.700   5.150
 6039WAT     H119179   3.517   0.670   5.241
 6039WAT     H219180   3.599   0.740   5.134
 6040WAT      O19181   3.891   0.960   3.666
 6040WAT     H119182   3.933   0.944   3.750
 6040WAT     H219183   3.904   0.879   3.617
 6041WAT      O19184   3.707   0.558   4.947
 6041WAT     H119185   3.654   0.509   4.884
 6041WAT     H219186   3.774   0.601   4.893
 6042WAT      O19187   4.142   0.863   3.391
 6042WAT     H119188   4.194   0.791   3.354
 6042WAT     H219189   4.207   0.926   3.421
 6043WAT      O19190   4.597   1.005   4.923
 6043WAT     H119191   4.639   1.020   5.008
 6043WAT     H219192   4.504   1.017   4.939
 6044WAT      O19193   4.644   0.739   5.124
 6044WAT     H119194   4.703   0.663   5.115
 6044WAT     H219195   4.662   0.792   5.046
 6045WAT      O19196   3.756   0.255   4.955
 6045WAT     H119197   3.747   0.193   4.882
 6045WAT     H219198   3.698   0.327   4.932
 6046WAT      O19199   4.073   1.000   4.720
 6046WAT     H119200   4.115   1.084   4.703
 6046WAT     H219201   3.981   1.014   4.697
 6047WAT      O19202   4.307   0.773   4.858
 6047WAT     H119203   4.319   0.714   4.932
 6047WAT     H219204   4.393   0.777   4.816
 6048WAT      O19205   4.541   0.829   4.716
 6048WAT     H119206   4.488   0.881   4.656
 6048WAT     H219207   4.575   0.892   4.779
 6049WAT      O19208   3.781   0.567   3.361
 6049WAT     H119209   3.761   0.481   3.397
 6049WAT     H219210   3.764   0.559   3.267
 6050WAT      O19211   3.858   1.631   4.832
 6050WAT     H119212   3.805   1.703   4.800
 6050WAT     H219213   3.884   1.583   4.753
 6051WAT      O19214   3.984   0.427   4.984
 6051WAT     H119215   4.043   0.397   5.053
 6051WAT     H219216   3.902   0.380   5.000
 6052WAT      O19217   4.466   0.389   5.008
 6052WAT     H119218   4.397   0.323   5.001
 6052WAT     H219219   4.538   0.344   5.052
 6053WAT      O19220   3.660   0.277   3.359
 6053WAT     H119221   3.691   0.278   3.269
 6053WAT     H219222   3.734   0.242   3.409
 6054WAT      O19223   4.144   1.754   4.858
 6054WAT     H119224   4.137   1.844   4.888
 6054WAT     H219225   4.054   1.722   4.855
 6055WAT      O19226   4.199   1.671   3.620
 6055WAT     H119227   4.288   1.704   3.622
 6055WAT     H219228   4.202   1.598   3.557
 6056WAT      O19229   3.563   1.208   3.443
 6056WAT     H119230   3.607   1.262   3.508
 6056WAT     H219231   3.611   1.125   3.444
 6057WAT      O19232   3.284   1.487   4.188
 6057WAT     H119233   3.317   1.400   4.165
 6057WAT     H219234   3.327   1.507   4.271
 6058WAT      O19235   3.744   1.320   3.954
 6058WAT     H119236   3.714   1.308   4.044
 6058WAT     H219237   3.733   1.234   3.913
 6059WAT      O19238   3.333   1.574   4.462
 6059WAT     H119239   3.289   1.592   4.545
 6059WAT     H219240   3.390   1.649   4.447
 6060WAT      O19241   4.897   1.524   4.890
 6060WAT     H119242   4.837   1.530   4.816
 6060WAT     H219243   4.910   1.430   4.903
 6061WAT      O19244   5.021   1.298   3.424
 6061WAT     H119245   4.938   1.305   3.471
 6061WAT     H219246   5.038   1.387   3.394
 6062WAT      O19247   4.966   0.972   3.674
 6062WAT     H119248   5.043   1.029   3.685
 6062WAT     H219249   4.968   0.916   3.752
 6063WAT      O19250   3.316   0.825   4.098
 6063WAT     H119251   3.251   0.798   4.033
 6063WAT     H219252   3.400   0.814   4.053
 6064WAT      O19253   5.067   1.058   4.159
 6064WAT     H119254   5.104   0.980   4.118
 6064WAT     H219255   5.131   1.127   4.141
 6065WAT      O19256   4.765   1.196   4.700
 6065WAT     H119257   4.684   1.239   4.726
 6065WAT     H219258   4.806   1.257   4.639
 6066WAT      O19259   4.972   1.002   3.390
 6066WAT     H119260   4.999   1.092   3.377
 6066WAT     H219261   4.953   0.995   3.484
 6067WAT      O19262   4.611   0.304   3.520
 6067WAT     H119263   4.653   0.285   3.436
 6067WAT     H219264   4.581   0.219   3.551
 6068WAT      O19265   4.961   0.795   3.890
 6068WAT     H119266   4.924   0.719   3.846
 6068WAT     H219267   4.888   0.834   3.938
 6069WAT      O19268   3.420   0.863   4.552
 6069WAT     H119269   3.457   0.855   4.640
 6069WAT     H219270   3.363   0.787   4.542
 6070WAT      O19271   4.900   0.710   4.853
 6070WAT     H119272   4.877   0.687   4.763
 6070WAT     H219273   4.926   0.802   4.848
 6071WAT      O19274   3.375   0.554   4.942
 6071WAT     H119275   3.286   0.551   4.976
 6071WAT     H219276   3.429   0.574   5.019
 6072WAT      O19277   4.744   0.233   5.131
 6072WAT     H119278   4.832   0.233   5.169
 6072WAT     H219279   4.745   0.159   5.070
 6073WAT      O19280   3.238   0.546   3.692
 6073WAT     H119281   3.147   0.572   3.674
 6073WAT     H219282   3.286   0.573   3.614
 6074WAT      O19283   4.889   0.618   4.220
 6074WAT     H119284   4.941   0.569   4.156
 6074WAT     H219285   4.947   0.631   4.294
 6075WAT      O19286   4.907   0.626   4.572
 6075WAT     H119287   4.812   0.623   4.583
 6075WAT     H219288   4.925   0.717   4.548
 6076WAT      O19289   3.492   0.451   3.483
 6076WAT     H119290   3.563   0.409   3.434
 6076WAT     H219291   3.420   0.458   3.420
 6077WAT      O19292   4.838   0.544   3.814
 6077WAT     H119293   4.887   0.520   3.892
 6077WAT     H219294   4.818   0.460   3.772
 6078WAT      O19295   4.981   0.407   4.067
 6078WAT     H119296   4.970   0.392   4.161
 6078WAT     H219297   5.057   0.354   4.043
 6079WAT      O19298   5.069   0.190   3.391
 6079WAT     H119299   5.162   0.177   3.370
 6079WAT     H219300   5.067   0.198   3.486
 6080WAT      O19301   5.077   0.267   3.654
 6080WAT     H119302   4.997   0.261   3.706
 6080WAT     H219303   5.097   0.361   3.652
 6081WAT      O19304   4.771   1.671   4.053
 6081WAT     H119305   4.831   1.639   3.985
 6081WAT     H219306   4.797   1.624   4.132
 6082WAT      O19307   3.562   1.315   5.068
 6082WAT     H119308   3.557   1.277   5.156
 6082WAT     H219309   3.575   1.408   5.082
 6083WAT      O19310   3.932   1.470   4.628
 6083WAT     H119311   3.908   1.497   4.539
 6083WAT     H219312   4.026   1.487   4.633
 6084WAT      O19313   5.058   1.672   4.708
 6084WAT     H119314   5.008   1.712   4.636
 6084WAT     H219315   4.997   1.610   4.747
 6085WAT      O19316   3.546   1.609   4.780
 6085WAT     H119317   3.486   1.596   4.854
 6085WAT     H219318   3.545   1.526   4.733
 6086WAT      O19319   4.826   1.736   4.436
 6086WAT     H119320   4.780   1.811   4.398
 6086WAT     H219321   4.763   1.664   4.430
 6087WAT      O19322   3.509   1.346   4.675
 6087WAT     H119323   3.436   1.284   4.668
 6087WAT     H219324   3.515   1.385   4.588
 6088WAT      O19325   3.869   1.567   4.353
 6088WAT     H119326   3.921   1.506   4.301
 6088WAT     H219327   3.934   1.618   4.402
 6089WAT      O19328   4.143   1.656   4.436
 6089WAT     H119329   4.172   1.631   4.348
 6089WAT     H219330   4.194   1.601   4.495
 6090WAT      O19331   3.337   1.678   3.996
 6090WAT     H119332   3.320   1.614   4.066
 6090WAT     H219333   3.250   1.698   3.961
 6091WAT      O19334   4.053   0.272   4.045
 6091WAT     H119335   3.972   0.235   4.011
 6091WAT     H219336   4.104   0.197   4.075
 6092WAT      O19337   3.498   1.547   3.740
 6092WAT     H119338   3.445   1.585   3.670
 6092WAT     H219339   3.490   1.609   3.812
 6093WAT      O19340   4.150   1.748   5.173
 6093WAT     H119341   4.242   1.725   5.177
 6093WAT     H219342   4.148   1.831   5.125
 6094WAT      O19343   4.973   1.703   3.872
 6094WAT     H119344   4.991   1.634   3.808
 6094WAT     H219345   4.903   1.755   3.833
 6095WAT      O19346   3.674   1.353   3.628
 6095WAT     H119347   3.611   1.400   3.683
 6095WAT     H219348   3.685   1.269   3.672
 6096WAT      O19349   4.807   1.671   5.155
 6096WAT     H119350   4.886   1.622   5.134
 6096WAT     H219351   4.836   1.739   5.216
 6097WAT      O19352   4.419   0.758   2.243
 6097WAT     H119353   4.411   0.667   2.216
 6097WAT     H219354   4.378   0.808   2.173
 6098WAT      O19355   4.232   0.936   2.431
 6098WAT     H119356   4.155   0.888   2.460
 6098WAT     H219357   4.297   0.868   2.414
 6099WAT      O19358   3.634   0.967   2.519
 6099WAT     H119359   3.551   0.942   2.559
 6099WAT     H219360   3.695   0.974   2.593
 6100WAT      O19361   4.634   1.377   2.309
 6100WAT     H119362   4.588   1.300   2.342
 6100WAT     H219363   4.716   1.379   2.360
 6101WAT      O19364   3.632   1.371   2.539
 6101WAT     H119365   3.662   1.282   2.521
 6101WAT     H219366   3.706   1.426   2.516
 6102WAT      O19367   3.475   0.463   1.898
 6102WAT     H119368   3.386   0.498   1.887
 6102WAT     H219369   3.503   0.443   1.808
 6103WAT      O19370   3.271   0.723   2.486
 6103WAT     H119371   3.328   0.647   2.486
 6103WAT     H219372   3.271   0.753   2.395
 6104WAT      O19373   4.257   1.605   2.271
 6104WAT     H119374   4.195   1.651   2.214
 6104WAT     H219375   4.343   1.621   2.231
 6105WAT      O19376   4.176   1.204   2.432
 6105WAT     H119377   4.169   1.110   2.416
 6105WAT     H219378   4.253   1.213   2.489
 6106WAT      O19379   3.395   0.264   2.665
 6106WAT     H119380   3.378   0.175   2.693
 6106WAT     H219381   3.355   0.319   2.732
 6107WAT      O19382   4.279   0.484   2.455
 6107WAT     H119383   4.317   0.397   2.444
 6107WAT     H219384   4.270   0.518   2.366
 6108WAT      O19385   3.693   0.322   2.001
 6108WAT     H119386   3.703   0.412   2.032
 6108WAT     H219387   3.601   0.317   1.972
 6109WAT      O19388   4.658   0.234   2.148
 6109WAT     H119389   4.740   0.185   2.152
 6109WAT     H219390   4.661   0.293   2.223
 6110WAT      O19391   3.457   0.514   2.525
 6110WAT     H119392   3.525   0.540   2.587
 6110WAT     H219393   3.426   0.430   2.559
 6111WAT      O19394   3.877   0.619   2.434
 6111WAT     H119395   3.927   0.668   2.498
 6111WAT     H219396   3.930   0.541   2.417
 6112WAT      O19397   5.087   0.436   2.805
 6112WAT     H119398   5.016   0.474   2.753
 6112WAT     H219399   5.113   0.505   2.865
 6113WAT      O19400   4.344   1.094   2.011
 6113WAT     H119401   4.282   1.140   1.954
 6113WAT     H219402   4.395   1.163   2.052
 6114WAT      O19403   3.830   1.046   2.679
 6114WAT     H119404   3.797   1.109   2.743
 6114WAT     H219405   3.848   1.099   2.601
 6115WAT      O19406   4.681   0.428   2.425
 6115WAT     H119407   4.611   0.457   2.483
 6115WAT     H219408   4.717   0.509   2.389
 6116WAT      O19409   3.673   0.254   2.662
 6116WAT     H119410   3.707   0.338   2.632
 6116WAT     H219411   3.579   0.268   2.673
 6117WAT      O19412   3.280   1.162   1.748
 6117WAT     H119413   3.243   1.211   1.675
 6117WAT     H219414   3.306   1.230   1.811
 6118WAT      O19415   4.843   1.390   2.652
 6118WAT     H119416   4.775   1.457   2.651
 6118WAT     H219417   4.897   1.410   2.575
 6119WAT      O19418   4.988   0.372   2.464
 6119WAT     H119419   4.893   0.376   2.478
 6119WAT     H219420   5.021   0.454   2.503
 6120WAT      O19421   4.597   1.574   2.523
 6120WAT     H119422   4.598   1.534   2.436
 6120WAT     H219423   4.541   1.652   2.513
 6121WAT      O19424   4.726   1.246   2.032
 6121WAT     H119425   4.715   1.152   2.044
 6121WAT     H219426   4.726   1.282   2.121
 6122WAT      O19427   4.536   1.064   2.656
 6122WAT     H119428   4.578   1.043   2.572
 6122WAT     H219429   4.609   1.090   2.713
 6123WAT      O19430   4.280   0.809   1.968
 6123WAT     H119431   4.187   0.802   1.990
 6123WAT     H219432   4.295   0.903   1.956
 6124WAT      O19433   4.279   0.436   1.667
 6124WAT     H119434   4.185   0.452   1.676
 6124WAT     H219435   4.311   0.508   1.613
 6125WAT      O19436   4.931   0.904   2.665
 6125WAT     H119437   4.848   0.911   2.618
 6125WAT     H219438   4.991   0.963   2.618
 6126WAT      O19439   4.683   0.965   2.018
 6126WAT     H119440   4.621   0.931   1.953
 6126WAT     H219441   4.681   0.901   2.089
 6127WAT      O19442   4.627   0.583   2.760
 6127WAT     H119443   4.586   0.666   2.785
 6127WAT     H219444   4.554   0.524   2.740
 6128WAT      O19445   3.841   0.862   2.246
 6128WAT     H119446   3.800   0.790   2.196
 6128WAT     H219447   3.849   0.827   2.335
 6129WAT      O19448   3.888   1.230   2.462
 6129WAT     H119449   3.858   1.170   2.394
 6129WAT     H219450   3.983   1.234   2.451
 6130WAT      O19451   3.712   0.539   2.624
 6130WAT     H119452   3.767   0.550   2.546
 6130WAT     H219453   3.763   0.576   2.695
 6131WAT      O19454   4.696   1.588   2.828
 6131WAT     H119455   4.649   1.668   2.809
 6131WAT     H219456   4.628   1.522   2.844
 6132WAT      O19457   4.501   0.889   1.719
 6132WAT     H119458   4.545   0.805   1.704
 6132WAT     H219459   4.572   0.952   1.727
 6133WAT      O19460   3.679   0.891   2.985
 6133WAT     H119461   3.666   0.978   3.022
 6133WAT     H219462   3.591   0.857   2.970
 6134WAT      O19463   4.312   1.383   2.115
 6134WAT     H119464   4.356   1.457   2.074
 6134WAT     H219465   4.306   1.407   2.208
 6135WAT      O19466   3.511   0.751   1.996
 6135WAT     H119467   3.499   0.824   1.935
 6135WAT     H219468   3.480   0.674   1.948
 6136WAT      O19469   5.054   1.564   3.335
 6136WAT     H119470   5.102   1.612   3.403
 6136WAT     H219471   5.116   1.557   3.263
 6137WAT      O19472   3.275   1.068   2.577
 6137WAT     H119473   3.282   1.082   2.482
 6137WAT     H219474   3.336   0.997   2.596
 6138WAT      O19475   3.399   1.238   2.218
 6138WAT     H119476   3.358   1.252   2.132
 6138WAT     H219477   3.488   1.210   2.197
 6139WAT      O19478   4.995   1.283   3.051
 6139WAT     H119479   5.007   1.259   2.960
 6139WAT     H219480   4.999   1.200   3.099
 6140WAT      O19481   4.381   1.653   2.908
 6140WAT     H119482   4.432   1.644   2.989
 6140WAT     H219483   4.297   1.688   2.938
 6141WAT      O19484   4.578   1.682   1.851
 6141WAT     H119485   4.562   1.653   1.941
 6141WAT     H219486   4.562   1.604   1.798
 6142WAT      O19487   3.826   1.660   2.029
 6142WAT     H119488   3.809   1.568   2.008
 6142WAT     H219489   3.741   1.696   2.053
 6143WAT      O19490   4.549   1.433   1.707
 6143WAT     H119491   4.479   1.432   1.641
 6143WAT     H219492   4.623   1.390   1.664
 6144WAT      O19493   4.505   1.595   2.115
 6144WAT     H119494   4.551   1.517   2.146
 6144WAT     H219495   4.539   1.666   2.169
 6145WAT      O19496   4.980   0.488   3.148
 6145WAT     H119497   4.918   0.539   3.095
 6145WAT     H219498   4.948   0.398   3.142
 6146WAT      O19499   3.280   1.172   2.830
 6146WAT     H119500   3.297   1.125   2.749
 6146WAT     H219501   3.327   1.122   2.897
 6147WAT      O19502   4.186   0.372   2.894
 6147WAT     H119503   4.140   0.393   2.976
 6147WAT     H219504   4.146   0.291   2.864
 6148WAT      O19505   4.686   0.494   3.007
 6148WAT     H119506   4.601   0.464   3.040
 6148WAT     H219507   4.670   0.519   2.916
 6149WAT      O19508   4.396   0.644   3.217
 6149WAT     H119509   4.428   0.561   3.183
 6149WAT     H219510   4.474   0.696   3.232
 6150WAT      O19511   3.737   0.598   2.107
 6150WAT     H119512   3.714   0.576   2.197
 6150WAT     H219513   3.659   0.641   2.072
 6151WAT      O19514   4.460   0.598   1.967
 6151WAT     H119515   4.400   0.671   1.948
 6151WAT     H219516   4.514   0.592   1.889
 6152WAT      O19517   3.981   0.688   3.174
 6152WAT     H119518   3.971   0.594   3.159
 6152WAT     H219519   4.065   0.710   3.134
 6153WAT      O19520   4.320   0.462   2.170
 6153WAT     H119521   4.360   0.494   2.089
 6153WAT     H219522   4.356   0.374   2.181
 6154WAT      O19523   3.494   0.329   2.989
 6154WAT     H119524   3.454   0.413   3.010
 6154WAT     H219525   3.425   0.265   3.008
 6155WAT      O19526   4.151   0.337   3.296
 6155WAT     H119527   4.082   0.318   3.359
 6155WAT     H219528   4.225   0.365   3.349
 6156WAT      O19529   3.243   0.515   1.513
 6156WAT     H119530   3.234   0.610   1.527
 6156WAT     H219531   3.207   0.501   1.425
 6157WAT      O19532   4.379   0.721   2.579
 6157WAT     H119533   4.306   0.772   2.614
 6157WAT     H219534   4.339   0.639   2.549
 6158WAT      O19535   4.023   0.389   2.420
 6158WAT     H119536   4.023   0.345   2.335
 6158WAT     H219537   4.112   0.421   2.431
 6159WAT      O19538   3.608   0.377   2.316
 6159WAT     H119539   3.574   0.425   2.391
 6159WAT     H219540   3.531   0.332   2.280
 6160WAT      O19541   4.029   0.489   1.719
 6160WAT     H119542   4.041   0.485   1.814
 6160WAT     H219543   3.990   0.575   1.703
 6161WAT      O19544   4.425   0.266   2.521
 6161WAT     H119545   4.427   0.311   2.605
 6161WAT     H219546   4.400   0.176   2.542
 6162WAT      O19547   3.930   0.720   1.659
 6162WAT     H119548   3.873   0.675   1.596
 6162WAT     H219549   4.001   0.756   1.605
 6163WAT      O19550   3.438   1.110   3.046
 6163WAT     H119551   3.399   1.046   3.106
 6163WAT     H219552   3.469   1.180   3.103
 6164WAT      O19553   4.053   0.795   2.595
 6164WAT     H119554   4.089   0.747   2.669
 6164WAT     H219555   4.034   0.882   2.629
 6165WAT      O19556   3.339   0.269   2.207
 6165WAT     H119557   3.310   0.233   2.291
 6165WAT     H219558   3.333   0.196   2.146
 6166WAT      O19559   3.832   0.699   2.826
 6166WAT     H119560   3.801   0.787   2.849
 6166WAT     H219561   3.927   0.705   2.830
 6167WAT      O19562   3.684   1.119   1.886
 6167WAT     H119563   3.607   1.065   1.870
 6167WAT     H219564   3.757   1.067   1.852
 6168WAT      O19565   4.760   1.019   2.465
 6168WAT     H119566   4.832   1.069   2.426
 6168WAT     H219567   4.740   0.951   2.401
 6169WAT      O19568   4.298   1.026   3.054
 6169WAT     H119569   4.292   0.934   3.029
 6169WAT     H219570   4.236   1.036   3.125
 6170WAT      O19571   4.578   0.596   1.709
 6170WAT     H119572   4.667   0.627   1.692
 6170WAT     H219573   4.575   0.508   1.670
 6171WAT      O19574   3.689   1.086   2.250
 6171WAT     H119575   3.741   1.006   2.244
 6171WAT     H219576   3.644   1.080   2.334
 6172WAT      O19577   4.177   1.213   1.777
 6172WAT     H119578   4.212   1.287   1.728
 6172WAT     H219579   4.095   1.244   1.813
 6173WAT      O19580   3.437   0.783   2.941
 6173WAT     H119581   3.401   0.849   3.000
 6173WAT     H219582   3.408   0.700   2.978
 6174WAT      O19583   3.757   0.829   3.229
 6174WAT     H119584   3.727   0.843   3.140
 6174WAT     H219585   3.834   0.773   3.220
 6175WAT      O19586   4.292   1.308   3.029
 6175WAT     H119587   4.293   1.215   3.007
 6175WAT     H219588   4.221   1.317   3.093
 6176WAT      O19589   4.805   0.727   1.656
 6176WAT     H119590   4.797   0.770   1.571
 6176WAT     H219591   4.877   0.773   1.699
 6177WAT      O19592   4.913   0.972   2.964
 6177WAT     H119593   4.840   1.032   2.944
 6177WAT     H219594   4.966   0.972   2.884
 6178WAT      O19595   4.908   1.412   1.929
 6178WAT     H119596   4.844   1.347   1.956
 6178WAT     H219597   4.869   1.453   1.851
 6179WAT      O19598   4.466   1.145   2.314
 6179WAT     H119599   4.501   1.085   2.248
 6179WAT     H219600   4.377   1.112   2.331
 6180WAT      O19601   4.074   1.221   2.054
 6180WAT     H119602   4.143   1.276   2.092
 6180WAT     H219603   3.996   1.275   2.058
 6181WAT      O19604   3.288   0.783   1.603
 6181WAT     H119605   3.375   0.811   1.632
 6181WAT     H219606   3.239   0.864   1.592
 6182WAT      O19607   4.005   0.921   2.016
 6182WAT     H119608   4.050   1.002   2.038
 6182WAT     H219609   3.970   0.890   2.099
 6183WAT      O19610   4.235   1.472   2.738
 6183WAT     H119611   4.299   1.493   2.806
 6183WAT     H219612   4.271   1.396   2.693
 6184WAT      O19613   4.362   1.273   2.610
 6184WAT     H119614   4.427   1.203   2.622
 6184WAT     H219615   4.415   1.351   2.592
 6185WAT      O19616   4.747   1.301   1.583
 6185WAT     H119617   4.724   1.230   1.642
 6185WAT     H219618   4.708   1.276   1.499
 6186WAT      O19619   4.540   1.353   2.931
 6186WAT     H119620   4.573   1.411   2.998
 6186WAT     H219621   4.448   1.340   2.954
 6187WAT      O19622   3.325   1.704   1.660
 6187WAT     H119623   3.361   1.764   1.595
 6187WAT     H219624   3.311   1.759   1.737
 6188WAT      O19625   4.705   1.093   1.749
 6188WAT     H119626   4.676   1.139   1.828
 6188WAT     H219627   4.785   1.047   1.776
 6189WAT      O19628   3.323   1.530   3.107
 6189WAT     H119629   3.334   1.436   3.093
 6189WAT     H219630   3.258   1.557   3.043
 6190WAT      O19631   4.123   1.358   3.247
 6190WAT     H119632   4.091   1.286   3.302
 6190WAT     H219633   4.055   1.425   3.255
 6191WAT      O19634   3.927   1.442   1.742
 6191WAT     H119635   3.926   1.516   1.680
 6191WAT     H219636   3.835   1.418   1.751
 6192WAT      O19637   3.487   0.964   1.816
 6192WAT     H119638   3.426   1.038   1.817
 6192WAT     H219639   3.534   0.973   1.734
 6193WAT      O19640   4.444   0.381   2.784
 6193WAT     H119641   4.481   0.299   2.817
 6193WAT     H219642   4.358   0.387   2.825
 6194WAT      O19643   4.781   0.276   1.865
 6194WAT     H119644   4.718   0.287   1.793
 6194WAT     H219645   4.731   0.298   1.944
 6195WAT      O19646   4.225   1.449   1.608
 6195WAT     H119647   4.235   1.428   1.515
 6195WAT     H219648   4.135   1.423   1.629
 6196WAT      O19649   3.978   0.504   2.006
 6196WAT     H119650   3.907   0.551   2.050
 6196WAT     H219651   4.006   0.439   2.070
 6197WAT      O19652   4.140   0.646   2.806
 6197WAT     H119653   4.190   0.694   2.873
 6197WAT     H219654   4.154   0.554   2.827
 6198WAT      O19655   4.381   0.177   2.150
 6198WAT     H119656   4.368   0.179   2.055
 6198WAT     H219657   4.476   0.182   2.162
 6199WAT      O19658   4.090   1.700   2.078
 6199WAT     H119659   4.115   1.697   1.985
 6199WAT     H219660   3.995   1.688   2.077
 6200WAT      O19661   3.798   0.335   1.744
 6200WAT     H119662   3.883   0.379   1.737
 6200WAT     H219663   3.761   0.366   1.827
 6201WAT      O19664   4.861   0.268   2.890
 6201WAT     H119665   4.811   0.342   2.924
 6201WAT     H219666   4.942   0.307   2.859
 6202WAT      O19667   4.690   0.792   2.235
 6202WAT     H119668   4.596   0.794   2.253
 6202WAT     H219669   4.721   0.714   2.280
 6203WAT      O19670   3.688   0.960   1.591
 6203WAT     H119671   3.764   0.949   1.647
 6203WAT     H219672   3.696   0.891   1.526
 6204WAT      O19673   3.557   0.704   1.659
 6204WAT     H119674   3.565   0.609   1.671
 6204WAT     H219675   3.647   0.737   1.670
 6205WAT      O19676   4.890   1.509   2.403
 6205WAT     H119677   4.903   1.592   2.450
 6205WAT     H219678   4.977   1.488   2.368
 6206WAT      O19679   3.637   1.719   2.370
 6206WAT     H119680   3.711   1.664   2.397
 6206WAT     H219681   3.676   1.805   2.356
 6207WAT      O19682   3.326   1.325   1.957
 6207WAT     H119683   3.233   1.350   1.956
 6207WAT     H219684   3.372   1.408   1.945
 6208WAT      O19685   3.948   1.636   1.552
 6208WAT     H119686   4.028   1.665   1.507
 6208WAT     H219687   3.897   1.593   1.484
 6209WAT      O19688   4.422   1.248   3.283
 6209WAT     H119689   4.361   1.250   3.209
 6209WAT     H219690   4.391   1.175   3.337
 6210WAT      O19691   4.565   1.621   3.145
 6210WAT     H119692   4.660   1.612   3.140
 6210WAT     H219693   4.550   1.687   3.212
 6211WAT      O19694   4.854   1.559   1.694
 6211WAT     H119695   4.825   1.517   1.613
 6211WAT     H219696   4.834   1.652   1.682
 6212WAT      O19697   3.310   0.886   3.183
 6212WAT     H119698   3.360   0.828   3.240
 6212WAT     H219699   3.236   0.914   3.237
 6213WAT      O19700   4.000   1.158   1.538
 6213WAT     H119701   3.990   1.097   1.611
 6213WAT     H219702   3.984   1.106   1.460
 6214WAT      O19703   4.015   1.027   3.136
 6214WAT     H119704   3.939   1.083   3.128
 6214WAT     H219705   4.034   0.997   3.047
 6215WAT      O19706   4.324   1.064   1.599
 6215WAT     H119707   4.269   1.109   1.663
 6215WAT     H219708   4.386   1.014   1.651
 6216WAT      O19709   4.730   1.200   3.192
 6216WAT     H119710   4.804   1.233   3.142
 6216WAT     H219711   4.653   1.217   3.137
 6217WAT      O19712   3.513   0.700   3.273
 6217WAT     H119713   3.517   0.670   3.363
 6217WAT     H219714   3.599   0.740   3.257
 6218WAT      O19715   3.891   0.960   1.789
 6218WAT     H119716   3.933   0.944   1.873
 6218WAT     H219717   3.904   0.879   1.739
 6219WAT      O19718   3.707   0.558   3.069
 6219WAT     H119719   3.654   0.509   3.007
 6219WAT     H219720   3.774   0.601   3.016
 6220WAT      O19721   4.142   0.863   1.513
 6220WAT     H119722   4.194   0.791   1.477
 6220WAT     H219723   4.207   0.926   1.543
 6221WAT      O19724   4.597   1.005   3.046
 6221WAT     H119725   4.639   1.020   3.131
 6221WAT     H219726   4.504   1.017   3.062
 6222WAT      O19727   4.644   0.739   3.246
 6222WAT     H119728   4.703   0.663   3.237
 6222WAT     H219729   4.662   0.792   3.168
 6223WAT      O19730   3.756   0.255   3.077
 6223WAT     H119731   3.747   0.193   3.005
 6223WAT     H219732   3.698   0.327   3.055
 6224WAT      O19733   4.073   1.000   2.843
 6224WAT     H119734   4.115   1.084   2.825
 6224WAT     H219735   3.981   1.014   2.820
 6225WAT      O19736   4.307   0.773   2.981
 6225WAT     H119737   4.319   0.714   3.055
 6225WAT     H219738   4.393   0.777   2.939
 6226WAT      O19739   4.541   0.829   2.839
 6226WAT     H119740   4.488   0.881   2.778
 6226WAT     H219741   4.575   0.892   2.902
 6227WAT      O19742   3.781   0.567   1.483
 6227WAT     H119743   3.761   0.481   1.519
 6227WAT     H219744   3.764   0.559   1.389
 6228WAT      O19745   3.984   0.427   3.107
 6228WAT     H119746   4.043   0.397   3.176
 6228WAT     H219747   3.902   0.380   3.122
 6229WAT      O19748   4.466   0.389   3.130
 6229WAT     H119749   4.397   0.323   3.124
 6229WAT     H219750   4.538   0.344   3.175
 6230WAT      O19751   3.660   0.277   1.482
 6230WAT     H119752   3.691   0.278   1.391
 6230WAT     H219753   3.734   0.242   1.532
 6231WAT      O19754   4.199   1.671   1.742
 6231WAT     H119755   4.288   1.704   1.745
 6231WAT     H219756   4.202   1.598   1.680
 6232WAT      O19757   3.563   1.208   1.565
 6232WAT     H119758   3.607   1.262   1.631
 6232WAT     H219759   3.611   1.125   1.566
 6233WAT      O19760   3.284   1.487   2.310
 6233WAT     H119761   3.317   1.400   2.287
 6233WAT     H219762   3.327   1.507   2.393
 6234WAT      O19763   3.744   1.320   2.076
 6234WAT     H119764   3.714   1.308   2.166
 6234WAT     H219765   3.733   1.234   2.036
 6235WAT      O19766   3.333   1.574   2.584
 6235WAT     H119767   3.289   1.592   2.667
 6235WAT     H219768   3.390   1.649   2.570
 6236WAT      O19769   4.897   1.524   3.013
 6236WAT     H119770   4.837   1.530   2.939
 6236WAT     H219771   4.910   1.430   3.026
 6237WAT      O19772   5.021   1.298   1.547
 6237WAT     H119773   4.938   1.305   1.594
 6237WAT     H219774   5.038   1.387   1.516
 6238WAT      O19775   4.966   0.972   1.797
 6238WAT     H119776   5.043   1.029   1.808
 6238WAT     H219777   4.968   0.916   1.874
 6239WAT      O19778   3.316   0.825   2.220
 6239WAT     H119779   3.251   0.798   2.156
 6239WAT     H219780   3.400   0.814   2.175
 6240WAT      O19781   5.067   1.058   2.281
 6240WAT     H119782   5.104   0.980   2.241
 6240WAT     H219783   5.131   1.127   2.264
 6241WAT      O19784   4.765   1.196   2.823
 6241WAT     H119785   4.684   1.239   2.849
 6241WAT     H219786   4.806   1.257   2.761
 6242WAT      O19787   4.972   1.002   1.513
 6242WAT     H119788   4.999   1.092   1.500
 6242WAT     H219789   4.953   0.995   1.606
 6243WAT      O19790   4.611   0.304   1.642
 6243WAT     H119791   4.653   0.285   1.558
 6243WAT     H219792   4.581   0.219   1.673
 6244WAT      O19793   4.961   0.795   2.012
 6244WAT     H119794   4.924   0.719   1.969
 6244WAT     H219795   4.888   0.834   2.061
 6245WAT      O19796   3.420   0.863   2.674
 6245WAT     H119797   3.457   0.855   2.762
 6245WAT     H219798   3.363   0.787   2.664
 6246WAT      O19799   4.900   0.710   2.975
 6246WAT     H119800   4.877   0.687   2.885
 6246WAT     H219801   4.926   0.802   2.971
 6247WAT      O19802   3.375   0.554   3.065
 6247WAT     H119803   3.286   0.551   3.099
 6247WAT     H219804   3.429   0.574   3.141
 6248WAT      O19805   4.744   0.233   3.253
 6248WAT     H119806   4.832   0.233   3.292
 6248WAT     H219807   4.745   0.159   3.192
 6249WAT      O19808   3.238   0.546   1.814
 6249WAT     H119809   3.147   0.572   1.797
 6249WAT     H219810   3.286   0.573   1.736
 6250WAT      O19811   4.889   0.618   2.342
 6250WAT     H119812   4.941   0.569   2.279
 6250WAT     H219813   4.947   0.631   2.417
 6251WAT      O19814   4.907   0.626   2.694
 6251WAT     H119815   4.812   0.623   2.706
 6251WAT     H219816   4.925   0.717   2.671
 6252WAT      O19817   3.492   0.451   1.605
 6252WAT     H119818   3.563   0.409   1.557
 6252WAT     H219819   3.420   0.458   1.542
 6253WAT      O19820   4.838   0.544   1.936
 6253WAT     H119821   4.887   0.520   2.015
 6253WAT     H219822   4.818   0.460   1.894
 6254WAT      O19823   4.981   0.407   2.189
 6254WAT     H119824   4.970   0.392   2.283
 6254WAT     H219825   5.057   0.354   2.165
 6255WAT      O19826   5.069   0.190   1.514
 6255WAT     H119827   5.162   0.177   1.493
 6255WAT     H219828   5.067   0.198   1.609
 6256WAT      O19829   5.077   0.267   1.776
 6256WAT     H119830   4.997   0.261   1.829
 6256WAT     H219831   5.097   0.361   1.775
 6257WAT      O19832   4.771   1.671   2.175
 6257WAT     H119833   4.831   1.639   2.108
 6257WAT     H219834   4.797   1.624   2.255
 6258WAT      O19835   5.058   1.672   2.831
 6258WAT     H119836   5.008   1.712   2.759
 6258WAT     H219837   4.997   1.610   2.870
 6259WAT      O19838   4.826   1.736   2.558
 6259WAT     H119839   4.780   1.811   2.521
 6259WAT     H219840   4.763   1.664   2.553
 6260WAT      O19841   3.509   1.346   2.797
 6260WAT     H119842   3.436   1.284   2.791
 6260WAT     H219843   3.515   1.385   2.710
 6261WAT      O19844   3.869   1.567   2.476
 6261WAT     H119845   3.921   1.506   2.423
 6261WAT     H219846   3.934   1.618   2.525
 6262WAT      O19847   4.143   1.656   2.559
 6262WAT     H119848   4.172   1.631   2.471
 6262WAT     H219849   4.194   1.601   2.618
 6263WAT      O19850   3.337   1.678   2.118
 6263WAT     H119851   3.320   1.614   2.188
 6263WAT     H219852   3.250   1.698   2.083
 6264WAT      O19853   4.053   0.272   2.168
 6264WAT     H119854   3.972   0.235   2.134
 6264WAT     H219855   4.104   0.197   2.198
 6265WAT      O19856   3.498   1.547   1.863
 6265WAT     H119857   3.445   1.585   1.793
 6265WAT     H219858   3.490   1.609   1.935
 6266WAT      O19859   4.973   1.703   1.995
 6266WAT     H119860   4.991   1.634   1.931
 6266WAT     H219861   4.903   1.755   1.956
 6267WAT      O19862   3.757   1.742   1.750
 6267WAT     H119863   3.831   1.713   1.696
 6267WAT     H219864   3.783   1.718   1.839
 6268WAT      O19865   3.674   1.353   1.751
 6268WAT     H119866   3.611   1.400   1.806
 6268WAT     H219867   3.685   1.269   1.794
 6269WAT      O19868   4.807   1.671   3.278
 6269WAT     H119869   4.886   1.622   3.257
 6269WAT     H219870   4.836   1.739   3.338
 6270WAT      O19871   4.419   0.758   0.366
 6270WAT     H119872   4.411   0.667   0.339
 6270WAT     H219873   4.378   0.808   0.295
 6271WAT      O19874   4.232   0.936   0.554
 6271WAT     H119875   4.155   0.888   0.583
 6271WAT     H219876   4.297   0.868   0.537
 6272WAT      O19877   3.634   0.967   0.642
 6272WAT     H119878   3.551   0.942   0.682
 6272WAT     H219879   3.695   0.974   0.715
 6273WAT      O19880   4.634   1.377   0.432
 6273WAT     H119881   4.588   1.300   0.465
 6273WAT     H219882   4.716   1.379   0.482
 6274WAT      O19883   3.632   1.371   0.661
 6274WAT     H119884   3.662   1.282   0.643
 6274WAT     H219885   3.706   1.426   0.639
 6275WAT      O19886   3.271   0.723   0.609
 6275WAT     H119887   3.328   0.647   0.609
 6275WAT     H219888   3.271   0.753   0.518
 6276WAT      O19889   4.257   1.605   0.394
 6276WAT     H119890   4.195   1.651   0.337
 6276WAT     H219891   4.343   1.621   0.354
 6277WAT      O19892   4.176   1.204   0.555
 6277WAT     H119893   4.169   1.110   0.539
 6277WAT     H219894   4.253   1.213   0.612
 6278WAT      O19895   3.395   0.264   0.787
 6278WAT     H119896   3.378   0.175   0.815
 6278WAT     H219897   3.355   0.319   0.855
 6279WAT      O19898   4.279   0.484   0.577
 6279WAT     H119899   4.317   0.397   0.566
 6279WAT     H219900   4.270   0.518   0.488
 6280WAT      O19901   4.658   0.234   0.271
 6280WAT     H119902   4.740   0.185   0.275
 6280WAT     H219903   4.661   0.293   0.346
 6281WAT      O19904   3.457   0.514   0.648
 6281WAT     H119905   3.525   0.540   0.710
 6281WAT     H219906   3.426   0.430   0.681
 6282WAT      O19907   3.877   0.619   0.557
 6282WAT     H119908   3.927   0.668   0.621
 6282WAT     H219909   3.930   0.541   0.539
 6283WAT      O19910   5.087   0.436   0.927
 6283WAT     H119911   5.016   0.474   0.875
 6283WAT     H219912   5.113   0.505   0.987
 6284WAT      O19913   3.830   1.046   0.801
 6284WAT     H119914   3.797   1.109   0.865
 6284WAT     H219915   3.848   1.099   0.723
 6285WAT      O19916   4.681   0.428   0.548
 6285WAT     H119917   4.611   0.457   0.606
 6285WAT     H219918   4.717   0.509   0.512
 6286WAT      O19919   3.673   0.254   0.784
 6286WAT     H119920   3.707   0.338   0.755
 6286WAT     H219921   3.579   0.268   0.796
 6287WAT      O19922   3.751   1.243   0.983
 6287WAT     H119923   3.813   1.311   0.954
 6287WAT     H219924   3.665   1.284   0.974
 6288WAT      O19925   4.843   1.390   0.774
 6288WAT     H119926   4.775   1.457   0.773
 6288WAT     H219927   4.897   1.410   0.698
 6289WAT      O19928   4.988   0.372   0.587
 6289WAT     H119929   4.893   0.376   0.600
 6289WAT     H219930   5.021   0.454   0.625
 6290WAT      O19931   4.597   1.574   0.646
 6290WAT     H119932   4.598   1.534   0.559
 6290WAT     H219933   4.541   1.652   0.635
 6291WAT      O19934   4.536   1.064   0.778
 6291WAT     H119935   4.578   1.043   0.695
 6291WAT     H219936   4.609   1.090   0.836
 6292WAT      O19937   4.931   0.904   0.788
 6292WAT     H119938   4.848   0.911   0.740
 6292WAT     H219939   4.991   0.963   0.741
 6293WAT      O19940   4.627   0.583   0.882
 6293WAT     H119941   4.586   0.666   0.908
 6293WAT     H219942   4.554   0.524   0.863
 6294WAT      O19943   3.841   0.862   0.368
 6294WAT     H119944   3.800   0.790   0.319
 6294WAT     H219945   3.849   0.827   0.457
 6295WAT      O19946   3.888   1.230   0.585
 6295WAT     H119947   3.858   1.170   0.517
 6295WAT     H219948   3.983   1.234   0.574
 6296WAT      O19949   3.712   0.539   0.746
 6296WAT     H119950   3.767   0.550   0.669
 6296WAT     H219951   3.763   0.576   0.818
 6297WAT      O19952   4.696   1.588   0.951
 6297WAT     H119953   4.649   1.668   0.932
 6297WAT     H219954   4.628   1.522   0.966
 6298WAT      O19955   3.797   1.204   1.250
 6298WAT     H119956   3.707   1.226   1.275
 6298WAT     H219957   3.799   1.216   1.155
 6299WAT      O19958   3.679   0.891   1.107
 6299WAT     H119959   3.666   0.978   1.144
 6299WAT     H219960   3.591   0.857   1.093
 6300WAT      O19961   4.312   1.383   0.238
 6300WAT     H119962   4.356   1.457   0.197
 6300WAT     H219963   4.306   1.407   0.330
 6301WAT      O19964   3.859   1.485   1.328
 6301WAT     H119965   3.856   1.526   1.242
 6301WAT     H219966   3.843   1.393   1.312
 6302WAT      O19967   5.054   1.564   1.458
 6302WAT     H119968   5.102   1.612   1.526
 6302WAT     H219969   5.116   1.557   1.385
 6303WAT      O19970   3.275   1.068   0.699
 6303WAT     H119971   3.282   1.082   0.605
 6303WAT     H219972   3.336   0.997   0.718
 6304WAT      O19973   3.399   1.238   0.340
 6304WAT     H119974   3.358   1.252   0.255
 6304WAT     H219975   3.488   1.210   0.320
 6305WAT      O19976   4.995   1.283   1.174
 6305WAT     H119977   5.007   1.259   1.082
 6305WAT     H219978   4.999   1.200   1.221
 6306WAT      O19979   4.381   1.653   1.031
 6306WAT     H119980   4.432   1.644   1.111
 6306WAT     H219981   4.297   1.688   1.060
 6307WAT      O19982   4.505   1.595   0.237
 6307WAT     H119983   4.551   1.517   0.269
 6307WAT     H219984   4.539   1.666   0.292
 6308WAT      O19985   4.980   0.488   1.270
 6308WAT     H119986   4.918   0.539   1.218
 6308WAT     H219987   4.948   0.398   1.265
 6309WAT      O19988   3.280   1.172   0.953
 6309WAT     H119989   3.297   1.125   0.871
 6309WAT     H219990   3.327   1.122   1.020
 6310WAT      O19991   4.186   0.372   1.017
 6310WAT     H119992   4.140   0.393   1.098
 6310WAT     H219993   4.146   0.291   0.987
 6311WAT      O19994   4.686   0.494   1.130
 6311WAT     H119995   4.601   0.464   1.162
 6311WAT     H219996   4.670   0.519   1.039
 6312WAT      O19997   4.396   0.644   1.340
 6312WAT     H119998   4.428   0.561   1.306
 6312WAT     H219999   4.474   0.696   1.355
 6313WAT      O20000   3.737   0.598   0.229
 6313WAT     H120001   3.714   0.576   0.320
 6313WAT     H220002   3.659   0.641   0.195
 6314WAT      O20003   3.981   0.688   1.296
 6314WAT     H120004   3.971   0.594   1.281
 6314WAT     H220005   4.065   0.710   1.257
 6315WAT      O20006   4.320   0.462   0.292
 6315WAT     H120007   4.360   0.494   0.211
 6315WAT     H220008   4.356   0.374   0.304
 6316WAT      O20009   3.494   0.329   1.111
 6316WAT     H120010   3.454   0.413   1.132
 6316WAT     H220011   3.425   0.265   1.130
 6317WAT      O20012   4.151   0.337   1.418
 6317WAT     H120013   4.082   0.318   1.482
 6317WAT     H220014   4.225   0.365   1.472
 6318WAT      O20015   4.379   0.721   0.702
 6318WAT     H120016   4.306   0.772   0.737
 6318WAT     H220017   4.339   0.639   0.672
 6319WAT      O20018   4.023   0.389   0.542
 6319WAT     H120019   4.023   0.345   0.457
 6319WAT     H220020   4.112   0.421   0.553
 6320WAT      O20021   3.608   0.377   0.438
 6320WAT     H120022   3.574   0.425   0.514
 6320WAT     H220023   3.531   0.332   0.402
 6321WAT      O20024   4.425   0.266   0.643
 6321WAT     H120025   4.427   0.311   0.728
 6321WAT     H220026   4.400   0.176   0.664
 6322WAT      O20027   3.438   1.110   1.169
 6322WAT     H120028   3.399   1.046   1.229
 6322WAT     H220029   3.469   1.180   1.226
 6323WAT      O20030   4.053   0.795   0.717
 6323WAT     H120031   4.089   0.747   0.792
 6323WAT     H220032   4.034   0.882   0.751
 6324WAT      O20033   3.339   0.269   0.330
 6324WAT     H120034   3.310   0.233   0.414
 6324WAT     H220035   3.333   0.196   0.269
 6325WAT      O20036   3.832   0.699   0.949
 6325WAT     H120037   3.801   0.787   0.971
 6325WAT     H220038   3.927   0.705   0.953
 6326WAT      O20039   4.760   1.019   0.588
 6326WAT     H120040   4.832   1.069   0.549
 6326WAT     H220041   4.740   0.951   0.523
 6327WAT      O20042   4.298   1.026   1.177
 6327WAT     H120043   4.292   0.934   1.151
 6327WAT     H220044   4.236   1.036   1.248
 6328WAT      O20045   3.689   1.086   0.372
 6328WAT     H120046   3.741   1.006   0.367
 6328WAT     H220047   3.644   1.080   0.457
 6329WAT      O20048   3.437   0.783   1.064
 6329WAT     H120049   3.401   0.849   1.122
 6329WAT     H220050   3.408   0.700   1.101
 6330WAT      O20051   3.757   0.829   1.352
 6330WAT     H120052   3.727   0.843   1.262
 6330WAT     H220053   3.834   0.773   1.343
 6331WAT      O20054   4.292   1.308   1.152
 6331WAT     H120055   4.293   1.215   1.130
 6331WAT     H220056   4.221   1.317   1.215
 6332WAT      O20057   4.913   0.972   1.086
 6332WAT     H120058   4.840   1.032   1.067
 6332WAT     H220059   4.966   0.972   1.006
 6333WAT      O20060   4.466   1.145   0.436
 6333WAT     H120061   4.501   1.085   0.370
 6333WAT     H220062   4.377   1.112   0.453
 6334WAT      O20063   4.074   1.221   0.177
 6334WAT     H120064   4.143   1.276   0.215
 6334WAT     H220065   3.996   1.275   0.180
 6335WAT      O20066   4.235   1.472   0.861
 6335WAT     H120067   4.299   1.493   0.929
 6335WAT     H220068   4.271   1.396   0.816
 6336WAT      O20069   4.362   1.273   0.733
 6336WAT     H120070   4.427   1.203   0.744
 6336WAT     H220071   4.415   1.351   0.715
 6337WAT      O20072   4.540   1.353   1.053
 6337WAT     H120073   4.573   1.411   1.121
 6337WAT     H220074   4.448   1.340   1.076
 6338WAT      O20075   3.323   1.530   1.230
 6338WAT     H120076   3.334   1.436   1.216
 6338WAT     H220077   3.258   1.557   1.165
 6339WAT      O20078   4.123   1.358   1.370
 6339WAT     H120079   4.091   1.286   1.424
 6339WAT     H220080   4.055   1.425   1.377
 6340WAT      O20081   4.444   0.381   0.906
 6340WAT     H120082   4.481   0.299   0.939
 6340WAT     H220083   4.358   0.387   0.948
 6341WAT      O20084   4.140   0.646   0.929
 6341WAT     H120085   4.190   0.694   0.995
 6341WAT     H220086   4.154   0.554   0.949
 6342WAT      O20087   4.381   0.177   0.273
 6342WAT     H120088   4.368   0.179   0.178
 6342WAT     H220089   4.476   0.182   0.285
 6343WAT      O20090   4.861   0.268   1.013
 6343WAT     H120091   4.811   0.342   1.047
 6343WAT     H220092   4.942   0.307   0.981
 6344WAT      O20093   4.690   0.792   0.358
 6344WAT     H120094   4.596   0.794   0.375
 6344WAT     H220095   4.721   0.714   0.402
 6345WAT      O20096   4.890   1.509   0.525
 6345WAT     H120097   4.903   1.592   0.572
 6345WAT     H220098   4.977   1.488   0.490
 6346WAT      O20099   3.637   1.719   0.492
 6346WAT     H120100   3.711   1.664   0.519
 6346WAT     H220101   3.676   1.805   0.478
 6347WAT      O20102   3.538   1.637   1.411
 6347WAT     H120103   3.618   1.669   1.453
 6347WAT     H220104   3.487   1.601   1.483
 6348WAT      O20105   4.422   1.248   1.406
 6348WAT     H120106   4.361   1.250   1.332
 6348WAT     H220107   4.391   1.175   1.460
 6349WAT      O20108   4.565   1.621   1.267
 6349WAT     H120109   4.660   1.612   1.262
 6349WAT     H220110   4.550   1.687   1.334
 6350WAT      O20111   3.310   0.886   1.306
 6350WAT     H120112   3.360   0.828   1.363
 6350WAT     H220113   3.236   0.914   1.359
 6351WAT      O20114   4.015   1.027   1.259
 6351WAT     H120115   3.939   1.083   1.250
 6351WAT     H220116   4.034   0.997   1.170
 6352WAT      O20117   4.730   1.200   1.315
 6352WAT     H120118   4.804   1.233   1.264
 6352WAT     H220119   4.653   1.217   1.259
 6353WAT      O20120   3.513   0.700   1.395
 6353WAT     H120121   3.517   0.670   1.486
 6353WAT     H220122   3.599   0.740   1.379
 6354WAT      O20123   3.707   0.558   1.192
 6354WAT     H120124   3.654   0.509   1.129
 6354WAT     H220125   3.774   0.601   1.138
 6355WAT      O20126   4.597   1.005   1.168
 6355WAT     H120127   4.639   1.020   1.253
 6355WAT     H220128   4.504   1.017   1.185
 6356WAT      O20129   4.644   0.739   1.369
 6356WAT     H120130   4.703   0.663   1.360
 6356WAT     H220131   4.662   0.792   1.291
 6357WAT      O20132   3.756   0.255   1.200
 6357WAT     H120133   3.747   0.193   1.127
 6357WAT     H220134   3.698   0.327   1.177
 6358WAT      O20135   4.073   1.000   0.965
 6358WAT     H120136   4.115   1.084   0.948
 6358WAT     H220137   3.981   1.014   0.942
 6359WAT      O20138   4.307   0.773   1.104
 6359WAT     H120139   4.319   0.714   1.178
 6359WAT     H220140   4.393   0.777   1.062
 6360WAT      O20141   4.541   0.829   0.961
 6360WAT     H120142   4.488   0.881   0.901
 6360WAT     H220143   4.575   0.892   1.024
 6361WAT      O20144   3.858   1.631   1.077
 6361WAT     H120145   3.805   1.703   1.045
 6361WAT     H220146   3.884   1.583   0.998
 6362WAT      O20147   3.984   0.427   1.229
 6362WAT     H120148   4.043   0.397   1.298
 6362WAT     H220149   3.902   0.380   1.245
 6363WAT      O20150   4.466   0.389   1.253
 6363WAT     H120151   4.397   0.323   1.246
 6363WAT     H220152   4.538   0.344   1.297
 6364WAT      O20153   4.144   1.754   1.103
 6364WAT     H120154   4.137   1.844   1.133
 6364WAT     H220155   4.054   1.722   1.100
 6365WAT      O20156   3.284   1.487   0.433
 6365WAT     H120157   3.317   1.400   0.410
 6365WAT     H220158   3.327   1.507   0.516
 6366WAT      O20159   3.333   1.574   0.707
 6366WAT     H120160   3.289   1.592   0.790
 6366WAT     H220161   3.390   1.649   0.693
 6367WAT      O20162   4.897   1.524   1.136
 6367WAT     H120163   4.837   1.530   1.061
 6367WAT     H220164   4.910   1.430   1.149
 6368WAT      O20165   3.316   0.825   0.343
 6368WAT     H120166   3.251   0.798   0.278
 6368WAT     H220167   3.400   0.814   0.298
 6369WAT      O20168   5.067   1.058   0.404
 6369WAT     H120169   5.104   0.980   0.363
 6369WAT     H220170   5.131   1.127   0.386
 6370WAT      O20171   4.765   1.196   0.945
 6370WAT     H120172   4.684   1.239   0.972
 6370WAT     H220173   4.806   1.257   0.884
 6371WAT      O20174   3.420   0.863   0.797
 6371WAT     H120175   3.457   0.855   0.885
 6371WAT     H220176   3.363   0.787   0.787
 6372WAT      O20177   4.900   0.710   1.098
 6372WAT     H120178   4.877   0.687   1.008
 6372WAT     H220179   4.926   0.802   1.093
 6373WAT      O20180   3.375   0.554   1.187
 6373WAT     H120181   3.286   0.551   1.221
 6373WAT     H220182   3.429   0.574   1.264
 6374WAT      O20183   4.744   0.233   1.376
 6374WAT     H120184   4.832   0.233   1.414
 6374WAT     H220185   4.745   0.159   1.315
 6375WAT      O20186   4.889   0.618   0.465
 6375WAT     H120187   4.941   0.569   0.402
 6375WAT     H220188   4.947   0.631   0.539
 6376WAT      O20189   4.907   0.626   0.817
 6376WAT     H120190   4.812   0.623   0.828
 6376WAT     H220191   4.925   0.717   0.793
 6377WAT      O20192   4.981   0.407   0.312
 6377WAT     H120193   4.970   0.392   0.406
 6377WAT     H220194   5.057   0.354   0.288
 6378WAT      O20195   4.771   1.671   0.298
 6378WAT     H120196   4.831   1.639   0.230
 6378WAT     H220197   4.797   1.624   0.377
 6379WAT      O20198   3.562   1.315   1.313
 6379WAT     H120199   3.557   1.277   1.401
 6379WAT     H220200   3.575   1.408   1.327
 6380WAT      O20201   3.932   1.470   0.873
 6380WAT     H120202   3.908   1.497   0.784
 6380WAT     H220203   4.026   1.487   0.879
 6381WAT      O20204   5.058   1.672   0.953
 6381WAT     H120205   5.008   1.712   0.881
 6381WAT     H220206   4.997   1.610   0.993
 6382WAT      O20207   3.546   1.609   1.025
 6382WAT     H120208   3.486   1.596   1.099
 6382WAT     H220209   3.545   1.526   0.978
 6383WAT      O20210   4.826   1.736   0.681
 6383WAT     H120211   4.780   1.811   0.644
 6383WAT     H220212   4.763   1.664   0.675
 6384WAT      O20213   3.509   1.346   0.920
 6384WAT     H120214   3.436   1.284   0.913
 6384WAT     H220215   3.515   1.385   0.833
 6385WAT      O20216   3.869   1.567   0.598
 6385WAT     H120217   3.921   1.506   0.546
 6385WAT     H220218   3.934   1.618   0.648
 6386WAT      O20219   4.143   1.656   0.681
 6386WAT     H120220   4.172   1.631   0.594
 6386WAT     H220221   4.194   1.601   0.740
 6387WAT      O20222   3.337   1.678   0.241
 6387WAT     H120223   3.320   1.614   0.311
 6387WAT     H220224   3.250   1.698   0.206
 6388WAT      O20225   4.053   0.272   0.290
 6388WAT     H120226   3.972   0.235   0.256
 6388WAT     H220227   4.104   0.197   0.321
 6389WAT      O20228   4.150   1.748   1.418
 6389WAT     H120229   4.242   1.725   1.422
 6389WAT     H220230   4.148   1.831   1.370
 6390WAT      O20231   4.807   1.671   1.400
 6390WAT     H120232   4.886   1.622   1.380
 6390WAT     H220233   4.836   1.739   1.461
 6391WAT      O20234   2.542   6.391   5.998
 6391WAT     H120235   2.534   6.299   5.971
 6391WAT     H220236   2.500   6.440   5.928
 6392WAT      O20237   2.355   6.568   6.186
 6392WAT     H120238   2.277   6.520   6.215
 6392WAT     H220239   2.420   6.501   6.169
 6393WAT      O20240   1.757   6.600   6.274
 6393WAT     H120241   1.673   6.574   6.314
 6393WAT     H220242   1.817   6.607   6.348
 6394WAT      O20243   2.757   7.009   6.064
 6394WAT     H120244   2.711   6.932   6.097
 6394WAT     H220245   2.838   7.012   6.115
 6395WAT      O20246   1.755   7.003   6.294
 6395WAT     H120247   1.785   6.914   6.276
 6395WAT     H220248   1.829   7.059   6.271
 6396WAT      O20249   1.597   6.096   5.652
 6396WAT     H120250   1.509   6.130   5.642
 6396WAT     H220251   1.626   6.076   5.563
 6397WAT      O20252   1.394   6.356   6.241
 6397WAT     H120253   1.451   6.279   6.241
 6397WAT     H220254   1.394   6.386   6.150
 6398WAT      O20255   2.299   6.836   6.187
 6398WAT     H120256   2.292   6.742   6.171
 6398WAT     H220257   2.375   6.845   6.244
 6399WAT      O20258   1.518   5.897   6.420
 6399WAT     H120259   1.500   5.807   6.448
 6399WAT     H220260   1.478   5.951   6.487
 6400WAT      O20261   2.402   6.117   6.210
 6400WAT     H120262   2.440   6.029   6.198
 6400WAT     H220263   2.392   6.150   6.121
 6401WAT      O20264   1.815   5.954   5.756
 6401WAT     H120265   1.826   6.044   5.787
 6401WAT     H220266   1.724   5.949   5.727
 6402WAT      O20267   2.780   5.866   5.903
 6402WAT     H120268   2.862   5.817   5.907
 6402WAT     H220269   2.784   5.925   5.978
 6403WAT      O20270   1.580   6.146   6.280
 6403WAT     H120271   1.648   6.173   6.342
 6403WAT     H220272   1.548   6.062   6.314
 6404WAT      O20273   1.999   6.251   6.189
 6404WAT     H120274   2.050   6.301   6.253
 6404WAT     H220275   2.052   6.173   6.171
 6405WAT      O20276   2.466   6.726   5.766
 6405WAT     H120277   2.404   6.773   5.709
 6405WAT     H220278   2.517   6.795   5.807
 6406WAT      O20279   1.953   6.679   6.433
 6406WAT     H120280   1.919   6.741   6.498
 6406WAT     H220281   1.970   6.731   6.355
 6407WAT      O20282   2.804   6.060   6.180
 6407WAT     H120283   2.733   6.089   6.238
 6407WAT     H220284   2.840   6.141   6.144
 6408WAT      O20285   1.796   5.886   6.416
 6408WAT     H120286   1.830   5.970   6.387
 6408WAT     H220287   1.702   5.901   6.428
 6409WAT      O20288   1.403   6.795   5.503
 6409WAT     H120289   1.365   6.843   5.430
 6409WAT     H220290   1.429   6.862   5.566
 6410WAT      O20291   2.966   7.022   6.406
 6410WAT     H120292   2.897   7.089   6.406
 6410WAT     H220293   3.019   7.042   6.330
 6411WAT      O20294   3.111   6.005   6.219
 6411WAT     H120295   3.016   6.008   6.232
 6411WAT     H220296   3.143   6.086   6.258
 6412WAT      O20297   2.164   5.635   6.049
 6412WAT     H120298   2.195   5.579   5.977
 6412WAT     H220299   2.071   5.648   6.031
 6413WAT      O20300   2.849   6.879   5.787
 6413WAT     H120301   2.838   6.784   5.799
 6413WAT     H220302   2.848   6.915   5.875
 6414WAT      O20303   2.659   6.697   6.411
 6414WAT     H120304   2.701   6.675   6.327
 6414WAT     H220305   2.731   6.722   6.468
 6415WAT      O20306   2.403   6.441   5.722
 6415WAT     H120307   2.310   6.435   5.745
 6415WAT     H220308   2.418   6.535   5.711
 6416WAT      O20309   2.401   6.068   5.422
 6416WAT     H120310   2.307   6.085   5.431
 6416WAT     H220311   2.433   6.140   5.367
 6417WAT      O20312   3.054   6.537   6.420
 6417WAT     H120313   2.971   6.544   6.372
 6417WAT     H220314   3.113   6.595   6.373
 6418WAT      O20315   2.806   6.597   5.773
 6418WAT     H120316   2.744   6.564   5.708
 6418WAT     H220317   2.804   6.533   5.844
 6419WAT      O20318   1.963   6.494   6.001
 6419WAT     H120319   1.923   6.423   5.951
 6419WAT     H220320   1.972   6.459   6.090
 6420WAT      O20321   2.010   6.863   6.217
 6420WAT     H120322   1.980   6.802   6.149
 6420WAT     H220323   2.105   6.866   6.206
 6421WAT      O20324   1.835   6.171   6.379
 6421WAT     H120325   1.890   6.182   6.301
 6421WAT     H220326   1.886   6.209   6.450
 6422WAT      O20327   2.623   6.521   5.474
 6422WAT     H120328   2.667   6.438   5.459
 6422WAT     H220329   2.695   6.585   5.482
 6423WAT      O20330   2.434   7.015   5.870
 6423WAT     H120331   2.478   7.090   5.829
 6423WAT     H220332   2.428   7.040   5.963
 6424WAT      O20333   2.982   5.647   5.305
 6424WAT     H120334   2.950   5.656   5.395
 6424WAT     H220335   3.058   5.705   5.300
 6425WAT      O20336   1.633   6.383   5.751
 6425WAT     H120337   1.621   6.456   5.690
 6425WAT     H220338   1.602   6.306   5.703
 6426WAT      O20339   1.397   6.701   6.331
 6426WAT     H120340   1.405   6.714   6.237
 6426WAT     H220341   1.459   6.630   6.351
 6427WAT      O20342   1.522   6.871   5.972
 6427WAT     H120343   1.481   6.885   5.887
 6427WAT     H220344   1.611   6.842   5.952
 6428WAT      O20345   2.671   7.065   5.462
 6428WAT     H120346   2.602   7.065   5.396
 6428WAT     H220347   2.746   7.022   5.419
 6429WAT      O20348   1.880   5.718   6.089
 6429WAT     H120349   1.836   5.796   6.056
 6429WAT     H220350   1.936   5.750   6.160
 6430WAT      O20351   2.192   5.680   5.577
 6430WAT     H120352   2.129   5.679   5.650
 6430WAT     H220353   2.183   5.593   5.537
 6431WAT      O20354   2.084   5.772   6.275
 6431WAT     H120355   2.113   5.863   6.267
 6431WAT     H220356   2.139   5.723   6.213
 6432WAT      O20357   1.859   6.230   5.862
 6432WAT     H120358   1.837   6.208   5.952
 6432WAT     H220359   1.781   6.273   5.827
 6433WAT      O20360   2.582   6.231   5.722
 6433WAT     H120361   2.522   6.303   5.703
 6433WAT     H220362   2.637   6.224   5.643
 6434WAT      O20363   2.443   6.094   5.925
 6434WAT     H120364   2.482   6.126   5.843
 6434WAT     H220365   2.479   6.006   5.936
 6435WAT      O20366   1.346   5.753   6.147
 6435WAT     H120367   1.318   5.810   6.218
 6435WAT     H220368   1.421   5.705   6.183
 6436WAT      O20369   1.365   6.148   5.268
 6436WAT     H120370   1.357   6.242   5.282
 6436WAT     H220371   1.330   6.133   5.180
 6437WAT      O20372   2.501   6.353   6.334
 6437WAT     H120373   2.428   6.404   6.369
 6437WAT     H220374   2.462   6.272   6.304
 6438WAT      O20375   2.145   6.021   6.175
 6438WAT     H120376   2.145   5.977   6.090
 6438WAT     H220377   2.235   6.053   6.185
 6439WAT      O20378   1.730   6.009   6.071
 6439WAT     H120379   1.696   6.057   6.146
 6439WAT     H220380   1.654   5.964   6.035
 6440WAT      O20381   2.151   6.121   5.474
 6440WAT     H120382   2.163   6.117   5.569
 6440WAT     H220383   2.113   6.207   5.458
 6441WAT      O20384   2.548   5.899   6.275
 6441WAT     H120385   2.549   5.944   6.360
 6441WAT     H220386   2.523   5.809   6.297
 6442WAT      O20387   2.053   6.352   5.414
 6442WAT     H120388   1.996   6.307   5.351
 6442WAT     H220389   2.123   6.388   5.360
 6443WAT      O20390   2.175   6.427   6.349
 6443WAT     H120391   2.212   6.380   6.424
 6443WAT     H220392   2.156   6.514   6.383
 6444WAT      O20393   1.462   5.901   5.962
 6444WAT     H120394   1.433   5.865   6.046
 6444WAT     H220395   1.455   5.828   5.901
 6445WAT      O20396   1.807   6.752   5.641
 6445WAT     H120397   1.730   6.698   5.625
 6445WAT     H220398   1.880   6.700   5.607
 6446WAT      O20399   2.883   6.651   6.220
 6446WAT     H120400   2.955   6.701   6.181
 6446WAT     H220401   2.863   6.583   6.156
 6447WAT      O20402   2.429   5.791   5.634
 6447WAT     H120403   2.348   5.741   5.627
 6447WAT     H220404   2.410   5.875   5.593
 6448WAT      O20405   2.700   6.228   5.464
 6448WAT     H120406   2.789   6.259   5.447
 6448WAT     H220407   2.698   6.141   5.425
 6449WAT      O20408   1.811   6.718   6.005
 6449WAT     H120409   1.863   6.638   5.999
 6449WAT     H220410   1.766   6.712   6.089
 6450WAT      O20411   2.300   6.845   5.532
 6450WAT     H120412   2.334   6.920   5.482
 6450WAT     H220413   2.217   6.876   5.568
 6451WAT      O20414   2.928   6.359   5.411
 6451WAT     H120415   2.919   6.402   5.326
 6451WAT     H220416   3.000   6.405   5.454
 6452WAT      O20417   3.030   7.044   5.684
 6452WAT     H120418   2.966   6.979   5.711
 6452WAT     H220419   2.992   7.085   5.606
 6453WAT      O20420   2.588   6.777   6.068
 6453WAT     H120421   2.624   6.718   6.002
 6453WAT     H220422   2.500   6.745   6.086
 6454WAT      O20423   2.197   6.853   5.809
 6454WAT     H120424   2.266   6.908   5.847
 6454WAT     H220425   2.118   6.908   5.813
 6455WAT      O20426   1.411   6.415   5.358
 6455WAT     H120427   1.498   6.443   5.387
 6455WAT     H220428   1.362   6.496   5.347
 6456WAT      O20429   2.127   6.554   5.770
 6456WAT     H120430   2.173   6.635   5.793
 6456WAT     H220431   2.092   6.522   5.854
 6457WAT      O20432   1.717   5.588   5.818
 6457WAT     H120433   1.705   5.587   5.912
 6457WAT     H220434   1.635   5.622   5.783
 6458WAT      O20435   2.485   6.905   6.365
 6458WAT     H120436   2.549   6.835   6.376
 6458WAT     H220437   2.537   6.983   6.347
 6459WAT      O20438   2.869   6.934   5.337
 6459WAT     H120439   2.847   6.862   5.397
 6459WAT     H220440   2.830   6.909   5.254
 6460WAT      O20441   2.828   6.725   5.504
 6460WAT     H120442   2.799   6.771   5.582
 6460WAT     H220443   2.907   6.679   5.530
 6461WAT      O20444   2.049   7.075   5.497
 6461WAT     H120445   2.048   7.148   5.435
 6461WAT     H220446   1.957   7.050   5.506
 6462WAT      O20447   1.609   6.597   5.571
 6462WAT     H120448   1.549   6.671   5.572
 6462WAT     H220449   1.657   6.606   5.489
 6463WAT      O20450   2.903   5.909   5.620
 6463WAT     H120451   2.840   5.919   5.548
 6463WAT     H220452   2.854   5.931   5.699
 6464WAT      O20453   2.348   7.081   5.363
 6464WAT     H120454   2.358   7.060   5.270
 6464WAT     H220455   2.258   7.055   5.383
 6465WAT      O20456   2.100   6.137   5.761
 6465WAT     H120457   2.029   6.183   5.805
 6465WAT     H220458   2.129   6.071   5.825
 6466WAT      O20459   2.503   5.809   5.905
 6466WAT     H120460   2.491   5.811   5.810
 6466WAT     H220461   2.598   5.814   5.917
 6467WAT      O20462   1.920   5.967   5.499
 6467WAT     H120463   2.005   6.011   5.492
 6467WAT     H220464   1.884   5.999   5.581
 6468WAT      O20465   2.813   6.425   5.990
 6468WAT     H120466   2.718   6.426   6.007
 6468WAT     H220467   2.844   6.346   6.035
 6469WAT      O20468   1.810   6.593   5.346
 6469WAT     H120469   1.887   6.582   5.402
 6469WAT     H220470   1.818   6.523   5.281
 6470WAT      O20471   1.680   6.336   5.414
 6470WAT     H120472   1.688   6.241   5.426
 6470WAT     H220473   1.769   6.369   5.425
 6471WAT      O20474   1.448   6.958   5.712
 6471WAT     H120475   1.356   6.982   5.711
 6471WAT     H220476   1.495   7.040   5.700
 6472WAT      O20477   2.123   6.790   5.293
 6472WAT     H120478   2.112   6.729   5.366
 6472WAT     H220479   2.106   6.738   5.215
 6473WAT      O20480   2.447   6.697   5.354
 6473WAT     H120481   2.392   6.741   5.418
 6473WAT     H220482   2.509   6.646   5.406
 6474WAT      O20483   2.014   6.592   5.543
 6474WAT     H120484   2.056   6.576   5.628
 6474WAT     H220485   2.026   6.511   5.494
 6475WAT      O20486   2.265   6.495   5.268
 6475WAT     H120487   2.317   6.423   5.232
 6475WAT     H220488   2.330   6.559   5.298
 6476WAT      O20489   1.903   6.200   5.238
 6476WAT     H120490   1.883   6.113   5.274
 6476WAT     H220491   1.886   6.191   5.144
 6477WAT      O20492   2.651   5.681   5.491
 6477WAT     H120493   2.679   5.597   5.526
 6477WAT     H220494   2.574   5.704   5.542
 6478WAT      O20495   1.783   5.910   5.237
 6478WAT     H120496   1.813   5.910   5.146
 6478WAT     H220497   1.857   5.875   5.286
 6479WAT      O20498   2.105   5.804   5.335
 6479WAT     H120499   2.070   5.736   5.277
 6479WAT     H220500   2.125   5.758   5.417
 6480WAT      O20501   1.685   6.840   5.320
 6480WAT     H120502   1.729   6.895   5.386
 6480WAT     H220503   1.734   6.758   5.321
 6481WAT      O20504   1.407   7.119   6.065
 6481WAT     H120505   1.440   7.032   6.042
 6481WAT     H220506   1.450   7.140   6.148
 6482WAT      O20507   1.866   6.952   5.831
 6482WAT     H120508   1.836   6.940   5.921
 6482WAT     H220509   1.856   6.866   5.790
 6483WAT      O20510   3.143   6.930   5.302
 6483WAT     H120511   3.060   6.937   5.349
 6483WAT     H220512   3.161   7.019   5.271
 6484WAT      O20513   3.089   6.605   5.552
 6484WAT     H120514   3.165   6.662   5.563
 6484WAT     H220515   3.090   6.548   5.629
 6485WAT      O20516   1.439   6.457   5.975
 6485WAT     H120517   1.373   6.430   5.911
 6485WAT     H220518   1.523   6.446   5.930
 6486WAT      O20519   3.189   6.690   6.036
 6486WAT     H120520   3.227   6.612   5.996
 6486WAT     H220521   3.254   6.759   6.019
 6487WAT      O20522   3.094   6.634   5.268
 6487WAT     H120523   3.122   6.725   5.255
 6487WAT     H220524   3.075   6.628   5.361
 6488WAT      O20525   2.734   5.936   5.397
 6488WAT     H120526   2.776   5.918   5.313
 6488WAT     H220527   2.703   5.851   5.428
 6489WAT      O20528   3.084   6.428   5.767
 6489WAT     H120529   3.046   6.351   5.724
 6489WAT     H220530   3.011   6.466   5.816
 6490WAT      O20531   1.543   6.496   6.429
 6490WAT     H120532   1.579   6.487   6.517
 6490WAT     H220533   1.486   6.419   6.419
 6491WAT      O20534   1.360   6.178   5.569
 6491WAT     H120535   1.270   6.204   5.552
 6491WAT     H220536   1.409   6.205   5.491
 6492WAT      O20537   3.011   6.250   6.097
 6492WAT     H120538   3.064   6.201   6.034
 6492WAT     H220539   3.070   6.264   6.171
 6493WAT      O20540   3.029   6.259   6.449
 6493WAT     H120541   2.934   6.255   6.461
 6493WAT     H220542   3.047   6.350   6.426
 6494WAT      O20543   1.615   6.084   5.360
 6494WAT     H120544   1.685   6.041   5.312
 6494WAT     H220545   1.543   6.090   5.297
 6495WAT      O20546   1.579   5.689   5.264
 6495WAT     H120547   1.652   5.743   5.296
 6495WAT     H220548   1.607   5.662   5.177
 6496WAT      O20549   2.960   6.176   5.691
 6496WAT     H120550   3.010   6.153   5.769
 6496WAT     H220551   2.940   6.092   5.649
 6497WAT      O20552   1.548   5.614   6.254
 6497WAT     H120553   1.613   5.559   6.210
 6497WAT     H220554   1.590   5.640   6.337
 6498WAT      O20555   3.103   6.040   5.944
 6498WAT     H120556   3.092   6.024   6.038
 6498WAT     H220557   3.179   5.987   5.920
 6499WAT      O20558   3.192   5.823   5.268
 6499WAT     H120559   3.285   5.809   5.248
 6499WAT     H220560   3.190   5.831   5.364
 6500WAT      O20561   3.199   5.900   5.531
 6500WAT     H120562   3.120   5.893   5.584
 6500WAT     H220563   3.220   5.993   5.530
 6501WAT      O20564   2.054   7.102   6.505
 6501WAT     H120565   2.030   7.129   6.417
 6501WAT     H220566   2.148   7.120   6.511
 6502WAT      O20567   2.387   5.663   6.371
 6502WAT     H120568   2.309   5.710   6.399
 6502WAT     H220569   2.358   5.572   6.361
 6503WAT      O20570   2.843   5.733   6.176
 6503WAT     H120571   2.887   5.727   6.091
 6503WAT     H220572   2.816   5.824   6.183
 6504WAT      O20573   3.029   5.696   5.977
 6504WAT     H120574   3.023   5.602   5.962
 6504WAT     H220575   3.107   5.707   6.032
 6505WAT      O20576   1.522   5.693   5.624
 6505WAT     H120577   1.598   5.704   5.566
 6505WAT     H220578   1.476   5.777   5.619
 6506WAT      O20579   2.176   5.904   5.923
 6506WAT     H120580   2.095   5.867   5.889
 6506WAT     H220581   2.226   5.829   5.953
 6507WAT      O20582   2.626   5.571   6.046
 6507WAT     H120583   2.686   5.628   6.094
 6507WAT     H220584   2.552   5.627   6.024
 6508WAT      O20585   2.941   5.611   5.574
 6508WAT     H120586   2.960   5.701   5.601
 6508WAT     H220587   2.862   5.588   5.623
 6509WAT      O20588   1.759   5.746   5.478
 6509WAT     H120589   1.812   5.667   5.465
 6509WAT     H220590   1.822   5.814   5.501
 6510WAT      O20591   1.978   5.719   5.783
 6510WAT     H120592   1.915   5.649   5.800
 6510WAT     H220593   1.924   5.795   5.761
 6511WAT      O20594   1.796   6.986   5.506
 6511WAT     H120595   1.733   7.032   5.561
 6511WAT     H220596   1.808   6.901   5.549
 6512WAT      O20597   2.542   6.391   4.121
 6512WAT     H120598   2.534   6.299   4.094
 6512WAT     H220599   2.500   6.440   4.050
 6513WAT      O20600   2.355   6.568   4.309
 6513WAT     H120601   2.277   6.520   4.338
 6513WAT     H220602   2.420   6.501   4.291
 6514WAT      O20603   1.757   6.600   4.397
 6514WAT     H120604   1.673   6.574   4.437
 6514WAT     H220605   1.817   6.607   4.470
 6515WAT      O20606   2.757   7.009   4.187
 6515WAT     H120607   2.711   6.932   4.220
 6515WAT     H220608   2.838   7.012   4.237
 6516WAT      O20609   1.755   7.003   4.416
 6516WAT     H120610   1.785   6.914   4.398
 6516WAT     H220611   1.829   7.059   4.393
 6517WAT      O20612   1.597   6.096   3.775
 6517WAT     H120613   1.509   6.130   3.765
 6517WAT     H220614   1.626   6.076   3.686
 6518WAT      O20615   1.394   6.356   4.363
 6518WAT     H120616   1.451   6.279   4.363
 6518WAT     H220617   1.394   6.386   4.272
 6519WAT      O20618   2.299   6.836   4.310
 6519WAT     H120619   2.292   6.742   4.293
 6519WAT     H220620   2.375   6.845   4.367
 6520WAT      O20621   1.518   5.897   4.542
 6520WAT     H120622   1.500   5.807   4.570
 6520WAT     H220623   1.478   5.951   4.610
 6521WAT      O20624   2.402   6.117   4.332
 6521WAT     H120625   2.440   6.029   4.321
 6521WAT     H220626   2.392   6.150   4.243
 6522WAT      O20627   1.815   5.954   3.878
 6522WAT     H120628   1.826   6.044   3.909
 6522WAT     H220629   1.724   5.949   3.849
 6523WAT      O20630   2.780   5.866   4.026
 6523WAT     H120631   2.862   5.817   4.030
 6523WAT     H220632   2.784   5.925   4.101
 6524WAT      O20633   1.580   6.146   4.403
 6524WAT     H120634   1.648   6.173   4.465
 6524WAT     H220635   1.548   6.062   4.436
 6525WAT      O20636   1.999   6.251   4.312
 6525WAT     H120637   2.050   6.301   4.376
 6525WAT     H220638   2.052   6.173   4.294
 6526WAT      O20639   3.209   6.068   4.682
 6526WAT     H120640   3.139   6.107   4.630
 6526WAT     H220641   3.236   6.137   4.742
 6527WAT      O20642   1.828   5.715   4.738
 6527WAT     H120643   1.828   5.767   4.658
 6527WAT     H220644   1.745   5.667   4.736
 6528WAT      O20645   2.466   6.726   3.888
 6528WAT     H120646   2.404   6.773   3.832
 6528WAT     H220647   2.517   6.795   3.930
 6529WAT      O20648   1.953   6.679   4.556
 6529WAT     H120649   1.919   6.741   4.620
 6529WAT     H220650   1.970   6.731   4.478
 6530WAT      O20651   2.804   6.060   4.303
 6530WAT     H120652   2.733   6.089   4.361
 6530WAT     H220653   2.840   6.141   4.267
 6531WAT      O20654   1.796   5.886   4.539
 6531WAT     H120655   1.830   5.970   4.510
 6531WAT     H220656   1.702   5.901   4.551
 6532WAT      O20657   1.874   6.876   4.738
 6532WAT     H120658   1.935   6.943   4.709
 6532WAT     H220659   1.788   6.916   4.728
 6533WAT      O20660   1.403   6.795   3.626
 6533WAT     H120661   1.365   6.843   3.552
 6533WAT     H220662   1.429   6.862   3.689
 6534WAT      O20663   2.966   7.022   4.529
 6534WAT     H120664   2.897   7.089   4.528
 6534WAT     H220665   3.019   7.042   4.452
 6535WAT      O20666   3.111   6.005   4.342
 6535WAT     H120667   3.016   6.008   4.355
 6535WAT     H220668   3.143   6.086   4.380
 6536WAT      O20669   2.164   5.635   4.171
 6536WAT     H120670   2.195   5.579   4.100
 6536WAT     H220671   2.071   5.648   4.153
 6537WAT      O20672   2.849   6.879   3.909
 6537WAT     H120673   2.838   6.784   3.922
 6537WAT     H220674   2.848   6.915   3.998
 6538WAT      O20675   2.659   6.697   4.533
 6538WAT     H120676   2.701   6.675   4.450
 6538WAT     H220677   2.731   6.722   4.590
 6539WAT      O20678   2.403   6.441   3.845
 6539WAT     H120679   2.310   6.435   3.868
 6539WAT     H220680   2.418   6.535   3.834
 6540WAT      O20681   2.401   6.068   3.545
 6540WAT     H120682   2.307   6.085   3.553
 6540WAT     H220683   2.433   6.140   3.490
 6541WAT      O20684   3.054   6.537   4.542
 6541WAT     H120685   2.971   6.544   4.495
 6541WAT     H220686   3.113   6.595   4.496
 6542WAT      O20687   2.806   6.597   3.895
 6542WAT     H120688   2.744   6.564   3.831
 6542WAT     H220689   2.804   6.533   3.966
 6543WAT      O20690   2.750   6.215   4.637
 6543WAT     H120691   2.709   6.298   4.662
 6543WAT     H220692   2.677   6.157   4.618
 6544WAT      O20693   1.963   6.494   4.123
 6544WAT     H120694   1.923   6.423   4.074
 6544WAT     H220695   1.972   6.459   4.212
 6545WAT      O20696   2.010   6.863   4.340
 6545WAT     H120697   1.980   6.802   4.272
 6545WAT     H220698   2.105   6.866   4.329
 6546WAT      O20699   1.835   6.171   4.501
 6546WAT     H120700   1.890   6.182   4.424
 6546WAT     H220701   1.886   6.209   4.573
 6547WAT      O20702   1.919   6.836   5.005
 6547WAT     H120703   1.830   6.859   5.029
 6547WAT     H220704   1.922   6.849   4.910
 6548WAT      O20705   2.623   6.521   3.596
 6548WAT     H120706   2.667   6.438   3.581
 6548WAT     H220707   2.695   6.585   3.605
 6549WAT      O20708   1.802   6.524   4.862
 6549WAT     H120709   1.788   6.611   4.899
 6549WAT     H220710   1.714   6.489   4.848
 6550WAT      O20711   2.434   7.015   3.993
 6550WAT     H120712   2.478   7.090   3.951
 6550WAT     H220713   2.428   7.040   4.085
 6551WAT      O20714   1.982   7.118   5.083
 6551WAT     H120715   1.979   7.158   4.996
 6551WAT     H220716   1.965   7.025   5.067
 6552WAT      O20717   2.982   5.647   3.428
 6552WAT     H120718   2.950   5.656   3.518
 6552WAT     H220719   3.058   5.705   3.422
 6553WAT      O20720   1.633   6.383   3.873
 6553WAT     H120721   1.621   6.456   3.812
 6553WAT     H220722   1.602   6.306   3.826
 6554WAT      O20723   1.397   6.701   4.454
 6554WAT     H120724   1.405   6.714   4.360
 6554WAT     H220725   1.459   6.630   4.473
 6555WAT      O20726   1.522   6.871   4.095
 6555WAT     H120727   1.481   6.885   4.010
 6555WAT     H220728   1.611   6.842   4.075
 6556WAT      O20729   3.117   6.915   4.929
 6556WAT     H120730   3.130   6.891   4.837
 6556WAT     H220731   3.122   6.832   4.976
 6557WAT      O20732   2.671   7.065   3.585
 6557WAT     H120733   2.602   7.065   3.519
 6557WAT     H220734   2.746   7.022   3.541
 6558WAT      O20735   3.103   6.120   5.025
 6558WAT     H120736   3.041   6.171   4.972
 6558WAT     H220737   3.071   6.030   5.020
 6559WAT      O20738   1.403   6.805   4.708
 6559WAT     H120739   1.419   6.758   4.626
 6559WAT     H220740   1.449   6.754   4.774
 6560WAT      O20741   1.880   5.718   4.212
 6560WAT     H120742   1.836   5.796   4.178
 6560WAT     H220743   1.936   5.750   4.282
 6561WAT      O20744   2.309   6.004   4.772
 6561WAT     H120745   2.263   6.025   4.853
 6561WAT     H220746   2.268   5.923   4.742
 6562WAT      O20747   2.809   6.126   4.885
 6562WAT     H120748   2.724   6.097   4.917
 6562WAT     H220749   2.793   6.151   4.794
 6563WAT      O20750   2.518   6.277   5.095
 6563WAT     H120751   2.551   6.193   5.061
 6563WAT     H220752   2.597   6.329   5.110
 6564WAT      O20753   2.192   5.680   3.700
 6564WAT     H120754   2.129   5.679   3.772
 6564WAT     H220755   2.183   5.593   3.660
 6565WAT      O20756   2.084   5.772   4.397
 6565WAT     H120757   2.113   5.863   4.389
 6565WAT     H220758   2.139   5.723   4.336
 6566WAT      O20759   1.859   6.230   3.984
 6566WAT     H120760   1.837   6.208   4.075
 6566WAT     H220761   1.781   6.273   3.950
 6567WAT      O20762   2.582   6.231   3.844
 6567WAT     H120763   2.522   6.303   3.826
 6567WAT     H220764   2.637   6.224   3.766
 6568WAT      O20765   2.103   6.320   5.051
 6568WAT     H120766   2.094   6.226   5.036
 6568WAT     H220767   2.187   6.342   5.011
 6569WAT      O20768   2.443   6.094   4.047
 6569WAT     H120769   2.482   6.126   3.966
 6569WAT     H220770   2.479   6.006   4.059
 6570WAT      O20771   1.616   5.961   4.866
 6570WAT     H120772   1.577   6.046   4.887
 6570WAT     H220773   1.547   5.897   4.885
 6571WAT      O20774   2.274   5.969   5.173
 6571WAT     H120775   2.205   5.950   5.237
 6571WAT     H220776   2.348   5.998   5.226
 6572WAT      O20777   1.346   5.753   4.270
 6572WAT     H120778   1.318   5.810   4.341
 6572WAT     H220779   1.421   5.705   4.306
 6573WAT      O20780   1.365   6.148   3.391
 6573WAT     H120781   1.357   6.242   3.405
 6573WAT     H220782   1.330   6.133   3.303
 6574WAT      O20783   2.501   6.353   4.457
 6574WAT     H120784   2.428   6.404   4.492
 6574WAT     H220785   2.462   6.272   4.427
 6575WAT      O20786   2.145   6.021   4.297
 6575WAT     H120787   2.145   5.977   4.212
 6575WAT     H220788   2.235   6.053   4.308
 6576WAT      O20789   1.730   6.009   4.193
 6576WAT     H120790   1.696   6.057   4.269
 6576WAT     H220791   1.654   5.964   4.157
 6577WAT      O20792   2.151   6.121   3.596
 6577WAT     H120793   2.163   6.117   3.691
 6577WAT     H220794   2.113   6.207   3.581
 6578WAT      O20795   2.548   5.899   4.398
 6578WAT     H120796   2.549   5.944   4.482
 6578WAT     H220797   2.523   5.809   4.419
 6579WAT      O20798   2.053   6.352   3.536
 6579WAT     H120799   1.996   6.307   3.474
 6579WAT     H220800   2.123   6.388   3.483
 6580WAT      O20801   2.890   5.640   4.982
 6580WAT     H120802   2.923   5.567   5.034
 6580WAT     H220803   2.894   5.608   4.892
 6581WAT      O20804   1.560   6.742   4.924
 6581WAT     H120805   1.522   6.678   4.984
 6581WAT     H220806   1.591   6.813   4.981
 6582WAT      O20807   2.175   6.427   4.472
 6582WAT     H120808   2.212   6.380   4.547
 6582WAT     H220809   2.156   6.514   4.506
 6583WAT      O20810   1.462   5.901   4.085
 6583WAT     H120811   1.433   5.865   4.169
 6583WAT     H220812   1.455   5.828   4.024
 6584WAT      O20813   1.954   6.331   4.704
 6584WAT     H120814   1.924   6.419   4.726
 6584WAT     H220815   2.050   6.337   4.707
 6585WAT      O20816   1.807   6.752   3.763
 6585WAT     H120817   1.730   6.698   3.747
 6585WAT     H220818   1.880   6.700   3.730
 6586WAT      O20819   2.883   6.651   4.343
 6586WAT     H120820   2.955   6.701   4.304
 6586WAT     H220821   2.863   6.583   4.278
 6587WAT      O20822   2.429   5.791   3.757
 6587WAT     H120823   2.348   5.741   3.749
 6587WAT     H220824   2.410   5.875   3.715
 6588WAT      O20825   2.421   6.658   4.931
 6588WAT     H120826   2.414   6.566   4.906
 6588WAT     H220827   2.358   6.668   5.003
 6589WAT      O20828   2.700   6.228   3.587
 6589WAT     H120829   2.789   6.259   3.569
 6589WAT     H220830   2.698   6.141   3.547
 6590WAT      O20831   1.811   6.718   4.127
 6590WAT     H120832   1.863   6.638   4.122
 6590WAT     H220833   1.766   6.712   4.211
 6591WAT      O20834   2.300   6.845   3.655
 6591WAT     H120835   2.334   6.920   3.605
 6591WAT     H220836   2.217   6.876   3.691
 6592WAT      O20837   1.560   6.415   4.819
 6592WAT     H120838   1.524   6.482   4.877
 6592WAT     H220839   1.530   6.332   4.856
 6593WAT      O20840   1.880   6.461   5.107
 6593WAT     H120841   1.850   6.475   5.017
 6593WAT     H220842   1.957   6.405   5.098
 6594WAT      O20843   2.414   6.941   4.906
 6594WAT     H120844   2.416   6.847   4.885
 6594WAT     H220845   2.343   6.949   4.970
 6595WAT      O20846   2.928   6.359   3.533
 6595WAT     H120847   2.919   6.402   3.448
 6595WAT     H220848   3.000   6.405   3.577
 6596WAT      O20849   3.035   6.605   4.841
 6596WAT     H120850   2.963   6.664   4.821
 6596WAT     H220851   3.088   6.604   4.761
 6597WAT      O20852   3.030   7.044   3.806
 6597WAT     H120853   2.966   6.979   3.834
 6597WAT     H220854   2.992   7.085   3.729
 6598WAT      O20855   2.588   6.777   4.191
 6598WAT     H120856   2.624   6.718   4.125
 6598WAT     H220857   2.500   6.745   4.208
 6599WAT      O20858   2.197   6.853   3.932
 6599WAT     H120859   2.266   6.908   3.970
 6599WAT     H220860   2.118   6.908   3.935
 6600WAT      O20861   1.411   6.415   3.481
 6600WAT     H120862   1.498   6.443   3.509
 6600WAT     H220863   1.362   6.496   3.469
 6601WAT      O20864   2.127   6.554   3.893
 6601WAT     H120865   2.173   6.635   3.916
 6601WAT     H220866   2.092   6.522   3.976
 6602WAT      O20867   2.358   7.105   4.616
 6602WAT     H120868   2.422   7.125   4.684
 6602WAT     H220869   2.394   7.029   4.571
 6603WAT      O20870   1.717   5.588   3.940
 6603WAT     H120871   1.705   5.587   4.035
 6603WAT     H220872   1.635   5.622   3.905
 6604WAT      O20873   2.485   6.905   4.488
 6604WAT     H120874   2.549   6.835   4.499
 6604WAT     H220875   2.537   6.983   4.470
 6605WAT      O20876   2.869   6.934   3.460
 6605WAT     H120877   2.847   6.862   3.519
 6605WAT     H220878   2.830   6.909   3.376
 6606WAT      O20879   2.662   6.985   4.808
 6606WAT     H120880   2.696   7.044   4.876
 6606WAT     H220881   2.570   6.972   4.831
 6607WAT      O20882   1.417   5.764   4.886
 6607WAT     H120883   1.346   5.784   4.947
 6607WAT     H220884   1.459   5.686   4.923
 6608WAT      O20885   2.828   6.725   3.626
 6608WAT     H120886   2.799   6.771   3.705
 6608WAT     H220887   2.907   6.679   3.653
 6609WAT      O20888   1.446   7.163   4.985
 6609WAT     H120889   1.457   7.069   4.971
 6609WAT     H220890   1.381   7.189   4.920
 6610WAT      O20891   2.245   6.990   5.125
 6610WAT     H120892   2.213   6.918   5.179
 6610WAT     H220893   2.178   7.057   5.132
 6611WAT      O20894   2.049   7.075   3.619
 6611WAT     H120895   2.048   7.148   3.558
 6611WAT     H220896   1.957   7.050   3.628
 6612WAT      O20897   1.609   6.597   3.694
 6612WAT     H120898   1.549   6.671   3.695
 6612WAT     H220899   1.657   6.606   3.611
 6613WAT      O20900   2.567   6.013   4.661
 6613WAT     H120901   2.603   5.931   4.694
 6613WAT     H220902   2.481   6.019   4.703
 6614WAT      O20903   2.903   5.909   3.742
 6614WAT     H120904   2.840   5.919   3.671
 6614WAT     H220905   2.854   5.931   3.821
 6615WAT      O20906   2.348   7.081   3.485
 6615WAT     H120907   2.358   7.060   3.392
 6615WAT     H220908   2.258   7.055   3.506
 6616WAT      O20909   2.100   6.137   3.884
 6616WAT     H120910   2.029   6.183   3.928
 6616WAT     H220911   2.129   6.071   3.947
 6617WAT      O20912   2.263   6.279   4.684
 6617WAT     H120913   2.313   6.326   4.750
 6617WAT     H220914   2.277   6.186   4.704
 6618WAT      O20915   2.503   5.809   4.028
 6618WAT     H120916   2.491   5.811   3.933
 6618WAT     H220917   2.598   5.814   4.040
 6619WAT      O20918   1.920   5.967   3.621
 6619WAT     H120919   2.005   6.011   3.615
 6619WAT     H220920   1.884   5.999   3.704
 6620WAT      O20921   2.983   5.900   4.768
 6620WAT     H120922   2.933   5.974   4.802
 6620WAT     H220923   3.065   5.939   4.736
 6621WAT      O20924   2.813   6.425   4.113
 6621WAT     H120925   2.718   6.426   4.130
 6621WAT     H220926   2.844   6.346   4.157
 6622WAT      O20927   1.810   6.593   3.469
 6622WAT     H120928   1.887   6.582   3.525
 6622WAT     H220929   1.818   6.523   3.403
 6623WAT      O20930   1.680   6.336   3.537
 6623WAT     H120931   1.688   6.241   3.548
 6623WAT     H220932   1.769   6.369   3.548
 6624WAT      O20933   1.448   6.958   3.835
 6624WAT     H120934   1.356   6.982   3.834
 6624WAT     H220935   1.495   7.040   3.823
 6625WAT      O20936   2.544   6.880   5.161
 6625WAT     H120937   2.484   6.883   5.087
 6625WAT     H220938   2.514   6.807   5.215
 6626WAT      O20939   1.433   6.518   5.060
 6626WAT     H120940   1.483   6.460   5.118
 6626WAT     H220941   1.359   6.547   5.114
 6627WAT      O20942   2.123   6.790   3.416
 6627WAT     H120943   2.112   6.729   3.489
 6627WAT     H220944   2.106   6.738   3.338
 6628WAT      O20945   2.138   6.659   5.014
 6628WAT     H120946   2.061   6.716   5.005
 6628WAT     H220947   2.156   6.630   4.925
 6629WAT      O20948   2.447   6.697   3.476
 6629WAT     H120949   2.392   6.741   3.541
 6629WAT     H220950   2.509   6.646   3.529
 6630WAT      O20951   2.852   6.832   5.070
 6630WAT     H120952   2.926   6.866   5.019
 6630WAT     H220953   2.776   6.849   5.014
 6631WAT      O20954   1.636   6.332   5.150
 6631WAT     H120955   1.640   6.303   5.241
 6631WAT     H220956   1.721   6.373   5.134
 6632WAT      O20957   2.014   6.592   3.666
 6632WAT     H120958   2.056   6.576   3.750
 6632WAT     H220959   2.026   6.511   3.617
 6633WAT      O20960   1.830   6.190   4.947
 6633WAT     H120961   1.777   6.141   4.884
 6633WAT     H220962   1.897   6.233   4.893
 6634WAT      O20963   2.265   6.495   3.391
 6634WAT     H120964   2.317   6.423   3.354
 6634WAT     H220965   2.330   6.559   3.421
 6635WAT      O20966   2.720   6.637   4.923
 6635WAT     H120967   2.761   6.653   5.008
 6635WAT     H220968   2.626   6.650   4.939
 6636WAT      O20969   2.767   6.371   5.124
 6636WAT     H120970   2.825   6.296   5.115
 6636WAT     H220971   2.784   6.424   5.046
 6637WAT      O20972   1.879   5.887   4.955
 6637WAT     H120973   1.869   5.825   4.882
 6637WAT     H220974   1.821   5.960   4.932
 6638WAT      O20975   2.155   5.743   4.658
 6638WAT     H120976   2.110   5.745   4.573
 6638WAT     H220977   2.092   5.703   4.718
 6639WAT      O20978   2.196   6.632   4.720
 6639WAT     H120979   2.238   6.717   4.703
 6639WAT     H220980   2.104   6.646   4.697
 6640WAT      O20981   2.429   6.405   4.858
 6640WAT     H120982   2.441   6.346   4.932
 6640WAT     H220983   2.515   6.409   4.816
 6641WAT      O20984   2.663   6.461   4.716
 6641WAT     H120985   2.611   6.513   4.656
 6641WAT     H220986   2.698   6.524   4.779
 6642WAT      O20987   1.903   6.200   3.361
 6642WAT     H120988   1.883   6.113   3.397
 6642WAT     H220989   1.886   6.191   3.267
 6643WAT      O20990   2.106   6.060   4.984
 6643WAT     H120991   2.165   6.029   5.053
 6643WAT     H220992   2.024   6.012   5.000
 6644WAT      O20993   2.588   6.021   5.008
 6644WAT     H120994   2.519   5.955   5.001
 6644WAT     H220995   2.660   5.977   5.052
 6645WAT      O20996   2.651   5.681   3.613
 6645WAT     H120997   2.679   5.597   3.649
 6645WAT     H220998   2.574   5.704   3.665
 6646WAT      O20999   1.783   5.910   3.359
 6646WAT     H121000   1.813   5.910   3.269
 6646WAT     H221001   1.857   5.875   3.409
 6647WAT      O21002   2.105   5.804   3.458
 6647WAT     H121003   2.070   5.736   3.400
 6647WAT     H221004   2.125   5.758   3.539
 6648WAT      O21005   1.685   6.840   3.443
 6648WAT     H121006   1.729   6.895   3.508
 6648WAT     H221007   1.734   6.758   3.444
 6649WAT      O21008   1.407   7.119   4.188
 6649WAT     H121009   1.440   7.032   4.165
 6649WAT     H221010   1.450   7.140   4.271
 6650WAT      O21011   1.866   6.952   3.954
 6650WAT     H121012   1.836   6.940   4.044
 6650WAT     H221013   1.856   6.866   3.913
 6651WAT      O21014   3.019   7.156   4.890
 6651WAT     H121015   2.959   7.162   4.816
 6651WAT     H221016   3.032   7.062   4.903
 6652WAT      O21017   3.143   6.930   3.424
 6652WAT     H121018   3.060   6.937   3.471
 6652WAT     H221019   3.161   7.019   3.394
 6653WAT      O21020   3.089   6.605   3.674
 6653WAT     H121021   3.165   6.662   3.685
 6653WAT     H221022   3.090   6.548   3.752
 6654WAT      O21023   1.439   6.457   4.098
 6654WAT     H121024   1.373   6.430   4.033
 6654WAT     H221025   1.523   6.446   4.053
 6655WAT      O21026   3.189   6.690   4.159
 6655WAT     H121027   3.227   6.612   4.118
 6655WAT     H221028   3.254   6.759   4.141
 6656WAT      O21029   2.888   6.829   4.700
 6656WAT     H121030   2.806   6.871   4.726
 6656WAT     H221031   2.929   6.890   4.639
 6657WAT      O21032   3.094   6.634   3.390
 6657WAT     H121033   3.122   6.725   3.377
 6657WAT     H221034   3.075   6.628   3.484
 6658WAT      O21035   2.734   5.936   3.520
 6658WAT     H121036   2.776   5.918   3.436
 6658WAT     H221037   2.703   5.851   3.551
 6659WAT      O21038   3.084   6.428   3.890
 6659WAT     H121039   3.046   6.351   3.846
 6659WAT     H221040   3.011   6.466   3.938
 6660WAT      O21041   1.543   6.496   4.552
 6660WAT     H121042   1.579   6.487   4.640
 6660WAT     H221043   1.486   6.419   4.542
 6661WAT      O21044   3.023   6.342   4.853
 6661WAT     H121045   3.000   6.320   4.763
 6661WAT     H221046   3.049   6.434   4.848
 6662WAT      O21047   1.498   6.187   4.942
 6662WAT     H121048   1.408   6.183   4.976
 6662WAT     H221049   1.552   6.206   5.019
 6663WAT      O21050   2.867   5.865   5.131
 6663WAT     H121051   2.954   5.866   5.169
 6663WAT     H221052   2.868   5.791   5.070
 6664WAT      O21053   1.360   6.178   3.692
 6664WAT     H121054   1.270   6.204   3.674
 6664WAT     H221055   1.409   6.205   3.614
 6665WAT      O21056   3.011   6.250   4.220
 6665WAT     H121057   3.064   6.201   4.156
 6665WAT     H221058   3.070   6.264   4.294
 6666WAT      O21059   3.029   6.259   4.572
 6666WAT     H121060   2.934   6.255   4.583
 6666WAT     H221061   3.047   6.350   4.548
 6667WAT      O21062   1.615   6.084   3.483
 6667WAT     H121063   1.685   6.041   3.434
 6667WAT     H221064   1.543   6.090   3.420
 6668WAT      O21065   1.579   5.689   3.387
 6668WAT     H121066   1.652   5.743   3.419
 6668WAT     H221067   1.607   5.662   3.299
 6669WAT      O21068   2.960   6.176   3.814
 6669WAT     H121069   3.010   6.153   3.892
 6669WAT     H221070   2.940   6.092   3.772
 6670WAT      O21071   1.548   5.614   4.377
 6670WAT     H121072   1.613   5.559   4.333
 6670WAT     H221073   1.590   5.640   4.459
 6671WAT      O21074   3.103   6.040   4.067
 6671WAT     H121075   3.092   6.024   4.161
 6671WAT     H221076   3.179   5.987   4.043
 6672WAT      O21077   2.938   5.634   4.713
 6672WAT     H121078   3.001   5.695   4.749
 6672WAT     H221079   2.953   5.637   4.618
 6673WAT      O21080   3.192   5.823   3.391
 6673WAT     H121081   3.285   5.809   3.370
 6673WAT     H221082   3.190   5.831   3.486
 6674WAT      O21083   3.199   5.900   3.654
 6674WAT     H121084   3.120   5.893   3.706
 6674WAT     H221085   3.220   5.993   3.652
 6675WAT      O21086   1.524   5.630   4.651
 6675WAT     H121087   1.489   5.675   4.728
 6675WAT     H221088   1.490   5.540   4.659
 6676WAT      O21089   1.684   6.947   5.068
 6676WAT     H121090   1.680   6.910   5.156
 6676WAT     H221091   1.697   7.041   5.082
 6677WAT      O21092   2.054   7.102   4.628
 6677WAT     H121093   2.030   7.129   4.539
 6677WAT     H221094   2.148   7.120   4.633
 6678WAT      O21095   2.275   5.749   5.003
 6678WAT     H121096   2.269   5.808   5.078
 6678WAT     H221097   2.369   5.738   4.989
 6679WAT      O21098   2.539   5.714   4.967
 6679WAT     H121099   2.600   5.746   4.901
 6679WAT     H221100   2.593   5.666   5.029
 6680WAT      O21101   1.591   5.582   4.979
 6680WAT     H121102   1.646   5.564   4.902
 6680WAT     H221103   1.597   5.503   5.032
 6681WAT      O21104   2.613   5.571   4.600
 6681WAT     H121105   2.525   5.604   4.580
 6681WAT     H221106   2.602   5.524   4.683
 6682WAT      O21107   2.703   5.792   4.738
 6682WAT     H121108   2.670   5.710   4.701
 6682WAT     H221109   2.798   5.787   4.726
 6683WAT      O21110   1.631   6.978   4.675
 6683WAT     H121111   1.559   6.916   4.668
 6683WAT     H221112   1.637   7.017   4.588
 6684WAT      O21113   2.387   5.663   4.494
 6684WAT     H121114   2.309   5.710   4.522
 6684WAT     H221115   2.358   5.572   4.483
 6685WAT      O21116   2.843   5.733   4.299
 6685WAT     H121117   2.887   5.727   4.214
 6685WAT     H221118   2.816   5.824   4.306
 6686WAT      O21119   3.029   5.696   4.100
 6686WAT     H121120   3.023   5.602   4.085
 6686WAT     H221121   3.107   5.707   4.154
 6687WAT      O21122   1.522   5.693   3.746
 6687WAT     H121123   1.598   5.704   3.689
 6687WAT     H221124   1.476   5.777   3.742
 6688WAT      O21125   2.176   5.904   4.045
 6688WAT     H121126   2.095   5.867   4.011
 6688WAT     H221127   2.226   5.829   4.075
 6689WAT      O21128   2.626   5.571   4.169
 6689WAT     H121129   2.686   5.628   4.216
 6689WAT     H221130   2.552   5.627   4.147
 6690WAT      O21131   2.941   5.611   3.696
 6690WAT     H121132   2.960   5.701   3.723
 6690WAT     H221133   2.862   5.588   3.746
 6691WAT      O21134   1.759   5.746   3.600
 6691WAT     H121135   1.812   5.667   3.587
 6691WAT     H221136   1.822   5.814   3.624
 6692WAT      O21137   1.978   5.719   3.906
 6692WAT     H121138   1.915   5.649   3.922
 6692WAT     H221139   1.924   5.795   3.884
 6693WAT      O21140   1.991   5.647   5.149
 6693WAT     H121141   1.963   5.698   5.073
 6693WAT     H221142   2.029   5.567   5.113
 6694WAT      O21143   1.796   6.986   3.628
 6694WAT     H121144   1.733   7.032   3.683
 6694WAT     H221145   1.808   6.901   3.672
 6695WAT      O21146   2.651   5.589   5.207
 6695WAT     H121147   2.640   5.621   5.296
 6695WAT     H221148   2.733   5.629   5.177
 6696WAT      O21149   2.542   6.391   2.243
 6696WAT     H121150   2.534   6.299   2.216
 6696WAT     H221151   2.500   6.440   2.173
 6697WAT      O21152   2.355   6.568   2.431
 6697WAT     H121153   2.277   6.520   2.460
 6697WAT     H221154   2.420   6.501   2.414
 6698WAT      O21155   1.757   6.600   2.519
 6698WAT     H121156   1.673   6.574   2.559
 6698WAT     H221157   1.817   6.607   2.593
 6699WAT      O21158   2.757   7.009   2.309
 6699WAT     H121159   2.711   6.932   2.342
 6699WAT     H221160   2.838   7.012   2.360
 6700WAT      O21161   1.755   7.003   2.539
 6700WAT     H121162   1.785   6.914   2.521
 6700WAT     H221163   1.829   7.059   2.516
 6701WAT      O21164   1.597   6.096   1.898
 6701WAT     H121165   1.509   6.130   1.887
 6701WAT     H221166   1.626   6.076   1.808
 6702WAT      O21167   1.394   6.356   2.486
 6702WAT     H121168   1.451   6.279   2.486
 6702WAT     H221169   1.394   6.386   2.395
 6703WAT      O21170   2.299   6.836   2.432
 6703WAT     H121171   2.292   6.742   2.416
 6703WAT     H221172   2.375   6.845   2.489
 6704WAT      O21173   1.518   5.897   2.665
 6704WAT     H121174   1.500   5.807   2.693
 6704WAT     H221175   1.478   5.951   2.732
 6705WAT      O21176   2.402   6.117   2.455
 6705WAT     H121177   2.440   6.029   2.444
 6705WAT     H221178   2.392   6.150   2.366
 6706WAT      O21179   1.815   5.954   2.001
 6706WAT     H121180   1.826   6.044   2.032
 6706WAT     H221181   1.724   5.949   1.972
 6707WAT      O21182   2.780   5.866   2.148
 6707WAT     H121183   2.862   5.817   2.152
 6707WAT     H221184   2.784   5.925   2.223
 6708WAT      O21185   1.580   6.146   2.525
 6708WAT     H121186   1.648   6.173   2.587
 6708WAT     H221187   1.548   6.062   2.559
 6709WAT      O21188   1.999   6.251   2.434
 6709WAT     H121189   2.050   6.301   2.498
 6709WAT     H221190   2.052   6.173   2.417
 6710WAT      O21191   3.209   6.068   2.805
 6710WAT     H121192   3.139   6.107   2.753
 6710WAT     H221193   3.236   6.137   2.865
 6711WAT      O21194   1.828   5.715   2.861
 6711WAT     H121195   1.828   5.767   2.780
 6711WAT     H221196   1.745   5.667   2.859
 6712WAT      O21197   2.466   6.726   2.011
 6712WAT     H121198   2.404   6.773   1.954
 6712WAT     H221199   2.517   6.795   2.052
 6713WAT      O21200   1.953   6.679   2.679
 6713WAT     H121201   1.919   6.741   2.743
 6713WAT     H221202   1.970   6.731   2.601
 6714WAT      O21203   2.804   6.060   2.425
 6714WAT     H121204   2.733   6.089   2.483
 6714WAT     H221205   2.840   6.141   2.389
 6715WAT      O21206   1.796   5.886   2.662
 6715WAT     H121207   1.830   5.970   2.632
 6715WAT     H221208   1.702   5.901   2.673
 6716WAT      O21209   1.874   6.876   2.860
 6716WAT     H121210   1.935   6.943   2.832
 6716WAT     H221211   1.788   6.916   2.851
 6717WAT      O21212   1.403   6.795   1.748
 6717WAT     H121213   1.365   6.843   1.675
 6717WAT     H221214   1.429   6.862   1.811
 6718WAT      O21215   2.966   7.022   2.652
 6718WAT     H121216   2.897   7.089   2.651
 6718WAT     H221217   3.019   7.042   2.575
 6719WAT      O21218   3.111   6.005   2.464
 6719WAT     H121219   3.016   6.008   2.478
 6719WAT     H221220   3.143   6.086   2.503
 6720WAT      O21221   2.164   5.635   2.294
 6720WAT     H121222   2.195   5.579   2.222
 6720WAT     H221223   2.071   5.648   2.276
 6721WAT      O21224   2.849   6.879   2.032
 6721WAT     H121225   2.838   6.784   2.044
 6721WAT     H221226   2.848   6.915   2.121
 6722WAT      O21227   2.659   6.697   2.656
 6722WAT     H121228   2.701   6.675   2.572
 6722WAT     H221229   2.731   6.722   2.713
 6723WAT      O21230   2.403   6.441   1.968
 6723WAT     H121231   2.310   6.435   1.990
 6723WAT     H221232   2.418   6.535   1.956
 6724WAT      O21233   2.401   6.068   1.667
 6724WAT     H121234   2.307   6.085   1.676
 6724WAT     H221235   2.433   6.140   1.613
 6725WAT      O21236   3.054   6.537   2.665
 6725WAT     H121237   2.971   6.544   2.618
 6725WAT     H221238   3.113   6.595   2.618
 6726WAT      O21239   2.806   6.597   2.018
 6726WAT     H121240   2.744   6.564   1.953
 6726WAT     H221241   2.804   6.533   2.089
 6727WAT      O21242   2.750   6.215   2.760
 6727WAT     H121243   2.709   6.298   2.785
 6727WAT     H221244   2.677   6.157   2.740
 6728WAT      O21245   1.963   6.494   2.246
 6728WAT     H121246   1.923   6.423   2.196
 6728WAT     H221247   1.972   6.459   2.335
 6729WAT      O21248   2.010   6.863   2.462
 6729WAT     H121249   1.980   6.802   2.394
 6729WAT     H221250   2.105   6.866   2.451
 6730WAT      O21251   1.835   6.171   2.624
 6730WAT     H121252   1.890   6.182   2.546
 6730WAT     H221253   1.886   6.209   2.695
 6731WAT      O21254   1.919   6.836   3.127
 6731WAT     H121255   1.830   6.859   3.152
 6731WAT     H221256   1.922   6.849   3.032
 6732WAT      O21257   2.623   6.521   1.719
 6732WAT     H121258   2.667   6.438   1.704
 6732WAT     H221259   2.695   6.585   1.727
 6733WAT      O21260   1.802   6.524   2.985
 6733WAT     H121261   1.788   6.611   3.022
 6733WAT     H221262   1.714   6.489   2.970
 6734WAT      O21263   2.434   7.015   2.115
 6734WAT     H121264   2.478   7.090   2.074
 6734WAT     H221265   2.428   7.040   2.208
 6735WAT      O21266   1.982   7.118   3.206
 6735WAT     H121267   1.979   7.158   3.119
 6735WAT     H221268   1.965   7.025   3.189
 6736WAT      O21269   2.982   5.647   1.550
 6736WAT     H121270   2.950   5.656   1.640
 6736WAT     H221271   3.058   5.705   1.545
 6737WAT      O21272   1.633   6.383   1.996
 6737WAT     H121273   1.621   6.456   1.935
 6737WAT     H221274   1.602   6.306   1.948
 6738WAT      O21275   1.397   6.701   2.577
 6738WAT     H121276   1.405   6.714   2.482
 6738WAT     H221277   1.459   6.630   2.596
 6739WAT      O21278   1.522   6.871   2.218
 6739WAT     H121279   1.481   6.885   2.132
 6739WAT     H221280   1.611   6.842   2.197
 6740WAT      O21281   3.117   6.915   3.051
 6740WAT     H121282   3.130   6.891   2.960
 6740WAT     H221283   3.122   6.832   3.099
 6741WAT      O21284   2.671   7.065   1.707
 6741WAT     H121285   2.602   7.065   1.641
 6741WAT     H221286   2.746   7.022   1.664
 6742WAT      O21287   3.103   6.120   3.148
 6742WAT     H121288   3.041   6.171   3.095
 6742WAT     H221289   3.071   6.030   3.142
 6743WAT      O21290   1.403   6.805   2.830
 6743WAT     H121291   1.419   6.758   2.749
 6743WAT     H221292   1.449   6.754   2.897
 6744WAT      O21293   1.880   5.718   2.334
 6744WAT     H121294   1.836   5.796   2.301
 6744WAT     H221295   1.936   5.750   2.405
 6745WAT      O21296   2.309   6.004   2.894
 6745WAT     H121297   2.263   6.025   2.976
 6745WAT     H221298   2.268   5.923   2.864
 6746WAT      O21299   2.809   6.126   3.007
 6746WAT     H121300   2.724   6.097   3.040
 6746WAT     H221301   2.793   6.151   2.916
 6747WAT      O21302   2.518   6.277   3.217
 6747WAT     H121303   2.551   6.193   3.183
 6747WAT     H221304   2.597   6.329   3.232
 6748WAT      O21305   2.192   5.680   1.822
 6748WAT     H121306   2.129   5.679   1.895
 6748WAT     H221307   2.183   5.593   1.783
 6749WAT      O21308   2.084   5.772   2.520
 6749WAT     H121309   2.113   5.863   2.512
 6749WAT     H221310   2.139   5.723   2.459
 6750WAT      O21311   1.859   6.230   2.107
 6750WAT     H121312   1.837   6.208   2.197
 6750WAT     H221313   1.781   6.273   2.072
 6751WAT      O21314   2.582   6.231   1.967
 6751WAT     H121315   2.522   6.303   1.948
 6751WAT     H221316   2.637   6.224   1.889
 6752WAT      O21317   2.103   6.320   3.174
 6752WAT     H121318   2.094   6.226   3.159
 6752WAT     H221319   2.187   6.342   3.134
 6753WAT      O21320   2.443   6.094   2.170
 6753WAT     H121321   2.482   6.126   2.089
 6753WAT     H221322   2.479   6.006   2.181
 6754WAT      O21323   1.616   5.961   2.989
 6754WAT     H121324   1.577   6.046   3.010
 6754WAT     H221325   1.547   5.897   3.008
 6755WAT      O21326   2.274   5.969   3.296
 6755WAT     H121327   2.205   5.950   3.359
 6755WAT     H221328   2.348   5.998   3.349
 6756WAT      O21329   1.346   5.753   2.392
 6756WAT     H121330   1.318   5.810   2.463
 6756WAT     H221331   1.421   5.705   2.428
 6757WAT      O21332   1.365   6.148   1.513
 6757WAT     H121333   1.357   6.242   1.527
 6757WAT     H221334   1.330   6.133   1.425
 6758WAT      O21335   2.501   6.353   2.579
 6758WAT     H121336   2.428   6.404   2.614
 6758WAT     H221337   2.462   6.272   2.549
 6759WAT      O21338   2.145   6.021   2.420
 6759WAT     H121339   2.145   5.977   2.335
 6759WAT     H221340   2.235   6.053   2.431
 6760WAT      O21341   1.730   6.009   2.316
 6760WAT     H121342   1.696   6.057   2.391
 6760WAT     H221343   1.654   5.964   2.280
 6761WAT      O21344   2.151   6.121   1.719
 6761WAT     H121345   2.163   6.117   1.814
 6761WAT     H221346   2.113   6.207   1.703
 6762WAT      O21347   2.548   5.899   2.521
 6762WAT     H121348   2.549   5.944   2.605
 6762WAT     H221349   2.523   5.809   2.542
 6763WAT      O21350   2.053   6.352   1.659
 6763WAT     H121351   1.996   6.307   1.596
 6763WAT     H221352   2.123   6.388   1.605
 6764WAT      O21353   2.890   5.640   3.104
 6764WAT     H121354   2.923   5.567   3.157
 6764WAT     H221355   2.894   5.608   3.014
 6765WAT      O21356   1.560   6.742   3.046
 6765WAT     H121357   1.522   6.678   3.106
 6765WAT     H221358   1.591   6.813   3.103
 6766WAT      O21359   2.175   6.427   2.595
 6766WAT     H121360   2.212   6.380   2.669
 6766WAT     H221361   2.156   6.514   2.629
 6767WAT      O21362   1.462   5.901   2.207
 6767WAT     H121363   1.433   5.865   2.291
 6767WAT     H221364   1.455   5.828   2.146
 6768WAT      O21365   1.954   6.331   2.826
 6768WAT     H121366   1.924   6.419   2.849
 6768WAT     H221367   2.050   6.337   2.830
 6769WAT      O21368   1.807   6.752   1.886
 6769WAT     H121369   1.730   6.698   1.870
 6769WAT     H221370   1.880   6.700   1.852
 6770WAT      O21371   2.883   6.651   2.465
 6770WAT     H121372   2.955   6.701   2.426
 6770WAT     H221373   2.863   6.583   2.401
 6771WAT      O21374   2.429   5.791   1.880
 6771WAT     H121375   2.348   5.741   1.872
 6771WAT     H221376   2.410   5.875   1.838
 6772WAT      O21377   2.421   6.658   3.054
 6772WAT     H121378   2.414   6.566   3.029
 6772WAT     H221379   2.358   6.668   3.125
 6773WAT      O21380   2.700   6.228   1.709
 6773WAT     H121381   2.789   6.259   1.692
 6773WAT     H221382   2.698   6.141   1.670
 6774WAT      O21383   1.811   6.718   2.250
 6774WAT     H121384   1.863   6.638   2.244
 6774WAT     H221385   1.766   6.712   2.334
 6775WAT      O21386   2.300   6.845   1.777
 6775WAT     H121387   2.334   6.920   1.728
 6775WAT     H221388   2.217   6.876   1.813
 6776WAT      O21389   1.560   6.415   2.941
 6776WAT     H121390   1.524   6.482   3.000
 6776WAT     H221391   1.530   6.332   2.978
 6777WAT      O21392   1.880   6.461   3.229
 6777WAT     H121393   1.850   6.475   3.140
 6777WAT     H221394   1.957   6.405   3.220
 6778WAT      O21395   2.414   6.941   3.029
 6778WAT     H121396   2.416   6.847   3.007
 6778WAT     H221397   2.343   6.949   3.093
 6779WAT      O21398   2.928   6.359   1.656
 6779WAT     H121399   2.919   6.402   1.571
 6779WAT     H221400   3.000   6.405   1.699
 6780WAT      O21401   3.035   6.605   2.964
 6780WAT     H121402   2.963   6.664   2.944
 6780WAT     H221403   3.088   6.604   2.884
 6781WAT      O21404   3.030   7.044   1.929
 6781WAT     H121405   2.966   6.979   1.956
 6781WAT     H221406   2.992   7.085   1.851
 6782WAT      O21407   2.588   6.777   2.314
 6782WAT     H121408   2.624   6.718   2.248
 6782WAT     H221409   2.500   6.745   2.331
 6783WAT      O21410   2.197   6.853   2.054
 6783WAT     H121411   2.266   6.908   2.092
 6783WAT     H221412   2.118   6.908   2.058
 6784WAT      O21413   1.411   6.415   1.603
 6784WAT     H121414   1.498   6.443   1.632
 6784WAT     H221415   1.362   6.496   1.592
 6785WAT      O21416   2.127   6.554   2.016
 6785WAT     H121417   2.173   6.635   2.038
 6785WAT     H221418   2.092   6.522   2.099
 6786WAT      O21419   2.358   7.105   2.738
 6786WAT     H121420   2.422   7.125   2.806
 6786WAT     H221421   2.394   7.029   2.693
 6787WAT      O21422   1.717   5.588   2.063
 6787WAT     H121423   1.705   5.587   2.158
 6787WAT     H221424   1.635   5.622   2.028
 6788WAT      O21425   2.485   6.905   2.610
 6788WAT     H121426   2.549   6.835   2.622
 6788WAT     H221427   2.537   6.983   2.592
 6789WAT      O21428   2.869   6.934   1.583
 6789WAT     H121429   2.847   6.862   1.642
 6789WAT     H221430   2.830   6.909   1.499
 6790WAT      O21431   2.662   6.985   2.931
 6790WAT     H121432   2.696   7.044   2.998
 6790WAT     H221433   2.570   6.972   2.954
 6791WAT      O21434   1.417   5.764   3.009
 6791WAT     H121435   1.346   5.784   3.069
 6791WAT     H221436   1.459   5.686   3.046
 6792WAT      O21437   2.828   6.725   1.749
 6792WAT     H121438   2.799   6.771   1.828
 6792WAT     H221439   2.907   6.679   1.776
 6793WAT      O21440   1.446   7.163   3.107
 6793WAT     H121441   1.457   7.069   3.093
 6793WAT     H221442   1.381   7.189   3.043
 6794WAT      O21443   2.245   6.990   3.247
 6794WAT     H121444   2.213   6.918   3.302
 6794WAT     H221445   2.178   7.057   3.255
 6795WAT      O21446   2.049   7.075   1.742
 6795WAT     H121447   2.048   7.148   1.680
 6795WAT     H221448   1.957   7.050   1.751
 6796WAT      O21449   1.609   6.597   1.816
 6796WAT     H121450   1.549   6.671   1.817
 6796WAT     H221451   1.657   6.606   1.734
 6797WAT      O21452   2.567   6.013   2.784
 6797WAT     H121453   2.603   5.931   2.817
 6797WAT     H221454   2.481   6.019   2.825
 6798WAT      O21455   2.903   5.909   1.865
 6798WAT     H121456   2.840   5.919   1.793
 6798WAT     H221457   2.854   5.931   1.944
 6799WAT      O21458   2.348   7.081   1.608
 6799WAT     H121459   2.358   7.060   1.515
 6799WAT     H221460   2.258   7.055   1.629
 6800WAT      O21461   2.100   6.137   2.006
 6800WAT     H121462   2.029   6.183   2.050
 6800WAT     H221463   2.129   6.071   2.070
 6801WAT      O21464   2.263   6.279   2.806
 6801WAT     H121465   2.313   6.326   2.873
 6801WAT     H221466   2.277   6.186   2.827
 6802WAT      O21467   2.503   5.809   2.150
 6802WAT     H121468   2.491   5.811   2.055
 6802WAT     H221469   2.598   5.814   2.162
 6803WAT      O21470   1.920   5.967   1.744
 6803WAT     H121471   2.005   6.011   1.737
 6803WAT     H221472   1.884   5.999   1.827
 6804WAT      O21473   2.983   5.900   2.890
 6804WAT     H121474   2.933   5.974   2.924
 6804WAT     H221475   3.065   5.939   2.859
 6805WAT      O21476   2.813   6.425   2.235
 6805WAT     H121477   2.718   6.426   2.253
 6805WAT     H221478   2.844   6.346   2.280
 6806WAT      O21479   1.810   6.593   1.591
 6806WAT     H121480   1.887   6.582   1.647
 6806WAT     H221481   1.818   6.523   1.526
 6807WAT      O21482   1.680   6.336   1.659
 6807WAT     H121483   1.688   6.241   1.671
 6807WAT     H221484   1.769   6.369   1.670
 6808WAT      O21485   1.448   6.958   1.957
 6808WAT     H121486   1.356   6.982   1.956
 6808WAT     H221487   1.495   7.040   1.945
 6809WAT      O21488   2.544   6.880   3.283
 6809WAT     H121489   2.484   6.883   3.209
 6809WAT     H221490   2.514   6.807   3.337
 6810WAT      O21491   1.433   6.518   3.183
 6810WAT     H121492   1.483   6.460   3.240
 6810WAT     H221493   1.359   6.547   3.237
 6811WAT      O21494   2.123   6.790   1.538
 6811WAT     H121495   2.112   6.729   1.611
 6811WAT     H221496   2.106   6.738   1.460
 6812WAT      O21497   2.138   6.659   3.136
 6812WAT     H121498   2.061   6.716   3.128
 6812WAT     H221499   2.156   6.630   3.047
 6813WAT      O21500   2.447   6.697   1.599
 6813WAT     H121501   2.392   6.741   1.663
 6813WAT     H221502   2.509   6.646   1.651
 6814WAT      O21503   2.852   6.832   3.192
 6814WAT     H121504   2.926   6.866   3.142
 6814WAT     H221505   2.776   6.849   3.137
 6815WAT      O21506   1.636   6.332   3.273
 6815WAT     H121507   1.640   6.303   3.363
 6815WAT     H221508   1.721   6.373   3.257
 6816WAT      O21509   2.014   6.592   1.789
 6816WAT     H121510   2.056   6.576   1.873
 6816WAT     H221511   2.026   6.511   1.739
 6817WAT      O21512   1.830   6.190   3.069
 6817WAT     H121513   1.777   6.141   3.007
 6817WAT     H221514   1.897   6.233   3.016
 6818WAT      O21515   2.265   6.495   1.513
 6818WAT     H121516   2.317   6.423   1.477
 6818WAT     H221517   2.330   6.559   1.543
 6819WAT      O21518   2.720   6.637   3.046
 6819WAT     H121519   2.761   6.653   3.131
 6819WAT     H221520   2.626   6.650   3.062
 6820WAT      O21521   2.767   6.371   3.246
 6820WAT     H121522   2.825   6.296   3.237
 6820WAT     H221523   2.784   6.424   3.168
 6821WAT      O21524   1.879   5.887   3.077
 6821WAT     H121525   1.869   5.825   3.005
 6821WAT     H221526   1.821   5.960   3.055
 6822WAT      O21527   2.155   5.743   2.781
 6822WAT     H121528   2.110   5.745   2.696
 6822WAT     H221529   2.092   5.703   2.840
 6823WAT      O21530   2.196   6.632   2.843
 6823WAT     H121531   2.238   6.717   2.825
 6823WAT     H221532   2.104   6.646   2.820
 6824WAT      O21533   2.429   6.405   2.981
 6824WAT     H121534   2.441   6.346   3.055
 6824WAT     H221535   2.515   6.409   2.939
 6825WAT      O21536   2.663   6.461   2.839
 6825WAT     H121537   2.611   6.513   2.778
 6825WAT     H221538   2.698   6.524   2.902
 6826WAT      O21539   1.903   6.200   1.483
 6826WAT     H121540   1.883   6.113   1.519
 6826WAT     H221541   1.886   6.191   1.389
 6827WAT      O21542   2.106   6.060   3.107
 6827WAT     H121543   2.165   6.029   3.176
 6827WAT     H221544   2.024   6.012   3.122
 6828WAT      O21545   2.588   6.021   3.130
 6828WAT     H121546   2.519   5.955   3.124
 6828WAT     H221547   2.660   5.977   3.175
 6829WAT      O21548   2.651   5.681   1.736
 6829WAT     H121549   2.679   5.597   1.772
 6829WAT     H221550   2.574   5.704   1.787
 6830WAT      O21551   1.783   5.910   1.482
 6830WAT     H121552   1.813   5.910   1.391
 6830WAT     H221553   1.857   5.875   1.532
 6831WAT      O21554   2.105   5.804   1.580
 6831WAT     H121555   2.070   5.736   1.523
 6831WAT     H221556   2.125   5.758   1.662
 6832WAT      O21557   1.685   6.840   1.565
 6832WAT     H121558   1.729   6.895   1.631
 6832WAT     H221559   1.734   6.758   1.566
 6833WAT      O21560   1.407   7.119   2.310
 6833WAT     H121561   1.440   7.032   2.287
 6833WAT     H221562   1.450   7.140   2.393
 6834WAT      O21563   1.866   6.952   2.076
 6834WAT     H121564   1.836   6.940   2.166
 6834WAT     H221565   1.856   6.866   2.036
 6835WAT      O21566   3.019   7.156   3.013
 6835WAT     H121567   2.959   7.162   2.939
 6835WAT     H221568   3.032   7.062   3.026
 6836WAT      O21569   3.143   6.930   1.547
 6836WAT     H121570   3.060   6.937   1.594
 6836WAT     H221571   3.161   7.019   1.516
 6837WAT      O21572   3.089   6.605   1.797
 6837WAT     H121573   3.165   6.662   1.808
 6837WAT     H221574   3.090   6.548   1.874
 6838WAT      O21575   1.439   6.457   2.220
 6838WAT     H121576   1.373   6.430   2.156
 6838WAT     H221577   1.523   6.446   2.175
 6839WAT      O21578   3.189   6.690   2.281
 6839WAT     H121579   3.227   6.612   2.241
 6839WAT     H221580   3.254   6.759   2.264
 6840WAT      O21581   2.888   6.829   2.823
 6840WAT     H121582   2.806   6.871   2.849
 6840WAT     H221583   2.929   6.890   2.761
 6841WAT      O21584   3.094   6.634   1.513
 6841WAT     H121585   3.122   6.725   1.500
 6841WAT     H221586   3.075   6.628   1.606
 6842WAT      O21587   2.734   5.936   1.642
 6842WAT     H121588   2.776   5.918   1.558
 6842WAT     H221589   2.703   5.851   1.673
 6843WAT      O21590   3.084   6.428   2.012
 6843WAT     H121591   3.046   6.351   1.969
 6843WAT     H221592   3.011   6.466   2.061
 6844WAT      O21593   1.543   6.496   2.674
 6844WAT     H121594   1.579   6.487   2.762
 6844WAT     H221595   1.486   6.419   2.664
 6845WAT      O21596   3.023   6.342   2.975
 6845WAT     H121597   3.000   6.320   2.885
 6845WAT     H221598   3.049   6.434   2.971
 6846WAT      O21599   1.498   6.187   3.065
 6846WAT     H121600   1.408   6.183   3.099
 6846WAT     H221601   1.552   6.206   3.141
 6847WAT      O21602   2.867   5.865   3.253
 6847WAT     H121603   2.954   5.866   3.292
 6847WAT     H221604   2.868   5.791   3.192
 6848WAT      O21605   1.360   6.178   1.814
 6848WAT     H121606   1.270   6.204   1.797
 6848WAT     H221607   1.409   6.205   1.736
 6849WAT      O21608   3.011   6.250   2.342
 6849WAT     H121609   3.064   6.201   2.279
 6849WAT     H221610   3.070   6.264   2.417
 6850WAT      O21611   3.029   6.259   2.694
 6850WAT     H121612   2.934   6.255   2.706
 6850WAT     H221613   3.047   6.350   2.671
 6851WAT      O21614   1.615   6.084   1.605
 6851WAT     H121615   1.685   6.041   1.557
 6851WAT     H221616   1.543   6.090   1.542
 6852WAT      O21617   1.579   5.689   1.509
 6852WAT     H121618   1.652   5.743   1.541
 6852WAT     H221619   1.607   5.662   1.422
 6853WAT      O21620   2.960   6.176   1.936
 6853WAT     H121621   3.010   6.153   2.015
 6853WAT     H221622   2.940   6.092   1.894
 6854WAT      O21623   1.548   5.614   2.500
 6854WAT     H121624   1.613   5.559   2.456
 6854WAT     H221625   1.590   5.640   2.582
 6855WAT      O21626   3.103   6.040   2.189
 6855WAT     H121627   3.092   6.024   2.283
 6855WAT     H221628   3.179   5.987   2.165
 6856WAT      O21629   2.938   5.634   2.835
 6856WAT     H121630   3.001   5.695   2.872
 6856WAT     H221631   2.953   5.637   2.741
 6857WAT      O21632   3.192   5.823   1.514
 6857WAT     H121633   3.285   5.809   1.493
 6857WAT     H221634   3.190   5.831   1.609
 6858WAT      O21635   3.199   5.900   1.776
 6858WAT     H121636   3.120   5.893   1.829
 6858WAT     H221637   3.220   5.993   1.775
 6859WAT      O21638   1.524   5.630   2.774
 6859WAT     H121639   1.489   5.675   2.850
 6859WAT     H221640   1.490   5.540   2.782
 6860WAT      O21641   1.684   6.947   3.190
 6860WAT     H121642   1.680   6.910   3.279
 6860WAT     H221643   1.697   7.041   3.204
 6861WAT      O21644   2.054   7.102   2.750
 6861WAT     H121645   2.030   7.129   2.662
 6861WAT     H221646   2.148   7.120   2.756
 6862WAT      O21647   2.275   5.749   3.126
 6862WAT     H121648   2.269   5.808   3.201
 6862WAT     H221649   2.369   5.738   3.112
 6863WAT      O21650   2.539   5.714   3.090
 6863WAT     H121651   2.600   5.746   3.024
 6863WAT     H221652   2.593   5.666   3.152
 6864WAT      O21653   1.591   5.582   3.101
 6864WAT     H121654   1.646   5.564   3.025
 6864WAT     H221655   1.597   5.503   3.155
 6865WAT      O21656   2.613   5.571   2.723
 6865WAT     H121657   2.525   5.604   2.702
 6865WAT     H221658   2.602   5.524   2.805
 6866WAT      O21659   2.703   5.792   2.861
 6866WAT     H121660   2.670   5.710   2.823
 6866WAT     H221661   2.798   5.787   2.849
 6867WAT      O21662   1.631   6.978   2.797
 6867WAT     H121663   1.559   6.916   2.791
 6867WAT     H221664   1.637   7.017   2.710
 6868WAT      O21665   2.387   5.663   2.617
 6868WAT     H121666   2.309   5.710   2.645
 6868WAT     H221667   2.358   5.572   2.606
 6869WAT      O21668   2.843   5.733   2.421
 6869WAT     H121669   2.887   5.727   2.336
 6869WAT     H221670   2.816   5.824   2.428
 6870WAT      O21671   3.029   5.696   2.222
 6870WAT     H121672   3.023   5.602   2.207
 6870WAT     H221673   3.107   5.707   2.277
 6871WAT      O21674   1.522   5.693   1.869
 6871WAT     H121675   1.598   5.704   1.811
 6871WAT     H221676   1.476   5.777   1.864
 6872WAT      O21677   2.176   5.904   2.168
 6872WAT     H121678   2.095   5.867   2.134
 6872WAT     H221679   2.226   5.829   2.198
 6873WAT      O21680   2.626   5.571   2.292
 6873WAT     H121681   2.686   5.628   2.339
 6873WAT     H221682   2.552   5.627   2.269
 6874WAT      O21683   2.941   5.611   1.819
 6874WAT     H121684   2.960   5.701   1.846
 6874WAT     H221685   2.862   5.588   1.868
 6875WAT      O21686   1.759   5.746   1.723
 6875WAT     H121687   1.812   5.667   1.710
 6875WAT     H221688   1.822   5.814   1.746
 6876WAT      O21689   1.978   5.719   2.028
 6876WAT     H121690   1.915   5.649   2.045
 6876WAT     H221691   1.924   5.795   2.007
 6877WAT      O21692   1.991   5.647   3.272
 6877WAT     H121693   1.963   5.698   3.195
 6877WAT     H221694   2.029   5.567   3.235
 6878WAT      O21695   1.796   6.986   1.751
 6878WAT     H121696   1.733   7.032   1.806
 6878WAT     H221697   1.808   6.901   1.794
 6879WAT      O21698   2.651   5.589   3.330
 6879WAT     H121699   2.640   5.621   3.419
 6879WAT     H221700   2.733   5.629   3.300
 6880WAT      O21701   2.542   6.391   0.366
 6880WAT     H121702   2.534   6.299   0.339
 6880WAT     H221703   2.500   6.440   0.295
 6881WAT      O21704   2.355   6.568   0.554
 6881WAT     H121705   2.277   6.520   0.583
 6881WAT     H221706   2.420   6.501   0.537
 6882WAT      O21707   1.757   6.600   0.642
 6882WAT     H121708   1.673   6.574   0.682
 6882WAT     H221709   1.817   6.607   0.715
 6883WAT      O21710   2.757   7.009   0.432
 6883WAT     H121711   2.711   6.932   0.465
 6883WAT     H221712   2.838   7.012   0.482
 6884WAT      O21713   1.755   7.003   0.661
 6884WAT     H121714   1.785   6.914   0.643
 6884WAT     H221715   1.829   7.059   0.639
 6885WAT      O21716   1.394   6.356   0.609
 6885WAT     H121717   1.451   6.279   0.609
 6885WAT     H221718   1.394   6.386   0.518
 6886WAT      O21719   2.299   6.836   0.555
 6886WAT     H121720   2.292   6.742   0.539
 6886WAT     H221721   2.375   6.845   0.612
 6887WAT      O21722   1.518   5.897   0.787
 6887WAT     H121723   1.500   5.807   0.815
 6887WAT     H221724   1.478   5.951   0.855
 6888WAT      O21725   2.402   6.117   0.577
 6888WAT     H121726   2.440   6.029   0.566
 6888WAT     H221727   2.392   6.150   0.488
 6889WAT      O21728   2.780   5.866   0.271
 6889WAT     H121729   2.862   5.817   0.275
 6889WAT     H221730   2.784   5.925   0.346
 6890WAT      O21731   1.580   6.146   0.648
 6890WAT     H121732   1.648   6.173   0.710
 6890WAT     H221733   1.548   6.062   0.681
 6891WAT      O21734   1.999   6.251   0.557
 6891WAT     H121735   2.050   6.301   0.621
 6891WAT     H221736   2.052   6.173   0.539
 6892WAT      O21737   3.209   6.068   0.927
 6892WAT     H121738   3.139   6.107   0.875
 6892WAT     H221739   3.236   6.137   0.987
 6893WAT      O21740   1.828   5.715   0.983
 6893WAT     H121741   1.828   5.767   0.903
 6893WAT     H221742   1.745   5.667   0.981
 6894WAT      O21743   1.953   6.679   0.801
 6894WAT     H121744   1.919   6.741   0.865
 6894WAT     H221745   1.970   6.731   0.723
 6895WAT      O21746   2.804   6.060   0.548
 6895WAT     H121747   2.733   6.089   0.606
 6895WAT     H221748   2.840   6.141   0.512
 6896WAT      O21749   1.796   5.886   0.784
 6896WAT     H121750   1.830   5.970   0.755
 6896WAT     H221751   1.702   5.901   0.796
 6897WAT      O21752   1.874   6.876   0.983
 6897WAT     H121753   1.935   6.943   0.954
 6897WAT     H221754   1.788   6.916   0.974
 6898WAT      O21755   2.966   7.022   0.774
 6898WAT     H121756   2.897   7.089   0.773
 6898WAT     H221757   3.019   7.042   0.698
 6899WAT      O21758   3.111   6.005   0.587
 6899WAT     H121759   3.016   6.008   0.600
 6899WAT     H221760   3.143   6.086   0.625
 6900WAT      O21761   2.164   5.635   0.417
 6900WAT     H121762   2.195   5.579   0.345
 6900WAT     H221763   2.071   5.648   0.398
 6901WAT      O21764   2.659   6.697   0.778
 6901WAT     H121765   2.701   6.675   0.695
 6901WAT     H221766   2.731   6.722   0.836
 6902WAT      O21767   3.054   6.537   0.788
 6902WAT     H121768   2.971   6.544   0.740
 6902WAT     H221769   3.113   6.595   0.741
 6903WAT      O21770   2.750   6.215   0.882
 6903WAT     H121771   2.709   6.298   0.908
 6903WAT     H221772   2.677   6.157   0.863
 6904WAT      O21773   1.963   6.494   0.368
 6904WAT     H121774   1.923   6.423   0.319
 6904WAT     H221775   1.972   6.459   0.457
 6905WAT      O21776   2.010   6.863   0.585
 6905WAT     H121777   1.980   6.802   0.517
 6905WAT     H221778   2.105   6.866   0.574
 6906WAT      O21779   1.835   6.171   0.746
 6906WAT     H121780   1.890   6.182   0.669
 6906WAT     H221781   1.886   6.209   0.818
 6907WAT      O21782   1.919   6.836   1.250
 6907WAT     H121783   1.830   6.859   1.275
 6907WAT     H221784   1.922   6.849   1.155
 6908WAT      O21785   1.802   6.524   1.107
 6908WAT     H121786   1.788   6.611   1.144
 6908WAT     H221787   1.714   6.489   1.093
 6909WAT      O21788   2.434   7.015   0.238
 6909WAT     H121789   2.478   7.090   0.197
 6909WAT     H221790   2.428   7.040   0.330
 6910WAT      O21791   1.982   7.118   1.328
 6910WAT     H121792   1.979   7.158   1.242
 6910WAT     H221793   1.965   7.025   1.312
 6911WAT      O21794   1.397   6.701   0.699
 6911WAT     H121795   1.405   6.714   0.605
 6911WAT     H221796   1.459   6.630   0.718
 6912WAT      O21797   1.522   6.871   0.340
 6912WAT     H121798   1.481   6.885   0.255
 6912WAT     H221799   1.611   6.842   0.320
 6913WAT      O21800   3.117   6.915   1.174
 6913WAT     H121801   3.130   6.891   1.082
 6913WAT     H221802   3.122   6.832   1.221
 6914WAT      O21803   3.103   6.120   1.270
 6914WAT     H121804   3.041   6.171   1.218
 6914WAT     H221805   3.071   6.030   1.265
 6915WAT      O21806   1.403   6.805   0.953
 6915WAT     H121807   1.419   6.758   0.871
 6915WAT     H221808   1.449   6.754   1.020
 6916WAT      O21809   1.880   5.718   0.457
 6916WAT     H121810   1.836   5.796   0.424
 6916WAT     H221811   1.936   5.750   0.527
 6917WAT      O21812   2.309   6.004   1.017
 6917WAT     H121813   2.263   6.025   1.098
 6917WAT     H221814   2.268   5.923   0.987
 6918WAT      O21815   2.809   6.126   1.130
 6918WAT     H121816   2.724   6.097   1.162
 6918WAT     H221817   2.793   6.151   1.039
 6919WAT      O21818   2.518   6.277   1.340
 6919WAT     H121819   2.551   6.193   1.306
 6919WAT     H221820   2.597   6.329   1.355
 6920WAT      O21821   2.084   5.772   0.643
 6920WAT     H121822   2.113   5.863   0.634
 6920WAT     H221823   2.139   5.723   0.581
 6921WAT      O21824   1.859   6.230   0.229
 6921WAT     H121825   1.837   6.208   0.320
 6921WAT     H221826   1.781   6.273   0.195
 6922WAT      O21827   2.103   6.320   1.296
 6922WAT     H121828   2.094   6.226   1.281
 6922WAT     H221829   2.187   6.342   1.257
 6923WAT      O21830   2.443   6.094   0.292
 6923WAT     H121831   2.482   6.126   0.211
 6923WAT     H221832   2.479   6.006   0.304
 6924WAT      O21833   1.616   5.961   1.111
 6924WAT     H121834   1.577   6.046   1.132
 6924WAT     H221835   1.547   5.897   1.130
 6925WAT      O21836   2.274   5.969   1.418
 6925WAT     H121837   2.205   5.950   1.482
 6925WAT     H221838   2.348   5.998   1.472
 6926WAT      O21839   1.346   5.753   0.515
 6926WAT     H121840   1.318   5.810   0.586
 6926WAT     H221841   1.421   5.705   0.551
 6927WAT      O21842   2.501   6.353   0.702
 6927WAT     H121843   2.428   6.404   0.737
 6927WAT     H221844   2.462   6.272   0.672
 6928WAT      O21845   2.145   6.021   0.542
 6928WAT     H121846   2.145   5.977   0.457
 6928WAT     H221847   2.235   6.053   0.553
 6929WAT      O21848   1.730   6.009   0.438
 6929WAT     H121849   1.696   6.057   0.514
 6929WAT     H221850   1.654   5.964   0.402
 6930WAT      O21851   2.548   5.899   0.643
 6930WAT     H121852   2.549   5.944   0.728
 6930WAT     H221853   2.523   5.809   0.664
 6931WAT      O21854   2.890   5.640   1.227
 6931WAT     H121855   2.923   5.567   1.280
 6931WAT     H221856   2.894   5.608   1.137
 6932WAT      O21857   1.560   6.742   1.169
 6932WAT     H121858   1.522   6.678   1.229
 6932WAT     H221859   1.591   6.813   1.226
 6933WAT      O21860   2.175   6.427   0.717
 6933WAT     H121861   2.212   6.380   0.792
 6933WAT     H221862   2.156   6.514   0.751
 6934WAT      O21863   1.462   5.901   0.330
 6934WAT     H121864   1.433   5.865   0.414
 6934WAT     H221865   1.455   5.828   0.269
 6935WAT      O21866   1.954   6.331   0.949
 6935WAT     H121867   1.924   6.419   0.971
 6935WAT     H221868   2.050   6.337   0.953
 6936WAT      O21869   2.883   6.651   0.588
 6936WAT     H121870   2.955   6.701   0.549
 6936WAT     H221871   2.863   6.583   0.523
 6937WAT      O21872   2.421   6.658   1.177
 6937WAT     H121873   2.414   6.566   1.151
 6937WAT     H221874   2.358   6.668   1.248
 6938WAT      O21875   1.811   6.718   0.372
 6938WAT     H121876   1.863   6.638   0.367
 6938WAT     H221877   1.766   6.712   0.457
 6939WAT      O21878   1.560   6.415   1.064
 6939WAT     H121879   1.524   6.482   1.122
 6939WAT     H221880   1.530   6.332   1.101
 6940WAT      O21881   1.880   6.461   1.352
 6940WAT     H121882   1.850   6.475   1.262
 6940WAT     H221883   1.957   6.405   1.343
 6941WAT      O21884   2.414   6.941   1.152
 6941WAT     H121885   2.416   6.847   1.130
 6941WAT     H221886   2.343   6.949   1.215
 6942WAT      O21887   3.035   6.605   1.086
 6942WAT     H121888   2.963   6.664   1.067
 6942WAT     H221889   3.088   6.604   1.006
 6943WAT      O21890   2.588   6.777   0.436
 6943WAT     H121891   2.624   6.718   0.370
 6943WAT     H221892   2.500   6.745   0.453
 6944WAT      O21893   2.197   6.853   0.177
 6944WAT     H121894   2.266   6.908   0.215
 6944WAT     H221895   2.118   6.908   0.180
 6945WAT      O21896   2.358   7.105   0.861
 6945WAT     H121897   2.422   7.125   0.929
 6945WAT     H221898   2.394   7.029   0.816
 6946WAT      O21899   2.485   6.905   0.733
 6946WAT     H121900   2.549   6.835   0.744
 6946WAT     H221901   2.537   6.983   0.715
 6947WAT      O21902   2.662   6.985   1.053
 6947WAT     H121903   2.696   7.044   1.121
 6947WAT     H221904   2.570   6.972   1.076
 6948WAT      O21905   1.417   5.764   1.131
 6948WAT     H121906   1.346   5.784   1.192
 6948WAT     H221907   1.459   5.686   1.169
 6949WAT      O21908   1.446   7.163   1.230
 6949WAT     H121909   1.457   7.069   1.216
 6949WAT     H221910   1.381   7.189   1.165
 6950WAT      O21911   2.245   6.990   1.370
 6950WAT     H121912   2.213   6.918   1.424
 6950WAT     H221913   2.178   7.057   1.377
 6951WAT      O21914   2.567   6.013   0.906
 6951WAT     H121915   2.603   5.931   0.939
 6951WAT     H221916   2.481   6.019   0.948
 6952WAT      O21917   2.263   6.279   0.929
 6952WAT     H121918   2.313   6.326   0.995
 6952WAT     H221919   2.277   6.186   0.949
 6953WAT      O21920   2.503   5.809   0.273
 6953WAT     H121921   2.491   5.811   0.178
 6953WAT     H221922   2.598   5.814   0.285
 6954WAT      O21923   2.983   5.900   1.013
 6954WAT     H121924   2.933   5.974   1.047
 6954WAT     H221925   3.065   5.939   0.981
 6955WAT      O21926   2.813   6.425   0.358
 6955WAT     H121927   2.718   6.426   0.375
 6955WAT     H221928   2.844   6.346   0.402
 6956WAT      O21929   2.544   6.880   1.406
 6956WAT     H121930   2.484   6.883   1.332
 6956WAT     H221931   2.514   6.807   1.460
 6957WAT      O21932   1.433   6.518   1.306
 6957WAT     H121933   1.483   6.460   1.363
 6957WAT     H221934   1.359   6.547   1.359
 6958WAT      O21935   2.138   6.659   1.259
 6958WAT     H121936   2.061   6.716   1.250
 6958WAT     H221937   2.156   6.630   1.170
 6959WAT      O21938   2.852   6.832   1.315
 6959WAT     H121939   2.926   6.866   1.264
 6959WAT     H221940   2.776   6.849   1.259
 6960WAT      O21941   1.636   6.332   1.395
 6960WAT     H121942   1.640   6.303   1.486
 6960WAT     H221943   1.721   6.373   1.379
 6961WAT      O21944   1.830   6.190   1.192
 6961WAT     H121945   1.777   6.141   1.129
 6961WAT     H221946   1.897   6.233   1.138
 6962WAT      O21947   2.720   6.637   1.168
 6962WAT     H121948   2.761   6.653   1.253
 6962WAT     H221949   2.626   6.650   1.185
 6963WAT      O21950   2.767   6.371   1.369
 6963WAT     H121951   2.825   6.296   1.360
 6963WAT     H221952   2.784   6.424   1.291
 6964WAT      O21953   1.879   5.887   1.200
 6964WAT     H121954   1.869   5.825   1.127
 6964WAT     H221955   1.821   5.960   1.177
 6965WAT      O21956   2.155   5.743   0.903
 6965WAT     H121957   2.110   5.745   0.819
 6965WAT     H221958   2.092   5.703   0.963
 6966WAT      O21959   2.196   6.632   0.965
 6966WAT     H121960   2.238   6.717   0.948
 6966WAT     H221961   2.104   6.646   0.942
 6967WAT      O21962   2.429   6.405   1.104
 6967WAT     H121963   2.441   6.346   1.178
 6967WAT     H221964   2.515   6.409   1.062
 6968WAT      O21965   2.663   6.461   0.961
 6968WAT     H121966   2.611   6.513   0.901
 6968WAT     H221967   2.698   6.524   1.024
 6969WAT      O21968   2.106   6.060   1.229
 6969WAT     H121969   2.165   6.029   1.298
 6969WAT     H221970   2.024   6.012   1.245
 6970WAT      O21971   2.588   6.021   1.253
 6970WAT     H121972   2.519   5.955   1.246
 6970WAT     H221973   2.660   5.977   1.297
 6971WAT      O21974   1.407   7.119   0.433
 6971WAT     H121975   1.440   7.032   0.410
 6971WAT     H221976   1.450   7.140   0.516
 6972WAT      O21977   3.019   7.156   1.136
 6972WAT     H121978   2.959   7.162   1.061
 6972WAT     H221979   3.032   7.062   1.149
 6973WAT      O21980   1.439   6.457   0.343
 6973WAT     H121981   1.373   6.430   0.278
 6973WAT     H221982   1.523   6.446   0.298
 6974WAT      O21983   3.189   6.690   0.404
 6974WAT     H121984   3.227   6.612   0.363
 6974WAT     H221985   3.254   6.759   0.386
 6975WAT      O21986   2.888   6.829   0.945
 6975WAT     H121987   2.806   6.871   0.972
 6975WAT     H221988   2.929   6.890   0.884
 6976WAT      O21989   1.543   6.496   0.797
 6976WAT     H121990   1.579   6.487   0.885
 6976WAT     H221991   1.486   6.419   0.787
 6977WAT      O21992   3.023   6.342   1.098
 6977WAT     H121993   3.000   6.320   1.008
 6977WAT     H221994   3.049   6.434   1.093
 6978WAT      O21995   1.498   6.187   1.187
 6978WAT     H121996   1.408   6.183   1.221
 6978WAT     H221997   1.552   6.206   1.264
 6979WAT      O21998   2.867   5.865   1.376
 6979WAT     H121999   2.954   5.866   1.414
 6979WAT     H222000   2.868   5.791   1.315
 6980WAT      O22001   3.011   6.250   0.465
 6980WAT     H122002   3.064   6.201   0.402
 6980WAT     H222003   3.070   6.264   0.539
 6981WAT      O22004   3.029   6.259   0.817
 6981WAT     H122005   2.934   6.255   0.828
 6981WAT     H222006   3.047   6.350   0.793
 6982WAT      O22007   1.548   5.614   0.622
 6982WAT     H122008   1.613   5.559   0.578
 6982WAT     H222009   1.590   5.640   0.704
 6983WAT      O22010   3.103   6.040   0.312
 6983WAT     H122011   3.092   6.024   0.406
 6983WAT     H222012   3.179   5.987   0.288
 6984WAT      O22013   2.938   5.634   0.958
 6984WAT     H122014   3.001   5.695   0.994
 6984WAT     H222015   2.953   5.637   0.863
 6985WAT      O22016   1.524   5.630   0.896
 6985WAT     H122017   1.489   5.675   0.973
 6985WAT     H222018   1.490   5.540   0.905
 6986WAT      O22019   1.684   6.947   1.313
 6986WAT     H122020   1.680   6.910   1.401
 6986WAT     H222021   1.697   7.041   1.327
 6987WAT      O22022   2.054   7.102   0.873
 6987WAT     H122023   2.030   7.129   0.784
 6987WAT     H222024   2.148   7.120   0.879
 6988WAT      O22025   2.275   5.749   1.249
 6988WAT     H122026   2.269   5.808   1.324
 6988WAT     H222027   2.369   5.738   1.234
 6989WAT      O22028   2.539   5.714   1.213
 6989WAT     H122029   2.600   5.746   1.146
 6989WAT     H222030   2.593   5.666   1.274
 6990WAT      O22031   1.591   5.582   1.224
 6990WAT     H122032   1.646   5.564   1.148
 6990WAT     H222033   1.597   5.503   1.277
 6991WAT      O22034   2.613   5.571   0.845
 6991WAT     H122035   2.525   5.604   0.825
 6991WAT     H222036   2.602   5.524   0.928
 6992WAT      O22037   2.703   5.792   0.984
 6992WAT     H122038   2.670   5.710   0.946
 6992WAT     H222039   2.798   5.787   0.971
 6993WAT      O22040   1.631   6.978   0.920
 6993WAT     H122041   1.559   6.916   0.913
 6993WAT     H222042   1.637   7.017   0.833
 6994WAT      O22043   2.387   5.663   0.739
 6994WAT     H122044   2.309   5.710   0.767
 6994WAT     H222045   2.358   5.572   0.728
 6995WAT      O22046   2.843   5.733   0.544
 6995WAT     H122047   2.887   5.727   0.459
 6995WAT     H222048   2.816   5.824   0.551
 6996WAT      O22049   3.029   5.696   0.345
 6996WAT     H122050   3.023   5.602   0.330
 6996WAT     H222051   3.107   5.707   0.399
 6997WAT      O22052   2.176   5.904   0.290
 6997WAT     H122053   2.095   5.867   0.256
 6997WAT     H222054   2.226   5.829   0.321
 6998WAT      O22055   2.626   5.571   0.414
 6998WAT     H122056   2.686   5.628   0.462
 6998WAT     H222057   2.552   5.627   0.392
 6999WAT      O22058   1.991   5.647   1.394
 6999WAT     H122059   1.963   5.698   1.318
 6999WAT     H222060   2.029   5.567   1.358
 7000WAT      O22061   2.651   5.589   1.452
 7000WAT     H122062   2.640   5.621   1.542
 7000WAT     H222063   2.733   5.629   1.422
 7001WAT      O22064   2.542   4.513   5.998
 7001WAT     H122065   2.534   4.422   5.971
 7001WAT     H222066   2.500   4.563   5.928
 7002WAT      O22067   2.355   4.691   6.186
 7002WAT     H122068   2.277   4.643   6.215
 7002WAT     H222069   2.420   4.623   6.169
 7003WAT      O22070   1.757   4.722   6.274
 7003WAT     H122071   1.673   4.697   6.314
 7003WAT     H222072   1.817   4.729   6.348
 7004WAT      O22073   2.757   5.132   6.064
 7004WAT     H122074   2.711   5.055   6.097
 7004WAT     H222075   2.838   5.134   6.115
 7005WAT      O22076   1.755   5.126   6.294
 7005WAT     H122077   1.785   5.037   6.276
 7005WAT     H222078   1.829   5.181   6.271
 7006WAT      O22079   1.597   4.218   5.652
 7006WAT     H122080   1.509   4.252   5.642
 7006WAT     H222081   1.626   4.198   5.563
 7007WAT      O22082   1.394   4.478   6.241
 7007WAT     H122083   1.451   4.402   6.241
 7007WAT     H222084   1.394   4.508   6.150
 7008WAT      O22085   2.380   5.360   6.026
 7008WAT     H122086   2.318   5.406   5.969
 7008WAT     H222087   2.465   5.376   5.986
 7009WAT      O22088   2.299   4.959   6.187
 7009WAT     H122089   2.292   4.865   6.171
 7009WAT     H222090   2.375   4.968   6.244
 7010WAT      O22091   1.518   4.019   6.420
 7010WAT     H122092   1.500   3.929   6.448
 7010WAT     H222093   1.478   4.074   6.487
 7011WAT      O22094   2.402   4.239   6.210
 7011WAT     H122095   2.440   4.152   6.198
 7011WAT     H222096   2.392   4.273   6.121
 7012WAT      O22097   1.815   4.077   5.756
 7012WAT     H122098   1.826   4.167   5.787
 7012WAT     H222099   1.724   4.072   5.727
 7013WAT      O22100   2.780   3.989   5.903
 7013WAT     H122101   2.862   3.940   5.907
 7013WAT     H222102   2.784   4.048   5.978
 7014WAT      O22103   1.580   4.269   6.280
 7014WAT     H122104   1.648   4.295   6.342
 7014WAT     H222105   1.548   4.185   6.314
 7015WAT      O22106   1.999   4.373   6.189
 7015WAT     H122107   2.050   4.423   6.253
 7015WAT     H222108   2.052   4.296   6.171
 7016WAT      O22109   2.466   4.849   5.766
 7016WAT     H122110   2.404   4.895   5.709
 7016WAT     H222111   2.517   4.918   5.807
 7017WAT      O22112   1.953   4.801   6.433
 7017WAT     H122113   1.919   4.864   6.498
 7017WAT     H222114   1.970   4.854   6.355
 7018WAT      O22115   2.804   4.183   6.180
 7018WAT     H122116   2.733   4.212   6.238
 7018WAT     H222117   2.840   4.264   6.144
 7019WAT      O22118   1.796   4.009   6.416
 7019WAT     H122119   1.830   4.093   6.387
 7019WAT     H222120   1.702   4.023   6.428
 7020WAT      O22121   1.403   4.917   5.503
 7020WAT     H122122   1.365   4.966   5.430
 7020WAT     H222123   1.429   4.984   5.566
 7021WAT      O22124   2.966   5.145   6.406
 7021WAT     H122125   2.897   5.212   6.406
 7021WAT     H222126   3.019   5.164   6.330
 7022WAT      O22127   3.111   4.127   6.219
 7022WAT     H122128   3.016   4.131   6.232
 7022WAT     H222129   3.143   4.209   6.258
 7023WAT      O22130   2.164   3.757   6.049
 7023WAT     H122131   2.195   3.702   5.977
 7023WAT     H222132   2.071   3.771   6.031
 7024WAT      O22133   2.719   5.329   6.278
 7024WAT     H122134   2.720   5.289   6.191
 7024WAT     H222135   2.664   5.406   6.268
 7025WAT      O22136   2.849   5.001   5.787
 7025WAT     H122137   2.838   4.907   5.799
 7025WAT     H222138   2.848   5.037   5.875
 7026WAT      O22139   2.659   4.819   6.411
 7026WAT     H122140   2.701   4.798   6.327
 7026WAT     H222141   2.731   4.845   6.468
 7027WAT      O22142   2.403   4.564   5.722
 7027WAT     H122143   2.310   4.557   5.745
 7027WAT     H222144   2.418   4.658   5.711
 7028WAT      O22145   2.401   4.191   5.422
 7028WAT     H122146   2.307   4.207   5.431
 7028WAT     H222147   2.433   4.263   5.367
 7029WAT      O22148   3.054   4.659   6.420
 7029WAT     H122149   2.971   4.666   6.372
 7029WAT     H222150   3.113   4.718   6.373
 7030WAT      O22151   2.806   4.720   5.773
 7030WAT     H122152   2.744   4.686   5.708
 7030WAT     H222153   2.804   4.656   5.844
 7031WAT      O22154   1.963   4.616   6.001
 7031WAT     H122155   1.923   4.545   5.951
 7031WAT     H222156   1.972   4.582   6.090
 7032WAT      O22157   2.010   4.985   6.217
 7032WAT     H122158   1.980   4.925   6.149
 7032WAT     H222159   2.105   4.989   6.206
 7033WAT      O22160   1.835   4.294   6.379
 7033WAT     H122161   1.890   4.305   6.301
 7033WAT     H222162   1.886   4.331   6.450
 7034WAT      O22163   2.434   5.138   5.870
 7034WAT     H122164   2.478   5.212   5.829
 7034WAT     H222165   2.428   5.162   5.963
 7035WAT      O22166   2.982   3.769   5.305
 7035WAT     H122167   2.950   3.779   5.395
 7035WAT     H222168   3.058   3.827   5.300
 7036WAT      O22169   1.633   4.506   5.751
 7036WAT     H122170   1.621   4.579   5.690
 7036WAT     H222171   1.602   4.429   5.703
 7037WAT      O22172   1.397   4.823   6.331
 7037WAT     H122173   1.405   4.837   6.237
 7037WAT     H222174   1.459   4.752   6.351
 7038WAT      O22175   1.522   4.993   5.972
 7038WAT     H122176   1.481   5.007   5.887
 7038WAT     H222177   1.611   4.965   5.952
 7039WAT      O22178   2.701   5.437   5.606
 7039WAT     H122179   2.685   5.408   5.696
 7039WAT     H222180   2.685   5.359   5.552
 7040WAT      O22181   1.949   5.415   5.784
 7040WAT     H122182   1.931   5.323   5.762
 7040WAT     H222183   1.863   5.450   5.808
 7041WAT      O22184   2.671   5.187   5.462
 7041WAT     H122185   2.602   5.187   5.396
 7041WAT     H222186   2.746   5.145   5.419
 7042WAT      O22187   2.628   5.350   5.869
 7042WAT     H122188   2.673   5.272   5.901
 7042WAT     H222189   2.662   5.421   5.924
 7043WAT      O22190   1.880   3.840   6.089
 7043WAT     H122191   1.836   3.918   6.056
 7043WAT     H222192   1.936   3.873   6.160
 7044WAT      O22193   2.192   3.802   5.577
 7044WAT     H122194   2.129   3.802   5.650
 7044WAT     H222195   2.183   3.716   5.537
 7045WAT      O22196   2.084   3.895   6.275
 7045WAT     H122197   2.113   3.985   6.267
 7045WAT     H222198   2.139   3.846   6.213
 7046WAT      O22199   1.859   4.353   5.862
 7046WAT     H122200   1.837   4.331   5.952
 7046WAT     H222201   1.781   4.396   5.827
 7047WAT      O22202   2.582   4.353   5.722
 7047WAT     H122203   2.522   4.426   5.703
 7047WAT     H222204   2.637   4.347   5.643
 7048WAT      O22205   2.443   4.217   5.925
 7048WAT     H122206   2.482   4.249   5.843
 7048WAT     H222207   2.479   4.129   5.936
 7049WAT      O22208   1.346   3.876   6.147
 7049WAT     H122209   1.318   3.933   6.218
 7049WAT     H222210   1.421   3.828   6.183
 7050WAT      O22211   1.365   4.270   5.268
 7050WAT     H122212   1.357   4.364   5.282
 7050WAT     H222213   1.330   4.256   5.180
 7051WAT      O22214   2.501   4.476   6.334
 7051WAT     H122215   2.428   4.527   6.369
 7051WAT     H222216   2.462   4.394   6.304
 7052WAT      O22217   2.145   4.143   6.175
 7052WAT     H122218   2.145   4.099   6.090
 7052WAT     H222219   2.235   4.176   6.185
 7053WAT      O22220   1.730   4.132   6.071
 7053WAT     H122221   1.696   4.179   6.146
 7053WAT     H222222   1.654   4.086   6.035
 7054WAT      O22223   2.151   4.244   5.474
 7054WAT     H122224   2.163   4.239   5.569
 7054WAT     H222225   2.113   4.330   5.458
 7055WAT      O22226   2.548   4.021   6.275
 7055WAT     H122227   2.549   4.066   6.360
 7055WAT     H222228   2.523   3.931   6.297
 7056WAT      O22229   2.053   4.475   5.414
 7056WAT     H122230   1.996   4.430   5.351
 7056WAT     H222231   2.123   4.511   5.360
 7057WAT      O22232   2.175   4.549   6.349
 7057WAT     H122233   2.212   4.502   6.424
 7057WAT     H222234   2.156   4.637   6.383
 7058WAT      O22235   1.462   4.024   5.962
 7058WAT     H122236   1.433   3.987   6.046
 7058WAT     H222237   1.455   3.951   5.901
 7059WAT      O22238   1.807   4.874   5.641
 7059WAT     H122239   1.730   4.820   5.625
 7059WAT     H222240   1.880   4.822   5.607
 7060WAT      O22241   2.883   4.774   6.220
 7060WAT     H122242   2.955   4.823   6.181
 7060WAT     H222243   2.863   4.706   6.156
 7061WAT      O22244   2.429   3.913   5.634
 7061WAT     H122245   2.348   3.863   5.627
 7061WAT     H222246   2.410   3.997   5.593
 7062WAT      O22247   2.700   4.350   5.464
 7062WAT     H122248   2.789   4.382   5.447
 7062WAT     H222249   2.698   4.263   5.425
 7063WAT      O22250   1.811   4.841   6.005
 7063WAT     H122251   1.863   4.761   5.999
 7063WAT     H222252   1.766   4.835   6.089
 7064WAT      O22253   2.300   4.968   5.532
 7064WAT     H122254   2.334   5.042   5.482
 7064WAT     H222255   2.217   4.999   5.568
 7065WAT      O22256   2.928   4.482   5.411
 7065WAT     H122257   2.919   4.525   5.326
 7065WAT     H222258   3.000   4.528   5.454
 7066WAT      O22259   3.030   5.167   5.684
 7066WAT     H122260   2.966   5.102   5.711
 7066WAT     H222261   2.992   5.208   5.606
 7067WAT      O22262   2.588   4.900   6.068
 7067WAT     H122263   2.624   4.840   6.002
 7067WAT     H222264   2.500   4.867   6.086
 7068WAT      O22265   2.197   4.976   5.809
 7068WAT     H122266   2.266   5.030   5.847
 7068WAT     H222267   2.118   5.030   5.813
 7069WAT      O22268   1.411   4.538   5.358
 7069WAT     H122269   1.498   4.566   5.387
 7069WAT     H222270   1.362   4.619   5.347
 7070WAT      O22271   2.127   4.676   5.770
 7070WAT     H122272   2.173   4.757   5.793
 7070WAT     H222273   2.092   4.644   5.854
 7071WAT      O22274   1.717   3.711   5.818
 7071WAT     H122275   1.705   3.710   5.912
 7071WAT     H222276   1.635   3.744   5.783
 7072WAT      O22277   2.485   5.028   6.365
 7072WAT     H122278   2.549   4.958   6.376
 7072WAT     H222279   2.537   5.106   6.347
 7073WAT      O22280   1.448   5.459   5.415
 7073WAT     H122281   1.484   5.519   5.349
 7073WAT     H222282   1.434   5.513   5.492
 7074WAT      O22283   2.828   4.848   5.504
 7074WAT     H122284   2.799   4.894   5.582
 7074WAT     H222285   2.907   4.802   5.530
 7075WAT      O22286   2.049   5.197   5.497
 7075WAT     H122287   2.048   5.270   5.435
 7075WAT     H222288   1.957   5.172   5.506
 7076WAT      O22289   1.609   4.719   5.571
 7076WAT     H122290   1.549   4.793   5.572
 7076WAT     H222291   1.657   4.728   5.489
 7077WAT      O22292   2.903   4.031   5.620
 7077WAT     H122293   2.840   4.042   5.548
 7077WAT     H222294   2.854   4.053   5.699
 7078WAT      O22295   2.348   5.203   5.363
 7078WAT     H122296   2.358   5.183   5.270
 7078WAT     H222297   2.258   5.178   5.383
 7079WAT      O22298   2.100   4.259   5.761
 7079WAT     H122299   2.029   4.306   5.805
 7079WAT     H222300   2.129   4.193   5.825
 7080WAT      O22301   2.503   3.932   5.905
 7080WAT     H122302   2.491   3.934   5.810
 7080WAT     H222303   2.598   3.936   5.917
 7081WAT      O22304   2.212   5.455   5.832
 7081WAT     H122305   2.237   5.451   5.740
 7081WAT     H222306   2.117   5.443   5.832
 7082WAT      O22307   1.920   4.090   5.499
 7082WAT     H122308   2.005   4.134   5.492
 7082WAT     H222309   1.884   4.121   5.581
 7083WAT      O22310   2.813   4.547   5.990
 7083WAT     H122311   2.718   4.549   6.007
 7083WAT     H222312   2.844   4.469   6.035
 7084WAT      O22313   1.810   4.715   5.346
 7084WAT     H122314   1.887   4.704   5.402
 7084WAT     H222315   1.818   4.646   5.281
 7085WAT      O22316   1.680   4.459   5.414
 7085WAT     H122317   1.688   4.364   5.426
 7085WAT     H222318   1.769   4.492   5.425
 7086WAT      O22319   3.013   5.264   6.158
 7086WAT     H122320   3.025   5.347   6.205
 7086WAT     H222321   3.100   5.243   6.123
 7087WAT      O22322   1.760   5.474   6.125
 7087WAT     H122323   1.834   5.419   6.152
 7087WAT     H222324   1.798   5.560   6.111
 7088WAT      O22325   1.448   5.080   5.712
 7088WAT     H122326   1.356   5.105   5.711
 7088WAT     H222327   1.495   5.163   5.700
 7089WAT      O22328   2.071   5.391   5.307
 7089WAT     H122329   2.150   5.420   5.262
 7089WAT     H222330   2.019   5.348   5.239
 7090WAT      O22331   2.976   5.314   5.449
 7090WAT     H122332   2.948   5.272   5.368
 7090WAT     H222333   2.957   5.406   5.437
 7091WAT      O22334   2.123   4.913   5.293
 7091WAT     H122335   2.112   4.851   5.366
 7091WAT     H222336   2.106   4.861   5.215
 7092WAT      O22337   2.014   4.715   5.543
 7092WAT     H122338   2.056   4.698   5.628
 7092WAT     H222339   2.026   4.634   5.494
 7093WAT      O22340   2.265   4.617   5.268
 7093WAT     H122341   2.317   4.546   5.232
 7093WAT     H222342   2.330   4.681   5.298
 7094WAT      O22343   1.903   4.322   5.238
 7094WAT     H122344   1.883   4.236   5.274
 7094WAT     H222345   1.886   4.314   5.144
 7095WAT      O22346   2.651   3.803   5.491
 7095WAT     H122347   2.679   3.719   5.526
 7095WAT     H222348   2.574   3.827   5.542
 7096WAT      O22349   1.783   4.032   5.237
 7096WAT     H122350   1.813   4.033   5.146
 7096WAT     H222351   1.857   3.997   5.286
 7097WAT      O22352   2.105   3.927   5.335
 7097WAT     H122353   2.070   3.859   5.277
 7097WAT     H222354   2.125   3.881   5.417
 7098WAT      O22355   2.321   5.426   5.497
 7098WAT     H122356   2.411   5.459   5.499
 7098WAT     H222357   2.325   5.353   5.434
 7099WAT      O22358   1.685   4.963   5.320
 7099WAT     H122359   1.729   5.017   5.386
 7099WAT     H222360   1.734   4.880   5.321
 7100WAT      O22361   1.407   5.242   6.065
 7100WAT     H122362   1.440   5.155   6.042
 7100WAT     H222363   1.450   5.262   6.148
 7101WAT      O22364   1.866   5.075   5.831
 7101WAT     H122365   1.836   5.062   5.921
 7101WAT     H222366   1.856   4.989   5.790
 7102WAT      O22367   1.456   5.328   6.339
 7102WAT     H122368   1.412   5.346   6.422
 7102WAT     H222369   1.512   5.404   6.325
 7103WAT      O22370   3.143   5.053   5.302
 7103WAT     H122371   3.060   5.059   5.349
 7103WAT     H222372   3.161   5.142   5.271
 7104WAT      O22373   3.089   4.727   5.552
 7104WAT     H122374   3.165   4.784   5.563
 7104WAT     H222375   3.090   4.670   5.629
 7105WAT      O22376   1.439   4.580   5.975
 7105WAT     H122377   1.373   4.553   5.911
 7105WAT     H222378   1.523   4.569   5.930
 7106WAT      O22379   3.189   4.813   6.036
 7106WAT     H122380   3.227   4.734   5.996
 7106WAT     H222381   3.254   4.882   6.019
 7107WAT      O22382   3.094   4.757   5.268
 7107WAT     H122383   3.122   4.847   5.255
 7107WAT     H222384   3.075   4.750   5.361
 7108WAT      O22385   2.734   4.059   5.397
 7108WAT     H122386   2.776   4.040   5.313
 7108WAT     H222387   2.703   3.974   5.428
 7109WAT      O22388   3.084   4.550   5.767
 7109WAT     H122389   3.046   4.474   5.724
 7109WAT     H222390   3.011   4.588   5.816
 7110WAT      O22391   1.543   4.618   6.429
 7110WAT     H122392   1.579   4.609   6.517
 7110WAT     H222393   1.486   4.542   6.419
 7111WAT      O22394   1.360   4.301   5.569
 7111WAT     H122395   1.270   4.327   5.552
 7111WAT     H222396   1.409   4.328   5.491
 7112WAT      O22397   3.011   4.373   6.097
 7112WAT     H122398   3.064   4.323   6.034
 7112WAT     H222399   3.070   4.386   6.171
 7113WAT      O22400   3.029   4.381   6.449
 7113WAT     H122401   2.934   4.378   6.461
 7113WAT     H222402   3.047   4.472   6.426
 7114WAT      O22403   1.615   4.206   5.360
 7114WAT     H122404   1.685   4.164   5.312
 7114WAT     H222405   1.543   4.213   5.297
 7115WAT      O22406   1.579   3.812   5.264
 7115WAT     H122407   1.652   3.866   5.296
 7115WAT     H222408   1.607   3.784   5.177
 7116WAT      O22409   2.960   4.299   5.691
 7116WAT     H122410   3.010   4.275   5.769
 7116WAT     H222411   2.940   4.215   5.649
 7117WAT      O22412   1.548   3.737   6.254
 7117WAT     H122413   1.613   3.682   6.210
 7117WAT     H222414   1.590   3.762   6.337
 7118WAT      O22415   3.103   4.162   5.944
 7118WAT     H122416   3.092   4.147   6.038
 7118WAT     H222417   3.179   4.109   5.920
 7119WAT      O22418   3.192   3.945   5.268
 7119WAT     H122419   3.285   3.932   5.248
 7119WAT     H222420   3.190   3.953   5.364
 7120WAT      O22421   3.199   4.022   5.531
 7120WAT     H122422   3.120   4.016   5.584
 7120WAT     H222423   3.220   4.116   5.530
 7121WAT      O22424   2.894   5.426   5.930
 7121WAT     H122425   2.953   5.394   5.863
 7121WAT     H222426   2.919   5.379   6.009
 7122WAT      O22427   2.054   5.225   6.505
 7122WAT     H122428   2.030   5.252   6.417
 7122WAT     H222429   2.148   5.242   6.511
 7123WAT      O22430   2.949   5.491   6.313
 7123WAT     H122431   2.903   5.566   6.276
 7123WAT     H222432   2.886   5.419   6.307
 7124WAT      O22433   1.992   5.322   6.231
 7124WAT     H122434   2.043   5.261   6.178
 7124WAT     H222435   2.057   5.372   6.280
 7125WAT      O22436   2.266   5.411   6.313
 7125WAT     H122437   2.294   5.386   6.226
 7125WAT     H222438   2.317   5.356   6.373
 7126WAT      O22439   2.387   3.785   6.371
 7126WAT     H122440   2.309   3.833   6.399
 7126WAT     H222441   2.358   3.695   6.361
 7127WAT      O22442   2.843   3.855   6.176
 7127WAT     H122443   2.887   3.850   6.091
 7127WAT     H222444   2.816   3.947   6.183
 7128WAT      O22445   3.029   3.818   5.977
 7128WAT     H122446   3.023   3.724   5.962
 7128WAT     H222447   3.107   3.829   6.032
 7129WAT      O22448   1.460   5.432   5.873
 7129WAT     H122449   1.443   5.369   5.943
 7129WAT     H222450   1.373   5.453   5.838
 7130WAT      O22451   1.522   3.816   5.624
 7130WAT     H122452   1.598   3.827   5.566
 7130WAT     H222453   1.476   3.899   5.619
 7131WAT      O22454   2.176   4.027   5.923
 7131WAT     H122455   2.095   3.990   5.889
 7131WAT     H222456   2.226   3.951   5.953
 7132WAT      O22457   2.626   3.693   6.046
 7132WAT     H122458   2.686   3.751   6.094
 7132WAT     H222459   2.552   3.750   6.024
 7133WAT      O22460   2.941   3.734   5.574
 7133WAT     H122461   2.960   3.823   5.601
 7133WAT     H222462   2.862   3.710   5.623
 7134WAT      O22463   1.620   5.302   5.618
 7134WAT     H122464   1.568   5.340   5.547
 7134WAT     H222465   1.613   5.364   5.690
 7135WAT      O22466   1.759   3.868   5.478
 7135WAT     H122467   1.812   3.789   5.465
 7135WAT     H222468   1.822   3.936   5.501
 7136WAT      O22469   1.978   3.842   5.783
 7136WAT     H122470   1.915   3.772   5.800
 7136WAT     H222471   1.924   3.918   5.761
 7137WAT      O22472   3.096   5.458   5.750
 7137WAT     H122473   3.113   5.389   5.686
 7137WAT     H222474   3.026   5.510   5.711
 7138WAT      O22475   1.880   5.497   5.505
 7138WAT     H122476   1.953   5.468   5.450
 7138WAT     H222477   1.906   5.473   5.594
 7139WAT      O22478   1.796   5.108   5.506
 7139WAT     H122479   1.733   5.155   5.561
 7139WAT     H222480   1.808   5.024   5.549
 7140WAT      O22481   1.597   4.218   3.775
 7140WAT     H122482   1.509   4.252   3.765
 7140WAT     H222483   1.626   4.198   3.686
 7141WAT      O22484   2.380   5.360   4.149
 7141WAT     H122485   2.318   5.406   4.092
 7141WAT     H222486   2.465   5.376   4.109
 7142WAT      O22487   1.518   4.019   4.542
 7142WAT     H122488   1.500   3.929   4.570
 7142WAT     H222489   1.478   4.074   4.610
 7143WAT      O22490   1.815   4.077   3.878
 7143WAT     H122491   1.826   4.167   3.909
 7143WAT     H222492   1.724   4.072   3.849
 7144WAT      O22493   1.580   4.269   4.403
 7144WAT     H122494   1.648   4.295   4.465
 7144WAT     H222495   1.548   4.185   4.436
 7145WAT      O22496   1.828   3.837   4.738
 7145WAT     H122497   1.828   3.889   4.658
 7145WAT     H222498   1.745   3.790   4.736
 7146WAT      O22499   2.466   4.849   3.888
 7146WAT     H122500   2.404   4.895   3.832
 7146WAT     H222501   2.517   4.918   3.930
 7147WAT      O22502   1.796   4.009   4.539
 7147WAT     H122503   1.830   4.093   4.510
 7147WAT     H222504   1.702   4.023   4.551
 7148WAT      O22505   1.403   4.917   3.626
 7148WAT     H122506   1.365   4.966   3.552
 7148WAT     H222507   1.429   4.984   3.689
 7149WAT      O22508   2.164   3.757   4.171
 7149WAT     H122509   2.195   3.702   4.100
 7149WAT     H222510   2.071   3.771   4.153
 7150WAT      O22511   2.719   5.329   4.401
 7150WAT     H122512   2.720   5.289   4.314
 7150WAT     H222513   2.664   5.406   4.390
 7151WAT      O22514   1.835   4.294   4.501
 7151WAT     H122515   1.890   4.305   4.424
 7151WAT     H222516   1.886   4.331   4.573
 7152WAT      O22517   2.623   4.644   3.596
 7152WAT     H122518   2.667   4.560   3.581
 7152WAT     H222519   2.695   4.707   3.605
 7153WAT      O22520   2.434   5.138   3.993
 7153WAT     H122521   2.478   5.212   3.951
 7153WAT     H222522   2.428   5.162   4.085
 7154WAT      O22523   1.633   4.506   3.873
 7154WAT     H122524   1.621   4.579   3.812
 7154WAT     H222525   1.602   4.429   3.826
 7155WAT      O22526   3.177   5.319   5.213
 7155WAT     H122527   3.225   5.366   5.281
 7155WAT     H222528   3.239   5.312   5.140
 7156WAT      O22529   3.117   5.038   4.929
 7156WAT     H122530   3.130   5.014   4.837
 7156WAT     H222531   3.122   4.955   4.976
 7157WAT      O22532   2.701   5.437   3.729
 7157WAT     H122533   2.685   5.408   3.818
 7157WAT     H222534   2.685   5.359   3.675
 7158WAT      O22535   1.949   5.415   3.906
 7158WAT     H122536   1.931   5.323   3.885
 7158WAT     H222537   1.863   5.450   3.930
 7159WAT      O22538   2.671   5.187   3.585
 7159WAT     H122539   2.602   5.187   3.519
 7159WAT     H222540   2.746   5.145   3.541
 7160WAT      O22541   2.628   5.350   3.992
 7160WAT     H122542   2.673   5.272   4.023
 7160WAT     H222543   2.662   5.421   4.046
 7161WAT      O22544   3.103   4.243   5.025
 7161WAT     H122545   3.041   4.294   4.972
 7161WAT     H222546   3.071   4.153   5.020
 7162WAT      O22547   1.880   3.840   4.212
 7162WAT     H122548   1.836   3.918   4.178
 7162WAT     H222549   1.936   3.873   4.282
 7163WAT      O22550   2.309   4.127   4.772
 7163WAT     H122551   2.263   4.148   4.853
 7163WAT     H222552   2.268   4.046   4.742
 7164WAT      O22553   2.809   4.249   4.885
 7164WAT     H122554   2.724   4.219   4.917
 7164WAT     H222555   2.793   4.273   4.794
 7165WAT      O22556   2.084   3.895   4.397
 7165WAT     H122557   2.113   3.985   4.389
 7165WAT     H222558   2.139   3.846   4.336
 7166WAT      O22559   1.859   4.353   3.984
 7166WAT     H122560   1.837   4.331   4.075
 7166WAT     H222561   1.781   4.396   3.950
 7167WAT      O22562   2.103   4.442   5.051
 7167WAT     H122563   2.094   4.348   5.036
 7167WAT     H222564   2.187   4.465   5.011
 7168WAT      O22565   1.616   4.084   4.866
 7168WAT     H122566   1.577   4.168   4.887
 7168WAT     H222567   1.547   4.020   4.885
 7169WAT      O22568   2.274   4.092   5.173
 7169WAT     H122569   2.205   4.073   5.237
 7169WAT     H222570   2.348   4.120   5.226
 7170WAT      O22571   1.346   3.876   4.270
 7170WAT     H122572   1.318   3.933   4.341
 7170WAT     H222573   1.421   3.828   4.306
 7171WAT      O22574   1.365   4.270   3.391
 7171WAT     H122575   1.357   4.364   3.405
 7171WAT     H222576   1.330   4.256   3.303
 7172WAT      O22577   1.730   4.132   4.193
 7172WAT     H122578   1.696   4.179   4.269
 7172WAT     H222579   1.654   4.086   4.157
 7173WAT      O22580   2.151   4.244   3.596
 7173WAT     H122581   2.163   4.239   3.691
 7173WAT     H222582   2.113   4.330   3.581
 7174WAT      O22583   2.053   4.475   3.536
 7174WAT     H122584   1.996   4.430   3.474
 7174WAT     H222585   2.123   4.511   3.483
 7175WAT      O22586   2.890   3.763   4.982
 7175WAT     H122587   2.923   3.689   5.034
 7175WAT     H222588   2.894   3.731   4.892
 7176WAT      O22589   1.462   4.024   4.085
 7176WAT     H122590   1.433   3.987   4.169
 7176WAT     H222591   1.455   3.951   4.024
 7177WAT      O22592   1.807   4.874   3.763
 7177WAT     H122593   1.730   4.820   3.747
 7177WAT     H222594   1.880   4.822   3.730
 7178WAT      O22595   2.300   4.968   3.655
 7178WAT     H122596   2.334   5.042   3.605
 7178WAT     H222597   2.217   4.999   3.691
 7179WAT      O22598   1.880   4.583   5.107
 7179WAT     H122599   1.850   4.598   5.017
 7179WAT     H222600   1.957   4.528   5.098
 7180WAT      O22601   3.030   5.167   3.806
 7180WAT     H122602   2.966   5.102   3.834
 7180WAT     H222603   2.992   5.208   3.729
 7181WAT      O22604   2.197   4.976   3.932
 7181WAT     H122605   2.266   5.030   3.970
 7181WAT     H222606   2.118   5.030   3.935
 7182WAT      O22607   1.411   4.538   3.481
 7182WAT     H122608   1.498   4.566   3.509
 7182WAT     H222609   1.362   4.619   3.469
 7183WAT      O22610   2.127   4.676   3.893
 7183WAT     H122611   2.173   4.757   3.916
 7183WAT     H222612   2.092   4.644   3.976
 7184WAT      O22613   1.717   3.711   3.940
 7184WAT     H122614   1.705   3.710   4.035
 7184WAT     H222615   1.635   3.744   3.905
 7185WAT      O22616   2.869   5.056   3.460
 7185WAT     H122617   2.847   4.984   3.519
 7185WAT     H222618   2.830   5.031   3.376
 7186WAT      O22619   1.448   5.459   3.537
 7186WAT     H122620   1.484   5.519   3.472
 7186WAT     H222621   1.434   5.513   3.615
 7187WAT      O22622   1.417   3.887   4.886
 7187WAT     H122623   1.346   3.907   4.947
 7187WAT     H222624   1.459   3.809   4.923
 7188WAT      O22625   2.828   4.848   3.626
 7188WAT     H122626   2.799   4.894   3.705
 7188WAT     H222627   2.907   4.802   3.653
 7189WAT      O22628   1.446   5.285   4.985
 7189WAT     H122629   1.457   5.191   4.971
 7189WAT     H222630   1.381   5.312   4.920
 7190WAT      O22631   2.049   5.197   3.619
 7190WAT     H122632   2.048   5.270   3.558
 7190WAT     H222633   1.957   5.172   3.628
 7191WAT      O22634   1.609   4.719   3.694
 7191WAT     H122635   1.549   4.793   3.695
 7191WAT     H222636   1.657   4.728   3.611
 7192WAT      O22637   2.348   5.203   3.485
 7192WAT     H122638   2.358   5.183   3.392
 7192WAT     H222639   2.258   5.178   3.506
 7193WAT      O22640   2.100   4.259   3.884
 7193WAT     H122641   2.029   4.306   3.928
 7193WAT     H222642   2.129   4.193   3.947
 7194WAT      O22643   2.212   5.455   3.955
 7194WAT     H122644   2.237   5.451   3.863
 7194WAT     H222645   2.117   5.443   3.954
 7195WAT      O22646   1.920   4.090   3.621
 7195WAT     H122647   2.005   4.134   3.615
 7195WAT     H222648   1.884   4.121   3.704
 7196WAT      O22649   2.983   4.023   4.768
 7196WAT     H122650   2.933   4.097   4.802
 7196WAT     H222651   3.065   4.062   4.736
 7197WAT      O22652   1.810   4.715   3.469
 7197WAT     H122653   1.887   4.704   3.525
 7197WAT     H222654   1.818   4.646   3.403
 7198WAT      O22655   1.680   4.459   3.537
 7198WAT     H122656   1.688   4.364   3.548
 7198WAT     H222657   1.769   4.492   3.548
 7199WAT      O22658   3.013   5.264   4.280
 7199WAT     H122659   3.025   5.347   4.327
 7199WAT     H222660   3.100   5.243   4.245
 7200WAT      O22661   1.760   5.474   4.247
 7200WAT     H122662   1.834   5.419   4.274
 7200WAT     H222663   1.798   5.560   4.233
 7201WAT      O22664   1.448   5.080   3.835
 7201WAT     H122665   1.356   5.105   3.834
 7201WAT     H222666   1.495   5.163   3.823
 7202WAT      O22667   1.661   5.392   5.166
 7202WAT     H122668   1.741   5.424   5.207
 7202WAT     H222669   1.609   5.356   5.238
 7203WAT      O22670   2.071   5.391   3.430
 7203WAT     H122671   2.150   5.420   3.384
 7203WAT     H222672   2.019   5.348   3.362
 7204WAT      O22673   2.976   5.314   3.572
 7204WAT     H122674   2.948   5.272   3.490
 7204WAT     H222675   2.957   5.406   3.560
 7205WAT      O22676   1.433   4.641   5.060
 7205WAT     H122677   1.483   4.583   5.118
 7205WAT     H222678   1.359   4.669   5.114
 7206WAT      O22679   2.123   4.913   3.416
 7206WAT     H122680   2.112   4.851   3.489
 7206WAT     H222681   2.106   4.861   3.338
 7207WAT      O22682   2.447   4.819   3.476
 7207WAT     H122683   2.392   4.864   3.541
 7207WAT     H222684   2.509   4.769   3.529
 7208WAT      O22685   1.636   4.455   5.150
 7208WAT     H122686   1.640   4.425   5.241
 7208WAT     H222687   1.721   4.495   5.134
 7209WAT      O22688   2.014   4.715   3.666
 7209WAT     H122689   2.056   4.698   3.750
 7209WAT     H222690   2.026   4.634   3.617
 7210WAT      O22691   1.830   4.313   4.947
 7210WAT     H122692   1.777   4.264   4.884
 7210WAT     H222693   1.897   4.356   4.893
 7211WAT      O22694   2.265   4.617   3.391
 7211WAT     H122695   2.317   4.546   3.354
 7211WAT     H222696   2.330   4.681   3.421
 7212WAT      O22697   1.879   4.010   4.955
 7212WAT     H122698   1.869   3.948   4.882
 7212WAT     H222699   1.821   4.082   4.932
 7213WAT      O22700   2.155   3.865   4.658
 7213WAT     H122701   2.110   3.868   4.573
 7213WAT     H222702   2.092   3.826   4.718
 7214WAT      O22703   1.903   4.322   3.361
 7214WAT     H122704   1.883   4.236   3.397
 7214WAT     H222705   1.886   4.314   3.267
 7215WAT      O22706   2.106   4.182   4.984
 7215WAT     H122707   2.165   4.151   5.053
 7215WAT     H222708   2.024   4.135   5.000
 7216WAT      O22709   2.588   4.144   5.008
 7216WAT     H122710   2.519   4.078   5.001
 7216WAT     H222711   2.660   4.099   5.052
 7217WAT      O22712   1.783   4.032   3.359
 7217WAT     H122713   1.813   4.033   3.269
 7217WAT     H222714   1.857   3.997   3.409
 7218WAT      O22715   2.267   5.509   4.858
 7218WAT     H122716   2.259   5.599   4.888
 7218WAT     H222717   2.176   5.477   4.855
 7219WAT      O22718   2.105   3.927   3.458
 7219WAT     H122719   2.070   3.859   3.400
 7219WAT     H222720   2.125   3.881   3.539
 7220WAT      O22721   2.321   5.426   3.620
 7220WAT     H122722   2.411   5.459   3.622
 7220WAT     H222723   2.325   5.353   3.557
 7221WAT      O22724   1.685   4.963   3.443
 7221WAT     H122725   1.729   5.017   3.508
 7221WAT     H222726   1.734   4.880   3.444
 7222WAT      O22727   1.407   5.242   4.188
 7222WAT     H122728   1.440   5.155   4.165
 7222WAT     H222729   1.450   5.262   4.271
 7223WAT      O22730   1.866   5.075   3.954
 7223WAT     H122731   1.836   5.062   4.044
 7223WAT     H222732   1.856   4.989   3.913
 7224WAT      O22733   1.456   5.328   4.462
 7224WAT     H122734   1.412   5.346   4.545
 7224WAT     H222735   1.512   5.404   4.447
 7225WAT      O22736   3.143   5.053   3.424
 7225WAT     H122737   3.060   5.059   3.471
 7225WAT     H222738   3.161   5.142   3.394
 7226WAT      O22739   3.089   4.727   3.674
 7226WAT     H122740   3.165   4.784   3.685
 7226WAT     H222741   3.090   4.670   3.752
 7227WAT      O22742   3.094   4.757   3.390
 7227WAT     H122743   3.122   4.847   3.377
 7227WAT     H222744   3.075   4.750   3.484
 7228WAT      O22745   1.498   4.309   4.942
 7228WAT     H122746   1.408   4.306   4.976
 7228WAT     H222747   1.552   4.329   5.019
 7229WAT      O22748   2.867   3.988   5.131
 7229WAT     H122749   2.954   3.988   5.169
 7229WAT     H222750   2.868   3.914   5.070
 7230WAT      O22751   1.360   4.301   3.692
 7230WAT     H122752   1.270   4.327   3.674
 7230WAT     H222753   1.409   4.328   3.614
 7231WAT      O22754   1.615   4.206   3.483
 7231WAT     H122755   1.685   4.164   3.434
 7231WAT     H222756   1.543   4.213   3.420
 7232WAT      O22757   1.579   3.812   3.387
 7232WAT     H122758   1.652   3.866   3.419
 7232WAT     H222759   1.607   3.784   3.299
 7233WAT      O22760   1.548   3.737   4.377
 7233WAT     H122761   1.613   3.682   4.333
 7233WAT     H222762   1.590   3.762   4.459
 7234WAT      O22763   2.938   3.756   4.713
 7234WAT     H122764   3.001   3.817   4.749
 7234WAT     H222765   2.953   3.760   4.618
 7235WAT      O22766   2.894   5.426   4.053
 7235WAT     H122767   2.953   5.394   3.985
 7235WAT     H222768   2.919   5.379   4.132
 7236WAT      O22769   1.524   3.752   4.651
 7236WAT     H122770   1.489   3.798   4.728
 7236WAT     H222771   1.490   3.663   4.659
 7237WAT      O22772   2.275   3.871   5.003
 7237WAT     H122773   2.269   3.931   5.078
 7237WAT     H222774   2.369   3.861   4.989
 7238WAT      O22775   2.539   3.837   4.967
 7238WAT     H122776   2.600   3.869   4.901
 7238WAT     H222777   2.593   3.789   5.029
 7239WAT      O22778   3.180   5.427   4.708
 7239WAT     H122779   3.131   5.467   4.636
 7239WAT     H222780   3.119   5.364   4.747
 7240WAT      O22781   1.591   3.705   4.979
 7240WAT     H122782   1.646   3.687   4.902
 7240WAT     H222783   1.597   3.626   5.032
 7241WAT      O22784   1.668   5.364   4.780
 7241WAT     H122785   1.609   5.351   4.854
 7241WAT     H222786   1.667   5.280   4.733
 7242WAT      O22787   2.613   3.693   4.600
 7242WAT     H122788   2.525   3.727   4.580
 7242WAT     H222789   2.602   3.646   4.683
 7243WAT      O22790   2.703   3.914   4.738
 7243WAT     H122791   2.670   3.833   4.701
 7243WAT     H222792   2.798   3.910   4.726
 7244WAT      O22793   2.949   5.491   4.436
 7244WAT     H122794   2.903   5.566   4.398
 7244WAT     H222795   2.886   5.419   4.430
 7245WAT      O22796   1.992   5.322   4.353
 7245WAT     H122797   2.043   5.261   4.301
 7245WAT     H222798   2.057   5.372   4.402
 7246WAT      O22799   2.266   5.411   4.436
 7246WAT     H122800   2.294   5.386   4.348
 7246WAT     H222801   2.317   5.356   4.495
 7247WAT      O22802   2.387   3.785   4.494
 7247WAT     H122803   2.309   3.833   4.522
 7247WAT     H222804   2.358   3.695   4.483
 7248WAT      O22805   1.460   5.432   3.996
 7248WAT     H122806   1.443   5.369   4.066
 7248WAT     H222807   1.373   5.453   3.961
 7249WAT      O22808   1.522   3.816   3.746
 7249WAT     H122809   1.598   3.827   3.689
 7249WAT     H222810   1.476   3.899   3.742
 7250WAT      O22811   1.620   5.302   3.740
 7250WAT     H122812   1.568   5.340   3.670
 7250WAT     H222813   1.613   5.364   3.812
 7251WAT      O22814   1.759   3.868   3.600
 7251WAT     H122815   1.812   3.789   3.587
 7251WAT     H222816   1.822   3.936   3.624
 7252WAT      O22817   1.978   3.842   3.906
 7252WAT     H122818   1.915   3.772   3.922
 7252WAT     H222819   1.924   3.918   3.884
 7253WAT      O22820   2.272   5.503   5.173
 7253WAT     H122821   2.365   5.480   5.177
 7253WAT     H222822   2.271   5.586   5.125
 7254WAT      O22823   3.096   5.458   3.872
 7254WAT     H122824   3.113   5.389   3.808
 7254WAT     H222825   3.026   5.510   3.833
 7255WAT      O22826   1.991   3.770   5.149
 7255WAT     H122827   1.963   3.820   5.073
 7255WAT     H222828   2.029   3.690   5.113
 7256WAT      O22829   1.880   5.497   3.628
 7256WAT     H122830   1.953   5.468   3.573
 7256WAT     H222831   1.906   5.473   3.717
 7257WAT      O22832   1.796   5.108   3.628
 7257WAT     H122833   1.733   5.155   3.683
 7257WAT     H222834   1.808   5.024   3.672
 7258WAT      O22835   2.651   3.711   5.207
 7258WAT     H122836   2.640   3.743   5.296
 7258WAT     H222837   2.733   3.751   5.177
 7259WAT      O22838   2.542   4.513   2.243
 7259WAT     H122839   2.534   4.422   2.216
 7259WAT     H222840   2.500   4.563   2.173
 7260WAT      O22841   2.355   4.691   2.431
 7260WAT     H122842   2.277   4.643   2.460
 7260WAT     H222843   2.420   4.623   2.414
 7261WAT      O22844   1.757   4.722   2.519
 7261WAT     H122845   1.673   4.697   2.559
 7261WAT     H222846   1.817   4.729   2.593
 7262WAT      O22847   2.757   5.132   2.309
 7262WAT     H122848   2.711   5.055   2.342
 7262WAT     H222849   2.838   5.134   2.360
 7263WAT      O22850   1.755   5.126   2.539
 7263WAT     H122851   1.785   5.037   2.521
 7263WAT     H222852   1.829   5.181   2.516
 7264WAT      O22853   1.597   4.218   1.898
 7264WAT     H122854   1.509   4.252   1.887
 7264WAT     H222855   1.626   4.198   1.808
 7265WAT      O22856   1.394   4.478   2.486
 7265WAT     H122857   1.451   4.402   2.486
 7265WAT     H222858   1.394   4.508   2.395
 7266WAT      O22859   2.380   5.360   2.271
 7266WAT     H122860   2.318   5.406   2.214
 7266WAT     H222861   2.465   5.376   2.231
 7267WAT      O22862   2.299   4.959   2.432
 7267WAT     H122863   2.292   4.865   2.416
 7267WAT     H222864   2.375   4.968   2.489
 7268WAT      O22865   1.518   4.019   2.665
 7268WAT     H122866   1.500   3.929   2.693
 7268WAT     H222867   1.478   4.074   2.732
 7269WAT      O22868   2.402   4.239   2.455
 7269WAT     H122869   2.440   4.152   2.444
 7269WAT     H222870   2.392   4.273   2.366
 7270WAT      O22871   1.815   4.077   2.001
 7270WAT     H122872   1.826   4.167   2.032
 7270WAT     H222873   1.724   4.072   1.972
 7271WAT      O22874   2.780   3.989   2.148
 7271WAT     H122875   2.862   3.940   2.152
 7271WAT     H222876   2.784   4.048   2.223
 7272WAT      O22877   1.580   4.269   2.525
 7272WAT     H122878   1.648   4.295   2.587
 7272WAT     H222879   1.548   4.185   2.559
 7273WAT      O22880   1.999   4.373   2.434
 7273WAT     H122881   2.050   4.423   2.498
 7273WAT     H222882   2.052   4.296   2.417
 7274WAT      O22883   3.209   4.190   2.805
 7274WAT     H122884   3.139   4.229   2.753
 7274WAT     H222885   3.236   4.260   2.865
 7275WAT      O22886   1.828   3.837   2.861
 7275WAT     H122887   1.828   3.889   2.780
 7275WAT     H222888   1.745   3.790   2.859
 7276WAT      O22889   2.466   4.849   2.011
 7276WAT     H122890   2.404   4.895   1.954
 7276WAT     H222891   2.517   4.918   2.052
 7277WAT      O22892   1.953   4.801   2.679
 7277WAT     H122893   1.919   4.864   2.743
 7277WAT     H222894   1.970   4.854   2.601
 7278WAT      O22895   2.804   4.183   2.425
 7278WAT     H122896   2.733   4.212   2.483
 7278WAT     H222897   2.840   4.264   2.389
 7279WAT      O22898   1.796   4.009   2.662
 7279WAT     H122899   1.830   4.093   2.632
 7279WAT     H222900   1.702   4.023   2.673
 7280WAT      O22901   1.874   4.998   2.860
 7280WAT     H122902   1.935   5.066   2.832
 7280WAT     H222903   1.788   5.039   2.851
 7281WAT      O22904   1.403   4.917   1.748
 7281WAT     H122905   1.365   4.966   1.675
 7281WAT     H222906   1.429   4.984   1.811
 7282WAT      O22907   2.966   5.145   2.652
 7282WAT     H122908   2.897   5.212   2.651
 7282WAT     H222909   3.019   5.164   2.575
 7283WAT      O22910   3.111   4.127   2.464
 7283WAT     H122911   3.016   4.131   2.478
 7283WAT     H222912   3.143   4.209   2.503
 7284WAT      O22913   2.164   3.757   2.294
 7284WAT     H122914   2.195   3.702   2.222
 7284WAT     H222915   2.071   3.771   2.276
 7285WAT      O22916   2.719   5.329   2.523
 7285WAT     H122917   2.720   5.289   2.436
 7285WAT     H222918   2.664   5.406   2.513
 7286WAT      O22919   2.849   5.001   2.032
 7286WAT     H122920   2.838   4.907   2.044
 7286WAT     H222921   2.848   5.037   2.121
 7287WAT      O22922   2.659   4.819   2.656
 7287WAT     H122923   2.701   4.798   2.572
 7287WAT     H222924   2.731   4.845   2.713
 7288WAT      O22925   2.403   4.564   1.968
 7288WAT     H122926   2.310   4.557   1.990
 7288WAT     H222927   2.418   4.658   1.956
 7289WAT      O22928   2.401   4.191   1.667
 7289WAT     H122929   2.307   4.207   1.676
 7289WAT     H222930   2.433   4.263   1.613
 7290WAT      O22931   3.054   4.659   2.665
 7290WAT     H122932   2.971   4.666   2.618
 7290WAT     H222933   3.113   4.718   2.618
 7291WAT      O22934   2.806   4.720   2.018
 7291WAT     H122935   2.744   4.686   1.953
 7291WAT     H222936   2.804   4.656   2.089
 7292WAT      O22937   2.750   4.338   2.760
 7292WAT     H122938   2.709   4.420   2.785
 7292WAT     H222939   2.677   4.279   2.740
 7293WAT      O22940   1.963   4.616   2.246
 7293WAT     H122941   1.923   4.545   2.196
 7293WAT     H222942   1.972   4.582   2.335
 7294WAT      O22943   2.010   4.985   2.462
 7294WAT     H122944   1.980   4.925   2.394
 7294WAT     H222945   2.105   4.989   2.451
 7295WAT      O22946   1.835   4.294   2.624
 7295WAT     H122947   1.890   4.305   2.546
 7295WAT     H222948   1.886   4.331   2.695
 7296WAT      O22949   2.819   5.342   2.828
 7296WAT     H122950   2.771   5.423   2.809
 7296WAT     H222951   2.751   5.277   2.844
 7297WAT      O22952   1.919   4.959   3.127
 7297WAT     H122953   1.830   4.981   3.152
 7297WAT     H222954   1.922   4.971   3.032
 7298WAT      O22955   2.623   4.644   1.719
 7298WAT     H122956   2.667   4.560   1.704
 7298WAT     H222957   2.695   4.707   1.727
 7299WAT      O22958   1.802   4.646   2.985
 7299WAT     H122959   1.788   4.733   3.022
 7299WAT     H222960   1.714   4.612   2.970
 7300WAT      O22961   2.434   5.138   2.115
 7300WAT     H122962   2.478   5.212   2.074
 7300WAT     H222963   2.428   5.162   2.208
 7301WAT      O22964   1.982   5.240   3.206
 7301WAT     H122965   1.979   5.281   3.119
 7301WAT     H222966   1.965   5.147   3.189
 7302WAT      O22967   2.982   3.769   1.550
 7302WAT     H122968   2.950   3.779   1.640
 7302WAT     H222969   3.058   3.827   1.545
 7303WAT      O22970   1.633   4.506   1.996
 7303WAT     H122971   1.621   4.579   1.935
 7303WAT     H222972   1.602   4.429   1.948
 7304WAT      O22973   3.177   5.319   3.335
 7304WAT     H122974   3.225   5.366   3.403
 7304WAT     H222975   3.239   5.312   3.263
 7305WAT      O22976   1.397   4.823   2.577
 7305WAT     H122977   1.405   4.837   2.482
 7305WAT     H222978   1.459   4.752   2.596
 7306WAT      O22979   1.522   4.993   2.218
 7306WAT     H122980   1.481   5.007   2.132
 7306WAT     H222981   1.611   4.965   2.197
 7307WAT      O22982   3.117   5.038   3.051
 7307WAT     H122983   3.130   5.014   2.960
 7307WAT     H222984   3.122   4.955   3.099
 7308WAT      O22985   2.503   5.408   2.908
 7308WAT     H122986   2.555   5.399   2.989
 7308WAT     H222987   2.419   5.443   2.938
 7309WAT      O22988   2.701   5.437   1.851
 7309WAT     H122989   2.685   5.408   1.941
 7309WAT     H222990   2.685   5.359   1.798
 7310WAT      O22991   1.949   5.415   2.029
 7310WAT     H122992   1.931   5.323   2.008
 7310WAT     H222993   1.863   5.450   2.053
 7311WAT      O22994   2.671   5.187   1.707
 7311WAT     H122995   2.602   5.187   1.641
 7311WAT     H222996   2.746   5.145   1.664
 7312WAT      O22997   2.628   5.350   2.115
 7312WAT     H122998   2.673   5.272   2.146
 7312WAT     H222999   2.662   5.421   2.169
 7313WAT      O23000   1.403   4.927   2.830
 7313WAT     H123001   1.419   4.880   2.749
 7313WAT     H223002   1.449   4.876   2.897
 7314WAT      O23003   1.880   3.840   2.334
 7314WAT     H123004   1.836   3.918   2.301
 7314WAT     H223005   1.936   3.873   2.405
 7315WAT      O23006   2.309   4.127   2.894
 7315WAT     H123007   2.263   4.148   2.976
 7315WAT     H223008   2.268   4.046   2.864
 7316WAT      O23009   2.192   3.802   1.822
 7316WAT     H123010   2.129   3.802   1.895
 7316WAT     H223011   2.183   3.716   1.783
 7317WAT      O23012   2.084   3.895   2.520
 7317WAT     H123013   2.113   3.985   2.512
 7317WAT     H223014   2.139   3.846   2.459
 7318WAT      O23015   1.859   4.353   2.107
 7318WAT     H123016   1.837   4.331   2.197
 7318WAT     H223017   1.781   4.396   2.072
 7319WAT      O23018   2.582   4.353   1.967
 7319WAT     H123019   2.522   4.426   1.948
 7319WAT     H223020   2.637   4.347   1.889
 7320WAT      O23021   2.103   4.442   3.174
 7320WAT     H123022   2.094   4.348   3.159
 7320WAT     H223023   2.187   4.465   3.134
 7321WAT      O23024   2.443   4.217   2.170
 7321WAT     H123025   2.482   4.249   2.089
 7321WAT     H223026   2.479   4.129   2.181
 7322WAT      O23027   1.616   4.084   2.989
 7322WAT     H123028   1.577   4.168   3.010
 7322WAT     H223029   1.547   4.020   3.008
 7323WAT      O23030   2.274   4.092   3.296
 7323WAT     H123031   2.205   4.073   3.359
 7323WAT     H223032   2.348   4.120   3.349
 7324WAT      O23033   1.346   3.876   2.392
 7324WAT     H123034   1.318   3.933   2.463
 7324WAT     H223035   1.421   3.828   2.428
 7325WAT      O23036   1.365   4.270   1.513
 7325WAT     H123037   1.357   4.364   1.527
 7325WAT     H223038   1.330   4.256   1.425
 7326WAT      O23039   2.501   4.476   2.579
 7326WAT     H123040   2.428   4.527   2.614
 7326WAT     H223041   2.462   4.394   2.549
 7327WAT      O23042   2.145   4.143   2.420
 7327WAT     H123043   2.145   4.099   2.335
 7327WAT     H223044   2.235   4.176   2.431
 7328WAT      O23045   1.730   4.132   2.316
 7328WAT     H123046   1.696   4.179   2.391
 7328WAT     H223047   1.654   4.086   2.280
 7329WAT      O23048   2.151   4.244   1.719
 7329WAT     H123049   2.163   4.239   1.814
 7329WAT     H223050   2.113   4.330   1.703
 7330WAT      O23051   2.548   4.021   2.521
 7330WAT     H123052   2.549   4.066   2.605
 7330WAT     H223053   2.523   3.931   2.542
 7331WAT      O23054   2.053   4.475   1.659
 7331WAT     H123055   1.996   4.430   1.596
 7331WAT     H223056   2.123   4.511   1.605
 7332WAT      O23057   1.560   4.865   3.046
 7332WAT     H123058   1.522   4.801   3.106
 7332WAT     H223059   1.591   4.935   3.103
 7333WAT      O23060   2.175   4.549   2.595
 7333WAT     H123061   2.212   4.502   2.669
 7333WAT     H223062   2.156   4.637   2.629
 7334WAT      O23063   1.462   4.024   2.207
 7334WAT     H123064   1.433   3.987   2.291
 7334WAT     H223065   1.455   3.951   2.146
 7335WAT      O23066   1.954   4.454   2.826
 7335WAT     H123067   1.924   4.542   2.849
 7335WAT     H223068   2.050   4.460   2.830
 7336WAT      O23069   1.807   4.874   1.886
 7336WAT     H123070   1.730   4.820   1.870
 7336WAT     H223071   1.880   4.822   1.852
 7337WAT      O23072   2.883   4.774   2.465
 7337WAT     H123073   2.955   4.823   2.426
 7337WAT     H223074   2.863   4.706   2.401
 7338WAT      O23075   2.429   3.913   1.880
 7338WAT     H123076   2.348   3.863   1.872
 7338WAT     H223077   2.410   3.997   1.838
 7339WAT      O23078   2.421   4.781   3.054
 7339WAT     H123079   2.414   4.689   3.029
 7339WAT     H223080   2.358   4.791   3.125
 7340WAT      O23081   2.700   4.350   1.709
 7340WAT     H123082   2.789   4.382   1.692
 7340WAT     H223083   2.698   4.263   1.670
 7341WAT      O23084   1.811   4.841   2.250
 7341WAT     H123085   1.863   4.761   2.244
 7341WAT     H223086   1.766   4.835   2.334
 7342WAT      O23087   2.300   4.968   1.777
 7342WAT     H123088   2.334   5.042   1.728
 7342WAT     H223089   2.217   4.999   1.813
 7343WAT      O23090   1.560   4.538   2.941
 7343WAT     H123091   1.524   4.604   3.000
 7343WAT     H223092   1.530   4.454   2.978
 7344WAT      O23093   1.880   4.583   3.229
 7344WAT     H123094   1.850   4.598   3.140
 7344WAT     H223095   1.957   4.528   3.220
 7345WAT      O23096   2.414   5.063   3.029
 7345WAT     H123097   2.416   4.970   3.007
 7345WAT     H223098   2.343   5.072   3.093
 7346WAT      O23099   2.928   4.482   1.656
 7346WAT     H123100   2.919   4.525   1.571
 7346WAT     H223101   3.000   4.528   1.699
 7347WAT      O23102   3.035   4.727   2.964
 7347WAT     H123103   2.963   4.787   2.944
 7347WAT     H223104   3.088   4.726   2.884
 7348WAT      O23105   3.030   5.167   1.929
 7348WAT     H123106   2.966   5.102   1.956
 7348WAT     H223107   2.992   5.208   1.851
 7349WAT      O23108   2.588   4.900   2.314
 7349WAT     H123109   2.624   4.840   2.248
 7349WAT     H223110   2.500   4.867   2.331
 7350WAT      O23111   2.197   4.976   2.054
 7350WAT     H123112   2.266   5.030   2.092
 7350WAT     H223113   2.118   5.030   2.058
 7351WAT      O23114   1.411   4.538   1.603
 7351WAT     H123115   1.498   4.566   1.632
 7351WAT     H223116   1.362   4.619   1.592
 7352WAT      O23117   2.127   4.676   2.016
 7352WAT     H123118   2.173   4.757   2.038
 7352WAT     H223119   2.092   4.644   2.099
 7353WAT      O23120   2.358   5.227   2.738
 7353WAT     H123121   2.422   5.248   2.806
 7353WAT     H223122   2.394   5.151   2.693
 7354WAT      O23123   1.717   3.711   2.063
 7354WAT     H123124   1.705   3.710   2.158
 7354WAT     H223125   1.635   3.744   2.028
 7355WAT      O23126   2.485   5.028   2.610
 7355WAT     H123127   2.549   4.958   2.622
 7355WAT     H223128   2.537   5.106   2.592
 7356WAT      O23129   2.869   5.056   1.583
 7356WAT     H123130   2.847   4.984   1.642
 7356WAT     H223131   2.830   5.031   1.499
 7357WAT      O23132   2.662   5.108   2.931
 7357WAT     H123133   2.696   5.166   2.998
 7357WAT     H223134   2.570   5.095   2.954
 7358WAT      O23135   1.448   5.459   1.660
 7358WAT     H123136   1.484   5.519   1.595
 7358WAT     H223137   1.434   5.513   1.737
 7359WAT      O23138   1.417   3.887   3.009
 7359WAT     H123139   1.346   3.907   3.069
 7359WAT     H223140   1.459   3.809   3.046
 7360WAT      O23141   2.828   4.848   1.749
 7360WAT     H123142   2.799   4.894   1.828
 7360WAT     H223143   2.907   4.802   1.776
 7361WAT      O23144   1.446   5.285   3.107
 7361WAT     H123145   1.457   5.191   3.093
 7361WAT     H223146   1.381   5.312   3.043
 7362WAT      O23147   2.245   5.113   3.247
 7362WAT     H123148   2.213   5.041   3.302
 7362WAT     H223149   2.178   5.180   3.255
 7363WAT      O23150   2.049   5.197   1.742
 7363WAT     H123151   2.048   5.270   1.680
 7363WAT     H223152   1.957   5.172   1.751
 7364WAT      O23153   1.609   4.719   1.816
 7364WAT     H123154   1.549   4.793   1.817
 7364WAT     H223155   1.657   4.728   1.734
 7365WAT      O23156   2.567   4.136   2.784
 7365WAT     H123157   2.603   4.054   2.817
 7365WAT     H223158   2.481   4.142   2.825
 7366WAT      O23159   2.903   4.031   1.865
 7366WAT     H123160   2.840   4.042   1.793
 7366WAT     H223161   2.854   4.053   1.944
 7367WAT      O23162   2.348   5.203   1.608
 7367WAT     H123163   2.358   5.183   1.515
 7367WAT     H223164   2.258   5.178   1.629
 7368WAT      O23165   2.100   4.259   2.006
 7368WAT     H123166   2.029   4.306   2.050
 7368WAT     H223167   2.129   4.193   2.070
 7369WAT      O23168   2.263   4.401   2.806
 7369WAT     H123169   2.313   4.449   2.873
 7369WAT     H223170   2.277   4.309   2.827
 7370WAT      O23171   2.503   3.932   2.150
 7370WAT     H123172   2.491   3.934   2.055
 7370WAT     H223173   2.598   3.936   2.162
 7371WAT      O23174   2.212   5.455   2.078
 7371WAT     H123175   2.237   5.451   1.985
 7371WAT     H223176   2.117   5.443   2.077
 7372WAT      O23177   1.920   4.090   1.744
 7372WAT     H123178   2.005   4.134   1.737
 7372WAT     H223179   1.884   4.121   1.827
 7373WAT      O23180   2.983   4.023   2.890
 7373WAT     H123181   2.933   4.097   2.924
 7373WAT     H223182   3.065   4.062   2.859
 7374WAT      O23183   2.813   4.547   2.235
 7374WAT     H123184   2.718   4.549   2.253
 7374WAT     H223185   2.844   4.469   2.280
 7375WAT      O23186   1.810   4.715   1.591
 7375WAT     H123187   1.887   4.704   1.647
 7375WAT     H223188   1.818   4.646   1.526
 7376WAT      O23189   1.680   4.459   1.659
 7376WAT     H123190   1.688   4.364   1.671
 7376WAT     H223191   1.769   4.492   1.670
 7377WAT      O23192   3.013   5.264   2.403
 7377WAT     H123193   3.025   5.347   2.450
 7377WAT     H223194   3.100   5.243   2.368
 7378WAT      O23195   1.760   5.474   2.370
 7378WAT     H123196   1.834   5.419   2.397
 7378WAT     H223197   1.798   5.560   2.356
 7379WAT      O23198   1.448   5.080   1.957
 7379WAT     H123199   1.356   5.105   1.956
 7379WAT     H223200   1.495   5.163   1.945
 7380WAT      O23201   1.661   5.392   3.289
 7380WAT     H123202   1.741   5.424   3.330
 7380WAT     H223203   1.609   5.356   3.361
 7381WAT      O23204   2.071   5.391   1.552
 7381WAT     H123205   2.150   5.420   1.507
 7381WAT     H223206   2.019   5.348   1.484
 7382WAT      O23207   2.544   5.003   3.283
 7382WAT     H123208   2.484   5.005   3.209
 7382WAT     H223209   2.514   4.930   3.337
 7383WAT      O23210   2.687   5.376   3.145
 7383WAT     H123211   2.782   5.367   3.140
 7383WAT     H223212   2.673   5.442   3.212
 7384WAT      O23213   2.976   5.314   1.694
 7384WAT     H123214   2.948   5.272   1.613
 7384WAT     H223215   2.957   5.406   1.682
 7385WAT      O23216   1.433   4.641   3.183
 7385WAT     H123217   1.483   4.583   3.240
 7385WAT     H223218   1.359   4.669   3.237
 7386WAT      O23219   2.123   4.913   1.538
 7386WAT     H123220   2.112   4.851   1.611
 7386WAT     H223221   2.106   4.861   1.460
 7387WAT      O23222   2.138   4.781   3.136
 7387WAT     H123223   2.061   4.838   3.128
 7387WAT     H223224   2.156   4.752   3.047
 7388WAT      O23225   2.447   4.819   1.599
 7388WAT     H123226   2.392   4.864   1.663
 7388WAT     H223227   2.509   4.769   1.651
 7389WAT      O23228   2.852   4.955   3.192
 7389WAT     H123229   2.926   4.988   3.142
 7389WAT     H223230   2.776   4.971   3.137
 7390WAT      O23231   1.636   4.455   3.273
 7390WAT     H123232   1.640   4.425   3.363
 7390WAT     H223233   1.721   4.495   3.257
 7391WAT      O23234   2.014   4.715   1.789
 7391WAT     H123235   2.056   4.698   1.873
 7391WAT     H223236   2.026   4.634   1.739
 7392WAT      O23237   1.830   4.313   3.069
 7392WAT     H123238   1.777   4.264   3.007
 7392WAT     H223239   1.897   4.356   3.016
 7393WAT      O23240   2.265   4.617   1.513
 7393WAT     H123241   2.317   4.546   1.477
 7393WAT     H223242   2.330   4.681   1.543
 7394WAT      O23243   2.720   4.760   3.046
 7394WAT     H123244   2.761   4.775   3.131
 7394WAT     H223245   2.626   4.772   3.062
 7395WAT      O23246   1.879   4.010   3.077
 7395WAT     H123247   1.869   3.948   3.005
 7395WAT     H223248   1.821   4.082   3.055
 7396WAT      O23249   2.155   3.865   2.781
 7396WAT     H123250   2.110   3.868   2.696
 7396WAT     H223251   2.092   3.826   2.840
 7397WAT      O23252   2.196   4.755   2.843
 7397WAT     H123253   2.238   4.839   2.825
 7397WAT     H223254   2.104   4.769   2.820
 7398WAT      O23255   2.429   4.528   2.981
 7398WAT     H123256   2.441   4.468   3.055
 7398WAT     H223257   2.515   4.532   2.939
 7399WAT      O23258   2.663   4.583   2.839
 7399WAT     H123259   2.611   4.636   2.778
 7399WAT     H223260   2.698   4.647   2.902
 7400WAT      O23261   1.903   4.322   1.483
 7400WAT     H123262   1.883   4.236   1.519
 7400WAT     H223263   1.886   4.314   1.389
 7401WAT      O23264   1.981   5.385   2.954
 7401WAT     H123265   1.927   5.458   2.922
 7401WAT     H223266   2.006   5.338   2.875
 7402WAT      O23267   2.106   4.182   3.107
 7402WAT     H123268   2.165   4.151   3.176
 7402WAT     H223269   2.024   4.135   3.122
 7403WAT      O23270   2.651   3.803   1.736
 7403WAT     H123271   2.679   3.719   1.772
 7403WAT     H223272   2.574   3.827   1.787
 7404WAT      O23273   1.783   4.032   1.482
 7404WAT     H123274   1.813   4.033   1.391
 7404WAT     H223275   1.857   3.997   1.532
 7405WAT      O23276   2.267   5.509   2.980
 7405WAT     H123277   2.259   5.599   3.011
 7405WAT     H223278   2.176   5.477   2.977
 7406WAT      O23279   2.105   3.927   1.580
 7406WAT     H123280   2.070   3.859   1.523
 7406WAT     H223281   2.125   3.881   1.662
 7407WAT      O23282   2.321   5.426   1.742
 7407WAT     H123283   2.411   5.459   1.745
 7407WAT     H223284   2.325   5.353   1.680
 7408WAT      O23285   1.685   4.963   1.565
 7408WAT     H123286   1.729   5.017   1.631
 7408WAT     H223287   1.734   4.880   1.566
 7409WAT      O23288   1.407   5.242   2.310
 7409WAT     H123289   1.440   5.155   2.287
 7409WAT     H223290   1.450   5.262   2.393
 7410WAT      O23291   1.866   5.075   2.076
 7410WAT     H123292   1.836   5.062   2.166
 7410WAT     H223293   1.856   4.989   2.036
 7411WAT      O23294   1.456   5.328   2.584
 7411WAT     H123295   1.412   5.346   2.667
 7411WAT     H223296   1.512   5.404   2.570
 7412WAT      O23297   3.019   5.279   3.013
 7412WAT     H123298   2.959   5.284   2.939
 7412WAT     H223299   3.032   5.185   3.026
 7413WAT      O23300   3.143   5.053   1.547
 7413WAT     H123301   3.060   5.059   1.594
 7413WAT     H223302   3.161   5.142   1.516
 7414WAT      O23303   3.089   4.727   1.797
 7414WAT     H123304   3.165   4.784   1.808
 7414WAT     H223305   3.090   4.670   1.874
 7415WAT      O23306   1.439   4.580   2.220
 7415WAT     H123307   1.373   4.553   2.156
 7415WAT     H223308   1.523   4.569   2.175
 7416WAT      O23309   3.189   4.813   2.281
 7416WAT     H123310   3.227   4.734   2.241
 7416WAT     H223311   3.254   4.882   2.264
 7417WAT      O23312   2.888   4.951   2.823
 7417WAT     H123313   2.806   4.994   2.849
 7417WAT     H223314   2.929   5.012   2.761
 7418WAT      O23315   3.094   4.757   1.513
 7418WAT     H123316   3.122   4.847   1.500
 7418WAT     H223317   3.075   4.750   1.606
 7419WAT      O23318   2.734   4.059   1.642
 7419WAT     H123319   2.776   4.040   1.558
 7419WAT     H223320   2.703   3.974   1.673
 7420WAT      O23321   3.084   4.550   2.012
 7420WAT     H123322   3.046   4.474   1.969
 7420WAT     H223323   3.011   4.588   2.061
 7421WAT      O23324   1.543   4.618   2.674
 7421WAT     H123325   1.579   4.609   2.762
 7421WAT     H223326   1.486   4.542   2.664
 7422WAT      O23327   3.023   4.465   2.975
 7422WAT     H123328   3.000   4.442   2.885
 7422WAT     H223329   3.049   4.557   2.971
 7423WAT      O23330   1.498   4.309   3.065
 7423WAT     H123331   1.408   4.306   3.099
 7423WAT     H223332   1.552   4.329   3.141
 7424WAT      O23333   1.360   4.301   1.814
 7424WAT     H123334   1.270   4.327   1.797
 7424WAT     H223335   1.409   4.328   1.736
 7425WAT      O23336   3.011   4.373   2.342
 7425WAT     H123337   3.064   4.323   2.279
 7425WAT     H223338   3.070   4.386   2.417
 7426WAT      O23339   3.029   4.381   2.694
 7426WAT     H123340   2.934   4.378   2.706
 7426WAT     H223341   3.047   4.472   2.671
 7427WAT      O23342   1.615   4.206   1.605
 7427WAT     H123343   1.685   4.164   1.557
 7427WAT     H223344   1.543   4.213   1.542
 7428WAT      O23345   1.579   3.812   1.509
 7428WAT     H123346   1.652   3.866   1.541
 7428WAT     H223347   1.607   3.784   1.422
 7429WAT      O23348   2.960   4.299   1.936
 7429WAT     H123349   3.010   4.275   2.015
 7429WAT     H223350   2.940   4.215   1.894
 7430WAT      O23351   1.548   3.737   2.500
 7430WAT     H123352   1.613   3.682   2.456
 7430WAT     H223353   1.590   3.762   2.582
 7431WAT      O23354   3.103   4.162   2.189
 7431WAT     H123355   3.092   4.147   2.283
 7431WAT     H223356   3.179   4.109   2.165
 7432WAT      O23357   2.938   3.756   2.835
 7432WAT     H123358   3.001   3.817   2.872
 7432WAT     H223359   2.953   3.760   2.741
 7433WAT      O23360   3.192   3.945   1.514
 7433WAT     H123361   3.285   3.932   1.493
 7433WAT     H223362   3.190   3.953   1.609
 7434WAT      O23363   3.199   4.022   1.776
 7434WAT     H123364   3.120   4.016   1.829
 7434WAT     H223365   3.220   4.116   1.775
 7435WAT      O23366   2.894   5.426   2.175
 7435WAT     H123367   2.953   5.394   2.108
 7435WAT     H223368   2.919   5.379   2.255
 7436WAT      O23369   1.524   3.752   2.774
 7436WAT     H123370   1.489   3.798   2.850
 7436WAT     H223371   1.490   3.663   2.782
 7437WAT      O23372   1.684   5.069   3.190
 7437WAT     H123373   1.680   5.032   3.279
 7437WAT     H223374   1.697   5.163   3.204
 7438WAT      O23375   2.054   5.225   2.750
 7438WAT     H123376   2.030   5.252   2.662
 7438WAT     H223377   2.148   5.242   2.756
 7439WAT      O23378   2.275   3.871   3.126
 7439WAT     H123379   2.269   3.931   3.201
 7439WAT     H223380   2.369   3.861   3.112
 7440WAT      O23381   3.180   5.427   2.831
 7440WAT     H123382   3.131   5.467   2.759
 7440WAT     H223383   3.119   5.364   2.870
 7441WAT      O23384   1.591   3.705   3.101
 7441WAT     H123385   1.646   3.687   3.025
 7441WAT     H223386   1.597   3.626   3.155
 7442WAT      O23387   1.668   5.364   2.902
 7442WAT     H123388   1.609   5.351   2.976
 7442WAT     H223389   1.667   5.280   2.856
 7443WAT      O23390   2.613   3.693   2.723
 7443WAT     H123391   2.525   3.727   2.702
 7443WAT     H223392   2.602   3.646   2.805
 7444WAT      O23393   2.703   3.914   2.861
 7444WAT     H123394   2.670   3.833   2.823
 7444WAT     H223395   2.798   3.910   2.849
 7445WAT      O23396   2.949   5.491   2.558
 7445WAT     H123397   2.903   5.566   2.521
 7445WAT     H223398   2.886   5.419   2.553
 7446WAT      O23399   1.631   5.101   2.797
 7446WAT     H123400   1.559   5.039   2.791
 7446WAT     H223401   1.637   5.140   2.710
 7447WAT      O23402   1.992   5.322   2.476
 7447WAT     H123403   2.043   5.261   2.423
 7447WAT     H223404   2.057   5.372   2.525
 7448WAT      O23405   2.266   5.411   2.559
 7448WAT     H123406   2.294   5.386   2.471
 7448WAT     H223407   2.317   5.356   2.618
 7449WAT      O23408   2.387   3.785   2.617
 7449WAT     H123409   2.309   3.833   2.645
 7449WAT     H223410   2.358   3.695   2.606
 7450WAT      O23411   2.843   3.855   2.421
 7450WAT     H123412   2.887   3.850   2.336
 7450WAT     H223413   2.816   3.947   2.428
 7451WAT      O23414   3.029   3.818   2.222
 7451WAT     H123415   3.023   3.724   2.207
 7451WAT     H223416   3.107   3.829   2.277
 7452WAT      O23417   1.460   5.432   2.118
 7452WAT     H123418   1.443   5.369   2.188
 7452WAT     H223419   1.373   5.453   2.083
 7453WAT      O23420   1.522   3.816   1.869
 7453WAT     H123421   1.598   3.827   1.811
 7453WAT     H223422   1.476   3.899   1.864
 7454WAT      O23423   2.176   4.027   2.168
 7454WAT     H123424   2.095   3.990   2.134
 7454WAT     H223425   2.226   3.951   2.198
 7455WAT      O23426   2.626   3.693   2.292
 7455WAT     H123427   2.686   3.751   2.339
 7455WAT     H223428   2.552   3.750   2.269
 7456WAT      O23429   2.941   3.734   1.819
 7456WAT     H123430   2.960   3.823   1.846
 7456WAT     H223431   2.862   3.710   1.868
 7457WAT      O23432   1.620   5.302   1.863
 7457WAT     H123433   1.568   5.340   1.793
 7457WAT     H223434   1.613   5.364   1.935
 7458WAT      O23435   1.759   3.868   1.723
 7458WAT     H123436   1.812   3.789   1.710
 7458WAT     H223437   1.822   3.936   1.746
 7459WAT      O23438   1.978   3.842   2.028
 7459WAT     H123439   1.915   3.772   2.045
 7459WAT     H223440   1.924   3.918   2.007
 7460WAT      O23441   2.272   5.503   3.295
 7460WAT     H123442   2.365   5.480   3.300
 7460WAT     H223443   2.271   5.586   3.247
 7461WAT      O23444   3.096   5.458   1.995
 7461WAT     H123445   3.113   5.389   1.931
 7461WAT     H223446   3.026   5.510   1.956
 7462WAT      O23447   1.991   3.770   3.272
 7462WAT     H123448   1.963   3.820   3.195
 7462WAT     H223449   2.029   3.690   3.235
 7463WAT      O23450   1.880   5.497   1.750
 7463WAT     H123451   1.953   5.468   1.696
 7463WAT     H223452   1.906   5.473   1.839
 7464WAT      O23453   1.796   5.108   1.751
 7464WAT     H123454   1.733   5.155   1.806
 7464WAT     H223455   1.808   5.024   1.794
 7465WAT      O23456   2.929   5.426   3.278
 7465WAT     H123457   3.008   5.377   3.257
 7465WAT     H223458   2.958   5.494   3.338
 7466WAT      O23459   2.542   4.513   0.366
 7466WAT     H123460   2.534   4.422   0.339
 7466WAT     H223461   2.500   4.563   0.295
 7467WAT      O23462   2.355   4.691   0.554
 7467WAT     H123463   2.277   4.643   0.583
 7467WAT     H223464   2.420   4.623   0.537
 7468WAT      O23465   1.757   4.722   0.642
 7468WAT     H123466   1.673   4.697   0.682
 7468WAT     H223467   1.817   4.729   0.715
 7469WAT      O23468   2.757   5.132   0.432
 7469WAT     H123469   2.711   5.055   0.465
 7469WAT     H223470   2.838   5.134   0.482
 7470WAT      O23471   1.755   5.126   0.661
 7470WAT     H123472   1.785   5.037   0.643
 7470WAT     H223473   1.829   5.181   0.639
 7471WAT      O23474   1.394   4.478   0.609
 7471WAT     H123475   1.451   4.402   0.609
 7471WAT     H223476   1.394   4.508   0.518
 7472WAT      O23477   2.380   5.360   0.394
 7472WAT     H123478   2.318   5.406   0.337
 7472WAT     H223479   2.465   5.376   0.354
 7473WAT      O23480   2.299   4.959   0.555
 7473WAT     H123481   2.292   4.865   0.539
 7473WAT     H223482   2.375   4.968   0.612
 7474WAT      O23483   1.518   4.019   0.787
 7474WAT     H123484   1.500   3.929   0.815
 7474WAT     H223485   1.478   4.074   0.855
 7475WAT      O23486   2.402   4.239   0.577
 7475WAT     H123487   2.440   4.152   0.566
 7475WAT     H223488   2.392   4.273   0.488
 7476WAT      O23489   2.780   3.989   0.271
 7476WAT     H123490   2.862   3.940   0.275
 7476WAT     H223491   2.784   4.048   0.346
 7477WAT      O23492   1.580   4.269   0.648
 7477WAT     H123493   1.648   4.295   0.710
 7477WAT     H223494   1.548   4.185   0.681
 7478WAT      O23495   1.999   4.373   0.557
 7478WAT     H123496   2.050   4.423   0.621
 7478WAT     H223497   2.052   4.296   0.539
 7479WAT      O23498   3.209   4.190   0.927
 7479WAT     H123499   3.139   4.229   0.875
 7479WAT     H223500   3.236   4.260   0.987
 7480WAT      O23501   1.828   3.837   0.983
 7480WAT     H123502   1.828   3.889   0.903
 7480WAT     H223503   1.745   3.790   0.981
 7481WAT      O23504   1.953   4.801   0.801
 7481WAT     H123505   1.919   4.864   0.865
 7481WAT     H223506   1.970   4.854   0.723
 7482WAT      O23507   2.804   4.183   0.548
 7482WAT     H123508   2.733   4.212   0.606
 7482WAT     H223509   2.840   4.264   0.512
 7483WAT      O23510   1.796   4.009   0.784
 7483WAT     H123511   1.830   4.093   0.755
 7483WAT     H223512   1.702   4.023   0.796
 7484WAT      O23513   1.874   4.998   0.983
 7484WAT     H123514   1.935   5.066   0.954
 7484WAT     H223515   1.788   5.039   0.974
 7485WAT      O23516   2.966   5.145   0.774
 7485WAT     H123517   2.897   5.212   0.773
 7485WAT     H223518   3.019   5.164   0.698
 7486WAT      O23519   3.111   4.127   0.587
 7486WAT     H123520   3.016   4.131   0.600
 7486WAT     H223521   3.143   4.209   0.625
 7487WAT      O23522   2.164   3.757   0.417
 7487WAT     H123523   2.195   3.702   0.345
 7487WAT     H223524   2.071   3.771   0.398
 7488WAT      O23525   2.719   5.329   0.646
 7488WAT     H123526   2.720   5.289   0.559
 7488WAT     H223527   2.664   5.406   0.635
 7489WAT      O23528   2.659   4.819   0.778
 7489WAT     H123529   2.701   4.798   0.695
 7489WAT     H223530   2.731   4.845   0.836
 7490WAT      O23531   3.054   4.659   0.788
 7490WAT     H123532   2.971   4.666   0.740
 7490WAT     H223533   3.113   4.718   0.741
 7491WAT      O23534   2.750   4.338   0.882
 7491WAT     H123535   2.709   4.420   0.908
 7491WAT     H223536   2.677   4.279   0.863
 7492WAT      O23537   1.963   4.616   0.368
 7492WAT     H123538   1.923   4.545   0.319
 7492WAT     H223539   1.972   4.582   0.457
 7493WAT      O23540   2.010   4.985   0.585
 7493WAT     H123541   1.980   4.925   0.517
 7493WAT     H223542   2.105   4.989   0.574
 7494WAT      O23543   1.835   4.294   0.746
 7494WAT     H123544   1.890   4.305   0.669
 7494WAT     H223545   1.886   4.331   0.818
 7495WAT      O23546   2.819   5.342   0.951
 7495WAT     H123547   2.771   5.423   0.932
 7495WAT     H223548   2.751   5.277   0.966
 7496WAT      O23549   1.919   4.959   1.250
 7496WAT     H123550   1.830   4.981   1.275
 7496WAT     H223551   1.922   4.971   1.155
 7497WAT      O23552   1.802   4.646   1.107
 7497WAT     H123553   1.788   4.733   1.144
 7497WAT     H223554   1.714   4.612   1.093
 7498WAT      O23555   2.434   5.138   0.238
 7498WAT     H123556   2.478   5.212   0.197
 7498WAT     H223557   2.428   5.162   0.330
 7499WAT      O23558   1.982   5.240   1.328
 7499WAT     H123559   1.979   5.281   1.242
 7499WAT     H223560   1.965   5.147   1.312
 7500WAT      O23561   3.177   5.319   1.458
 7500WAT     H123562   3.225   5.366   1.526
 7500WAT     H223563   3.239   5.312   1.385
 7501WAT      O23564   1.397   4.823   0.699
 7501WAT     H123565   1.405   4.837   0.605
 7501WAT     H223566   1.459   4.752   0.718
 7502WAT      O23567   1.522   4.993   0.340
 7502WAT     H123568   1.481   5.007   0.255
 7502WAT     H223569   1.611   4.965   0.320
 7503WAT      O23570   3.117   5.038   1.174
 7503WAT     H123571   3.130   5.014   1.082
 7503WAT     H223572   3.122   4.955   1.221
 7504WAT      O23573   2.503   5.408   1.031
 7504WAT     H123574   2.555   5.399   1.111
 7504WAT     H223575   2.419   5.443   1.060
 7505WAT      O23576   2.628   5.350   0.237
 7505WAT     H123577   2.673   5.272   0.269
 7505WAT     H223578   2.662   5.421   0.292
 7506WAT      O23579   3.103   4.243   1.270
 7506WAT     H123580   3.041   4.294   1.218
 7506WAT     H223581   3.071   4.153   1.265
 7507WAT      O23582   1.403   4.927   0.953
 7507WAT     H123583   1.419   4.880   0.871
 7507WAT     H223584   1.449   4.876   1.020
 7508WAT      O23585   1.880   3.840   0.457
 7508WAT     H123586   1.836   3.918   0.424
 7508WAT     H223587   1.936   3.873   0.527
 7509WAT      O23588   2.309   4.127   1.017
 7509WAT     H123589   2.263   4.148   1.098
 7509WAT     H223590   2.268   4.046   0.987
 7510WAT      O23591   2.809   4.249   1.130
 7510WAT     H123592   2.724   4.219   1.162
 7510WAT     H223593   2.793   4.273   1.039
 7511WAT      O23594   2.518   4.399   1.340
 7511WAT     H123595   2.551   4.316   1.306
 7511WAT     H223596   2.597   4.451   1.355
 7512WAT      O23597   2.084   3.895   0.643
 7512WAT     H123598   2.113   3.985   0.634
 7512WAT     H223599   2.139   3.846   0.581
 7513WAT      O23600   1.859   4.353   0.229
 7513WAT     H123601   1.837   4.331   0.320
 7513WAT     H223602   1.781   4.396   0.195
 7514WAT      O23603   2.103   4.442   1.296
 7514WAT     H123604   2.094   4.348   1.281
 7514WAT     H223605   2.187   4.465   1.257
 7515WAT      O23606   2.443   4.217   0.292
 7515WAT     H123607   2.482   4.249   0.211
 7515WAT     H223608   2.479   4.129   0.304
 7516WAT      O23609   1.616   4.084   1.111
 7516WAT     H123610   1.577   4.168   1.132
 7516WAT     H223611   1.547   4.020   1.130
 7517WAT      O23612   2.274   4.092   1.418
 7517WAT     H123613   2.205   4.073   1.482
 7517WAT     H223614   2.348   4.120   1.472
 7518WAT      O23615   1.346   3.876   0.515
 7518WAT     H123616   1.318   3.933   0.586
 7518WAT     H223617   1.421   3.828   0.551
 7519WAT      O23618   2.501   4.476   0.702
 7519WAT     H123619   2.428   4.527   0.737
 7519WAT     H223620   2.462   4.394   0.672
 7520WAT      O23621   2.145   4.143   0.542
 7520WAT     H123622   2.145   4.099   0.457
 7520WAT     H223623   2.235   4.176   0.553
 7521WAT      O23624   1.730   4.132   0.438
 7521WAT     H123625   1.696   4.179   0.514
 7521WAT     H223626   1.654   4.086   0.402
 7522WAT      O23627   2.548   4.021   0.643
 7522WAT     H123628   2.549   4.066   0.728
 7522WAT     H223629   2.523   3.931   0.664
 7523WAT      O23630   2.890   3.763   1.227
 7523WAT     H123631   2.923   3.689   1.280
 7523WAT     H223632   2.894   3.731   1.137
 7524WAT      O23633   1.560   4.865   1.169
 7524WAT     H123634   1.522   4.801   1.229
 7524WAT     H223635   1.591   4.935   1.226
 7525WAT      O23636   2.175   4.549   0.717
 7525WAT     H123637   2.212   4.502   0.792
 7525WAT     H223638   2.156   4.637   0.751
 7526WAT      O23639   1.462   4.024   0.330
 7526WAT     H123640   1.433   3.987   0.414
 7526WAT     H223641   1.455   3.951   0.269
 7527WAT      O23642   1.954   4.454   0.949
 7527WAT     H123643   1.924   4.542   0.971
 7527WAT     H223644   2.050   4.460   0.953
 7528WAT      O23645   2.883   4.774   0.588
 7528WAT     H123646   2.955   4.823   0.549
 7528WAT     H223647   2.863   4.706   0.523
 7529WAT      O23648   2.421   4.781   1.177
 7529WAT     H123649   2.414   4.689   1.151
 7529WAT     H223650   2.358   4.791   1.248
 7530WAT      O23651   1.811   4.841   0.372
 7530WAT     H123652   1.863   4.761   0.367
 7530WAT     H223653   1.766   4.835   0.457
 7531WAT      O23654   1.560   4.538   1.064
 7531WAT     H123655   1.524   4.604   1.122
 7531WAT     H223656   1.530   4.454   1.101
 7532WAT      O23657   1.880   4.583   1.352
 7532WAT     H123658   1.850   4.598   1.262
 7532WAT     H223659   1.957   4.528   1.343
 7533WAT      O23660   2.414   5.063   1.152
 7533WAT     H123661   2.416   4.970   1.130
 7533WAT     H223662   2.343   5.072   1.215
 7534WAT      O23663   3.035   4.727   1.086
 7534WAT     H123664   2.963   4.787   1.067
 7534WAT     H223665   3.088   4.726   1.006
 7535WAT      O23666   2.588   4.900   0.436
 7535WAT     H123667   2.624   4.840   0.370
 7535WAT     H223668   2.500   4.867   0.453
 7536WAT      O23669   2.197   4.976   0.177
 7536WAT     H123670   2.266   5.030   0.215
 7536WAT     H223671   2.118   5.030   0.180
 7537WAT      O23672   2.358   5.227   0.861
 7537WAT     H123673   2.422   5.248   0.929
 7537WAT     H223674   2.394   5.151   0.816
 7538WAT      O23675   2.485   5.028   0.733
 7538WAT     H123676   2.549   4.958   0.744
 7538WAT     H223677   2.537   5.106   0.715
 7539WAT      O23678   2.662   5.108   1.053
 7539WAT     H123679   2.696   5.166   1.121
 7539WAT     H223680   2.570   5.095   1.076
 7540WAT      O23681   1.417   3.887   1.131
 7540WAT     H123682   1.346   3.907   1.192
 7540WAT     H223683   1.459   3.809   1.169
 7541WAT      O23684   1.446   5.285   1.230
 7541WAT     H123685   1.457   5.191   1.216
 7541WAT     H223686   1.381   5.312   1.165
 7542WAT      O23687   2.245   5.113   1.370
 7542WAT     H123688   2.213   5.041   1.424
 7542WAT     H223689   2.178   5.180   1.377
 7543WAT      O23690   2.567   4.136   0.906
 7543WAT     H123691   2.603   4.054   0.939
 7543WAT     H223692   2.481   4.142   0.948
 7544WAT      O23693   2.263   4.401   0.929
 7544WAT     H123694   2.313   4.449   0.995
 7544WAT     H223695   2.277   4.309   0.949
 7545WAT      O23696   2.503   3.932   0.273
 7545WAT     H123697   2.491   3.934   0.178
 7545WAT     H223698   2.598   3.936   0.285
 7546WAT      O23699   2.983   4.023   1.013
 7546WAT     H123700   2.933   4.097   1.047
 7546WAT     H223701   3.065   4.062   0.981
 7547WAT      O23702   2.813   4.547   0.358
 7547WAT     H123703   2.718   4.549   0.375
 7547WAT     H223704   2.844   4.469   0.402
 7548WAT      O23705   3.013   5.264   0.525
 7548WAT     H123706   3.025   5.347   0.572
 7548WAT     H223707   3.100   5.243   0.490
 7549WAT      O23708   1.760   5.474   0.492
 7549WAT     H123709   1.834   5.419   0.519
 7549WAT     H223710   1.798   5.560   0.478
 7550WAT      O23711   1.661   5.392   1.411
 7550WAT     H123712   1.741   5.424   1.453
 7550WAT     H223713   1.609   5.356   1.483
 7551WAT      O23714   2.544   5.003   1.406
 7551WAT     H123715   2.484   5.005   1.332
 7551WAT     H223716   2.514   4.930   1.460
 7552WAT      O23717   2.687   5.376   1.267
 7552WAT     H123718   2.782   5.367   1.262
 7552WAT     H223719   2.673   5.442   1.334
 7553WAT      O23720   1.433   4.641   1.306
 7553WAT     H123721   1.483   4.583   1.363
 7553WAT     H223722   1.359   4.669   1.359
 7554WAT      O23723   2.138   4.781   1.259
 7554WAT     H123724   2.061   4.838   1.250
 7554WAT     H223725   2.156   4.752   1.170
 7555WAT      O23726   2.852   4.955   1.315
 7555WAT     H123727   2.926   4.988   1.264
 7555WAT     H223728   2.776   4.971   1.259
 7556WAT      O23729   1.636   4.455   1.395
 7556WAT     H123730   1.640   4.425   1.486
 7556WAT     H223731   1.721   4.495   1.379
 7557WAT      O23732   1.830   4.313   1.192
 7557WAT     H123733   1.777   4.264   1.129
 7557WAT     H223734   1.897   4.356   1.138
 7558WAT      O23735   2.720   4.760   1.168
 7558WAT     H123736   2.761   4.775   1.253
 7558WAT     H223737   2.626   4.772   1.185
 7559WAT      O23738   2.767   4.494   1.369
 7559WAT     H123739   2.825   4.418   1.360
 7559WAT     H223740   2.784   4.547   1.291
 7560WAT      O23741   1.879   4.010   1.200
 7560WAT     H123742   1.869   3.948   1.127
 7560WAT     H223743   1.821   4.082   1.177
 7561WAT      O23744   2.155   3.865   0.903
 7561WAT     H123745   2.110   3.868   0.819
 7561WAT     H223746   2.092   3.826   0.963
 7562WAT      O23747   2.196   4.755   0.965
 7562WAT     H123748   2.238   4.839   0.948
 7562WAT     H223749   2.104   4.769   0.942
 7563WAT      O23750   2.429   4.528   1.104
 7563WAT     H123751   2.441   4.468   1.178
 7563WAT     H223752   2.515   4.532   1.062
 7564WAT      O23753   2.663   4.583   0.961
 7564WAT     H123754   2.611   4.636   0.901
 7564WAT     H223755   2.698   4.647   1.024
 7565WAT      O23756   1.981   5.385   1.077
 7565WAT     H123757   1.927   5.458   1.045
 7565WAT     H223758   2.006   5.338   0.998
 7566WAT      O23759   2.106   4.182   1.229
 7566WAT     H123760   2.165   4.151   1.298
 7566WAT     H223761   2.024   4.135   1.245
 7567WAT      O23762   2.588   4.144   1.253
 7567WAT     H123763   2.519   4.078   1.246
 7567WAT     H223764   2.660   4.099   1.297
 7568WAT      O23765   2.267   5.509   1.103
 7568WAT     H123766   2.259   5.599   1.133
 7568WAT     H223767   2.176   5.477   1.100
 7569WAT      O23768   1.407   5.242   0.433
 7569WAT     H123769   1.440   5.155   0.410
 7569WAT     H223770   1.450   5.262   0.516
 7570WAT      O23771   1.456   5.328   0.707
 7570WAT     H123772   1.412   5.346   0.790
 7570WAT     H223773   1.512   5.404   0.693
 7571WAT      O23774   3.019   5.279   1.136
 7571WAT     H123775   2.959   5.284   1.061
 7571WAT     H223776   3.032   5.185   1.149
 7572WAT      O23777   1.439   4.580   0.343
 7572WAT     H123778   1.373   4.553   0.278
 7572WAT     H223779   1.523   4.569   0.298
 7573WAT      O23780   3.189   4.813   0.404
 7573WAT     H123781   3.227   4.734   0.363
 7573WAT     H223782   3.254   4.882   0.386
 7574WAT      O23783   2.888   4.951   0.945
 7574WAT     H123784   2.806   4.994   0.972
 7574WAT     H223785   2.929   5.012   0.884
 7575WAT      O23786   1.543   4.618   0.797
 7575WAT     H123787   1.579   4.609   0.885
 7575WAT     H223788   1.486   4.542   0.787
 7576WAT      O23789   3.023   4.465   1.098
 7576WAT     H123790   3.000   4.442   1.008
 7576WAT     H223791   3.049   4.557   1.093
 7577WAT      O23792   1.498   4.309   1.187
 7577WAT     H123793   1.408   4.306   1.221
 7577WAT     H223794   1.552   4.329   1.264
 7578WAT      O23795   2.867   3.988   1.376
 7578WAT     H123796   2.954   3.988   1.414
 7578WAT     H223797   2.868   3.914   1.315
 7579WAT      O23798   3.011   4.373   0.465
 7579WAT     H123799   3.064   4.323   0.402
 7579WAT     H223800   3.070   4.386   0.539
 7580WAT      O23801   3.029   4.381   0.817
 7580WAT     H123802   2.934   4.378   0.828
 7580WAT     H223803   3.047   4.472   0.793
 7581WAT      O23804   1.548   3.737   0.622
 7581WAT     H123805   1.613   3.682   0.578
 7581WAT     H223806   1.590   3.762   0.704
 7582WAT      O23807   3.103   4.162   0.312
 7582WAT     H123808   3.092   4.147   0.406
 7582WAT     H223809   3.179   4.109   0.288
 7583WAT      O23810   2.938   3.756   0.958
 7583WAT     H123811   3.001   3.817   0.994
 7583WAT     H223812   2.953   3.760   0.863
 7584WAT      O23813   2.894   5.426   0.298
 7584WAT     H123814   2.953   5.394   0.230
 7584WAT     H223815   2.919   5.379   0.377
 7585WAT      O23816   1.524   3.752   0.896
 7585WAT     H123817   1.489   3.798   0.973
 7585WAT     H223818   1.490   3.663   0.905
 7586WAT      O23819   1.684   5.069   1.313
 7586WAT     H123820   1.680   5.032   1.401
 7586WAT     H223821   1.697   5.163   1.327
 7587WAT      O23822   2.054   5.225   0.873
 7587WAT     H123823   2.030   5.252   0.784
 7587WAT     H223824   2.148   5.242   0.879
 7588WAT      O23825   2.275   3.871   1.249
 7588WAT     H123826   2.269   3.931   1.324
 7588WAT     H223827   2.369   3.861   1.234
 7589WAT      O23828   2.539   3.837   1.213
 7589WAT     H123829   2.600   3.869   1.146
 7589WAT     H223830   2.593   3.789   1.274
 7590WAT      O23831   3.180   5.427   0.953
 7590WAT     H123832   3.131   5.467   0.881
 7590WAT     H223833   3.119   5.364   0.993
 7591WAT      O23834   1.591   3.705   1.224
 7591WAT     H123835   1.646   3.687   1.148
 7591WAT     H223836   1.597   3.626   1.277
 7592WAT      O23837   1.668   5.364   1.025
 7592WAT     H123838   1.609   5.351   1.099
 7592WAT     H223839   1.667   5.280   0.978
 7593WAT      O23840   2.613   3.693   0.845
 7593WAT     H123841   2.525   3.727   0.825
 7593WAT     H223842   2.602   3.646   0.928
 7594WAT      O23843   2.703   3.914   0.984
 7594WAT     H123844   2.670   3.833   0.946
 7594WAT     H223845   2.798   3.910   0.971
 7595WAT      O23846   2.949   5.491   0.681
 7595WAT     H123847   2.903   5.566   0.644
 7595WAT     H223848   2.886   5.419   0.675
 7596WAT      O23849   1.631   5.101   0.920
 7596WAT     H123850   1.559   5.039   0.913
 7596WAT     H223851   1.637   5.140   0.833
 7597WAT      O23852   1.992   5.322   0.598
 7597WAT     H123853   2.043   5.261   0.546
 7597WAT     H223854   2.057   5.372   0.648
 7598WAT      O23855   2.266   5.411   0.681
 7598WAT     H123856   2.294   5.386   0.594
 7598WAT     H223857   2.317   5.356   0.740
 7599WAT      O23858   2.387   3.785   0.739
 7599WAT     H123859   2.309   3.833   0.767
 7599WAT     H223860   2.358   3.695   0.728
 7600WAT      O23861   2.843   3.855   0.544
 7600WAT     H123862   2.887   3.850   0.459
 7600WAT     H223863   2.816   3.947   0.551
 7601WAT      O23864   3.029   3.818   0.345
 7601WAT     H123865   3.023   3.724   0.330
 7601WAT     H223866   3.107   3.829   0.399
 7602WAT      O23867   1.460   5.432   0.241
 7602WAT     H123868   1.443   5.369   0.311
 7602WAT     H223869   1.373   5.453   0.206
 7603WAT      O23870   2.176   4.027   0.290
 7603WAT     H123871   2.095   3.990   0.256
 7603WAT     H223872   2.226   3.951   0.321
 7604WAT      O23873   2.626   3.693   0.414
 7604WAT     H123874   2.686   3.751   0.462
 7604WAT     H223875   2.552   3.750   0.392
 7605WAT      O23876   2.272   5.503   1.418
 7605WAT     H123877   2.365   5.480   1.422
 7605WAT     H223878   2.271   5.586   1.370
 7606WAT      O23879   1.991   3.770   1.394
 7606WAT     H123880   1.963   3.820   1.318
 7606WAT     H223881   2.029   3.690   1.358
 7607WAT      O23882   2.651   3.711   1.452
 7607WAT     H123883   2.640   3.743   1.542
 7607WAT     H223884   2.733   3.751   1.422
 7608WAT      O23885   2.929   5.426   1.400
 7608WAT     H123886   3.008   5.377   1.380
 7608WAT     H223887   2.958   5.494   1.461
 7609WAT      O23888   2.542   2.636   5.998
 7609WAT     H123889   2.534   2.544   5.971
 7609WAT     H223890   2.500   2.685   5.928
 7610WAT      O23891   2.355   2.814   6.186
 7610WAT     H123892   2.277   2.766   6.215
 7610WAT     H223893   2.420   2.746   6.169
 7611WAT      O23894   1.757   2.845   6.274
 7611WAT     H123895   1.673   2.819   6.314
 7611WAT     H223896   1.817   2.852   6.348
 7612WAT      O23897   2.757   3.254   6.064
 7612WAT     H123898   2.711   3.177   6.097
 7612WAT     H223899   2.838   3.257   6.115
 7613WAT      O23900   1.755   3.248   6.294
 7613WAT     H123901   1.785   3.159   6.276
 7613WAT     H223902   1.829   3.304   6.271
 7614WAT      O23903   1.597   2.341   5.652
 7614WAT     H123904   1.509   2.375   5.642
 7614WAT     H223905   1.626   2.321   5.563
 7615WAT      O23906   1.394   2.601   6.241
 7615WAT     H123907   1.451   2.524   6.241
 7615WAT     H223908   1.394   2.631   6.150
 7616WAT      O23909   2.380   3.483   6.026
 7616WAT     H123910   2.318   3.528   5.969
 7616WAT     H223911   2.465   3.498   5.986
 7617WAT      O23912   2.299   3.081   6.187
 7617WAT     H123913   2.292   2.987   6.171
 7617WAT     H223914   2.375   3.090   6.244
 7618WAT      O23915   1.518   2.142   6.420
 7618WAT     H123916   1.500   2.052   6.448
 7618WAT     H223917   1.478   2.196   6.487
 7619WAT      O23918   2.402   2.362   6.210
 7619WAT     H123919   2.440   2.275   6.198
 7619WAT     H223920   2.392   2.395   6.121
 7620WAT      O23921   1.815   2.199   5.756
 7620WAT     H123922   1.826   2.289   5.787
 7620WAT     H223923   1.724   2.194   5.727
 7621WAT      O23924   2.780   2.111   5.903
 7621WAT     H123925   2.862   2.062   5.907
 7621WAT     H223926   2.784   2.170   5.978
 7622WAT      O23927   1.580   2.391   6.280
 7622WAT     H123928   1.648   2.418   6.342
 7622WAT     H223929   1.548   2.307   6.314
 7623WAT      O23930   1.999   2.496   6.189
 7623WAT     H123931   2.050   2.546   6.253
 7623WAT     H223932   2.052   2.418   6.171
 7624WAT      O23933   2.466   2.971   5.766
 7624WAT     H123934   2.404   3.018   5.709
 7624WAT     H223935   2.517   3.040   5.807
 7625WAT      O23936   1.953   2.924   6.433
 7625WAT     H123937   1.919   2.987   6.498
 7625WAT     H223938   1.970   2.977   6.355
 7626WAT      O23939   2.804   2.305   6.180
 7626WAT     H123940   2.733   2.334   6.238
 7626WAT     H223941   2.840   2.386   6.144
 7627WAT      O23942   1.796   2.131   6.416
 7627WAT     H123943   1.830   2.215   6.387
 7627WAT     H223944   1.702   2.146   6.428
 7628WAT      O23945   1.403   3.040   5.503
 7628WAT     H123946   1.365   3.089   5.430
 7628WAT     H223947   1.429   3.107   5.566
 7629WAT      O23948   2.966   3.267   6.406
 7629WAT     H123949   2.897   3.334   6.406
 7629WAT     H223950   3.019   3.287   6.330
 7630WAT      O23951   3.111   2.250   6.219
 7630WAT     H123952   3.016   2.253   6.232
 7630WAT     H223953   3.143   2.331   6.258
 7631WAT      O23954   2.164   1.880   6.049
 7631WAT     H123955   2.195   1.824   5.977
 7631WAT     H223956   2.071   1.893   6.031
 7632WAT      O23957   2.719   3.452   6.278
 7632WAT     H123958   2.720   3.411   6.191
 7632WAT     H223959   2.664   3.529   6.268
 7633WAT      O23960   2.849   3.124   5.787
 7633WAT     H123961   2.838   3.029   5.799
 7633WAT     H223962   2.848   3.160   5.875
 7634WAT      O23963   2.659   2.942   6.411
 7634WAT     H123964   2.701   2.920   6.327
 7634WAT     H223965   2.731   2.968   6.468
 7635WAT      O23966   2.403   2.686   5.722
 7635WAT     H123967   2.310   2.680   5.745
 7635WAT     H223968   2.418   2.780   5.711
 7636WAT      O23969   2.401   2.314   5.422
 7636WAT     H123970   2.307   2.330   5.431
 7636WAT     H223971   2.433   2.385   5.367
 7637WAT      O23972   3.054   2.782   6.420
 7637WAT     H123973   2.971   2.789   6.372
 7637WAT     H223974   3.113   2.840   6.373
 7638WAT      O23975   2.806   2.843   5.773
 7638WAT     H123976   2.744   2.809   5.708
 7638WAT     H223977   2.804   2.778   5.844
 7639WAT      O23978   1.963   2.739   6.001
 7639WAT     H123979   1.923   2.668   5.951
 7639WAT     H223980   1.972   2.705   6.090
 7640WAT      O23981   2.010   3.108   6.217
 7640WAT     H123982   1.980   3.047   6.149
 7640WAT     H223983   2.105   3.111   6.206
 7641WAT      O23984   1.835   2.416   6.379
 7641WAT     H123985   1.890   2.427   6.301
 7641WAT     H223986   1.886   2.454   6.450
 7642WAT      O23987   2.623   2.766   5.474
 7642WAT     H123988   2.667   2.683   5.459
 7642WAT     H223989   2.695   2.830   5.482
 7643WAT      O23990   2.434   3.260   5.870
 7643WAT     H123991   2.478   3.335   5.829
 7643WAT     H223992   2.428   3.285   5.963
 7644WAT      O23993   2.982   1.892   5.305
 7644WAT     H123994   2.950   1.901   5.395
 7644WAT     H223995   3.058   1.950   5.300
 7645WAT      O23996   1.633   2.628   5.751
 7645WAT     H123997   1.621   2.701   5.690
 7645WAT     H223998   1.602   2.552   5.703
 7646WAT      O23999   1.397   2.946   6.331
 7646WAT     H124000   1.405   2.959   6.237
 7646WAT     H224001   1.459   2.875   6.351
 7647WAT      O24002   1.522   3.116   5.972
 7647WAT     H124003   1.481   3.130   5.887
 7647WAT     H224004   1.611   3.087   5.952
 7648WAT      O24005   2.701   3.559   5.606
 7648WAT     H124006   2.685   3.530   5.696
 7648WAT     H224007   2.685   3.482   5.552
 7649WAT      O24008   1.949   3.537   5.784
 7649WAT     H124009   1.931   3.445   5.762
 7649WAT     H224010   1.863   3.573   5.808
 7650WAT      O24011   2.671   3.310   5.462
 7650WAT     H124012   2.602   3.310   5.396
 7650WAT     H224013   2.746   3.268   5.419
 7651WAT      O24014   2.628   3.473   5.869
 7651WAT     H124015   2.673   3.395   5.901
 7651WAT     H224016   2.662   3.544   5.924
 7652WAT      O24017   1.880   1.963   6.089
 7652WAT     H124018   1.836   2.041   6.056
 7652WAT     H224019   1.936   1.995   6.160
 7653WAT      O24020   2.192   1.925   5.577
 7653WAT     H124021   2.129   1.925   5.650
 7653WAT     H224022   2.183   1.838   5.537
 7654WAT      O24023   2.084   2.017   6.275
 7654WAT     H124024   2.113   2.108   6.267
 7654WAT     H224025   2.139   1.968   6.213
 7655WAT      O24026   1.859   2.475   5.862
 7655WAT     H124027   1.837   2.454   5.952
 7655WAT     H224028   1.781   2.518   5.827
 7656WAT      O24029   2.582   2.476   5.722
 7656WAT     H124030   2.522   2.548   5.703
 7656WAT     H224031   2.637   2.470   5.643
 7657WAT      O24032   2.443   2.339   5.925
 7657WAT     H124033   2.482   2.371   5.843
 7657WAT     H224034   2.479   2.252   5.936
 7658WAT      O24035   1.346   1.998   6.147
 7658WAT     H124036   1.318   2.055   6.218
 7658WAT     H224037   1.421   1.950   6.183
 7659WAT      O24038   1.365   2.393   5.268
 7659WAT     H124039   1.357   2.487   5.282
 7659WAT     H224040   1.330   2.378   5.180
 7660WAT      O24041   2.501   2.599   6.334
 7660WAT     H124042   2.428   2.649   6.369
 7660WAT     H224043   2.462   2.517   6.304
 7661WAT      O24044   2.145   2.266   6.175
 7661WAT     H124045   2.145   2.222   6.090
 7661WAT     H224046   2.235   2.298   6.185
 7662WAT      O24047   1.730   2.254   6.071
 7662WAT     H124048   1.696   2.302   6.146
 7662WAT     H224049   1.654   2.209   6.035
 7663WAT      O24050   2.151   2.366   5.474
 7663WAT     H124051   2.163   2.362   5.569
 7663WAT     H224052   2.113   2.452   5.458
 7664WAT      O24053   2.548   2.144   6.275
 7664WAT     H124054   2.549   2.189   6.360
 7664WAT     H224055   2.523   2.054   6.297
 7665WAT      O24056   2.053   2.597   5.414
 7665WAT     H124057   1.996   2.552   5.351
 7665WAT     H224058   2.123   2.633   5.360
 7666WAT      O24059   2.175   2.672   6.349
 7666WAT     H124060   2.212   2.625   6.424
 7666WAT     H224061   2.156   2.759   6.383
 7667WAT      O24062   1.462   2.146   5.962
 7667WAT     H124063   1.433   2.110   6.046
 7667WAT     H224064   1.455   2.073   5.901
 7668WAT      O24065   1.807   2.997   5.641
 7668WAT     H124066   1.730   2.943   5.625
 7668WAT     H224067   1.880   2.945   5.607
 7669WAT      O24068   2.883   2.896   6.220
 7669WAT     H124069   2.955   2.946   6.181
 7669WAT     H224070   2.863   2.829   6.156
 7670WAT      O24071   2.429   2.036   5.634
 7670WAT     H124072   2.348   1.986   5.627
 7670WAT     H224073   2.410   2.120   5.593
 7671WAT      O24074   2.700   2.473   5.464
 7671WAT     H124075   2.789   2.504   5.447
 7671WAT     H224076   2.698   2.386   5.425
 7672WAT      O24077   1.811   2.964   6.005
 7672WAT     H124078   1.863   2.883   5.999
 7672WAT     H224079   1.766   2.957   6.089
 7673WAT      O24080   2.300   3.090   5.532
 7673WAT     H124081   2.334   3.165   5.482
 7673WAT     H224082   2.217   3.122   5.568
 7674WAT      O24083   2.928   2.604   5.411
 7674WAT     H124084   2.919   2.647   5.326
 7674WAT     H224085   3.000   2.650   5.454
 7675WAT      O24086   3.030   3.290   5.684
 7675WAT     H124087   2.966   3.224   5.711
 7675WAT     H224088   2.992   3.330   5.606
 7676WAT      O24089   2.588   3.022   6.068
 7676WAT     H124090   2.624   2.963   6.002
 7676WAT     H224091   2.500   2.990   6.086
 7677WAT      O24092   2.197   3.098   5.809
 7677WAT     H124093   2.266   3.153   5.847
 7677WAT     H224094   2.118   3.153   5.813
 7678WAT      O24095   1.411   2.660   5.358
 7678WAT     H124096   1.498   2.688   5.387
 7678WAT     H224097   1.362   2.741   5.347
 7679WAT      O24098   2.127   2.799   5.770
 7679WAT     H124099   2.173   2.880   5.793
 7679WAT     H224100   2.092   2.767   5.854
 7680WAT      O24101   1.717   1.833   5.818
 7680WAT     H124102   1.705   1.832   5.912
 7680WAT     H224103   1.635   1.867   5.783
 7681WAT      O24104   2.485   3.150   6.365
 7681WAT     H124105   2.549   3.080   6.376
 7681WAT     H224106   2.537   3.228   6.347
 7682WAT      O24107   2.869   3.179   5.337
 7682WAT     H124108   2.847   3.107   5.397
 7682WAT     H224109   2.830   3.154   5.254
 7683WAT      O24110   1.448   3.581   5.415
 7683WAT     H124111   1.484   3.641   5.349
 7683WAT     H224112   1.434   3.636   5.492
 7684WAT      O24113   2.828   2.970   5.504
 7684WAT     H124114   2.799   3.017   5.582
 7684WAT     H224115   2.907   2.924   5.530
 7685WAT      O24116   2.049   3.320   5.497
 7685WAT     H124117   2.048   3.393   5.435
 7685WAT     H224118   1.957   3.295   5.506
 7686WAT      O24119   1.609   2.842   5.571
 7686WAT     H124120   1.549   2.916   5.572
 7686WAT     H224121   1.657   2.851   5.489
 7687WAT      O24122   2.903   2.154   5.620
 7687WAT     H124123   2.840   2.164   5.548
 7687WAT     H224124   2.854   2.176   5.699
 7688WAT      O24125   2.348   3.326   5.363
 7688WAT     H124126   2.358   3.306   5.270
 7688WAT     H224127   2.258   3.301   5.383
 7689WAT      O24128   2.100   2.382   5.761
 7689WAT     H124129   2.029   2.429   5.805
 7689WAT     H224130   2.129   2.316   5.825
 7690WAT      O24131   2.503   2.054   5.905
 7690WAT     H124132   2.491   2.056   5.810
 7690WAT     H224133   2.598   2.059   5.917
 7691WAT      O24134   2.212   3.578   5.832
 7691WAT     H124135   2.237   3.574   5.740
 7691WAT     H224136   2.117   3.565   5.832
 7692WAT      O24137   1.920   2.213   5.499
 7692WAT     H124138   2.005   2.256   5.492
 7692WAT     H224139   1.884   2.244   5.581
 7693WAT      O24140   2.813   2.670   5.990
 7693WAT     H124141   2.718   2.671   6.007
 7693WAT     H224142   2.844   2.591   6.035
 7694WAT      O24143   1.810   2.838   5.346
 7694WAT     H124144   1.887   2.827   5.402
 7694WAT     H224145   1.818   2.768   5.281
 7695WAT      O24146   1.680   2.581   5.414
 7695WAT     H124147   1.688   2.486   5.426
 7695WAT     H224148   1.769   2.614   5.425
 7696WAT      O24149   3.013   3.387   6.158
 7696WAT     H124150   3.025   3.469   6.205
 7696WAT     H224151   3.100   3.366   6.123
 7697WAT      O24152   1.760   3.596   6.125
 7697WAT     H124153   1.834   3.541   6.152
 7697WAT     H224154   1.798   3.683   6.111
 7698WAT      O24155   1.448   3.203   5.712
 7698WAT     H124156   1.356   3.227   5.711
 7698WAT     H224157   1.495   3.286   5.700
 7699WAT      O24158   2.071   3.513   5.307
 7699WAT     H124159   2.150   3.542   5.262
 7699WAT     H224160   2.019   3.470   5.239
 7700WAT      O24161   2.976   3.436   5.449
 7700WAT     H124162   2.948   3.395   5.368
 7700WAT     H224163   2.957   3.529   5.437
 7701WAT      O24164   2.123   3.035   5.293
 7701WAT     H124165   2.112   2.974   5.366
 7701WAT     H224166   2.106   2.983   5.215
 7702WAT      O24167   2.447   2.942   5.354
 7702WAT     H124168   2.392   2.986   5.418
 7702WAT     H224169   2.509   2.891   5.406
 7703WAT      O24170   2.014   2.838   5.543
 7703WAT     H124171   2.056   2.821   5.628
 7703WAT     H224172   2.026   2.757   5.494
 7704WAT      O24173   2.265   2.740   5.268
 7704WAT     H124174   2.317   2.668   5.232
 7704WAT     H224175   2.330   2.804   5.298
 7705WAT      O24176   1.903   2.445   5.238
 7705WAT     H124177   1.883   2.359   5.274
 7705WAT     H224178   1.886   2.436   5.144
 7706WAT      O24179   2.651   1.926   5.491
 7706WAT     H124180   2.679   1.842   5.526
 7706WAT     H224181   2.574   1.949   5.542
 7707WAT      O24182   1.783   2.155   5.237
 7707WAT     H124183   1.813   2.156   5.146
 7707WAT     H224184   1.857   2.120   5.286
 7708WAT      O24185   2.105   2.049   5.335
 7708WAT     H124186   2.070   1.982   5.277
 7708WAT     H224187   2.125   2.003   5.417
 7709WAT      O24188   2.321   3.548   5.497
 7709WAT     H124189   2.411   3.582   5.499
 7709WAT     H224190   2.325   3.476   5.434
 7710WAT      O24191   1.685   3.085   5.320
 7710WAT     H124192   1.729   3.140   5.386
 7710WAT     H224193   1.734   3.003   5.321
 7711WAT      O24194   1.407   3.364   6.065
 7711WAT     H124195   1.440   3.277   6.042
 7711WAT     H224196   1.450   3.385   6.148
 7712WAT      O24197   1.866   3.197   5.831
 7712WAT     H124198   1.836   3.185   5.921
 7712WAT     H224199   1.856   3.111   5.790
 7713WAT      O24200   1.456   3.451   6.339
 7713WAT     H124201   1.412   3.469   6.422
 7713WAT     H224202   1.512   3.527   6.325
 7714WAT      O24203   3.143   3.175   5.302
 7714WAT     H124204   3.060   3.182   5.349
 7714WAT     H224205   3.161   3.264   5.271
 7715WAT      O24206   3.089   2.850   5.552
 7715WAT     H124207   3.165   2.907   5.563
 7715WAT     H224208   3.090   2.793   5.629
 7716WAT      O24209   1.439   2.702   5.975
 7716WAT     H124210   1.373   2.675   5.911
 7716WAT     H224211   1.523   2.691   5.930
 7717WAT      O24212   3.189   2.935   6.036
 7717WAT     H124213   3.227   2.857   5.996
 7717WAT     H224214   3.254   3.004   6.019
 7718WAT      O24215   3.094   2.879   5.268
 7718WAT     H124216   3.122   2.970   5.255
 7718WAT     H224217   3.075   2.873   5.361
 7719WAT      O24218   2.734   2.182   5.397
 7719WAT     H124219   2.776   2.163   5.313
 7719WAT     H224220   2.703   2.096   5.428
 7720WAT      O24221   3.084   2.673   5.767
 7720WAT     H124222   3.046   2.596   5.724
 7720WAT     H224223   3.011   2.711   5.816
 7721WAT      O24224   1.543   2.741   6.429
 7721WAT     H124225   1.579   2.732   6.517
 7721WAT     H224226   1.486   2.664   6.419
 7722WAT      O24227   1.360   2.423   5.569
 7722WAT     H124228   1.270   2.449   5.552
 7722WAT     H224229   1.409   2.450   5.491
 7723WAT      O24230   3.011   2.495   6.097
 7723WAT     H124231   3.064   2.446   6.034
 7723WAT     H224232   3.070   2.509   6.171
 7724WAT      O24233   3.029   2.504   6.449
 7724WAT     H124234   2.934   2.500   6.461
 7724WAT     H224235   3.047   2.595   6.426
 7725WAT      O24236   1.615   2.329   5.360
 7725WAT     H124237   1.685   2.287   5.312
 7725WAT     H224238   1.543   2.336   5.297
 7726WAT      O24239   1.579   1.934   5.264
 7726WAT     H124240   1.652   1.988   5.296
 7726WAT     H224241   1.607   1.907   5.177
 7727WAT      O24242   2.960   2.421   5.691
 7727WAT     H124243   3.010   2.398   5.769
 7727WAT     H224244   2.940   2.337   5.649
 7728WAT      O24245   1.548   1.859   6.254
 7728WAT     H124246   1.613   1.804   6.210
 7728WAT     H224247   1.590   1.885   6.337
 7729WAT      O24248   3.103   2.285   5.944
 7729WAT     H124249   3.092   2.269   6.038
 7729WAT     H224250   3.179   2.232   5.920
 7730WAT      O24251   3.192   2.068   5.268
 7730WAT     H124252   3.285   2.055   5.248
 7730WAT     H224253   3.190   2.076   5.364
 7731WAT      O24254   3.199   2.145   5.531
 7731WAT     H124255   3.120   2.138   5.584
 7731WAT     H224256   3.220   2.238   5.530
 7732WAT      O24257   2.894   3.549   5.930
 7732WAT     H124258   2.953   3.517   5.863
 7732WAT     H224259   2.919   3.502   6.009
 7733WAT      O24260   2.054   3.348   6.505
 7733WAT     H124261   2.030   3.374   6.417
 7733WAT     H224262   2.148   3.365   6.511
 7734WAT      O24263   2.949   3.614   6.313
 7734WAT     H124264   2.903   3.689   6.276
 7734WAT     H224265   2.886   3.542   6.307
 7735WAT      O24266   1.992   3.445   6.231
 7735WAT     H124267   2.043   3.384   6.178
 7735WAT     H224268   2.057   3.495   6.280
 7736WAT      O24269   2.266   3.534   6.313
 7736WAT     H124270   2.294   3.508   6.226
 7736WAT     H224271   2.317   3.479   6.373
 7737WAT      O24272   2.387   1.908   6.371
 7737WAT     H124273   2.309   1.955   6.399
 7737WAT     H224274   2.358   1.817   6.361
 7738WAT      O24275   2.843   1.978   6.176
 7738WAT     H124276   2.887   1.972   6.091
 7738WAT     H224277   2.816   2.069   6.183
 7739WAT      O24278   3.029   1.941   5.977
 7739WAT     H124279   3.023   1.847   5.962
 7739WAT     H224280   3.107   1.952   6.032
 7740WAT      O24281   1.460   3.555   5.873
 7740WAT     H124282   1.443   3.492   5.943
 7740WAT     H224283   1.373   3.576   5.838
 7741WAT      O24284   1.522   1.938   5.624
 7741WAT     H124285   1.598   1.949   5.566
 7741WAT     H224286   1.476   2.022   5.619
 7742WAT      O24287   2.176   2.150   5.923
 7742WAT     H124288   2.095   2.112   5.889
 7742WAT     H224289   2.226   2.074   5.953
 7743WAT      O24290   2.626   1.816   6.046
 7743WAT     H124291   2.686   1.873   6.094
 7743WAT     H224292   2.552   1.872   6.024
 7744WAT      O24293   2.941   1.856   5.574
 7744WAT     H124294   2.960   1.946   5.601
 7744WAT     H224295   2.862   1.833   5.623
 7745WAT      O24296   1.620   3.424   5.618
 7745WAT     H124297   1.568   3.462   5.547
 7745WAT     H224298   1.613   3.487   5.690
 7746WAT      O24299   1.759   1.991   5.478
 7746WAT     H124300   1.812   1.912   5.465
 7746WAT     H224301   1.822   2.059   5.501
 7747WAT      O24302   1.978   1.965   5.783
 7747WAT     H124303   1.915   1.894   5.800
 7747WAT     H224304   1.924   2.041   5.761
 7748WAT      O24305   3.096   3.580   5.750
 7748WAT     H124306   3.113   3.512   5.686
 7748WAT     H224307   3.026   3.633   5.711
 7749WAT      O24308   1.880   3.619   5.505
 7749WAT     H124309   1.953   3.591   5.450
 7749WAT     H224310   1.906   3.595   5.594
 7750WAT      O24311   1.796   3.231   5.506
 7750WAT     H124312   1.733   3.278   5.561
 7750WAT     H224313   1.808   3.146   5.549
 7751WAT      O24314   2.355   2.814   4.309
 7751WAT     H124315   2.277   2.766   4.338
 7751WAT     H224316   2.420   2.746   4.291
 7752WAT      O24317   1.757   2.845   4.397
 7752WAT     H124318   1.673   2.819   4.437
 7752WAT     H224319   1.817   2.852   4.470
 7753WAT      O24320   2.757   3.254   4.187
 7753WAT     H124321   2.711   3.177   4.220
 7753WAT     H224322   2.838   3.257   4.237
 7754WAT      O24323   1.755   3.248   4.416
 7754WAT     H124324   1.785   3.159   4.398
 7754WAT     H224325   1.829   3.304   4.393
 7755WAT      O24326   1.597   2.341   3.775
 7755WAT     H124327   1.509   2.375   3.765
 7755WAT     H224328   1.626   2.321   3.686
 7756WAT      O24329   1.394   2.601   4.363
 7756WAT     H124330   1.451   2.524   4.363
 7756WAT     H224331   1.394   2.631   4.272
 7757WAT      O24332   2.380   3.483   4.149
 7757WAT     H124333   2.318   3.528   4.092
 7757WAT     H224334   2.465   3.498   4.109
 7758WAT      O24335   2.299   3.081   4.310
 7758WAT     H124336   2.292   2.987   4.293
 7758WAT     H224337   2.375   3.090   4.367
 7759WAT      O24338   1.518   2.142   4.542
 7759WAT     H124339   1.500   2.052   4.570
 7759WAT     H224340   1.478   2.196   4.610
 7760WAT      O24341   2.402   2.362   4.332
 7760WAT     H124342   2.440   2.275   4.321
 7760WAT     H224343   2.392   2.395   4.243
 7761WAT      O24344   1.815   2.199   3.878
 7761WAT     H124345   1.826   2.289   3.909
 7761WAT     H224346   1.724   2.194   3.849
 7762WAT      O24347   2.780   2.111   4.026
 7762WAT     H124348   2.862   2.062   4.030
 7762WAT     H224349   2.784   2.170   4.101
 7763WAT      O24350   1.580   2.391   4.403
 7763WAT     H124351   1.648   2.418   4.465
 7763WAT     H224352   1.548   2.307   4.436
 7764WAT      O24353   1.999   2.496   4.312
 7764WAT     H124354   2.050   2.546   4.376
 7764WAT     H224355   2.052   2.418   4.294
 7765WAT      O24356   3.209   2.313   4.682
 7765WAT     H124357   3.139   2.352   4.630
 7765WAT     H224358   3.236   2.383   4.742
 7766WAT      O24359   1.828   1.960   4.738
 7766WAT     H124360   1.828   2.012   4.658
 7766WAT     H224361   1.745   1.912   4.736
 7767WAT      O24362   2.466   2.971   3.888
 7767WAT     H124363   2.404   3.018   3.832
 7767WAT     H224364   2.517   3.040   3.930
 7768WAT      O24365   1.953   2.924   4.556
 7768WAT     H124366   1.919   2.987   4.620
 7768WAT     H224367   1.970   2.977   4.478
 7769WAT      O24368   1.796   2.131   4.539
 7769WAT     H124369   1.830   2.215   4.510
 7769WAT     H224370   1.702   2.146   4.551
 7770WAT      O24371   1.874   3.121   4.738
 7770WAT     H124372   1.935   3.188   4.709
 7770WAT     H224373   1.788   3.162   4.728
 7771WAT      O24374   1.403   3.040   3.626
 7771WAT     H124375   1.365   3.089   3.552
 7771WAT     H224376   1.429   3.107   3.689
 7772WAT      O24377   2.966   3.267   4.529
 7772WAT     H124378   2.897   3.334   4.528
 7772WAT     H224379   3.019   3.287   4.452
 7773WAT      O24380   2.164   1.880   4.171
 7773WAT     H124381   2.195   1.824   4.100
 7773WAT     H224382   2.071   1.893   4.153
 7774WAT      O24383   2.719   3.452   4.401
 7774WAT     H124384   2.720   3.411   4.314
 7774WAT     H224385   2.664   3.529   4.390
 7775WAT      O24386   2.849   3.124   3.909
 7775WAT     H124387   2.838   3.029   3.922
 7775WAT     H224388   2.848   3.160   3.998
 7776WAT      O24389   2.659   2.942   4.533
 7776WAT     H124390   2.701   2.920   4.450
 7776WAT     H224391   2.731   2.968   4.590
 7777WAT      O24392   2.403   2.686   3.845
 7777WAT     H124393   2.310   2.680   3.868
 7777WAT     H224394   2.418   2.780   3.834
 7778WAT      O24395   2.401   2.314   3.545
 7778WAT     H124396   2.307   2.330   3.553
 7778WAT     H224397   2.433   2.385   3.490
 7779WAT      O24398   3.054   2.782   4.542
 7779WAT     H124399   2.971   2.789   4.495
 7779WAT     H224400   3.113   2.840   4.496
 7780WAT      O24401   2.750   2.460   4.637
 7780WAT     H124402   2.709   2.543   4.662
 7780WAT     H224403   2.677   2.402   4.618
 7781WAT      O24404   1.963   2.739   4.123
 7781WAT     H124405   1.923   2.668   4.074
 7781WAT     H224406   1.972   2.705   4.212
 7782WAT      O24407   2.010   3.108   4.340
 7782WAT     H124408   1.980   3.047   4.272
 7782WAT     H224409   2.105   3.111   4.329
 7783WAT      O24410   1.835   2.416   4.501
 7783WAT     H124411   1.890   2.427   4.424
 7783WAT     H224412   1.886   2.454   4.573
 7784WAT      O24413   2.819   3.465   4.706
 7784WAT     H124414   2.771   3.546   4.687
 7784WAT     H224415   2.751   3.400   4.721
 7785WAT      O24416   1.919   3.082   5.005
 7785WAT     H124417   1.830   3.104   5.029
 7785WAT     H224418   1.922   3.094   4.910
 7786WAT      O24419   2.623   2.766   3.596
 7786WAT     H124420   2.667   2.683   3.581
 7786WAT     H224421   2.695   2.830   3.605
 7787WAT      O24422   1.802   2.769   4.862
 7787WAT     H124423   1.788   2.856   4.899
 7787WAT     H224424   1.714   2.734   4.848
 7788WAT      O24425   2.434   3.260   3.993
 7788WAT     H124426   2.478   3.335   3.951
 7788WAT     H224427   2.428   3.285   4.085
 7789WAT      O24428   1.982   3.363   5.083
 7789WAT     H124429   1.979   3.403   4.996
 7789WAT     H224430   1.965   3.270   5.067
 7790WAT      O24431   2.982   1.892   3.428
 7790WAT     H124432   2.950   1.901   3.518
 7790WAT     H224433   3.058   1.950   3.422
 7791WAT      O24434   1.633   2.628   3.873
 7791WAT     H124435   1.621   2.701   3.812
 7791WAT     H224436   1.602   2.552   3.826
 7792WAT      O24437   3.177   3.441   5.213
 7792WAT     H124438   3.225   3.489   5.281
 7792WAT     H224439   3.239   3.434   5.140
 7793WAT      O24440   1.397   2.946   4.454
 7793WAT     H124441   1.405   2.959   4.360
 7793WAT     H224442   1.459   2.875   4.473
 7794WAT      O24443   1.522   3.116   4.095
 7794WAT     H124444   1.481   3.130   4.010
 7794WAT     H224445   1.611   3.087   4.075
 7795WAT      O24446   3.117   3.160   4.929
 7795WAT     H124447   3.130   3.136   4.837
 7795WAT     H224448   3.122   3.077   4.976
 7796WAT      O24449   2.503   3.531   4.786
 7796WAT     H124450   2.555   3.522   4.866
 7796WAT     H224451   2.419   3.565   4.815
 7797WAT      O24452   1.949   3.537   3.906
 7797WAT     H124453   1.931   3.445   3.885
 7797WAT     H224454   1.863   3.573   3.930
 7798WAT      O24455   2.671   3.310   3.585
 7798WAT     H124456   2.602   3.310   3.519
 7798WAT     H224457   2.746   3.268   3.541
 7799WAT      O24458   3.103   2.366   5.025
 7799WAT     H124459   3.041   2.416   4.972
 7799WAT     H224460   3.071   2.276   5.020
 7800WAT      O24461   1.403   3.050   4.708
 7800WAT     H124462   1.419   3.003   4.626
 7800WAT     H224463   1.449   2.999   4.774
 7801WAT      O24464   1.880   1.963   4.212
 7801WAT     H124465   1.836   2.041   4.178
 7801WAT     H224466   1.936   1.995   4.282
 7802WAT      O24467   2.309   2.250   4.772
 7802WAT     H124468   2.263   2.270   4.853
 7802WAT     H224469   2.268   2.168   4.742
 7803WAT      O24470   2.809   2.372   4.885
 7803WAT     H124471   2.724   2.342   4.917
 7803WAT     H224472   2.793   2.396   4.794
 7804WAT      O24473   2.518   2.522   5.095
 7804WAT     H124474   2.551   2.438   5.061
 7804WAT     H224475   2.597   2.574   5.110
 7805WAT      O24476   2.192   1.925   3.700
 7805WAT     H124477   2.129   1.925   3.772
 7805WAT     H224478   2.183   1.838   3.660
 7806WAT      O24479   2.084   2.017   4.397
 7806WAT     H124480   2.113   2.108   4.389
 7806WAT     H224481   2.139   1.968   4.336
 7807WAT      O24482   1.859   2.475   3.984
 7807WAT     H124483   1.837   2.454   4.075
 7807WAT     H224484   1.781   2.518   3.950
 7808WAT      O24485   2.582   2.476   3.844
 7808WAT     H124486   2.522   2.548   3.826
 7808WAT     H224487   2.637   2.470   3.766
 7809WAT      O24488   2.103   2.565   5.051
 7809WAT     H124489   2.094   2.471   5.036
 7809WAT     H224490   2.187   2.587   5.011
 7810WAT      O24491   2.443   2.339   4.047
 7810WAT     H124492   2.482   2.371   3.966
 7810WAT     H224493   2.479   2.252   4.059
 7811WAT      O24494   1.616   2.206   4.866
 7811WAT     H124495   1.577   2.291   4.887
 7811WAT     H224496   1.547   2.142   4.885
 7812WAT      O24497   2.274   2.215   5.173
 7812WAT     H124498   2.205   2.195   5.237
 7812WAT     H224499   2.348   2.243   5.226
 7813WAT      O24500   1.346   1.998   4.270
 7813WAT     H124501   1.318   2.055   4.341
 7813WAT     H224502   1.421   1.950   4.306
 7814WAT      O24503   1.365   2.393   3.391
 7814WAT     H124504   1.357   2.487   3.405
 7814WAT     H224505   1.330   2.378   3.303
 7815WAT      O24506   2.501   2.599   4.457
 7815WAT     H124507   2.428   2.649   4.492
 7815WAT     H224508   2.462   2.517   4.427
 7816WAT      O24509   2.145   2.266   4.297
 7816WAT     H124510   2.145   2.222   4.212
 7816WAT     H224511   2.235   2.298   4.308
 7817WAT      O24512   1.730   2.254   4.193
 7817WAT     H124513   1.696   2.302   4.269
 7817WAT     H224514   1.654   2.209   4.157
 7818WAT      O24515   2.151   2.366   3.596
 7818WAT     H124516   2.163   2.362   3.691
 7818WAT     H224517   2.113   2.452   3.581
 7819WAT      O24518   2.548   2.144   4.398
 7819WAT     H124519   2.549   2.189   4.482
 7819WAT     H224520   2.523   2.054   4.419
 7820WAT      O24521   2.053   2.597   3.536
 7820WAT     H124522   1.996   2.552   3.474
 7820WAT     H224523   2.123   2.633   3.483
 7821WAT      O24524   2.890   1.885   4.982
 7821WAT     H124525   2.923   1.812   5.034
 7821WAT     H224526   2.894   1.853   4.892
 7822WAT      O24527   1.560   2.987   4.924
 7822WAT     H124528   1.522   2.923   4.984
 7822WAT     H224529   1.591   3.058   4.981
 7823WAT      O24530   2.175   2.672   4.472
 7823WAT     H124531   2.212   2.625   4.547
 7823WAT     H224532   2.156   2.759   4.506
 7824WAT      O24533   1.462   2.146   4.085
 7824WAT     H124534   1.433   2.110   4.169
 7824WAT     H224535   1.455   2.073   4.024
 7825WAT      O24536   1.954   2.576   4.704
 7825WAT     H124537   1.924   2.664   4.726
 7825WAT     H224538   2.050   2.582   4.707
 7826WAT      O24539   1.807   2.997   3.763
 7826WAT     H124540   1.730   2.943   3.747
 7826WAT     H224541   1.880   2.945   3.730
 7827WAT      O24542   2.883   2.896   4.343
 7827WAT     H124543   2.955   2.946   4.304
 7827WAT     H224544   2.863   2.829   4.278
 7828WAT      O24545   2.429   2.036   3.757
 7828WAT     H124546   2.348   1.986   3.749
 7828WAT     H224547   2.410   2.120   3.715
 7829WAT      O24548   2.421   2.904   4.931
 7829WAT     H124549   2.414   2.811   4.906
 7829WAT     H224550   2.358   2.913   5.003
 7830WAT      O24551   1.811   2.964   4.127
 7830WAT     H124552   1.863   2.883   4.122
 7830WAT     H224553   1.766   2.957   4.211
 7831WAT      O24554   2.300   3.090   3.655
 7831WAT     H124555   2.334   3.165   3.605
 7831WAT     H224556   2.217   3.122   3.691
 7832WAT      O24557   1.560   2.660   4.819
 7832WAT     H124558   1.524   2.727   4.877
 7832WAT     H224559   1.530   2.577   4.856
 7833WAT      O24560   1.880   2.706   5.107
 7833WAT     H124561   1.850   2.721   5.017
 7833WAT     H224562   1.957   2.650   5.098
 7834WAT      O24563   2.414   3.186   4.906
 7834WAT     H124564   2.416   3.093   4.885
 7834WAT     H224565   2.343   3.194   4.970
 7835WAT      O24566   3.035   2.850   4.841
 7835WAT     H124567   2.963   2.909   4.821
 7835WAT     H224568   3.088   2.849   4.761
 7836WAT      O24569   2.588   3.022   4.191
 7836WAT     H124570   2.624   2.963   4.125
 7836WAT     H224571   2.500   2.990   4.208
 7837WAT      O24572   2.197   3.098   3.932
 7837WAT     H124573   2.266   3.153   3.970
 7837WAT     H224574   2.118   3.153   3.935
 7838WAT      O24575   1.411   2.660   3.481
 7838WAT     H124576   1.498   2.688   3.509
 7838WAT     H224577   1.362   2.741   3.469
 7839WAT      O24578   2.127   2.799   3.893
 7839WAT     H124579   2.173   2.880   3.916
 7839WAT     H224580   2.092   2.767   3.976
 7840WAT      O24581   2.358   3.350   4.616
 7840WAT     H124582   2.422   3.370   4.684
 7840WAT     H224583   2.394   3.274   4.571
 7841WAT      O24584   1.717   1.833   3.940
 7841WAT     H124585   1.705   1.832   4.035
 7841WAT     H224586   1.635   1.867   3.905
 7842WAT      O24587   2.485   3.150   4.488
 7842WAT     H124588   2.549   3.080   4.499
 7842WAT     H224589   2.537   3.228   4.470
 7843WAT      O24590   2.869   3.179   3.460
 7843WAT     H124591   2.847   3.107   3.519
 7843WAT     H224592   2.830   3.154   3.376
 7844WAT      O24593   2.662   3.230   4.808
 7844WAT     H124594   2.696   3.289   4.876
 7844WAT     H224595   2.570   3.217   4.831
 7845WAT      O24596   1.448   3.581   3.537
 7845WAT     H124597   1.484   3.641   3.472
 7845WAT     H224598   1.434   3.636   3.615
 7846WAT      O24599   1.417   2.009   4.886
 7846WAT     H124600   1.346   2.029   4.947
 7846WAT     H224601   1.459   1.932   4.923
 7847WAT      O24602   2.828   2.970   3.626
 7847WAT     H124603   2.799   3.017   3.705
 7847WAT     H224604   2.907   2.924   3.653
 7848WAT      O24605   1.446   3.408   4.985
 7848WAT     H124606   1.457   3.314   4.971
 7848WAT     H224607   1.381   3.434   4.920
 7849WAT      O24608   2.245   3.235   5.125
 7849WAT     H124609   2.213   3.163   5.179
 7849WAT     H224610   2.178   3.303   5.132
 7850WAT      O24611   2.049   3.320   3.619
 7850WAT     H124612   2.048   3.393   3.558
 7850WAT     H224613   1.957   3.295   3.628
 7851WAT      O24614   1.609   2.842   3.694
 7851WAT     H124615   1.549   2.916   3.695
 7851WAT     H224616   1.657   2.851   3.611
 7852WAT      O24617   2.567   2.258   4.661
 7852WAT     H124618   2.603   2.176   4.694
 7852WAT     H224619   2.481   2.264   4.703
 7853WAT      O24620   2.348   3.326   3.485
 7853WAT     H124621   2.358   3.306   3.392
 7853WAT     H224622   2.258   3.301   3.506
 7854WAT      O24623   2.100   2.382   3.884
 7854WAT     H124624   2.029   2.429   3.928
 7854WAT     H224625   2.129   2.316   3.947
 7855WAT      O24626   2.263   2.524   4.684
 7855WAT     H124627   2.313   2.571   4.750
 7855WAT     H224628   2.277   2.431   4.704
 7856WAT      O24629   2.503   2.054   4.028
 7856WAT     H124630   2.491   2.056   3.933
 7856WAT     H224631   2.598   2.059   4.040
 7857WAT      O24632   2.212   3.578   3.955
 7857WAT     H124633   2.237   3.574   3.863
 7857WAT     H224634   2.117   3.565   3.954
 7858WAT      O24635   1.920   2.213   3.621
 7858WAT     H124636   2.005   2.256   3.615
 7858WAT     H224637   1.884   2.244   3.704
 7859WAT      O24638   2.983   2.145   4.768
 7859WAT     H124639   2.933   2.219   4.802
 7859WAT     H224640   3.065   2.184   4.736
 7860WAT      O24641   1.810   2.838   3.469
 7860WAT     H124642   1.887   2.827   3.525
 7860WAT     H224643   1.818   2.768   3.403
 7861WAT      O24644   1.680   2.581   3.537
 7861WAT     H124645   1.688   2.486   3.548
 7861WAT     H224646   1.769   2.614   3.548
 7862WAT      O24647   3.013   3.387   4.280
 7862WAT     H124648   3.025   3.469   4.327
 7862WAT     H224649   3.100   3.366   4.245
 7863WAT      O24650   1.760   3.596   4.247
 7863WAT     H124651   1.834   3.541   4.274
 7863WAT     H224652   1.798   3.683   4.233
 7864WAT      O24653   1.448   3.203   3.835
 7864WAT     H124654   1.356   3.227   3.834
 7864WAT     H224655   1.495   3.286   3.823
 7865WAT      O24656   1.661   3.515   5.166
 7865WAT     H124657   1.741   3.547   5.207
 7865WAT     H224658   1.609   3.479   5.238
 7866WAT      O24659   2.071   3.513   3.430
 7866WAT     H124660   2.150   3.542   3.384
 7866WAT     H224661   2.019   3.470   3.362
 7867WAT      O24662   2.544   3.125   5.161
 7867WAT     H124663   2.484   3.128   5.087
 7867WAT     H224664   2.514   3.052   5.215
 7868WAT      O24665   2.687   3.498   5.022
 7868WAT     H124666   2.782   3.490   5.017
 7868WAT     H224667   2.673   3.565   5.089
 7869WAT      O24668   1.433   2.763   5.060
 7869WAT     H124669   1.483   2.705   5.118
 7869WAT     H224670   1.359   2.792   5.114
 7870WAT      O24671   2.123   3.035   3.416
 7870WAT     H124672   2.112   2.974   3.489
 7870WAT     H224673   2.106   2.983   3.338
 7871WAT      O24674   2.138   2.904   5.014
 7871WAT     H124675   2.061   2.961   5.005
 7871WAT     H224676   2.156   2.875   4.925
 7872WAT      O24677   2.447   2.942   3.476
 7872WAT     H124678   2.392   2.986   3.541
 7872WAT     H224679   2.509   2.891   3.529
 7873WAT      O24680   2.852   3.077   5.070
 7873WAT     H124681   2.926   3.111   5.019
 7873WAT     H224682   2.776   3.094   5.014
 7874WAT      O24683   1.636   2.578   5.150
 7874WAT     H124684   1.640   2.548   5.241
 7874WAT     H224685   1.721   2.618   5.134
 7875WAT      O24686   2.014   2.838   3.666
 7875WAT     H124687   2.056   2.821   3.750
 7875WAT     H224688   2.026   2.757   3.617
 7876WAT      O24689   1.830   2.436   4.947
 7876WAT     H124690   1.777   2.386   4.884
 7876WAT     H224691   1.897   2.478   4.893
 7877WAT      O24692   2.265   2.740   3.391
 7877WAT     H124693   2.317   2.668   3.354
 7877WAT     H224694   2.330   2.804   3.421
 7878WAT      O24695   2.720   2.882   4.923
 7878WAT     H124696   2.761   2.898   5.008
 7878WAT     H224697   2.626   2.895   4.939
 7879WAT      O24698   2.767   2.616   5.124
 7879WAT     H124699   2.825   2.541   5.115
 7879WAT     H224700   2.784   2.669   5.046
 7880WAT      O24701   1.879   2.132   4.955
 7880WAT     H124702   1.869   2.070   4.882
 7880WAT     H224703   1.821   2.205   4.932
 7881WAT      O24704   2.155   1.988   4.658
 7881WAT     H124705   2.110   1.990   4.573
 7881WAT     H224706   2.092   1.948   4.718
 7882WAT      O24707   2.196   2.877   4.720
 7882WAT     H124708   2.238   2.962   4.703
 7882WAT     H224709   2.104   2.891   4.697
 7883WAT      O24710   2.429   2.651   4.858
 7883WAT     H124711   2.441   2.591   4.932
 7883WAT     H224712   2.515   2.654   4.816
 7884WAT      O24713   2.663   2.706   4.716
 7884WAT     H124714   2.611   2.758   4.656
 7884WAT     H224715   2.698   2.769   4.779
 7885WAT      O24716   1.903   2.445   3.361
 7885WAT     H124717   1.883   2.359   3.397
 7885WAT     H224718   1.886   2.436   3.267
 7886WAT      O24719   1.981   3.508   4.832
 7886WAT     H124720   1.927   3.580   4.800
 7886WAT     H224721   2.006   3.460   4.753
 7887WAT      O24722   2.106   2.305   4.984
 7887WAT     H124723   2.165   2.274   5.053
 7887WAT     H224724   2.024   2.258   5.000
 7888WAT      O24725   2.588   2.266   5.008
 7888WAT     H124726   2.519   2.200   5.001
 7888WAT     H224727   2.660   2.222   5.052
 7889WAT      O24728   2.651   1.926   3.613
 7889WAT     H124729   2.679   1.842   3.649
 7889WAT     H224730   2.574   1.949   3.665
 7890WAT      O24731   1.783   2.155   3.359
 7890WAT     H124732   1.813   2.156   3.269
 7890WAT     H224733   1.857   2.120   3.409
 7891WAT      O24734   2.267   3.631   4.858
 7891WAT     H124735   2.259   3.722   4.888
 7891WAT     H224736   2.176   3.600   4.855
 7892WAT      O24737   2.105   2.049   3.458
 7892WAT     H124738   2.070   1.982   3.400
 7892WAT     H224739   2.125   2.003   3.539
 7893WAT      O24740   2.321   3.548   3.620
 7893WAT     H124741   2.411   3.582   3.622
 7893WAT     H224742   2.325   3.476   3.557
 7894WAT      O24743   1.685   3.085   3.443
 7894WAT     H124744   1.729   3.140   3.508
 7894WAT     H224745   1.734   3.003   3.444
 7895WAT      O24746   1.407   3.364   4.188
 7895WAT     H124747   1.440   3.277   4.165
 7895WAT     H224748   1.450   3.385   4.271
 7896WAT      O24749   1.866   3.197   3.954
 7896WAT     H124750   1.836   3.185   4.044
 7896WAT     H224751   1.856   3.111   3.913
 7897WAT      O24752   1.456   3.451   4.462
 7897WAT     H124753   1.412   3.469   4.545
 7897WAT     H224754   1.512   3.527   4.447
 7898WAT      O24755   3.019   3.401   4.890
 7898WAT     H124756   2.959   3.407   4.816
 7898WAT     H224757   3.032   3.307   4.903
 7899WAT      O24758   1.439   2.702   4.098
 7899WAT     H124759   1.373   2.675   4.033
 7899WAT     H224760   1.523   2.691   4.053
 7900WAT      O24761   3.189   2.935   4.159
 7900WAT     H124762   3.227   2.857   4.118
 7900WAT     H224763   3.254   3.004   4.141
 7901WAT      O24764   2.888   3.074   4.700
 7901WAT     H124765   2.806   3.117   4.726
 7901WAT     H224766   2.929   3.135   4.639
 7902WAT      O24767   2.734   2.182   3.520
 7902WAT     H124768   2.776   2.163   3.436
 7902WAT     H224769   2.703   2.096   3.551
 7903WAT      O24770   1.543   2.741   4.552
 7903WAT     H124771   1.579   2.732   4.640
 7903WAT     H224772   1.486   2.664   4.542
 7904WAT      O24773   3.023   2.588   4.853
 7904WAT     H124774   3.000   2.565   4.763
 7904WAT     H224775   3.049   2.680   4.848
 7905WAT      O24776   1.498   2.432   4.942
 7905WAT     H124777   1.408   2.428   4.976
 7905WAT     H224778   1.552   2.452   5.019
 7906WAT      O24779   2.867   2.110   5.131
 7906WAT     H124780   2.954   2.111   5.169
 7906WAT     H224781   2.868   2.036   5.070
 7907WAT      O24782   1.360   2.423   3.692
 7907WAT     H124783   1.270   2.449   3.674
 7907WAT     H224784   1.409   2.450   3.614
 7908WAT      O24785   3.029   2.504   4.572
 7908WAT     H124786   2.934   2.500   4.583
 7908WAT     H224787   3.047   2.595   4.548
 7909WAT      O24788   1.615   2.329   3.483
 7909WAT     H124789   1.685   2.287   3.434
 7909WAT     H224790   1.543   2.336   3.420
 7910WAT      O24791   1.579   1.934   3.387
 7910WAT     H124792   1.652   1.988   3.419
 7910WAT     H224793   1.607   1.907   3.299
 7911WAT      O24794   1.548   1.859   4.377
 7911WAT     H124795   1.613   1.804   4.333
 7911WAT     H224796   1.590   1.885   4.459
 7912WAT      O24797   2.938   1.879   4.713
 7912WAT     H124798   3.001   1.940   4.749
 7912WAT     H224799   2.953   1.882   4.618
 7913WAT      O24800   1.524   1.875   4.651
 7913WAT     H124801   1.489   1.920   4.728
 7913WAT     H224802   1.490   1.785   4.659
 7914WAT      O24803   1.684   3.192   5.068
 7914WAT     H124804   1.680   3.155   5.156
 7914WAT     H224805   1.697   3.286   5.082
 7915WAT      O24806   2.054   3.348   4.628
 7915WAT     H124807   2.030   3.374   4.539
 7915WAT     H224808   2.148   3.365   4.633
 7916WAT      O24809   2.275   1.994   5.003
 7916WAT     H124810   2.269   2.053   5.078
 7916WAT     H224811   2.369   1.983   4.989
 7917WAT      O24812   2.539   1.960   4.967
 7917WAT     H124813   2.600   1.991   4.901
 7917WAT     H224814   2.593   1.911   5.029
 7918WAT      O24815   3.180   3.550   4.708
 7918WAT     H124816   3.131   3.589   4.636
 7918WAT     H224817   3.119   3.487   4.747
 7919WAT      O24818   1.591   1.828   4.979
 7919WAT     H124819   1.646   1.809   4.902
 7919WAT     H224820   1.597   1.749   5.032
 7920WAT      O24821   1.668   3.487   4.780
 7920WAT     H124822   1.609   3.473   4.854
 7920WAT     H224823   1.667   3.403   4.733
 7921WAT      O24824   2.613   1.816   4.600
 7921WAT     H124825   2.525   1.849   4.580
 7921WAT     H224826   2.602   1.769   4.683
 7922WAT      O24827   2.703   2.037   4.738
 7922WAT     H124828   2.670   1.955   4.701
 7922WAT     H224829   2.798   2.032   4.726
 7923WAT      O24830   2.949   3.614   4.436
 7923WAT     H124831   2.903   3.689   4.398
 7923WAT     H224832   2.886   3.542   4.430
 7924WAT      O24833   1.631   3.223   4.675
 7924WAT     H124834   1.559   3.161   4.668
 7924WAT     H224835   1.637   3.263   4.588
 7925WAT      O24836   1.992   3.445   4.353
 7925WAT     H124837   2.043   3.384   4.301
 7925WAT     H224838   2.057   3.495   4.402
 7926WAT      O24839   2.266   3.534   4.436
 7926WAT     H124840   2.294   3.508   4.348
 7926WAT     H224841   2.317   3.479   4.495
 7927WAT      O24842   2.387   1.908   4.494
 7927WAT     H124843   2.309   1.955   4.522
 7927WAT     H224844   2.358   1.817   4.483
 7928WAT      O24845   2.843   1.978   4.299
 7928WAT     H124846   2.887   1.972   4.214
 7928WAT     H224847   2.816   2.069   4.306
 7929WAT      O24848   3.029   1.941   4.100
 7929WAT     H124849   3.023   1.847   4.085
 7929WAT     H224850   3.107   1.952   4.154
 7930WAT      O24851   1.460   3.555   3.996
 7930WAT     H124852   1.443   3.492   4.066
 7930WAT     H224853   1.373   3.576   3.961
 7931WAT      O24854   1.522   1.938   3.746
 7931WAT     H124855   1.598   1.949   3.689
 7931WAT     H224856   1.476   2.022   3.742
 7932WAT      O24857   2.176   2.150   4.045
 7932WAT     H124858   2.095   2.112   4.011
 7932WAT     H224859   2.226   2.074   4.075
 7933WAT      O24860   2.626   1.816   4.169
 7933WAT     H124861   2.686   1.873   4.216
 7933WAT     H224862   2.552   1.872   4.147
 7934WAT      O24863   2.941   1.856   3.696
 7934WAT     H124864   2.960   1.946   3.723
 7934WAT     H224865   2.862   1.833   3.746
 7935WAT      O24866   1.620   3.424   3.740
 7935WAT     H124867   1.568   3.462   3.670
 7935WAT     H224868   1.613   3.487   3.812
 7936WAT      O24869   1.759   1.991   3.600
 7936WAT     H124870   1.812   1.912   3.587
 7936WAT     H224871   1.822   2.059   3.624
 7937WAT      O24872   1.978   1.965   3.906
 7937WAT     H124873   1.915   1.894   3.922
 7937WAT     H224874   1.924   2.041   3.884
 7938WAT      O24875   2.272   3.626   5.173
 7938WAT     H124876   2.365   3.602   5.177
 7938WAT     H224877   2.271   3.709   5.125
 7939WAT      O24878   1.991   1.892   5.149
 7939WAT     H124879   1.963   1.943   5.073
 7939WAT     H224880   2.029   1.813   5.113
 7940WAT      O24881   1.880   3.619   3.628
 7940WAT     H124882   1.953   3.591   3.573
 7940WAT     H224883   1.906   3.595   3.717
 7941WAT      O24884   1.796   3.231   3.628
 7941WAT     H124885   1.733   3.278   3.683
 7941WAT     H224886   1.808   3.146   3.672
 7942WAT      O24887   2.651   1.834   5.207
 7942WAT     H124888   2.640   1.866   5.296
 7942WAT     H224889   2.733   1.874   5.177
 7943WAT      O24890   2.929   3.549   5.155
 7943WAT     H124891   3.008   3.499   5.134
 7943WAT     H224892   2.958   3.616   5.216
 7944WAT      O24893   2.542   2.636   2.243
 7944WAT     H124894   2.534   2.544   2.216
 7944WAT     H224895   2.500   2.685   2.173
 7945WAT      O24896   2.355   2.814   2.431
 7945WAT     H124897   2.277   2.766   2.460
 7945WAT     H224898   2.420   2.746   2.414
 7946WAT      O24899   1.757   2.845   2.519
 7946WAT     H124900   1.673   2.819   2.559
 7946WAT     H224901   1.817   2.852   2.593
 7947WAT      O24902   2.757   3.254   2.309
 7947WAT     H124903   2.711   3.177   2.342
 7947WAT     H224904   2.838   3.257   2.360
 7948WAT      O24905   1.755   3.248   2.539
 7948WAT     H124906   1.785   3.159   2.521
 7948WAT     H224907   1.829   3.304   2.516
 7949WAT      O24908   1.597   2.341   1.898
 7949WAT     H124909   1.509   2.375   1.887
 7949WAT     H224910   1.626   2.321   1.808
 7950WAT      O24911   1.394   2.601   2.486
 7950WAT     H124912   1.451   2.524   2.486
 7950WAT     H224913   1.394   2.631   2.395
 7951WAT      O24914   2.380   3.483   2.271
 7951WAT     H124915   2.318   3.528   2.214
 7951WAT     H224916   2.465   3.498   2.231
 7952WAT      O24917   2.299   3.081   2.432
 7952WAT     H124918   2.292   2.987   2.416
 7952WAT     H224919   2.375   3.090   2.489
 7953WAT      O24920   1.518   2.142   2.665
 7953WAT     H124921   1.500   2.052   2.693
 7953WAT     H224922   1.478   2.196   2.732
 7954WAT      O24923   2.402   2.362   2.455
 7954WAT     H124924   2.440   2.275   2.444
 7954WAT     H224925   2.392   2.395   2.366
 7955WAT      O24926   1.815   2.199   2.001
 7955WAT     H124927   1.826   2.289   2.032
 7955WAT     H224928   1.724   2.194   1.972
 7956WAT      O24929   2.780   2.111   2.148
 7956WAT     H124930   2.862   2.062   2.152
 7956WAT     H224931   2.784   2.170   2.223
 7957WAT      O24932   1.580   2.391   2.525
 7957WAT     H124933   1.648   2.418   2.587
 7957WAT     H224934   1.548   2.307   2.559
 7958WAT      O24935   1.999   2.496   2.434
 7958WAT     H124936   2.050   2.546   2.498
 7958WAT     H224937   2.052   2.418   2.417
 7959WAT      O24938   3.209   2.313   2.805
 7959WAT     H124939   3.139   2.352   2.753
 7959WAT     H224940   3.236   2.383   2.865
 7960WAT      O24941   1.828   1.960   2.861
 7960WAT     H124942   1.828   2.012   2.780
 7960WAT     H224943   1.745   1.912   2.859
 7961WAT      O24944   2.466   2.971   2.011
 7961WAT     H124945   2.404   3.018   1.954
 7961WAT     H224946   2.517   3.040   2.052
 7962WAT      O24947   1.953   2.924   2.679
 7962WAT     H124948   1.919   2.987   2.743
 7962WAT     H224949   1.970   2.977   2.601
 7963WAT      O24950   2.804   2.305   2.425
 7963WAT     H124951   2.733   2.334   2.483
 7963WAT     H224952   2.840   2.386   2.389
 7964WAT      O24953   1.796   2.131   2.662
 7964WAT     H124954   1.830   2.215   2.632
 7964WAT     H224955   1.702   2.146   2.673
 7965WAT      O24956   1.874   3.121   2.860
 7965WAT     H124957   1.935   3.188   2.832
 7965WAT     H224958   1.788   3.162   2.851
 7966WAT      O24959   1.403   3.040   1.748
 7966WAT     H124960   1.365   3.089   1.675
 7966WAT     H224961   1.429   3.107   1.811
 7967WAT      O24962   2.966   3.267   2.652
 7967WAT     H124963   2.897   3.334   2.651
 7967WAT     H224964   3.019   3.287   2.575
 7968WAT      O24965   3.111   2.250   2.464
 7968WAT     H124966   3.016   2.253   2.478
 7968WAT     H224967   3.143   2.331   2.503
 7969WAT      O24968   2.164   1.880   2.294
 7969WAT     H124969   2.195   1.824   2.222
 7969WAT     H224970   2.071   1.893   2.276
 7970WAT      O24971   2.719   3.452   2.523
 7970WAT     H124972   2.720   3.411   2.436
 7970WAT     H224973   2.664   3.529   2.513
 7971WAT      O24974   2.849   3.124   2.032
 7971WAT     H124975   2.838   3.029   2.044
 7971WAT     H224976   2.848   3.160   2.121
 7972WAT      O24977   2.659   2.942   2.656
 7972WAT     H124978   2.701   2.920   2.572
 7972WAT     H224979   2.731   2.968   2.713
 7973WAT      O24980   2.403   2.686   1.968
 7973WAT     H124981   2.310   2.680   1.990
 7973WAT     H224982   2.418   2.780   1.956
 7974WAT      O24983   2.401   2.314   1.667
 7974WAT     H124984   2.307   2.330   1.676
 7974WAT     H224985   2.433   2.385   1.613
 7975WAT      O24986   3.054   2.782   2.665
 7975WAT     H124987   2.971   2.789   2.618
 7975WAT     H224988   3.113   2.840   2.618
 7976WAT      O24989   2.806   2.843   2.018
 7976WAT     H124990   2.744   2.809   1.953
 7976WAT     H224991   2.804   2.778   2.089
 7977WAT      O24992   2.750   2.460   2.760
 7977WAT     H124993   2.709   2.543   2.785
 7977WAT     H224994   2.677   2.402   2.740
 7978WAT      O24995   1.963   2.739   2.246
 7978WAT     H124996   1.923   2.668   2.196
 7978WAT     H224997   1.972   2.705   2.335
 7979WAT      O24998   2.010   3.108   2.462
 7979WAT     H124999   1.980   3.047   2.394
 7979WAT     H225000   2.105   3.111   2.451
 7980WAT      O25001   1.835   2.416   2.624
 7980WAT     H125002   1.890   2.427   2.546
 7980WAT     H225003   1.886   2.454   2.695
 7981WAT      O25004   2.819   3.465   2.828
 7981WAT     H125005   2.771   3.546   2.809
 7981WAT     H225006   2.751   3.400   2.844
 7982WAT      O25007   1.919   3.082   3.127
 7982WAT     H125008   1.830   3.104   3.152
 7982WAT     H225009   1.922   3.094   3.032
 7983WAT      O25010   2.623   2.766   1.719
 7983WAT     H125011   2.667   2.683   1.704
 7983WAT     H225012   2.695   2.830   1.727
 7984WAT      O25013   1.802   2.769   2.985
 7984WAT     H125014   1.788   2.856   3.022
 7984WAT     H225015   1.714   2.734   2.970
 7985WAT      O25016   2.434   3.260   2.115
 7985WAT     H125017   2.478   3.335   2.074
 7985WAT     H225018   2.428   3.285   2.208
 7986WAT      O25019   1.982   3.363   3.206
 7986WAT     H125020   1.979   3.403   3.119
 7986WAT     H225021   1.965   3.270   3.189
 7987WAT      O25022   2.982   1.892   1.550
 7987WAT     H125023   2.950   1.901   1.640
 7987WAT     H225024   3.058   1.950   1.545
 7988WAT      O25025   1.633   2.628   1.996
 7988WAT     H125026   1.621   2.701   1.935
 7988WAT     H225027   1.602   2.552   1.948
 7989WAT      O25028   1.397   2.946   2.577
 7989WAT     H125029   1.405   2.959   2.482
 7989WAT     H225030   1.459   2.875   2.596
 7990WAT      O25031   1.522   3.116   2.218
 7990WAT     H125032   1.481   3.130   2.132
 7990WAT     H225033   1.611   3.087   2.197
 7991WAT      O25034   3.117   3.160   3.051
 7991WAT     H125035   3.130   3.136   2.960
 7991WAT     H225036   3.122   3.077   3.099
 7992WAT      O25037   2.503   3.531   2.908
 7992WAT     H125038   2.555   3.522   2.989
 7992WAT     H225039   2.419   3.565   2.938
 7993WAT      O25040   2.701   3.559   1.851
 7993WAT     H125041   2.685   3.530   1.941
 7993WAT     H225042   2.685   3.482   1.798
 7994WAT      O25043   1.949   3.537   2.029
 7994WAT     H125044   1.931   3.445   2.008
 7994WAT     H225045   1.863   3.573   2.053
 7995WAT      O25046   2.671   3.310   1.707
 7995WAT     H125047   2.602   3.310   1.641
 7995WAT     H225048   2.746   3.268   1.664
 7996WAT      O25049   2.628   3.473   2.115
 7996WAT     H125050   2.673   3.395   2.146
 7996WAT     H225051   2.662   3.544   2.169
 7997WAT      O25052   1.403   3.050   2.830
 7997WAT     H125053   1.419   3.003   2.749
 7997WAT     H225054   1.449   2.999   2.897
 7998WAT      O25055   1.880   1.963   2.334
 7998WAT     H125056   1.836   2.041   2.301
 7998WAT     H225057   1.936   1.995   2.405
 7999WAT      O25058   2.309   2.250   2.894
 7999WAT     H125059   2.263   2.270   2.976
 7999WAT     H225060   2.268   2.168   2.864
 8000WAT      O25061   2.809   2.372   3.007
 8000WAT     H125062   2.724   2.342   3.040
 8000WAT     H225063   2.793   2.396   2.916
 8001WAT      O25064   2.518   2.522   3.217
 8001WAT     H125065   2.551   2.438   3.183
 8001WAT     H225066   2.597   2.574   3.232
 8002WAT      O25067   2.192   1.925   1.822
 8002WAT     H125068   2.129   1.925   1.895
 8002WAT     H225069   2.183   1.838   1.783
 8003WAT      O25070   2.084   2.017   2.520
 8003WAT     H125071   2.113   2.108   2.512
 8003WAT     H225072   2.139   1.968   2.459
 8004WAT      O25073   1.859   2.475   2.107
 8004WAT     H125074   1.837   2.454   2.197
 8004WAT     H225075   1.781   2.518   2.072
 8005WAT      O25076   2.582   2.476   1.967
 8005WAT     H125077   2.522   2.548   1.948
 8005WAT     H225078   2.637   2.470   1.889
 8006WAT      O25079   2.103   2.565   3.174
 8006WAT     H125080   2.094   2.471   3.159
 8006WAT     H225081   2.187   2.587   3.134
 8007WAT      O25082   2.443   2.339   2.170
 8007WAT     H125083   2.482   2.371   2.089
 8007WAT     H225084   2.479   2.252   2.181
 8008WAT      O25085   1.616   2.206   2.989
 8008WAT     H125086   1.577   2.291   3.010
 8008WAT     H225087   1.547   2.142   3.008
 8009WAT      O25088   2.274   2.215   3.296
 8009WAT     H125089   2.205   2.195   3.359
 8009WAT     H225090   2.348   2.243   3.349
 8010WAT      O25091   1.346   1.998   2.392
 8010WAT     H125092   1.318   2.055   2.463
 8010WAT     H225093   1.421   1.950   2.428
 8011WAT      O25094   1.365   2.393   1.513
 8011WAT     H125095   1.357   2.487   1.527
 8011WAT     H225096   1.330   2.378   1.425
 8012WAT      O25097   2.501   2.599   2.579
 8012WAT     H125098   2.428   2.649   2.614
 8012WAT     H225099   2.462   2.517   2.549
 8013WAT      O25100   2.145   2.266   2.420
 8013WAT     H125101   2.145   2.222   2.335
 8013WAT     H225102   2.235   2.298   2.431
 8014WAT      O25103   1.730   2.254   2.316
 8014WAT     H125104   1.696   2.302   2.391
 8014WAT     H225105   1.654   2.209   2.280
 8015WAT      O25106   2.151   2.366   1.719
 8015WAT     H125107   2.163   2.362   1.814
 8015WAT     H225108   2.113   2.452   1.703
 8016WAT      O25109   2.548   2.144   2.521
 8016WAT     H125110   2.549   2.189   2.605
 8016WAT     H225111   2.523   2.054   2.542
 8017WAT      O25112   2.053   2.597   1.659
 8017WAT     H125113   1.996   2.552   1.596
 8017WAT     H225114   2.123   2.633   1.605
 8018WAT      O25115   2.890   1.885   3.104
 8018WAT     H125116   2.923   1.812   3.157
 8018WAT     H225117   2.894   1.853   3.014
 8019WAT      O25118   1.560   2.987   3.046
 8019WAT     H125119   1.522   2.923   3.106
 8019WAT     H225120   1.591   3.058   3.103
 8020WAT      O25121   2.175   2.672   2.595
 8020WAT     H125122   2.212   2.625   2.669
 8020WAT     H225123   2.156   2.759   2.629
 8021WAT      O25124   1.462   2.146   2.207
 8021WAT     H125125   1.433   2.110   2.291
 8021WAT     H225126   1.455   2.073   2.146
 8022WAT      O25127   1.954   2.576   2.826
 8022WAT     H125128   1.924   2.664   2.849
 8022WAT     H225129   2.050   2.582   2.830
 8023WAT      O25130   1.807   2.997   1.886
 8023WAT     H125131   1.730   2.943   1.870
 8023WAT     H225132   1.880   2.945   1.852
 8024WAT      O25133   2.883   2.896   2.465
 8024WAT     H125134   2.955   2.946   2.426
 8024WAT     H225135   2.863   2.829   2.401
 8025WAT      O25136   2.429   2.036   1.880
 8025WAT     H125137   2.348   1.986   1.872
 8025WAT     H225138   2.410   2.120   1.838
 8026WAT      O25139   2.421   2.904   3.054
 8026WAT     H125140   2.414   2.811   3.029
 8026WAT     H225141   2.358   2.913   3.125
 8027WAT      O25142   2.700   2.473   1.709
 8027WAT     H125143   2.789   2.504   1.692
 8027WAT     H225144   2.698   2.386   1.670
 8028WAT      O25145   1.811   2.964   2.250
 8028WAT     H125146   1.863   2.883   2.244
 8028WAT     H225147   1.766   2.957   2.334
 8029WAT      O25148   2.300   3.090   1.777
 8029WAT     H125149   2.334   3.165   1.728
 8029WAT     H225150   2.217   3.122   1.813
 8030WAT      O25151   1.560   2.660   2.941
 8030WAT     H125152   1.524   2.727   3.000
 8030WAT     H225153   1.530   2.577   2.978
 8031WAT      O25154   1.880   2.706   3.229
 8031WAT     H125155   1.850   2.721   3.140
 8031WAT     H225156   1.957   2.650   3.220
 8032WAT      O25157   2.414   3.186   3.029
 8032WAT     H125158   2.416   3.093   3.007
 8032WAT     H225159   2.343   3.194   3.093
 8033WAT      O25160   2.928   2.604   1.656
 8033WAT     H125161   2.919   2.647   1.571
 8033WAT     H225162   3.000   2.650   1.699
 8034WAT      O25163   3.035   2.850   2.964
 8034WAT     H125164   2.963   2.909   2.944
 8034WAT     H225165   3.088   2.849   2.884
 8035WAT      O25166   3.030   3.290   1.929
 8035WAT     H125167   2.966   3.224   1.956
 8035WAT     H225168   2.992   3.330   1.851
 8036WAT      O25169   2.588   3.022   2.314
 8036WAT     H125170   2.624   2.963   2.248
 8036WAT     H225171   2.500   2.990   2.331
 8037WAT      O25172   2.197   3.098   2.054
 8037WAT     H125173   2.266   3.153   2.092
 8037WAT     H225174   2.118   3.153   2.058
 8038WAT      O25175   1.411   2.660   1.603
 8038WAT     H125176   1.498   2.688   1.632
 8038WAT     H225177   1.362   2.741   1.592
 8039WAT      O25178   2.127   2.799   2.016
 8039WAT     H125179   2.173   2.880   2.038
 8039WAT     H225180   2.092   2.767   2.099
 8040WAT      O25181   2.358   3.350   2.738
 8040WAT     H125182   2.422   3.370   2.806
 8040WAT     H225183   2.394   3.274   2.693
 8041WAT      O25184   1.717   1.833   2.063
 8041WAT     H125185   1.705   1.832   2.158
 8041WAT     H225186   1.635   1.867   2.028
 8042WAT      O25187   2.485   3.150   2.610
 8042WAT     H125188   2.549   3.080   2.622
 8042WAT     H225189   2.537   3.228   2.592
 8043WAT      O25190   2.869   3.179   1.583
 8043WAT     H125191   2.847   3.107   1.642
 8043WAT     H225192   2.830   3.154   1.499
 8044WAT      O25193   2.662   3.230   2.931
 8044WAT     H125194   2.696   3.289   2.998
 8044WAT     H225195   2.570   3.217   2.954
 8045WAT      O25196   1.448   3.581   1.660
 8045WAT     H125197   1.484   3.641   1.595
 8045WAT     H225198   1.434   3.636   1.737
 8046WAT      O25199   1.417   2.009   3.009
 8046WAT     H125200   1.346   2.029   3.069
 8046WAT     H225201   1.459   1.932   3.046
 8047WAT      O25202   2.828   2.970   1.749
 8047WAT     H125203   2.799   3.017   1.828
 8047WAT     H225204   2.907   2.924   1.776
 8048WAT      O25205   1.446   3.408   3.107
 8048WAT     H125206   1.457   3.314   3.093
 8048WAT     H225207   1.381   3.434   3.043
 8049WAT      O25208   2.245   3.235   3.247
 8049WAT     H125209   2.213   3.163   3.302
 8049WAT     H225210   2.178   3.303   3.255
 8050WAT      O25211   2.049   3.320   1.742
 8050WAT     H125212   2.048   3.393   1.680
 8050WAT     H225213   1.957   3.295   1.751
 8051WAT      O25214   1.609   2.842   1.816
 8051WAT     H125215   1.549   2.916   1.817
 8051WAT     H225216   1.657   2.851   1.734
 8052WAT      O25217   2.567   2.258   2.784
 8052WAT     H125218   2.603   2.176   2.817
 8052WAT     H225219   2.481   2.264   2.825
 8053WAT      O25220   2.903   2.154   1.865
 8053WAT     H125221   2.840   2.164   1.793
 8053WAT     H225222   2.854   2.176   1.944
 8054WAT      O25223   2.348   3.326   1.608
 8054WAT     H125224   2.358   3.306   1.515
 8054WAT     H225225   2.258   3.301   1.629
 8055WAT      O25226   2.100   2.382   2.006
 8055WAT     H125227   2.029   2.429   2.050
 8055WAT     H225228   2.129   2.316   2.070
 8056WAT      O25229   2.263   2.524   2.806
 8056WAT     H125230   2.313   2.571   2.873
 8056WAT     H225231   2.277   2.431   2.827
 8057WAT      O25232   2.503   2.054   2.150
 8057WAT     H125233   2.491   2.056   2.055
 8057WAT     H225234   2.598   2.059   2.162
 8058WAT      O25235   2.212   3.578   2.078
 8058WAT     H125236   2.237   3.574   1.985
 8058WAT     H225237   2.117   3.565   2.077
 8059WAT      O25238   1.920   2.213   1.744
 8059WAT     H125239   2.005   2.256   1.737
 8059WAT     H225240   1.884   2.244   1.827
 8060WAT      O25241   2.983   2.145   2.890
 8060WAT     H125242   2.933   2.219   2.924
 8060WAT     H225243   3.065   2.184   2.859
 8061WAT      O25244   2.813   2.670   2.235
 8061WAT     H125245   2.718   2.671   2.253
 8061WAT     H225246   2.844   2.591   2.280
 8062WAT      O25247   1.810   2.838   1.591
 8062WAT     H125248   1.887   2.827   1.647
 8062WAT     H225249   1.818   2.768   1.526
 8063WAT      O25250   1.680   2.581   1.659
 8063WAT     H125251   1.688   2.486   1.671
 8063WAT     H225252   1.769   2.614   1.670
 8064WAT      O25253   3.013   3.387   2.403
 8064WAT     H125254   3.025   3.469   2.450
 8064WAT     H225255   3.100   3.366   2.368
 8065WAT      O25256   1.760   3.596   2.370
 8065WAT     H125257   1.834   3.541   2.397
 8065WAT     H225258   1.798   3.683   2.356
 8066WAT      O25259   1.448   3.203   1.957
 8066WAT     H125260   1.356   3.227   1.956
 8066WAT     H225261   1.495   3.286   1.945
 8067WAT      O25262   1.661   3.515   3.289
 8067WAT     H125263   1.741   3.547   3.330
 8067WAT     H225264   1.609   3.479   3.361
 8068WAT      O25265   2.071   3.513   1.552
 8068WAT     H125266   2.150   3.542   1.507
 8068WAT     H225267   2.019   3.470   1.484
 8069WAT      O25268   2.544   3.125   3.283
 8069WAT     H125269   2.484   3.128   3.209
 8069WAT     H225270   2.514   3.052   3.337
 8070WAT      O25271   2.687   3.498   3.145
 8070WAT     H125272   2.782   3.490   3.140
 8070WAT     H225273   2.673   3.565   3.212
 8071WAT      O25274   2.976   3.436   1.694
 8071WAT     H125275   2.948   3.395   1.613
 8071WAT     H225276   2.957   3.529   1.682
 8072WAT      O25277   1.433   2.763   3.183
 8072WAT     H125278   1.483   2.705   3.240
 8072WAT     H225279   1.359   2.792   3.237
 8073WAT      O25280   2.123   3.035   1.538
 8073WAT     H125281   2.112   2.974   1.611
 8073WAT     H225282   2.106   2.983   1.460
 8074WAT      O25283   2.138   2.904   3.136
 8074WAT     H125284   2.061   2.961   3.128
 8074WAT     H225285   2.156   2.875   3.047
 8075WAT      O25286   2.447   2.942   1.599
 8075WAT     H125287   2.392   2.986   1.663
 8075WAT     H225288   2.509   2.891   1.651
 8076WAT      O25289   2.852   3.077   3.192
 8076WAT     H125290   2.926   3.111   3.142
 8076WAT     H225291   2.776   3.094   3.137
 8077WAT      O25292   1.636   2.578   3.273
 8077WAT     H125293   1.640   2.548   3.363
 8077WAT     H225294   1.721   2.618   3.257
 8078WAT      O25295   2.014   2.838   1.789
 8078WAT     H125296   2.056   2.821   1.873
 8078WAT     H225297   2.026   2.757   1.739
 8079WAT      O25298   1.830   2.436   3.069
 8079WAT     H125299   1.777   2.386   3.007
 8079WAT     H225300   1.897   2.478   3.016
 8080WAT      O25301   2.265   2.740   1.513
 8080WAT     H125302   2.317   2.668   1.477
 8080WAT     H225303   2.330   2.804   1.543
 8081WAT      O25304   2.720   2.882   3.046
 8081WAT     H125305   2.761   2.898   3.131
 8081WAT     H225306   2.626   2.895   3.062
 8082WAT      O25307   2.767   2.616   3.246
 8082WAT     H125308   2.825   2.541   3.237
 8082WAT     H225309   2.784   2.669   3.168
 8083WAT      O25310   1.879   2.132   3.077
 8083WAT     H125311   1.869   2.070   3.005
 8083WAT     H225312   1.821   2.205   3.055
 8084WAT      O25313   2.155   1.988   2.781
 8084WAT     H125314   2.110   1.990   2.696
 8084WAT     H225315   2.092   1.948   2.840
 8085WAT      O25316   2.196   2.877   2.843
 8085WAT     H125317   2.238   2.962   2.825
 8085WAT     H225318   2.104   2.891   2.820
 8086WAT      O25319   2.429   2.651   2.981
 8086WAT     H125320   2.441   2.591   3.055
 8086WAT     H225321   2.515   2.654   2.939
 8087WAT      O25322   2.663   2.706   2.839
 8087WAT     H125323   2.611   2.758   2.778
 8087WAT     H225324   2.698   2.769   2.902
 8088WAT      O25325   1.903   2.445   1.483
 8088WAT     H125326   1.883   2.359   1.519
 8088WAT     H225327   1.886   2.436   1.389
 8089WAT      O25328   1.981   3.508   2.954
 8089WAT     H125329   1.927   3.580   2.922
 8089WAT     H225330   2.006   3.460   2.875
 8090WAT      O25331   2.106   2.305   3.107
 8090WAT     H125332   2.165   2.274   3.176
 8090WAT     H225333   2.024   2.258   3.122
 8091WAT      O25334   2.588   2.266   3.130
 8091WAT     H125335   2.519   2.200   3.124
 8091WAT     H225336   2.660   2.222   3.175
 8092WAT      O25337   2.651   1.926   1.736
 8092WAT     H125338   2.679   1.842   1.772
 8092WAT     H225339   2.574   1.949   1.787
 8093WAT      O25340   1.783   2.155   1.482
 8093WAT     H125341   1.813   2.156   1.391
 8093WAT     H225342   1.857   2.120   1.532
 8094WAT      O25343   2.267   3.631   2.980
 8094WAT     H125344   2.259   3.722   3.011
 8094WAT     H225345   2.176   3.600   2.977
 8095WAT      O25346   2.105   2.049   1.580
 8095WAT     H125347   2.070   1.982   1.523
 8095WAT     H225348   2.125   2.003   1.662
 8096WAT      O25349   2.321   3.548   1.742
 8096WAT     H125350   2.411   3.582   1.745
 8096WAT     H225351   2.325   3.476   1.680
 8097WAT      O25352   1.685   3.085   1.565
 8097WAT     H125353   1.729   3.140   1.631
 8097WAT     H225354   1.734   3.003   1.566
 8098WAT      O25355   1.407   3.364   2.310
 8098WAT     H125356   1.440   3.277   2.287
 8098WAT     H225357   1.450   3.385   2.393
 8099WAT      O25358   1.866   3.197   2.076
 8099WAT     H125359   1.836   3.185   2.166
 8099WAT     H225360   1.856   3.111   2.036
 8100WAT      O25361   1.456   3.451   2.584
 8100WAT     H125362   1.412   3.469   2.667
 8100WAT     H225363   1.512   3.527   2.570
 8101WAT      O25364   3.019   3.401   3.013
 8101WAT     H125365   2.959   3.407   2.939
 8101WAT     H225366   3.032   3.307   3.026
 8102WAT      O25367   3.143   3.175   1.547
 8102WAT     H125368   3.060   3.182   1.594
 8102WAT     H225369   3.161   3.264   1.516
 8103WAT      O25370   3.089   2.850   1.797
 8103WAT     H125371   3.165   2.907   1.808
 8103WAT     H225372   3.090   2.793   1.874
 8104WAT      O25373   1.439   2.702   2.220
 8104WAT     H125374   1.373   2.675   2.156
 8104WAT     H225375   1.523   2.691   2.175
 8105WAT      O25376   3.189   2.935   2.281
 8105WAT     H125377   3.227   2.857   2.241
 8105WAT     H225378   3.254   3.004   2.264
 8106WAT      O25379   2.888   3.074   2.823
 8106WAT     H125380   2.806   3.117   2.849
 8106WAT     H225381   2.929   3.135   2.761
 8107WAT      O25382   3.094   2.879   1.513
 8107WAT     H125383   3.122   2.970   1.500
 8107WAT     H225384   3.075   2.873   1.606
 8108WAT      O25385   2.734   2.182   1.642
 8108WAT     H125386   2.776   2.163   1.558
 8108WAT     H225387   2.703   2.096   1.673
 8109WAT      O25388   3.084   2.673   2.012
 8109WAT     H125389   3.046   2.596   1.969
 8109WAT     H225390   3.011   2.711   2.061
 8110WAT      O25391   1.543   2.741   2.674
 8110WAT     H125392   1.579   2.732   2.762
 8110WAT     H225393   1.486   2.664   2.664
 8111WAT      O25394   3.023   2.588   2.975
 8111WAT     H125395   3.000   2.565   2.885
 8111WAT     H225396   3.049   2.680   2.971
 8112WAT      O25397   1.498   2.432   3.065
 8112WAT     H125398   1.408   2.428   3.099
 8112WAT     H225399   1.552   2.452   3.141
 8113WAT      O25400   1.360   2.423   1.814
 8113WAT     H125401   1.270   2.449   1.797
 8113WAT     H225402   1.409   2.450   1.736
 8114WAT      O25403   3.011   2.495   2.342
 8114WAT     H125404   3.064   2.446   2.279
 8114WAT     H225405   3.070   2.509   2.417
 8115WAT      O25406   3.029   2.504   2.694
 8115WAT     H125407   2.934   2.500   2.706
 8115WAT     H225408   3.047   2.595   2.671
 8116WAT      O25409   1.615   2.329   1.605
 8116WAT     H125410   1.685   2.287   1.557
 8116WAT     H225411   1.543   2.336   1.542
 8117WAT      O25412   1.579   1.934   1.509
 8117WAT     H125413   1.652   1.988   1.541
 8117WAT     H225414   1.607   1.907   1.422
 8118WAT      O25415   2.960   2.421   1.936
 8118WAT     H125416   3.010   2.398   2.015
 8118WAT     H225417   2.940   2.337   1.894
 8119WAT      O25418   1.548   1.859   2.500
 8119WAT     H125419   1.613   1.804   2.456
 8119WAT     H225420   1.590   1.885   2.582
 8120WAT      O25421   3.103   2.285   2.189
 8120WAT     H125422   3.092   2.269   2.283
 8120WAT     H225423   3.179   2.232   2.165
 8121WAT      O25424   2.938   1.879   2.835
 8121WAT     H125425   3.001   1.940   2.872
 8121WAT     H225426   2.953   1.882   2.741
 8122WAT      O25427   3.192   2.068   1.514
 8122WAT     H125428   3.285   2.055   1.493
 8122WAT     H225429   3.190   2.076   1.609
 8123WAT      O25430   3.199   2.145   1.776
 8123WAT     H125431   3.120   2.138   1.829
 8123WAT     H225432   3.220   2.238   1.775
 8124WAT      O25433   2.894   3.549   2.175
 8124WAT     H125434   2.953   3.517   2.108
 8124WAT     H225435   2.919   3.502   2.255
 8125WAT      O25436   1.524   1.875   2.774
 8125WAT     H125437   1.489   1.920   2.850
 8125WAT     H225438   1.490   1.785   2.782
 8126WAT      O25439   1.684   3.192   3.190
 8126WAT     H125440   1.680   3.155   3.279
 8126WAT     H225441   1.697   3.286   3.204
 8127WAT      O25442   2.054   3.348   2.750
 8127WAT     H125443   2.030   3.374   2.662
 8127WAT     H225444   2.148   3.365   2.756
 8128WAT      O25445   2.275   1.994   3.126
 8128WAT     H125446   2.269   2.053   3.201
 8128WAT     H225447   2.369   1.983   3.112
 8129WAT      O25448   2.539   1.960   3.090
 8129WAT     H125449   2.600   1.991   3.024
 8129WAT     H225450   2.593   1.911   3.152
 8130WAT      O25451   3.180   3.550   2.831
 8130WAT     H125452   3.131   3.589   2.759
 8130WAT     H225453   3.119   3.487   2.870
 8131WAT      O25454   1.591   1.828   3.101
 8131WAT     H125455   1.646   1.809   3.025
 8131WAT     H225456   1.597   1.749   3.155
 8132WAT      O25457   1.668   3.487   2.902
 8132WAT     H125458   1.609   3.473   2.976
 8132WAT     H225459   1.667   3.403   2.856
 8133WAT      O25460   2.613   1.816   2.723
 8133WAT     H125461   2.525   1.849   2.702
 8133WAT     H225462   2.602   1.769   2.805
 8134WAT      O25463   2.703   2.037   2.861
 8134WAT     H125464   2.670   1.955   2.823
 8134WAT     H225465   2.798   2.032   2.849
 8135WAT      O25466   2.949   3.614   2.558
 8135WAT     H125467   2.903   3.689   2.521
 8135WAT     H225468   2.886   3.542   2.553
 8136WAT      O25469   1.631   3.223   2.797
 8136WAT     H125470   1.559   3.161   2.791
 8136WAT     H225471   1.637   3.263   2.710
 8137WAT      O25472   1.992   3.445   2.476
 8137WAT     H125473   2.043   3.384   2.423
 8137WAT     H225474   2.057   3.495   2.525
 8138WAT      O25475   2.266   3.534   2.559
 8138WAT     H125476   2.294   3.508   2.471
 8138WAT     H225477   2.317   3.479   2.618
 8139WAT      O25478   2.387   1.908   2.617
 8139WAT     H125479   2.309   1.955   2.645
 8139WAT     H225480   2.358   1.817   2.606
 8140WAT      O25481   2.843   1.978   2.421
 8140WAT     H125482   2.887   1.972   2.336
 8140WAT     H225483   2.816   2.069   2.428
 8141WAT      O25484   3.029   1.941   2.222
 8141WAT     H125485   3.023   1.847   2.207
 8141WAT     H225486   3.107   1.952   2.277
 8142WAT      O25487   1.460   3.555   2.118
 8142WAT     H125488   1.443   3.492   2.188
 8142WAT     H225489   1.373   3.576   2.083
 8143WAT      O25490   1.522   1.938   1.869
 8143WAT     H125491   1.598   1.949   1.811
 8143WAT     H225492   1.476   2.022   1.864
 8144WAT      O25493   2.176   2.150   2.168
 8144WAT     H125494   2.095   2.112   2.134
 8144WAT     H225495   2.226   2.074   2.198
 8145WAT      O25496   2.626   1.816   2.292
 8145WAT     H125497   2.686   1.873   2.339
 8145WAT     H225498   2.552   1.872   2.269
 8146WAT      O25499   2.941   1.856   1.819
 8146WAT     H125500   2.960   1.946   1.846
 8146WAT     H225501   2.862   1.833   1.868
 8147WAT      O25502   1.620   3.424   1.863
 8147WAT     H125503   1.568   3.462   1.793
 8147WAT     H225504   1.613   3.487   1.935
 8148WAT      O25505   1.759   1.991   1.723
 8148WAT     H125506   1.812   1.912   1.710
 8148WAT     H225507   1.822   2.059   1.746
 8149WAT      O25508   1.978   1.965   2.028
 8149WAT     H125509   1.915   1.894   2.045
 8149WAT     H225510   1.924   2.041   2.007
 8150WAT      O25511   2.272   3.626   3.295
 8150WAT     H125512   2.365   3.602   3.300
 8150WAT     H225513   2.271   3.709   3.247
 8151WAT      O25514   3.096   3.580   1.995
 8151WAT     H125515   3.113   3.512   1.931
 8151WAT     H225516   3.026   3.633   1.956
 8152WAT      O25517   1.991   1.892   3.272
 8152WAT     H125518   1.963   1.943   3.195
 8152WAT     H225519   2.029   1.813   3.235
 8153WAT      O25520   1.880   3.619   1.750
 8153WAT     H125521   1.953   3.591   1.696
 8153WAT     H225522   1.906   3.595   1.839
 8154WAT      O25523   1.796   3.231   1.751
 8154WAT     H125524   1.733   3.278   1.806
 8154WAT     H225525   1.808   3.146   1.794
 8155WAT      O25526   2.651   1.834   3.330
 8155WAT     H125527   2.640   1.866   3.419
 8155WAT     H225528   2.733   1.874   3.300
 8156WAT      O25529   2.542   2.636   0.366
 8156WAT     H125530   2.534   2.544   0.339
 8156WAT     H225531   2.500   2.685   0.295
 8157WAT      O25532   2.355   2.814   0.554
 8157WAT     H125533   2.277   2.766   0.583
 8157WAT     H225534   2.420   2.746   0.537
 8158WAT      O25535   1.757   2.845   0.642
 8158WAT     H125536   1.673   2.819   0.682
 8158WAT     H225537   1.817   2.852   0.715
 8159WAT      O25538   2.757   3.254   0.432
 8159WAT     H125539   2.711   3.177   0.465
 8159WAT     H225540   2.838   3.257   0.482
 8160WAT      O25541   1.755   3.248   0.661
 8160WAT     H125542   1.785   3.159   0.643
 8160WAT     H225543   1.829   3.304   0.639
 8161WAT      O25544   1.394   2.601   0.609
 8161WAT     H125545   1.451   2.524   0.609
 8161WAT     H225546   1.394   2.631   0.518
 8162WAT      O25547   2.380   3.483   0.394
 8162WAT     H125548   2.318   3.528   0.337
 8162WAT     H225549   2.465   3.498   0.354
 8163WAT      O25550   2.299   3.081   0.555
 8163WAT     H125551   2.292   2.987   0.539
 8163WAT     H225552   2.375   3.090   0.612
 8164WAT      O25553   1.518   2.142   0.787
 8164WAT     H125554   1.500   2.052   0.815
 8164WAT     H225555   1.478   2.196   0.855
 8165WAT      O25556   2.402   2.362   0.577
 8165WAT     H125557   2.440   2.275   0.566
 8165WAT     H225558   2.392   2.395   0.488
 8166WAT      O25559   2.780   2.111   0.271
 8166WAT     H125560   2.862   2.062   0.275
 8166WAT     H225561   2.784   2.170   0.346
 8167WAT      O25562   1.580   2.391   0.648
 8167WAT     H125563   1.648   2.418   0.710
 8167WAT     H225564   1.548   2.307   0.681
 8168WAT      O25565   1.999   2.496   0.557
 8168WAT     H125566   2.050   2.546   0.621
 8168WAT     H225567   2.052   2.418   0.539
 8169WAT      O25568   3.209   2.313   0.927
 8169WAT     H125569   3.139   2.352   0.875
 8169WAT     H225570   3.236   2.383   0.987
 8170WAT      O25571   1.828   1.960   0.983
 8170WAT     H125572   1.828   2.012   0.903
 8170WAT     H225573   1.745   1.912   0.981
 8171WAT      O25574   1.953   2.924   0.801
 8171WAT     H125575   1.919   2.987   0.865
 8171WAT     H225576   1.970   2.977   0.723
 8172WAT      O25577   2.804   2.305   0.548
 8172WAT     H125578   2.733   2.334   0.606
 8172WAT     H225579   2.840   2.386   0.512
 8173WAT      O25580   1.796   2.131   0.784
 8173WAT     H125581   1.830   2.215   0.755
 8173WAT     H225582   1.702   2.146   0.796
 8174WAT      O25583   1.874   3.121   0.983
 8174WAT     H125584   1.935   3.188   0.954
 8174WAT     H225585   1.788   3.162   0.974
 8175WAT      O25586   2.966   3.267   0.774
 8175WAT     H125587   2.897   3.334   0.773
 8175WAT     H225588   3.019   3.287   0.698
 8176WAT      O25589   3.111   2.250   0.587
 8176WAT     H125590   3.016   2.253   0.600
 8176WAT     H225591   3.143   2.331   0.625
 8177WAT      O25592   2.164   1.880   0.417
 8177WAT     H125593   2.195   1.824   0.345
 8177WAT     H225594   2.071   1.893   0.398
 8178WAT      O25595   2.719   3.452   0.646
 8178WAT     H125596   2.720   3.411   0.559
 8178WAT     H225597   2.664   3.529   0.635
 8179WAT      O25598   2.659   2.942   0.778
 8179WAT     H125599   2.701   2.920   0.695
 8179WAT     H225600   2.731   2.968   0.836
 8180WAT      O25601   3.054   2.782   0.788
 8180WAT     H125602   2.971   2.789   0.740
 8180WAT     H225603   3.113   2.840   0.741
 8181WAT      O25604   2.750   2.460   0.882
 8181WAT     H125605   2.709   2.543   0.908
 8181WAT     H225606   2.677   2.402   0.863
 8182WAT      O25607   1.963   2.739   0.368
 8182WAT     H125608   1.923   2.668   0.319
 8182WAT     H225609   1.972   2.705   0.457
 8183WAT      O25610   2.010   3.108   0.585
 8183WAT     H125611   1.980   3.047   0.517
 8183WAT     H225612   2.105   3.111   0.574
 8184WAT      O25613   1.835   2.416   0.746
 8184WAT     H125614   1.890   2.427   0.669
 8184WAT     H225615   1.886   2.454   0.818
 8185WAT      O25616   2.819   3.465   0.951
 8185WAT     H125617   2.771   3.546   0.932
 8185WAT     H225618   2.751   3.400   0.966
 8186WAT      O25619   1.919   3.082   1.250
 8186WAT     H125620   1.830   3.104   1.275
 8186WAT     H225621   1.922   3.094   1.155
 8187WAT      O25622   1.802   2.769   1.107
 8187WAT     H125623   1.788   2.856   1.144
 8187WAT     H225624   1.714   2.734   1.093
 8188WAT      O25625   2.434   3.260   0.238
 8188WAT     H125626   2.478   3.335   0.197
 8188WAT     H225627   2.428   3.285   0.330
 8189WAT      O25628   1.982   3.363   1.328
 8189WAT     H125629   1.979   3.403   1.242
 8189WAT     H225630   1.965   3.270   1.312
 8190WAT      O25631   3.177   3.441   1.458
 8190WAT     H125632   3.225   3.489   1.526
 8190WAT     H225633   3.239   3.434   1.385
 8191WAT      O25634   1.397   2.946   0.699
 8191WAT     H125635   1.405   2.959   0.605
 8191WAT     H225636   1.459   2.875   0.718
 8192WAT      O25637   1.522   3.116   0.340
 8192WAT     H125638   1.481   3.130   0.255
 8192WAT     H225639   1.611   3.087   0.320
 8193WAT      O25640   3.117   3.160   1.174
 8193WAT     H125641   3.130   3.136   1.082
 8193WAT     H225642   3.122   3.077   1.221
 8194WAT      O25643   2.503   3.531   1.031
 8194WAT     H125644   2.555   3.522   1.111
 8194WAT     H225645   2.419   3.565   1.060
 8195WAT      O25646   2.628   3.473   0.237
 8195WAT     H125647   2.673   3.395   0.269
 8195WAT     H225648   2.662   3.544   0.292
 8196WAT      O25649   3.103   2.366   1.270
 8196WAT     H125650   3.041   2.416   1.218
 8196WAT     H225651   3.071   2.276   1.265
 8197WAT      O25652   1.403   3.050   0.953
 8197WAT     H125653   1.419   3.003   0.871
 8197WAT     H225654   1.449   2.999   1.020
 8198WAT      O25655   1.880   1.963   0.457
 8198WAT     H125656   1.836   2.041   0.424
 8198WAT     H225657   1.936   1.995   0.527
 8199WAT      O25658   2.309   2.250   1.017
 8199WAT     H125659   2.263   2.270   1.098
 8199WAT     H225660   2.268   2.168   0.987
 8200WAT      O25661   2.809   2.372   1.130
 8200WAT     H125662   2.724   2.342   1.162
 8200WAT     H225663   2.793   2.396   1.039
 8201WAT      O25664   2.518   2.522   1.340
 8201WAT     H125665   2.551   2.438   1.306
 8201WAT     H225666   2.597   2.574   1.355
 8202WAT      O25667   2.084   2.017   0.643
 8202WAT     H125668   2.113   2.108   0.634
 8202WAT     H225669   2.139   1.968   0.581
 8203WAT      O25670   1.859   2.475   0.229
 8203WAT     H125671   1.837   2.454   0.320
 8203WAT     H225672   1.781   2.518   0.195
 8204WAT      O25673   2.103   2.565   1.296
 8204WAT     H125674   2.094   2.471   1.281
 8204WAT     H225675   2.187   2.587   1.257
 8205WAT      O25676   2.443   2.339   0.292
 8205WAT     H125677   2.482   2.371   0.211
 8205WAT     H225678   2.479   2.252   0.304
 8206WAT      O25679   1.616   2.206   1.111
 8206WAT     H125680   1.577   2.291   1.132
 8206WAT     H225681   1.547   2.142   1.130
 8207WAT      O25682   2.274   2.215   1.418
 8207WAT     H125683   2.205   2.195   1.482
 8207WAT     H225684   2.348   2.243   1.472
 8208WAT      O25685   1.346   1.998   0.515
 8208WAT     H125686   1.318   2.055   0.586
 8208WAT     H225687   1.421   1.950   0.551
 8209WAT      O25688   2.501   2.599   0.702
 8209WAT     H125689   2.428   2.649   0.737
 8209WAT     H225690   2.462   2.517   0.672
 8210WAT      O25691   2.145   2.266   0.542
 8210WAT     H125692   2.145   2.222   0.457
 8210WAT     H225693   2.235   2.298   0.553
 8211WAT      O25694   1.730   2.254   0.438
 8211WAT     H125695   1.696   2.302   0.514
 8211WAT     H225696   1.654   2.209   0.402
 8212WAT      O25697   2.548   2.144   0.643
 8212WAT     H125698   2.549   2.189   0.728
 8212WAT     H225699   2.523   2.054   0.664
 8213WAT      O25700   2.890   1.885   1.227
 8213WAT     H125701   2.923   1.812   1.280
 8213WAT     H225702   2.894   1.853   1.137
 8214WAT      O25703   1.560   2.987   1.169
 8214WAT     H125704   1.522   2.923   1.229
 8214WAT     H225705   1.591   3.058   1.226
 8215WAT      O25706   2.175   2.672   0.717
 8215WAT     H125707   2.212   2.625   0.792
 8215WAT     H225708   2.156   2.759   0.751
 8216WAT      O25709   1.462   2.146   0.330
 8216WAT     H125710   1.433   2.110   0.414
 8216WAT     H225711   1.455   2.073   0.269
 8217WAT      O25712   1.954   2.576   0.949
 8217WAT     H125713   1.924   2.664   0.971
 8217WAT     H225714   2.050   2.582   0.953
 8218WAT      O25715   2.883   2.896   0.588
 8218WAT     H125716   2.955   2.946   0.549
 8218WAT     H225717   2.863   2.829   0.523
 8219WAT      O25718   2.421   2.904   1.177
 8219WAT     H125719   2.414   2.811   1.151
 8219WAT     H225720   2.358   2.913   1.248
 8220WAT      O25721   1.811   2.964   0.372
 8220WAT     H125722   1.863   2.883   0.367
 8220WAT     H225723   1.766   2.957   0.457
 8221WAT      O25724   1.560   2.660   1.064
 8221WAT     H125725   1.524   2.727   1.122
 8221WAT     H225726   1.530   2.577   1.101
 8222WAT      O25727   1.880   2.706   1.352
 8222WAT     H125728   1.850   2.721   1.262
 8222WAT     H225729   1.957   2.650   1.343
 8223WAT      O25730   2.414   3.186   1.152
 8223WAT     H125731   2.416   3.093   1.130
 8223WAT     H225732   2.343   3.194   1.215
 8224WAT      O25733   3.035   2.850   1.086
 8224WAT     H125734   2.963   2.909   1.067
 8224WAT     H225735   3.088   2.849   1.006
 8225WAT      O25736   2.588   3.022   0.436
 8225WAT     H125737   2.624   2.963   0.370
 8225WAT     H225738   2.500   2.990   0.453
 8226WAT      O25739   2.197   3.098   0.177
 8226WAT     H125740   2.266   3.153   0.215
 8226WAT     H225741   2.118   3.153   0.180
 8227WAT      O25742   2.358   3.350   0.861
 8227WAT     H125743   2.422   3.370   0.929
 8227WAT     H225744   2.394   3.274   0.816
 8228WAT      O25745   2.485   3.150   0.733
 8228WAT     H125746   2.549   3.080   0.744
 8228WAT     H225747   2.537   3.228   0.715
 8229WAT      O25748   2.662   3.230   1.053
 8229WAT     H125749   2.696   3.289   1.121
 8229WAT     H225750   2.570   3.217   1.076
 8230WAT      O25751   1.417   2.009   1.131
 8230WAT     H125752   1.346   2.029   1.192
 8230WAT     H225753   1.459   1.932   1.169
 8231WAT      O25754   1.446   3.408   1.230
 8231WAT     H125755   1.457   3.314   1.216
 8231WAT     H225756   1.381   3.434   1.165
 8232WAT      O25757   2.245   3.235   1.370
 8232WAT     H125758   2.213   3.163   1.424
 8232WAT     H225759   2.178   3.303   1.377
 8233WAT      O25760   2.567   2.258   0.906
 8233WAT     H125761   2.603   2.176   0.939
 8233WAT     H225762   2.481   2.264   0.948
 8234WAT      O25763   2.263   2.524   0.929
 8234WAT     H125764   2.313   2.571   0.995
 8234WAT     H225765   2.277   2.431   0.949
 8235WAT      O25766   2.503   2.054   0.273
 8235WAT     H125767   2.491   2.056   0.178
 8235WAT     H225768   2.598   2.059   0.285
 8236WAT      O25769   2.983   2.145   1.013
 8236WAT     H125770   2.933   2.219   1.047
 8236WAT     H225771   3.065   2.184   0.981
 8237WAT      O25772   2.813   2.670   0.358
 8237WAT     H125773   2.718   2.671   0.375
 8237WAT     H225774   2.844   2.591   0.402
 8238WAT      O25775   3.013   3.387   0.525
 8238WAT     H125776   3.025   3.469   0.572
 8238WAT     H225777   3.100   3.366   0.490
 8239WAT      O25778   1.760   3.596   0.492
 8239WAT     H125779   1.834   3.541   0.519
 8239WAT     H225780   1.798   3.683   0.478
 8240WAT      O25781   1.661   3.515   1.411
 8240WAT     H125782   1.741   3.547   1.453
 8240WAT     H225783   1.609   3.479   1.483
 8241WAT      O25784   2.544   3.125   1.406
 8241WAT     H125785   2.484   3.128   1.332
 8241WAT     H225786   2.514   3.052   1.460
 8242WAT      O25787   2.687   3.498   1.267
 8242WAT     H125788   2.782   3.490   1.262
 8242WAT     H225789   2.673   3.565   1.334
 8243WAT      O25790   1.433   2.763   1.306
 8243WAT     H125791   1.483   2.705   1.363
 8243WAT     H225792   1.359   2.792   1.359
 8244WAT      O25793   2.138   2.904   1.259
 8244WAT     H125794   2.061   2.961   1.250
 8244WAT     H225795   2.156   2.875   1.170
 8245WAT      O25796   2.852   3.077   1.315
 8245WAT     H125797   2.926   3.111   1.264
 8245WAT     H225798   2.776   3.094   1.259
 8246WAT      O25799   1.636   2.578   1.395
 8246WAT     H125800   1.640   2.548   1.486
 8246WAT     H225801   1.721   2.618   1.379
 8247WAT      O25802   1.830   2.436   1.192
 8247WAT     H125803   1.777   2.386   1.129
 8247WAT     H225804   1.897   2.478   1.138
 8248WAT      O25805   2.720   2.882   1.168
 8248WAT     H125806   2.761   2.898   1.253
 8248WAT     H225807   2.626   2.895   1.185
 8249WAT      O25808   2.767   2.616   1.369
 8249WAT     H125809   2.825   2.541   1.360
 8249WAT     H225810   2.784   2.669   1.291
 8250WAT      O25811   1.879   2.132   1.200
 8250WAT     H125812   1.869   2.070   1.127
 8250WAT     H225813   1.821   2.205   1.177
 8251WAT      O25814   2.155   1.988   0.903
 8251WAT     H125815   2.110   1.990   0.819
 8251WAT     H225816   2.092   1.948   0.963
 8252WAT      O25817   2.196   2.877   0.965
 8252WAT     H125818   2.238   2.962   0.948
 8252WAT     H225819   2.104   2.891   0.942
 8253WAT      O25820   2.429   2.651   1.104
 8253WAT     H125821   2.441   2.591   1.178
 8253WAT     H225822   2.515   2.654   1.062
 8254WAT      O25823   2.663   2.706   0.961
 8254WAT     H125824   2.611   2.758   0.901
 8254WAT     H225825   2.698   2.769   1.024
 8255WAT      O25826   1.981   3.508   1.077
 8255WAT     H125827   1.927   3.580   1.045
 8255WAT     H225828   2.006   3.460   0.998
 8256WAT      O25829   2.106   2.305   1.229
 8256WAT     H125830   2.165   2.274   1.298
 8256WAT     H225831   2.024   2.258   1.245
 8257WAT      O25832   2.588   2.266   1.253
 8257WAT     H125833   2.519   2.200   1.246
 8257WAT     H225834   2.660   2.222   1.297
 8258WAT      O25835   2.267   3.631   1.103
 8258WAT     H125836   2.259   3.722   1.133
 8258WAT     H225837   2.176   3.600   1.100
 8259WAT      O25838   1.407   3.364   0.433
 8259WAT     H125839   1.440   3.277   0.410
 8259WAT     H225840   1.450   3.385   0.516
 8260WAT      O25841   1.456   3.451   0.707
 8260WAT     H125842   1.412   3.469   0.790
 8260WAT     H225843   1.512   3.527   0.693
 8261WAT      O25844   3.019   3.401   1.136
 8261WAT     H125845   2.959   3.407   1.061
 8261WAT     H225846   3.032   3.307   1.149
 8262WAT      O25847   1.439   2.702   0.343
 8262WAT     H125848   1.373   2.675   0.278
 8262WAT     H225849   1.523   2.691   0.298
 8263WAT      O25850   3.189   2.935   0.404
 8263WAT     H125851   3.227   2.857   0.363
 8263WAT     H225852   3.254   3.004   0.386
 8264WAT      O25853   2.888   3.074   0.945
 8264WAT     H125854   2.806   3.117   0.972
 8264WAT     H225855   2.929   3.135   0.884
 8265WAT      O25856   1.543   2.741   0.797
 8265WAT     H125857   1.579   2.732   0.885
 8265WAT     H225858   1.486   2.664   0.787
 8266WAT      O25859   3.023   2.588   1.098
 8266WAT     H125860   3.000   2.565   1.008
 8266WAT     H225861   3.049   2.680   1.093
 8267WAT      O25862   1.498   2.432   1.187
 8267WAT     H125863   1.408   2.428   1.221
 8267WAT     H225864   1.552   2.452   1.264
 8268WAT      O25865   2.867   2.110   1.376
 8268WAT     H125866   2.954   2.111   1.414
 8268WAT     H225867   2.868   2.036   1.315
 8269WAT      O25868   3.011   2.495   0.465
 8269WAT     H125869   3.064   2.446   0.402
 8269WAT     H225870   3.070   2.509   0.539
 8270WAT      O25871   3.029   2.504   0.817
 8270WAT     H125872   2.934   2.500   0.828
 8270WAT     H225873   3.047   2.595   0.793
 8271WAT      O25874   1.548   1.859   0.622
 8271WAT     H125875   1.613   1.804   0.578
 8271WAT     H225876   1.590   1.885   0.704
 8272WAT      O25877   3.103   2.285   0.312
 8272WAT     H125878   3.092   2.269   0.406
 8272WAT     H225879   3.179   2.232   0.288
 8273WAT      O25880   2.938   1.879   0.958
 8273WAT     H125881   3.001   1.940   0.994
 8273WAT     H225882   2.953   1.882   0.863
 8274WAT      O25883   2.894   3.549   0.298
 8274WAT     H125884   2.953   3.517   0.230
 8274WAT     H225885   2.919   3.502   0.377
 8275WAT      O25886   1.524   1.875   0.896
 8275WAT     H125887   1.489   1.920   0.973
 8275WAT     H225888   1.490   1.785   0.905
 8276WAT      O25889   1.684   3.192   1.313
 8276WAT     H125890   1.680   3.155   1.401
 8276WAT     H225891   1.697   3.286   1.327
 8277WAT      O25892   2.054   3.348   0.873
 8277WAT     H125893   2.030   3.374   0.784
 8277WAT     H225894   2.148   3.365   0.879
 8278WAT      O25895   2.275   1.994   1.249
 8278WAT     H125896   2.269   2.053   1.324
 8278WAT     H225897   2.369   1.983   1.234
 8279WAT      O25898   2.539   1.960   1.213
 8279WAT     H125899   2.600   1.991   1.146
 8279WAT     H225900   2.593   1.911   1.274
 8280WAT      O25901   3.180   3.550   0.953
 8280WAT     H125902   3.131   3.589   0.881
 8280WAT     H225903   3.119   3.487   0.993
 8281WAT      O25904   1.591   1.828   1.224
 8281WAT     H125905   1.646   1.809   1.148
 8281WAT     H225906   1.597   1.749   1.277
 8282WAT      O25907   1.668   3.487   1.025
 8282WAT     H125908   1.609   3.473   1.099
 8282WAT     H225909   1.667   3.403   0.978
 8283WAT      O25910   2.613   1.816   0.845
 8283WAT     H125911   2.525   1.849   0.825
 8283WAT     H225912   2.602   1.769   0.928
 8284WAT      O25913   2.703   2.037   0.984
 8284WAT     H125914   2.670   1.955   0.946
 8284WAT     H225915   2.798   2.032   0.971
 8285WAT      O25916   2.949   3.614   0.681
 8285WAT     H125917   2.903   3.689   0.644
 8285WAT     H225918   2.886   3.542   0.675
 8286WAT      O25919   1.631   3.223   0.920
 8286WAT     H125920   1.559   3.161   0.913
 8286WAT     H225921   1.637   3.263   0.833
 8287WAT      O25922   1.992   3.445   0.598
 8287WAT     H125923   2.043   3.384   0.546
 8287WAT     H225924   2.057   3.495   0.648
 8288WAT      O25925   2.266   3.534   0.681
 8288WAT     H125926   2.294   3.508   0.594
 8288WAT     H225927   2.317   3.479   0.740
 8289WAT      O25928   2.387   1.908   0.739
 8289WAT     H125929   2.309   1.955   0.767
 8289WAT     H225930   2.358   1.817   0.728
 8290WAT      O25931   2.843   1.978   0.544
 8290WAT     H125932   2.887   1.972   0.459
 8290WAT     H225933   2.816   2.069   0.551
 8291WAT      O25934   3.029   1.941   0.345
 8291WAT     H125935   3.023   1.847   0.330
 8291WAT     H225936   3.107   1.952   0.399
 8292WAT      O25937   1.460   3.555   0.241
 8292WAT     H125938   1.443   3.492   0.311
 8292WAT     H225939   1.373   3.576   0.206
 8293WAT      O25940   2.176   2.150   0.290
 8293WAT     H125941   2.095   2.112   0.256
 8293WAT     H225942   2.226   2.074   0.321
 8294WAT      O25943   2.626   1.816   0.414
 8294WAT     H125944   2.686   1.873   0.462
 8294WAT     H225945   2.552   1.872   0.392
 8295WAT      O25946   2.272   3.626   1.418
 8295WAT     H125947   2.365   3.602   1.422
 8295WAT     H225948   2.271   3.709   1.370
 8296WAT      O25949   1.991   1.892   1.394
 8296WAT     H125950   1.963   1.943   1.318
 8296WAT     H225951   2.029   1.813   1.358
 8297WAT      O25952   2.651   1.834   1.452
 8297WAT     H125953   2.640   1.866   1.542
 8297WAT     H225954   2.733   1.874   1.422
 8298WAT      O25955   2.929   3.549   1.400
 8298WAT     H125956   3.008   3.499   1.380
 8298WAT     H225957   2.958   3.616   1.461
 8299WAT      O25958   2.542   0.758   5.998
 8299WAT     H125959   2.534   0.667   5.971
 8299WAT     H225960   2.500   0.808   5.928
 8300WAT      O25961   2.355   0.936   6.186
 8300WAT     H125962   2.277   0.888   6.215
 8300WAT     H225963   2.420   0.868   6.169
 8301WAT      O25964   1.757   0.967   6.274
 8301WAT     H125965   1.673   0.942   6.314
 8301WAT     H225966   1.817   0.974   6.348
 8302WAT      O25967   2.757   1.377   6.064
 8302WAT     H125968   2.711   1.300   6.097
 8302WAT     H225969   2.838   1.379   6.115
 8303WAT      O25970   1.755   1.371   6.294
 8303WAT     H125971   1.785   1.282   6.276
 8303WAT     H225972   1.829   1.426   6.271
 8304WAT      O25973   1.597   0.463   5.652
 8304WAT     H125974   1.509   0.498   5.642
 8304WAT     H225975   1.626   0.443   5.563
 8305WAT      O25976   1.394   0.723   6.241
 8305WAT     H125977   1.451   0.647   6.241
 8305WAT     H225978   1.394   0.753   6.150
 8306WAT      O25979   2.380   1.605   6.026
 8306WAT     H125980   2.318   1.651   5.969
 8306WAT     H225981   2.465   1.621   5.986
 8307WAT      O25982   2.299   1.204   6.187
 8307WAT     H125983   2.292   1.110   6.171
 8307WAT     H225984   2.375   1.213   6.244
 8308WAT      O25985   1.518   0.264   6.420
 8308WAT     H125986   1.500   0.175   6.448
 8308WAT     H225987   1.478   0.319   6.487
 8309WAT      O25988   2.402   0.484   6.210
 8309WAT     H125989   2.440   0.397   6.198
 8309WAT     H225990   2.392   0.518   6.121
 8310WAT      O25991   1.815   0.322   5.756
 8310WAT     H125992   1.826   0.412   5.787
 8310WAT     H225993   1.724   0.317   5.727
 8311WAT      O25994   2.780   0.234   5.903
 8311WAT     H125995   2.862   0.185   5.907
 8311WAT     H225996   2.784   0.293   5.978
 8312WAT      O25997   1.580   0.514   6.280
 8312WAT     H125998   1.648   0.540   6.342
 8312WAT     H225999   1.548   0.430   6.314
 8313WAT      O26000   1.999   0.619   6.189
 8313WAT     H126001   2.050   0.668   6.253
 8313WAT     H226002   2.052   0.541   6.171
 8314WAT      O26003   2.466   1.094   5.766
 8314WAT     H126004   2.404   1.140   5.709
 8314WAT     H226005   2.517   1.163   5.807
 8315WAT      O26006   1.953   1.046   6.433
 8315WAT     H126007   1.919   1.109   6.498
 8315WAT     H226008   1.970   1.099   6.355
 8316WAT      O26009   2.804   0.428   6.180
 8316WAT     H126010   2.733   0.457   6.238
 8316WAT     H226011   2.840   0.509   6.144
 8317WAT      O26012   1.796   0.254   6.416
 8317WAT     H126013   1.830   0.338   6.387
 8317WAT     H226014   1.702   0.268   6.428
 8318WAT      O26015   1.403   1.162   5.503
 8318WAT     H126016   1.365   1.211   5.430
 8318WAT     H226017   1.429   1.230   5.566
 8319WAT      O26018   2.966   1.390   6.406
 8319WAT     H126019   2.897   1.457   6.406
 8319WAT     H226020   3.019   1.410   6.330
 8320WAT      O26021   3.111   0.372   6.219
 8320WAT     H126022   3.016   0.376   6.232
 8320WAT     H226023   3.143   0.454   6.258
 8321WAT      O26024   2.719   1.574   6.278
 8321WAT     H126025   2.720   1.534   6.191
 8321WAT     H226026   2.664   1.652   6.268
 8322WAT      O26027   2.849   1.246   5.787
 8322WAT     H126028   2.838   1.152   5.799
 8322WAT     H226029   2.848   1.282   5.875
 8323WAT      O26030   2.659   1.064   6.411
 8323WAT     H126031   2.701   1.043   6.327
 8323WAT     H226032   2.731   1.090   6.468
 8324WAT      O26033   2.403   0.809   5.722
 8324WAT     H126034   2.310   0.802   5.745
 8324WAT     H226035   2.418   0.903   5.711
 8325WAT      O26036   2.401   0.436   5.422
 8325WAT     H126037   2.307   0.452   5.431
 8325WAT     H226038   2.433   0.508   5.367
 8326WAT      O26039   3.054   0.904   6.420
 8326WAT     H126040   2.971   0.911   6.372
 8326WAT     H226041   3.113   0.963   6.373
 8327WAT      O26042   2.806   0.965   5.773
 8327WAT     H126043   2.744   0.931   5.708
 8327WAT     H226044   2.804   0.901   5.844
 8328WAT      O26045   1.963   0.862   6.001
 8328WAT     H126046   1.923   0.790   5.951
 8328WAT     H226047   1.972   0.827   6.090
 8329WAT      O26048   2.010   1.230   6.217
 8329WAT     H126049   1.980   1.170   6.149
 8329WAT     H226050   2.105   1.234   6.206
 8330WAT      O26051   1.835   0.539   6.379
 8330WAT     H126052   1.890   0.550   6.301
 8330WAT     H226053   1.886   0.576   6.450
 8331WAT      O26054   2.623   0.889   5.474
 8331WAT     H126055   2.667   0.805   5.459
 8331WAT     H226056   2.695   0.952   5.482
 8332WAT      O26057   2.434   1.383   5.870
 8332WAT     H126058   2.478   1.457   5.829
 8332WAT     H226059   2.428   1.407   5.963
 8333WAT      O26060   1.633   0.751   5.751
 8333WAT     H126061   1.621   0.824   5.690
 8333WAT     H226062   1.602   0.674   5.703
 8334WAT      O26063   1.397   1.068   6.331
 8334WAT     H126064   1.405   1.082   6.237
 8334WAT     H226065   1.459   0.997   6.351
 8335WAT      O26066   1.522   1.238   5.972
 8335WAT     H126067   1.481   1.252   5.887
 8335WAT     H226068   1.611   1.210   5.952
 8336WAT      O26069   2.701   1.682   5.606
 8336WAT     H126070   2.685   1.653   5.696
 8336WAT     H226071   2.685   1.604   5.552
 8337WAT      O26072   1.949   1.660   5.784
 8337WAT     H126073   1.931   1.568   5.762
 8337WAT     H226074   1.863   1.696   5.808
 8338WAT      O26075   2.671   1.433   5.462
 8338WAT     H126076   2.602   1.432   5.396
 8338WAT     H226077   2.746   1.390   5.419
 8339WAT      O26078   2.628   1.595   5.869
 8339WAT     H126079   2.673   1.517   5.901
 8339WAT     H226080   2.662   1.666   5.924
 8340WAT      O26081   1.859   0.598   5.862
 8340WAT     H126082   1.837   0.576   5.952
 8340WAT     H226083   1.781   0.641   5.827
 8341WAT      O26084   2.582   0.598   5.722
 8341WAT     H126085   2.522   0.671   5.703
 8341WAT     H226086   2.637   0.592   5.643
 8342WAT      O26087   2.443   0.462   5.925
 8342WAT     H126088   2.482   0.494   5.843
 8342WAT     H226089   2.479   0.374   5.936
 8343WAT      O26090   1.365   0.515   5.268
 8343WAT     H126091   1.357   0.610   5.282
 8343WAT     H226092   1.330   0.501   5.180
 8344WAT      O26093   2.501   0.721   6.334
 8344WAT     H126094   2.428   0.772   6.369
 8344WAT     H226095   2.462   0.639   6.304
 8345WAT      O26096   2.145   0.389   6.175
 8345WAT     H126097   2.145   0.345   6.090
 8345WAT     H226098   2.235   0.421   6.185
 8346WAT      O26099   1.730   0.377   6.071
 8346WAT     H126100   1.696   0.425   6.146
 8346WAT     H226101   1.654   0.332   6.035
 8347WAT      O26102   2.151   0.489   5.474
 8347WAT     H126103   2.163   0.485   5.569
 8347WAT     H226104   2.113   0.575   5.458
 8348WAT      O26105   2.548   0.266   6.275
 8348WAT     H126106   2.549   0.311   6.360
 8348WAT     H226107   2.523   0.176   6.297
 8349WAT      O26108   2.053   0.720   5.414
 8349WAT     H126109   1.996   0.675   5.351
 8349WAT     H226110   2.123   0.756   5.360
 8350WAT      O26111   2.175   0.795   6.349
 8350WAT     H126112   2.212   0.747   6.424
 8350WAT     H226113   2.156   0.882   6.383
 8351WAT      O26114   1.462   0.269   5.962
 8351WAT     H126115   1.433   0.233   6.046
 8351WAT     H226116   1.455   0.196   5.901
 8352WAT      O26117   1.807   1.119   5.641
 8352WAT     H126118   1.730   1.065   5.625
 8352WAT     H226119   1.880   1.067   5.607
 8353WAT      O26120   2.883   1.019   6.220
 8353WAT     H126121   2.955   1.069   6.181
 8353WAT     H226122   2.863   0.951   6.156
 8354WAT      O26123   2.700   0.596   5.464
 8354WAT     H126124   2.789   0.627   5.447
 8354WAT     H226125   2.698   0.508   5.425
 8355WAT      O26126   1.811   1.086   6.005
 8355WAT     H126127   1.863   1.006   5.999
 8355WAT     H226128   1.766   1.080   6.089
 8356WAT      O26129   2.300   1.213   5.532
 8356WAT     H126130   2.334   1.287   5.482
 8356WAT     H226131   2.217   1.244   5.568
 8357WAT      O26132   2.928   0.727   5.411
 8357WAT     H126133   2.919   0.770   5.326
 8357WAT     H226134   3.000   0.773   5.454
 8358WAT      O26135   3.030   1.412   5.684
 8358WAT     H126136   2.966   1.347   5.711
 8358WAT     H226137   2.992   1.453   5.606
 8359WAT      O26138   2.588   1.145   6.068
 8359WAT     H126139   2.624   1.085   6.002
 8359WAT     H226140   2.500   1.112   6.086
 8360WAT      O26141   2.197   1.221   5.809
 8360WAT     H126142   2.266   1.276   5.847
 8360WAT     H226143   2.118   1.275   5.813
 8361WAT      O26144   1.411   0.783   5.358
 8361WAT     H126145   1.498   0.811   5.387
 8361WAT     H226146   1.362   0.864   5.347
 8362WAT      O26147   2.127   0.921   5.770
 8362WAT     H126148   2.173   1.002   5.793
 8362WAT     H226149   2.092   0.890   5.854
 8363WAT      O26150   2.485   1.273   6.365
 8363WAT     H126151   2.549   1.203   6.376
 8363WAT     H226152   2.537   1.351   6.347
 8364WAT      O26153   2.869   1.301   5.337
 8364WAT     H126154   2.847   1.230   5.397
 8364WAT     H226155   2.830   1.276   5.254
 8365WAT      O26156   1.448   1.704   5.415
 8365WAT     H126157   1.484   1.764   5.349
 8365WAT     H226158   1.434   1.759   5.492
 8366WAT      O26159   2.828   1.093   5.504
 8366WAT     H126160   2.799   1.139   5.582
 8366WAT     H226161   2.907   1.047   5.530
 8367WAT      O26162   2.049   1.442   5.497
 8367WAT     H126163   2.048   1.516   5.435
 8367WAT     H226164   1.957   1.418   5.506
 8368WAT      O26165   1.609   0.964   5.571
 8368WAT     H126166   1.549   1.038   5.572
 8368WAT     H226167   1.657   0.973   5.489
 8369WAT      O26168   2.903   0.276   5.620
 8369WAT     H126169   2.840   0.287   5.548
 8369WAT     H226170   2.854   0.298   5.699
 8370WAT      O26171   2.348   1.449   5.363
 8370WAT     H126172   2.358   1.428   5.270
 8370WAT     H226173   2.258   1.423   5.383
 8371WAT      O26174   2.100   0.504   5.761
 8371WAT     H126175   2.029   0.551   5.805
 8371WAT     H226176   2.129   0.439   5.825
 8372WAT      O26177   2.503   0.177   5.905
 8372WAT     H126178   2.491   0.179   5.810
 8372WAT     H226179   2.598   0.182   5.917
 8373WAT      O26180   2.212   1.700   5.832
 8373WAT     H126181   2.237   1.697   5.740
 8373WAT     H226182   2.117   1.688   5.832
 8374WAT      O26183   1.920   0.335   5.499
 8374WAT     H126184   2.005   0.379   5.492
 8374WAT     H226185   1.884   0.366   5.581
 8375WAT      O26186   2.813   0.792   5.990
 8375WAT     H126187   2.718   0.794   6.007
 8375WAT     H226188   2.844   0.714   6.035
 8376WAT      O26189   1.810   0.960   5.346
 8376WAT     H126190   1.887   0.949   5.402
 8376WAT     H226191   1.818   0.891   5.281
 8377WAT      O26192   1.680   0.704   5.414
 8377WAT     H126193   1.688   0.609   5.426
 8377WAT     H226194   1.769   0.737   5.425
 8378WAT      O26195   3.013   1.509   6.158
 8378WAT     H126196   3.025   1.592   6.205
 8378WAT     H226197   3.100   1.488   6.123
 8379WAT      O26198   1.760   1.719   6.125
 8379WAT     H126199   1.834   1.664   6.152
 8379WAT     H226200   1.798   1.805   6.111
 8380WAT      O26201   1.448   1.325   5.712
 8380WAT     H126202   1.356   1.350   5.711
 8380WAT     H226203   1.495   1.408   5.700
 8381WAT      O26204   2.071   1.636   5.307
 8381WAT     H126205   2.150   1.665   5.262
 8381WAT     H226206   2.019   1.593   5.239
 8382WAT      O26207   2.976   1.559   5.449
 8382WAT     H126208   2.948   1.517   5.368
 8382WAT     H226209   2.957   1.652   5.437
 8383WAT      O26210   2.123   1.158   5.293
 8383WAT     H126211   2.112   1.097   5.366
 8383WAT     H226212   2.106   1.106   5.215
 8384WAT      O26213   2.447   1.064   5.354
 8384WAT     H126214   2.392   1.109   5.418
 8384WAT     H226215   2.509   1.014   5.406
 8385WAT      O26216   2.014   0.960   5.543
 8385WAT     H126217   2.056   0.944   5.628
 8385WAT     H226218   2.026   0.879   5.494
 8386WAT      O26219   2.265   0.863   5.268
 8386WAT     H126220   2.317   0.791   5.232
 8386WAT     H226221   2.330   0.926   5.298
 8387WAT      O26222   1.903   0.567   5.238
 8387WAT     H126223   1.883   0.481   5.274
 8387WAT     H226224   1.886   0.559   5.144
 8388WAT      O26225   1.783   0.277   5.237
 8388WAT     H126226   1.813   0.278   5.146
 8388WAT     H226227   1.857   0.242   5.286
 8389WAT      O26228   2.321   1.671   5.497
 8389WAT     H126229   2.411   1.704   5.499
 8389WAT     H226230   2.325   1.598   5.434
 8390WAT      O26231   1.685   1.208   5.320
 8390WAT     H126232   1.729   1.262   5.386
 8390WAT     H226233   1.734   1.125   5.321
 8391WAT      O26234   1.407   1.487   6.065
 8391WAT     H126235   1.440   1.400   6.042
 8391WAT     H226236   1.450   1.507   6.148
 8392WAT      O26237   1.866   1.320   5.831
 8392WAT     H126238   1.836   1.308   5.921
 8392WAT     H226239   1.856   1.234   5.790
 8393WAT      O26240   1.456   1.574   6.339
 8393WAT     H126241   1.412   1.592   6.422
 8393WAT     H226242   1.512   1.649   6.325
 8394WAT      O26243   3.143   1.298   5.302
 8394WAT     H126244   3.060   1.305   5.349
 8394WAT     H226245   3.161   1.387   5.271
 8395WAT      O26246   3.089   0.972   5.552
 8395WAT     H126247   3.165   1.029   5.563
 8395WAT     H226248   3.090   0.916   5.629
 8396WAT      O26249   1.439   0.825   5.975
 8396WAT     H126250   1.373   0.798   5.911
 8396WAT     H226251   1.523   0.814   5.930
 8397WAT      O26252   3.189   1.058   6.036
 8397WAT     H126253   3.227   0.980   5.996
 8397WAT     H226254   3.254   1.127   6.019
 8398WAT      O26255   3.094   1.002   5.268
 8398WAT     H126256   3.122   1.092   5.255
 8398WAT     H226257   3.075   0.995   5.361
 8399WAT      O26258   2.734   0.304   5.397
 8399WAT     H126259   2.776   0.285   5.313
 8399WAT     H226260   2.703   0.219   5.428
 8400WAT      O26261   3.084   0.795   5.767
 8400WAT     H126262   3.046   0.719   5.724
 8400WAT     H226263   3.011   0.834   5.816
 8401WAT      O26264   1.543   0.863   6.429
 8401WAT     H126265   1.579   0.855   6.517
 8401WAT     H226266   1.486   0.787   6.419
 8402WAT      O26267   1.360   0.546   5.569
 8402WAT     H126268   1.270   0.572   5.552
 8402WAT     H226269   1.409   0.573   5.491
 8403WAT      O26270   3.011   0.618   6.097
 8403WAT     H126271   3.064   0.569   6.034
 8403WAT     H226272   3.070   0.631   6.171
 8404WAT      O26273   3.029   0.626   6.449
 8404WAT     H126274   2.934   0.623   6.461
 8404WAT     H226275   3.047   0.717   6.426
 8405WAT      O26276   1.615   0.451   5.360
 8405WAT     H126277   1.685   0.409   5.312
 8405WAT     H226278   1.543   0.458   5.297
 8406WAT      O26279   2.960   0.544   5.691
 8406WAT     H126280   3.010   0.520   5.769
 8406WAT     H226281   2.940   0.460   5.649
 8407WAT      O26282   3.103   0.407   5.944
 8407WAT     H126283   3.092   0.392   6.038
 8407WAT     H226284   3.179   0.354   5.920
 8408WAT      O26285   3.192   0.190   5.268
 8408WAT     H126286   3.285   0.177   5.248
 8408WAT     H226287   3.190   0.198   5.364
 8409WAT      O26288   3.199   0.267   5.531
 8409WAT     H126289   3.120   0.261   5.584
 8409WAT     H226290   3.220   0.361   5.530
 8410WAT      O26291   2.894   1.671   5.930
 8410WAT     H126292   2.953   1.639   5.863
 8410WAT     H226293   2.919   1.624   6.009
 8411WAT      O26294   2.054   1.470   6.505
 8411WAT     H126295   2.030   1.497   6.417
 8411WAT     H226296   2.148   1.487   6.511
 8412WAT      O26297   2.949   1.736   6.313
 8412WAT     H126298   2.903   1.811   6.276
 8412WAT     H226299   2.886   1.664   6.307
 8413WAT      O26300   1.992   1.567   6.231
 8413WAT     H126301   2.043   1.506   6.178
 8413WAT     H226302   2.057   1.618   6.280
 8414WAT      O26303   2.266   1.656   6.313
 8414WAT     H126304   2.294   1.631   6.226
 8414WAT     H226305   2.317   1.601   6.373
 8415WAT      O26306   1.460   1.678   5.873
 8415WAT     H126307   1.443   1.614   5.943
 8415WAT     H226308   1.373   1.698   5.838
 8416WAT      O26309   2.176   0.272   5.923
 8416WAT     H126310   2.095   0.235   5.889
 8416WAT     H226311   2.226   0.197   5.953
 8417WAT      O26312   1.620   1.547   5.618
 8417WAT     H126313   1.568   1.585   5.547
 8417WAT     H226314   1.613   1.609   5.690
 8418WAT      O26315   3.096   1.703   5.750
 8418WAT     H126316   3.113   1.634   5.686
 8418WAT     H226317   3.026   1.755   5.711
 8419WAT      O26318   1.880   1.742   5.505
 8419WAT     H126319   1.953   1.713   5.450
 8419WAT     H226320   1.906   1.718   5.594
 8420WAT      O26321   1.796   1.353   5.506
 8420WAT     H126322   1.733   1.400   5.561
 8420WAT     H226323   1.808   1.269   5.549
 8421WAT      O26324   2.542   0.758   4.121
 8421WAT     H126325   2.534   0.667   4.094
 8421WAT     H226326   2.500   0.808   4.050
 8422WAT      O26327   2.355   0.936   4.309
 8422WAT     H126328   2.277   0.888   4.338
 8422WAT     H226329   2.420   0.868   4.291
 8423WAT      O26330   1.757   0.967   4.397
 8423WAT     H126331   1.673   0.942   4.437
 8423WAT     H226332   1.817   0.974   4.470
 8424WAT      O26333   2.757   1.377   4.187
 8424WAT     H126334   2.711   1.300   4.220
 8424WAT     H226335   2.838   1.379   4.237
 8425WAT      O26336   1.755   1.371   4.416
 8425WAT     H126337   1.785   1.282   4.398
 8425WAT     H226338   1.829   1.426   4.393
 8426WAT      O26339   1.597   0.463   3.775
 8426WAT     H126340   1.509   0.498   3.765
 8426WAT     H226341   1.626   0.443   3.686
 8427WAT      O26342   1.394   0.723   4.363
 8427WAT     H126343   1.451   0.647   4.363
 8427WAT     H226344   1.394   0.753   4.272
 8428WAT      O26345   2.380   1.605   4.149
 8428WAT     H126346   2.318   1.651   4.092
 8428WAT     H226347   2.465   1.621   4.109
 8429WAT      O26348   2.299   1.204   4.310
 8429WAT     H126349   2.292   1.110   4.293
 8429WAT     H226350   2.375   1.213   4.367
 8430WAT      O26351   1.518   0.264   4.542
 8430WAT     H126352   1.500   0.175   4.570
 8430WAT     H226353   1.478   0.319   4.610
 8431WAT      O26354   2.402   0.484   4.332
 8431WAT     H126355   2.440   0.397   4.321
 8431WAT     H226356   2.392   0.518   4.243
 8432WAT      O26357   1.815   0.322   3.878
 8432WAT     H126358   1.826   0.412   3.909
 8432WAT     H226359   1.724   0.317   3.849
 8433WAT      O26360   2.780   0.234   4.026
 8433WAT     H126361   2.862   0.185   4.030
 8433WAT     H226362   2.784   0.293   4.101
 8434WAT      O26363   1.580   0.514   4.403
 8434WAT     H126364   1.648   0.540   4.465
 8434WAT     H226365   1.548   0.430   4.436
 8435WAT      O26366   1.999   0.619   4.312
 8435WAT     H126367   2.050   0.668   4.376
 8435WAT     H226368   2.052   0.541   4.294
 8436WAT      O26369   3.209   0.436   4.682
 8436WAT     H126370   3.139   0.474   4.630
 8436WAT     H226371   3.236   0.505   4.742
 8437WAT      O26372   2.466   1.094   3.888
 8437WAT     H126373   2.404   1.140   3.832
 8437WAT     H226374   2.517   1.163   3.930
 8438WAT      O26375   1.953   1.046   4.556
 8438WAT     H126376   1.919   1.109   4.620
 8438WAT     H226377   1.970   1.099   4.478
 8439WAT      O26378   2.804   0.428   4.303
 8439WAT     H126379   2.733   0.457   4.361
 8439WAT     H226380   2.840   0.509   4.267
 8440WAT      O26381   1.796   0.254   4.539
 8440WAT     H126382   1.830   0.338   4.510
 8440WAT     H226383   1.702   0.268   4.551
 8441WAT      O26384   1.874   1.243   4.738
 8441WAT     H126385   1.935   1.311   4.709
 8441WAT     H226386   1.788   1.284   4.728
 8442WAT      O26387   1.403   1.162   3.626
 8442WAT     H126388   1.365   1.211   3.552
 8442WAT     H226389   1.429   1.230   3.689
 8443WAT      O26390   2.966   1.390   4.529
 8443WAT     H126391   2.897   1.457   4.528
 8443WAT     H226392   3.019   1.410   4.452
 8444WAT      O26393   3.111   0.372   4.342
 8444WAT     H126394   3.016   0.376   4.355
 8444WAT     H226395   3.143   0.454   4.380
 8445WAT      O26396   2.719   1.574   4.401
 8445WAT     H126397   2.720   1.534   4.314
 8445WAT     H226398   2.664   1.652   4.390
 8446WAT      O26399   2.849   1.246   3.909
 8446WAT     H126400   2.838   1.152   3.922
 8446WAT     H226401   2.848   1.282   3.998
 8447WAT      O26402   2.659   1.064   4.533
 8447WAT     H126403   2.701   1.043   4.450
 8447WAT     H226404   2.731   1.090   4.590
 8448WAT      O26405   2.403   0.809   3.845
 8448WAT     H126406   2.310   0.802   3.868
 8448WAT     H226407   2.418   0.903   3.834
 8449WAT      O26408   2.401   0.436   3.545
 8449WAT     H126409   2.307   0.452   3.553
 8449WAT     H226410   2.433   0.508   3.490
 8450WAT      O26411   3.054   0.904   4.542
 8450WAT     H126412   2.971   0.911   4.495
 8450WAT     H226413   3.113   0.963   4.496
 8451WAT      O26414   2.806   0.965   3.895
 8451WAT     H126415   2.744   0.931   3.831
 8451WAT     H226416   2.804   0.901   3.966
 8452WAT      O26417   2.750   0.583   4.637
 8452WAT     H126418   2.709   0.666   4.662
 8452WAT     H226419   2.677   0.524   4.618
 8453WAT      O26420   1.963   0.862   4.123
 8453WAT     H126421   1.923   0.790   4.074
 8453WAT     H226422   1.972   0.827   4.212
 8454WAT      O26423   2.010   1.230   4.340
 8454WAT     H126424   1.980   1.170   4.272
 8454WAT     H226425   2.105   1.234   4.329
 8455WAT      O26426   1.835   0.539   4.501
 8455WAT     H126427   1.890   0.550   4.424
 8455WAT     H226428   1.886   0.576   4.573
 8456WAT      O26429   2.819   1.588   4.706
 8456WAT     H126430   2.771   1.668   4.687
 8456WAT     H226431   2.751   1.522   4.721
 8457WAT      O26432   1.919   1.204   5.005
 8457WAT     H126433   1.830   1.226   5.029
 8457WAT     H226434   1.922   1.216   4.910
 8458WAT      O26435   2.623   0.889   3.596
 8458WAT     H126436   2.667   0.805   3.581
 8458WAT     H226437   2.695   0.952   3.605
 8459WAT      O26438   1.802   0.891   4.862
 8459WAT     H126439   1.788   0.978   4.899
 8459WAT     H226440   1.714   0.857   4.848
 8460WAT      O26441   2.434   1.383   3.993
 8460WAT     H126442   2.478   1.457   3.951
 8460WAT     H226443   2.428   1.407   4.085
 8461WAT      O26444   1.982   1.485   5.083
 8461WAT     H126445   1.979   1.526   4.996
 8461WAT     H226446   1.965   1.393   5.067
 8462WAT      O26447   1.633   0.751   3.873
 8462WAT     H126448   1.621   0.824   3.812
 8462WAT     H226449   1.602   0.674   3.826
 8463WAT      O26450   3.177   1.564   5.213
 8463WAT     H126451   3.225   1.612   5.281
 8463WAT     H226452   3.239   1.557   5.140
 8464WAT      O26453   1.397   1.068   4.454
 8464WAT     H126454   1.405   1.082   4.360
 8464WAT     H226455   1.459   0.997   4.473
 8465WAT      O26456   1.522   1.238   4.095
 8465WAT     H126457   1.481   1.252   4.010
 8465WAT     H226458   1.611   1.210   4.075
 8466WAT      O26459   3.117   1.283   4.929
 8466WAT     H126460   3.130   1.259   4.837
 8466WAT     H226461   3.122   1.200   4.976
 8467WAT      O26462   2.503   1.653   4.786
 8467WAT     H126463   2.555   1.644   4.866
 8467WAT     H226464   2.419   1.688   4.815
 8468WAT      O26465   2.701   1.682   3.729
 8468WAT     H126466   2.685   1.653   3.818
 8468WAT     H226467   2.685   1.604   3.675
 8469WAT      O26468   1.949   1.660   3.906
 8469WAT     H126469   1.931   1.568   3.885
 8469WAT     H226470   1.863   1.696   3.930
 8470WAT      O26471   2.671   1.433   3.585
 8470WAT     H126472   2.602   1.432   3.519
 8470WAT     H226473   2.746   1.390   3.541
 8471WAT      O26474   2.628   1.595   3.992
 8471WAT     H126475   2.673   1.517   4.023
 8471WAT     H226476   2.662   1.666   4.046
 8472WAT      O26477   3.103   0.488   5.025
 8472WAT     H126478   3.041   0.539   4.972
 8472WAT     H226479   3.071   0.398   5.020
 8473WAT      O26480   1.403   1.172   4.708
 8473WAT     H126481   1.419   1.125   4.626
 8473WAT     H226482   1.449   1.122   4.774
 8474WAT      O26483   2.309   0.372   4.772
 8474WAT     H126484   2.263   0.393   4.853
 8474WAT     H226485   2.268   0.291   4.742
 8475WAT      O26486   2.809   0.494   4.885
 8475WAT     H126487   2.724   0.464   4.917
 8475WAT     H226488   2.793   0.519   4.794
 8476WAT      O26489   2.518   0.644   5.095
 8476WAT     H126490   2.551   0.561   5.061
 8476WAT     H226491   2.597   0.696   5.110
 8477WAT      O26492   1.859   0.598   3.984
 8477WAT     H126493   1.837   0.576   4.075
 8477WAT     H226494   1.781   0.641   3.950
 8478WAT      O26495   2.582   0.598   3.844
 8478WAT     H126496   2.522   0.671   3.826
 8478WAT     H226497   2.637   0.592   3.766
 8479WAT      O26498   2.103   0.688   5.051
 8479WAT     H126499   2.094   0.594   5.036
 8479WAT     H226500   2.187   0.710   5.011
 8480WAT      O26501   2.443   0.462   4.047
 8480WAT     H126502   2.482   0.494   3.966
 8480WAT     H226503   2.479   0.374   4.059
 8481WAT      O26504   1.616   0.329   4.866
 8481WAT     H126505   1.577   0.413   4.887
 8481WAT     H226506   1.547   0.265   4.885
 8482WAT      O26507   2.274   0.337   5.173
 8482WAT     H126508   2.205   0.318   5.237
 8482WAT     H226509   2.348   0.365   5.226
 8483WAT      O26510   1.365   0.515   3.391
 8483WAT     H126511   1.357   0.610   3.405
 8483WAT     H226512   1.330   0.501   3.303
 8484WAT      O26513   2.501   0.721   4.457
 8484WAT     H126514   2.428   0.772   4.492
 8484WAT     H226515   2.462   0.639   4.427
 8485WAT      O26516   2.145   0.389   4.297
 8485WAT     H126517   2.145   0.345   4.212
 8485WAT     H226518   2.235   0.421   4.308
 8486WAT      O26519   1.730   0.377   4.193
 8486WAT     H126520   1.696   0.425   4.269
 8486WAT     H226521   1.654   0.332   4.157
 8487WAT      O26522   2.151   0.489   3.596
 8487WAT     H126523   2.163   0.485   3.691
 8487WAT     H226524   2.113   0.575   3.581
 8488WAT      O26525   2.548   0.266   4.398
 8488WAT     H126526   2.549   0.311   4.482
 8488WAT     H226527   2.523   0.176   4.419
 8489WAT      O26528   2.053   0.720   3.536
 8489WAT     H126529   1.996   0.675   3.474
 8489WAT     H226530   2.123   0.756   3.483
 8490WAT      O26531   1.560   1.110   4.924
 8490WAT     H126532   1.522   1.046   4.984
 8490WAT     H226533   1.591   1.180   4.981
 8491WAT      O26534   2.175   0.795   4.472
 8491WAT     H126535   2.212   0.747   4.547
 8491WAT     H226536   2.156   0.882   4.506
 8492WAT      O26537   1.462   0.269   4.085
 8492WAT     H126538   1.433   0.233   4.169
 8492WAT     H226539   1.455   0.196   4.024
 8493WAT      O26540   1.954   0.699   4.704
 8493WAT     H126541   1.924   0.787   4.726
 8493WAT     H226542   2.050   0.705   4.707
 8494WAT      O26543   1.807   1.119   3.763
 8494WAT     H126544   1.730   1.065   3.747
 8494WAT     H226545   1.880   1.067   3.730
 8495WAT      O26546   2.883   1.019   4.343
 8495WAT     H126547   2.955   1.069   4.304
 8495WAT     H226548   2.863   0.951   4.278
 8496WAT      O26549   2.421   1.026   4.931
 8496WAT     H126550   2.414   0.934   4.906
 8496WAT     H226551   2.358   1.036   5.003
 8497WAT      O26552   2.700   0.596   3.587
 8497WAT     H126553   2.789   0.627   3.569
 8497WAT     H226554   2.698   0.508   3.547
 8498WAT      O26555   1.811   1.086   4.127
 8498WAT     H126556   1.863   1.006   4.122
 8498WAT     H226557   1.766   1.080   4.211
 8499WAT      O26558   2.300   1.213   3.655
 8499WAT     H126559   2.334   1.287   3.605
 8499WAT     H226560   2.217   1.244   3.691
 8500WAT      O26561   1.560   0.783   4.819
 8500WAT     H126562   1.524   0.849   4.877
 8500WAT     H226563   1.530   0.700   4.856
 8501WAT      O26564   1.880   0.829   5.107
 8501WAT     H126565   1.850   0.843   5.017
 8501WAT     H226566   1.957   0.773   5.098
 8502WAT      O26567   2.414   1.308   4.906
 8502WAT     H126568   2.416   1.215   4.885
 8502WAT     H226569   2.343   1.317   4.970
 8503WAT      O26570   2.928   0.727   3.533
 8503WAT     H126571   2.919   0.770   3.448
 8503WAT     H226572   3.000   0.773   3.577
 8504WAT      O26573   3.035   0.972   4.841
 8504WAT     H126574   2.963   1.032   4.821
 8504WAT     H226575   3.088   0.972   4.761
 8505WAT      O26576   3.030   1.412   3.806
 8505WAT     H126577   2.966   1.347   3.834
 8505WAT     H226578   2.992   1.453   3.729
 8506WAT      O26579   2.588   1.145   4.191
 8506WAT     H126580   2.624   1.085   4.125
 8506WAT     H226581   2.500   1.112   4.208
 8507WAT      O26582   2.197   1.221   3.932
 8507WAT     H126583   2.266   1.276   3.970
 8507WAT     H226584   2.118   1.275   3.935
 8508WAT      O26585   1.411   0.783   3.481
 8508WAT     H126586   1.498   0.811   3.509
 8508WAT     H226587   1.362   0.864   3.469
 8509WAT      O26588   2.127   0.921   3.893
 8509WAT     H126589   2.173   1.002   3.916
 8509WAT     H226590   2.092   0.890   3.976
 8510WAT      O26591   2.358   1.472   4.616
 8510WAT     H126592   2.422   1.493   4.684
 8510WAT     H226593   2.394   1.396   4.571
 8511WAT      O26594   2.485   1.273   4.488
 8511WAT     H126595   2.549   1.203   4.499
 8511WAT     H226596   2.537   1.351   4.470
 8512WAT      O26597   2.869   1.301   3.460
 8512WAT     H126598   2.847   1.230   3.519
 8512WAT     H226599   2.830   1.276   3.376
 8513WAT      O26600   2.662   1.353   4.808
 8513WAT     H126601   2.696   1.411   4.876
 8513WAT     H226602   2.570   1.340   4.831
 8514WAT      O26603   1.448   1.704   3.537
 8514WAT     H126604   1.484   1.764   3.472
 8514WAT     H226605   1.434   1.759   3.615
 8515WAT      O26606   2.828   1.093   3.626
 8515WAT     H126607   2.799   1.139   3.705
 8515WAT     H226608   2.907   1.047   3.653
 8516WAT      O26609   1.446   1.530   4.985
 8516WAT     H126610   1.457   1.436   4.971
 8516WAT     H226611   1.381   1.557   4.920
 8517WAT      O26612   2.245   1.358   5.125
 8517WAT     H126613   2.213   1.286   5.179
 8517WAT     H226614   2.178   1.425   5.132
 8518WAT      O26615   2.049   1.442   3.619
 8518WAT     H126616   2.048   1.516   3.558
 8518WAT     H226617   1.957   1.418   3.628
 8519WAT      O26618   1.609   0.964   3.694
 8519WAT     H126619   1.549   1.038   3.695
 8519WAT     H226620   1.657   0.973   3.611
 8520WAT      O26621   2.567   0.381   4.661
 8520WAT     H126622   2.603   0.299   4.694
 8520WAT     H226623   2.481   0.387   4.703
 8521WAT      O26624   2.903   0.276   3.742
 8521WAT     H126625   2.840   0.287   3.671
 8521WAT     H226626   2.854   0.298   3.821
 8522WAT      O26627   2.348   1.449   3.485
 8522WAT     H126628   2.358   1.428   3.392
 8522WAT     H226629   2.258   1.423   3.506
 8523WAT      O26630   2.100   0.504   3.884
 8523WAT     H126631   2.029   0.551   3.928
 8523WAT     H226632   2.129   0.439   3.947
 8524WAT      O26633   2.263   0.646   4.684
 8524WAT     H126634   2.313   0.694   4.750
 8524WAT     H226635   2.277   0.554   4.704
 8525WAT      O26636   2.503   0.177   4.028
 8525WAT     H126637   2.491   0.179   3.933
 8525WAT     H226638   2.598   0.182   4.040
 8526WAT      O26639   2.212   1.700   3.955
 8526WAT     H126640   2.237   1.697   3.863
 8526WAT     H226641   2.117   1.688   3.954
 8527WAT      O26642   1.920   0.335   3.621
 8527WAT     H126643   2.005   0.379   3.615
 8527WAT     H226644   1.884   0.366   3.704
 8528WAT      O26645   2.983   0.268   4.768
 8528WAT     H126646   2.933   0.342   4.802
 8528WAT     H226647   3.065   0.307   4.736
 8529WAT      O26648   2.813   0.792   4.113
 8529WAT     H126649   2.718   0.794   4.130
 8529WAT     H226650   2.844   0.714   4.157
 8530WAT      O26651   1.810   0.960   3.469
 8530WAT     H126652   1.887   0.949   3.525
 8530WAT     H226653   1.818   0.891   3.403
 8531WAT      O26654   1.680   0.704   3.537
 8531WAT     H126655   1.688   0.609   3.548
 8531WAT     H226656   1.769   0.737   3.548
 8532WAT      O26657   3.013   1.509   4.280
 8532WAT     H126658   3.025   1.592   4.327
 8532WAT     H226659   3.100   1.488   4.245
 8533WAT      O26660   1.760   1.719   4.247
 8533WAT     H126661   1.834   1.664   4.274
 8533WAT     H226662   1.798   1.805   4.233
 8534WAT      O26663   1.448   1.325   3.835
 8534WAT     H126664   1.356   1.350   3.834
 8534WAT     H226665   1.495   1.408   3.823
 8535WAT      O26666   1.661   1.637   5.166
 8535WAT     H126667   1.741   1.669   5.207
 8535WAT     H226668   1.609   1.601   5.238
 8536WAT      O26669   2.071   1.636   3.430
 8536WAT     H126670   2.150   1.665   3.384
 8536WAT     H226671   2.019   1.593   3.362
 8537WAT      O26672   2.544   1.248   5.161
 8537WAT     H126673   2.484   1.250   5.087
 8537WAT     H226674   2.514   1.175   5.215
 8538WAT      O26675   2.687   1.621   5.022
 8538WAT     H126676   2.782   1.612   5.017
 8538WAT     H226677   2.673   1.687   5.089
 8539WAT      O26678   2.976   1.559   3.572
 8539WAT     H126679   2.948   1.517   3.490
 8539WAT     H226680   2.957   1.652   3.560
 8540WAT      O26681   1.433   0.886   5.060
 8540WAT     H126682   1.483   0.828   5.118
 8540WAT     H226683   1.359   0.914   5.114
 8541WAT      O26684   2.123   1.158   3.416
 8541WAT     H126685   2.112   1.097   3.489
 8541WAT     H226686   2.106   1.106   3.338
 8542WAT      O26687   2.138   1.027   5.014
 8542WAT     H126688   2.061   1.083   5.005
 8542WAT     H226689   2.156   0.997   4.925
 8543WAT      O26690   2.447   1.064   3.476
 8543WAT     H126691   2.392   1.109   3.541
 8543WAT     H226692   2.509   1.014   3.529
 8544WAT      O26693   2.852   1.200   5.070
 8544WAT     H126694   2.926   1.233   5.019
 8544WAT     H226695   2.776   1.217   5.014
 8545WAT      O26696   1.636   0.700   5.150
 8545WAT     H126697   1.640   0.670   5.241
 8545WAT     H226698   1.721   0.740   5.134
 8546WAT      O26699   2.014   0.960   3.666
 8546WAT     H126700   2.056   0.944   3.750
 8546WAT     H226701   2.026   0.879   3.617
 8547WAT      O26702   1.830   0.558   4.947
 8547WAT     H126703   1.777   0.509   4.884
 8547WAT     H226704   1.897   0.601   4.893
 8548WAT      O26705   2.265   0.863   3.391
 8548WAT     H126706   2.317   0.791   3.354
 8548WAT     H226707   2.330   0.926   3.421
 8549WAT      O26708   2.720   1.005   4.923
 8549WAT     H126709   2.761   1.020   5.008
 8549WAT     H226710   2.626   1.017   4.939
 8550WAT      O26711   2.767   0.739   5.124
 8550WAT     H126712   2.825   0.663   5.115
 8550WAT     H226713   2.784   0.792   5.046
 8551WAT      O26714   1.879   0.255   4.955
 8551WAT     H126715   1.869   0.193   4.882
 8551WAT     H226716   1.821   0.327   4.932
 8552WAT      O26717   2.196   1.000   4.720
 8552WAT     H126718   2.238   1.084   4.703
 8552WAT     H226719   2.104   1.014   4.697
 8553WAT      O26720   2.429   0.773   4.858
 8553WAT     H126721   2.441   0.714   4.932
 8553WAT     H226722   2.515   0.777   4.816
 8554WAT      O26723   2.663   0.829   4.716
 8554WAT     H126724   2.611   0.881   4.656
 8554WAT     H226725   2.698   0.892   4.779
 8555WAT      O26726   1.903   0.567   3.361
 8555WAT     H126727   1.883   0.481   3.397
 8555WAT     H226728   1.886   0.559   3.267
 8556WAT      O26729   1.981   1.631   4.832
 8556WAT     H126730   1.927   1.703   4.800
 8556WAT     H226731   2.006   1.583   4.753
 8557WAT      O26732   2.106   0.427   4.984
 8557WAT     H126733   2.165   0.397   5.053
 8557WAT     H226734   2.024   0.380   5.000
 8558WAT      O26735   2.588   0.389   5.008
 8558WAT     H126736   2.519   0.323   5.001
 8558WAT     H226737   2.660   0.344   5.052
 8559WAT      O26738   1.783   0.277   3.359
 8559WAT     H126739   1.813   0.278   3.269
 8559WAT     H226740   1.857   0.242   3.409
 8560WAT      O26741   2.267   1.754   4.858
 8560WAT     H126742   2.259   1.844   4.888
 8560WAT     H226743   2.176   1.722   4.855
 8561WAT      O26744   2.321   1.671   3.620
 8561WAT     H126745   2.411   1.704   3.622
 8561WAT     H226746   2.325   1.598   3.557
 8562WAT      O26747   1.685   1.208   3.443
 8562WAT     H126748   1.729   1.262   3.508
 8562WAT     H226749   1.734   1.125   3.444
 8563WAT      O26750   1.407   1.487   4.188
 8563WAT     H126751   1.440   1.400   4.165
 8563WAT     H226752   1.450   1.507   4.271
 8564WAT      O26753   1.866   1.320   3.954
 8564WAT     H126754   1.836   1.308   4.044
 8564WAT     H226755   1.856   1.234   3.913
 8565WAT      O26756   1.456   1.574   4.462
 8565WAT     H126757   1.412   1.592   4.545
 8565WAT     H226758   1.512   1.649   4.447
 8566WAT      O26759   3.019   1.524   4.890
 8566WAT     H126760   2.959   1.530   4.816
 8566WAT     H226761   3.032   1.430   4.903
 8567WAT      O26762   3.143   1.298   3.424
 8567WAT     H126763   3.060   1.305   3.471
 8567WAT     H226764   3.161   1.387   3.394
 8568WAT      O26765   3.089   0.972   3.674
 8568WAT     H126766   3.165   1.029   3.685
 8568WAT     H226767   3.090   0.916   3.752
 8569WAT      O26768   1.439   0.825   4.098
 8569WAT     H126769   1.373   0.798   4.033
 8569WAT     H226770   1.523   0.814   4.053
 8570WAT      O26771   3.189   1.058   4.159
 8570WAT     H126772   3.227   0.980   4.118
 8570WAT     H226773   3.254   1.127   4.141
 8571WAT      O26774   2.888   1.196   4.700
 8571WAT     H126775   2.806   1.239   4.726
 8571WAT     H226776   2.929   1.257   4.639
 8572WAT      O26777   3.094   1.002   3.390
 8572WAT     H126778   3.122   1.092   3.377
 8572WAT     H226779   3.075   0.995   3.484
 8573WAT      O26780   2.734   0.304   3.520
 8573WAT     H126781   2.776   0.285   3.436
 8573WAT     H226782   2.703   0.219   3.551
 8574WAT      O26783   3.084   0.795   3.890
 8574WAT     H126784   3.046   0.719   3.846
 8574WAT     H226785   3.011   0.834   3.938
 8575WAT      O26786   1.543   0.863   4.552
 8575WAT     H126787   1.579   0.855   4.640
 8575WAT     H226788   1.486   0.787   4.542
 8576WAT      O26789   3.023   0.710   4.853
 8576WAT     H126790   3.000   0.687   4.763
 8576WAT     H226791   3.049   0.802   4.848
 8577WAT      O26792   1.498   0.554   4.942
 8577WAT     H126793   1.408   0.551   4.976
 8577WAT     H226794   1.552   0.574   5.019
 8578WAT      O26795   2.867   0.233   5.131
 8578WAT     H126796   2.954   0.233   5.169
 8578WAT     H226797   2.868   0.159   5.070
 8579WAT      O26798   1.360   0.546   3.692
 8579WAT     H126799   1.270   0.572   3.674
 8579WAT     H226800   1.409   0.573   3.614
 8580WAT      O26801   3.011   0.618   4.220
 8580WAT     H126802   3.064   0.569   4.156
 8580WAT     H226803   3.070   0.631   4.294
 8581WAT      O26804   3.029   0.626   4.572
 8581WAT     H126805   2.934   0.623   4.583
 8581WAT     H226806   3.047   0.717   4.548
 8582WAT      O26807   1.615   0.451   3.483
 8582WAT     H126808   1.685   0.409   3.434
 8582WAT     H226809   1.543   0.458   3.420
 8583WAT      O26810   2.960   0.544   3.814
 8583WAT     H126811   3.010   0.520   3.892
 8583WAT     H226812   2.940   0.460   3.772
 8584WAT      O26813   3.103   0.407   4.067
 8584WAT     H126814   3.092   0.392   4.161
 8584WAT     H226815   3.179   0.354   4.043
 8585WAT      O26816   3.192   0.190   3.391
 8585WAT     H126817   3.285   0.177   3.370
 8585WAT     H226818   3.190   0.198   3.486
 8586WAT      O26819   3.199   0.267   3.654
 8586WAT     H126820   3.120   0.261   3.706
 8586WAT     H226821   3.220   0.361   3.652
 8587WAT      O26822   2.894   1.671   4.053
 8587WAT     H126823   2.953   1.639   3.985
 8587WAT     H226824   2.919   1.624   4.132
 8588WAT      O26825   1.684   1.315   5.068
 8588WAT     H126826   1.680   1.277   5.156
 8588WAT     H226827   1.697   1.408   5.082
 8589WAT      O26828   2.054   1.470   4.628
 8589WAT     H126829   2.030   1.497   4.539
 8589WAT     H226830   2.148   1.487   4.633
 8590WAT      O26831   3.180   1.672   4.708
 8590WAT     H126832   3.131   1.712   4.636
 8590WAT     H226833   3.119   1.610   4.747
 8591WAT      O26834   1.668   1.609   4.780
 8591WAT     H126835   1.609   1.596   4.854
 8591WAT     H226836   1.667   1.526   4.733
 8592WAT      O26837   2.949   1.736   4.436
 8592WAT     H126838   2.903   1.811   4.398
 8592WAT     H226839   2.886   1.664   4.430
 8593WAT      O26840   1.631   1.346   4.675
 8593WAT     H126841   1.559   1.284   4.668
 8593WAT     H226842   1.637   1.385   4.588
 8594WAT      O26843   1.992   1.567   4.353
 8594WAT     H126844   2.043   1.506   4.301
 8594WAT     H226845   2.057   1.618   4.402
 8595WAT      O26846   2.266   1.656   4.436
 8595WAT     H126847   2.294   1.631   4.348
 8595WAT     H226848   2.317   1.601   4.495
 8596WAT      O26849   1.460   1.678   3.996
 8596WAT     H126850   1.443   1.614   4.066
 8596WAT     H226851   1.373   1.698   3.961
 8597WAT      O26852   2.176   0.272   4.045
 8597WAT     H126853   2.095   0.235   4.011
 8597WAT     H226854   2.226   0.197   4.075
 8598WAT      O26855   1.620   1.547   3.740
 8598WAT     H126856   1.568   1.585   3.670
 8598WAT     H226857   1.613   1.609   3.812
 8599WAT      O26858   2.272   1.748   5.173
 8599WAT     H126859   2.365   1.725   5.177
 8599WAT     H226860   2.271   1.831   5.125
 8600WAT      O26861   3.096   1.703   3.872
 8600WAT     H126862   3.113   1.634   3.808
 8600WAT     H226863   3.026   1.755   3.833
 8601WAT      O26864   1.880   1.742   3.628
 8601WAT     H126865   1.953   1.713   3.573
 8601WAT     H226866   1.906   1.718   3.717
 8602WAT      O26867   1.796   1.353   3.628
 8602WAT     H126868   1.733   1.400   3.683
 8602WAT     H226869   1.808   1.269   3.672
 8603WAT      O26870   2.929   1.671   5.155
 8603WAT     H126871   3.008   1.622   5.134
 8603WAT     H226872   2.958   1.739   5.216
 8604WAT      O26873   2.542   0.758   2.243
 8604WAT     H126874   2.534   0.667   2.216
 8604WAT     H226875   2.500   0.808   2.173
 8605WAT      O26876   2.355   0.936   2.431
 8605WAT     H126877   2.277   0.888   2.460
 8605WAT     H226878   2.420   0.868   2.414
 8606WAT      O26879   1.757   0.967   2.519
 8606WAT     H126880   1.673   0.942   2.559
 8606WAT     H226881   1.817   0.974   2.593
 8607WAT      O26882   2.757   1.377   2.309
 8607WAT     H126883   2.711   1.300   2.342
 8607WAT     H226884   2.838   1.379   2.360
 8608WAT      O26885   1.755   1.371   2.539
 8608WAT     H126886   1.785   1.282   2.521
 8608WAT     H226887   1.829   1.426   2.516
 8609WAT      O26888   1.597   0.463   1.898
 8609WAT     H126889   1.509   0.498   1.887
 8609WAT     H226890   1.626   0.443   1.808
 8610WAT      O26891   1.394   0.723   2.486
 8610WAT     H126892   1.451   0.647   2.486
 8610WAT     H226893   1.394   0.753   2.395
 8611WAT      O26894   2.380   1.605   2.271
 8611WAT     H126895   2.318   1.651   2.214
 8611WAT     H226896   2.465   1.621   2.231
 8612WAT      O26897   2.299   1.204   2.432
 8612WAT     H126898   2.292   1.110   2.416
 8612WAT     H226899   2.375   1.213   2.489
 8613WAT      O26900   1.518   0.264   2.665
 8613WAT     H126901   1.500   0.175   2.693
 8613WAT     H226902   1.478   0.319   2.732
 8614WAT      O26903   2.402   0.484   2.455
 8614WAT     H126904   2.440   0.397   2.444
 8614WAT     H226905   2.392   0.518   2.366
 8615WAT      O26906   1.815   0.322   2.001
 8615WAT     H126907   1.826   0.412   2.032
 8615WAT     H226908   1.724   0.317   1.972
 8616WAT      O26909   2.780   0.234   2.148
 8616WAT     H126910   2.862   0.185   2.152
 8616WAT     H226911   2.784   0.293   2.223
 8617WAT      O26912   1.580   0.514   2.525
 8617WAT     H126913   1.648   0.540   2.587
 8617WAT     H226914   1.548   0.430   2.559
 8618WAT      O26915   1.999   0.619   2.434
 8618WAT     H126916   2.050   0.668   2.498
 8618WAT     H226917   2.052   0.541   2.417
 8619WAT      O26918   3.209   0.436   2.805
 8619WAT     H126919   3.139   0.474   2.753
 8619WAT     H226920   3.236   0.505   2.865
 8620WAT      O26921   2.466   1.094   2.011
 8620WAT     H126922   2.404   1.140   1.954
 8620WAT     H226923   2.517   1.163   2.052
 8621WAT      O26924   1.953   1.046   2.679
 8621WAT     H126925   1.919   1.109   2.743
 8621WAT     H226926   1.970   1.099   2.601
 8622WAT      O26927   2.804   0.428   2.425
 8622WAT     H126928   2.733   0.457   2.483
 8622WAT     H226929   2.840   0.509   2.389
 8623WAT      O26930   1.796   0.254   2.662
 8623WAT     H126931   1.830   0.338   2.632
 8623WAT     H226932   1.702   0.268   2.673
 8624WAT      O26933   1.874   1.243   2.860
 8624WAT     H126934   1.935   1.311   2.832
 8624WAT     H226935   1.788   1.284   2.851
 8625WAT      O26936   1.403   1.162   1.748
 8625WAT     H126937   1.365   1.211   1.675
 8625WAT     H226938   1.429   1.230   1.811
 8626WAT      O26939   2.966   1.390   2.652
 8626WAT     H126940   2.897   1.457   2.651
 8626WAT     H226941   3.019   1.410   2.575
 8627WAT      O26942   3.111   0.372   2.464
 8627WAT     H126943   3.016   0.376   2.478
 8627WAT     H226944   3.143   0.454   2.503
 8628WAT      O26945   2.719   1.574   2.523
 8628WAT     H126946   2.720   1.534   2.436
 8628WAT     H226947   2.664   1.652   2.513
 8629WAT      O26948   2.849   1.246   2.032
 8629WAT     H126949   2.838   1.152   2.044
 8629WAT     H226950   2.848   1.282   2.121
 8630WAT      O26951   2.659   1.064   2.656
 8630WAT     H126952   2.701   1.043   2.572
 8630WAT     H226953   2.731   1.090   2.713
 8631WAT      O26954   2.403   0.809   1.968
 8631WAT     H126955   2.310   0.802   1.990
 8631WAT     H226956   2.418   0.903   1.956
 8632WAT      O26957   2.401   0.436   1.667
 8632WAT     H126958   2.307   0.452   1.676
 8632WAT     H226959   2.433   0.508   1.613
 8633WAT      O26960   3.054   0.904   2.665
 8633WAT     H126961   2.971   0.911   2.618
 8633WAT     H226962   3.113   0.963   2.618
 8634WAT      O26963   2.806   0.965   2.018
 8634WAT     H126964   2.744   0.931   1.953
 8634WAT     H226965   2.804   0.901   2.089
 8635WAT      O26966   2.750   0.583   2.760
 8635WAT     H126967   2.709   0.666   2.785
 8635WAT     H226968   2.677   0.524   2.740
 8636WAT      O26969   1.963   0.862   2.246
 8636WAT     H126970   1.923   0.790   2.196
 8636WAT     H226971   1.972   0.827   2.335
 8637WAT      O26972   2.010   1.230   2.462
 8637WAT     H126973   1.980   1.170   2.394
 8637WAT     H226974   2.105   1.234   2.451
 8638WAT      O26975   1.835   0.539   2.624
 8638WAT     H126976   1.890   0.550   2.546
 8638WAT     H226977   1.886   0.576   2.695
 8639WAT      O26978   2.819   1.588   2.828
 8639WAT     H126979   2.771   1.668   2.809
 8639WAT     H226980   2.751   1.522   2.844
 8640WAT      O26981   1.919   1.204   3.127
 8640WAT     H126982   1.830   1.226   3.152
 8640WAT     H226983   1.922   1.216   3.032
 8641WAT      O26984   2.623   0.889   1.719
 8641WAT     H126985   2.667   0.805   1.704
 8641WAT     H226986   2.695   0.952   1.727
 8642WAT      O26987   1.802   0.891   2.985
 8642WAT     H126988   1.788   0.978   3.022
 8642WAT     H226989   1.714   0.857   2.970
 8643WAT      O26990   2.434   1.383   2.115
 8643WAT     H126991   2.478   1.457   2.074
 8643WAT     H226992   2.428   1.407   2.208
 8644WAT      O26993   1.982   1.485   3.206
 8644WAT     H126994   1.979   1.526   3.119
 8644WAT     H226995   1.965   1.393   3.189
 8645WAT      O26996   1.633   0.751   1.996
 8645WAT     H126997   1.621   0.824   1.935
 8645WAT     H226998   1.602   0.674   1.948
 8646WAT      O26999   3.177   1.564   3.335
 8646WAT     H127000   3.225   1.612   3.403
 8646WAT     H227001   3.239   1.557   3.263
 8647WAT      O27002   1.397   1.068   2.577
 8647WAT     H127003   1.405   1.082   2.482
 8647WAT     H227004   1.459   0.997   2.596
 8648WAT      O27005   1.522   1.238   2.218
 8648WAT     H127006   1.481   1.252   2.132
 8648WAT     H227007   1.611   1.210   2.197
 8649WAT      O27008   3.117   1.283   3.051
 8649WAT     H127009   3.130   1.259   2.960
 8649WAT     H227010   3.122   1.200   3.099
 8650WAT      O27011   2.503   1.653   2.908
 8650WAT     H127012   2.555   1.644   2.989
 8650WAT     H227013   2.419   1.688   2.938
 8651WAT      O27014   2.701   1.682   1.851
 8651WAT     H127015   2.685   1.653   1.941
 8651WAT     H227016   2.685   1.604   1.798
 8652WAT      O27017   1.949   1.660   2.029
 8652WAT     H127018   1.931   1.568   2.008
 8652WAT     H227019   1.863   1.696   2.053
 8653WAT      O27020   2.671   1.433   1.707
 8653WAT     H127021   2.602   1.432   1.641
 8653WAT     H227022   2.746   1.390   1.664
 8654WAT      O27023   2.628   1.595   2.115
 8654WAT     H127024   2.673   1.517   2.146
 8654WAT     H227025   2.662   1.666   2.169
 8655WAT      O27026   3.103   0.488   3.148
 8655WAT     H127027   3.041   0.539   3.095
 8655WAT     H227028   3.071   0.398   3.142
 8656WAT      O27029   1.403   1.172   2.830
 8656WAT     H127030   1.419   1.125   2.749
 8656WAT     H227031   1.449   1.122   2.897
 8657WAT      O27032   2.309   0.372   2.894
 8657WAT     H127033   2.263   0.393   2.976
 8657WAT     H227034   2.268   0.291   2.864
 8658WAT      O27035   2.809   0.494   3.007
 8658WAT     H127036   2.724   0.464   3.040
 8658WAT     H227037   2.793   0.519   2.916
 8659WAT      O27038   2.518   0.644   3.217
 8659WAT     H127039   2.551   0.561   3.183
 8659WAT     H227040   2.597   0.696   3.232
 8660WAT      O27041   1.859   0.598   2.107
 8660WAT     H127042   1.837   0.576   2.197
 8660WAT     H227043   1.781   0.641   2.072
 8661WAT      O27044   2.582   0.598   1.967
 8661WAT     H127045   2.522   0.671   1.948
 8661WAT     H227046   2.637   0.592   1.889
 8662WAT      O27047   2.103   0.688   3.174
 8662WAT     H127048   2.094   0.594   3.159
 8662WAT     H227049   2.187   0.710   3.134
 8663WAT      O27050   2.443   0.462   2.170
 8663WAT     H127051   2.482   0.494   2.089
 8663WAT     H227052   2.479   0.374   2.181
 8664WAT      O27053   1.616   0.329   2.989
 8664WAT     H127054   1.577   0.413   3.010
 8664WAT     H227055   1.547   0.265   3.008
 8665WAT      O27056   2.274   0.337   3.296
 8665WAT     H127057   2.205   0.318   3.359
 8665WAT     H227058   2.348   0.365   3.349
 8666WAT      O27059   1.365   0.515   1.513
 8666WAT     H127060   1.357   0.610   1.527
 8666WAT     H227061   1.330   0.501   1.425
 8667WAT      O27062   2.501   0.721   2.579
 8667WAT     H127063   2.428   0.772   2.614
 8667WAT     H227064   2.462   0.639   2.549
 8668WAT      O27065   2.145   0.389   2.420
 8668WAT     H127066   2.145   0.345   2.335
 8668WAT     H227067   2.235   0.421   2.431
 8669WAT      O27068   1.730   0.377   2.316
 8669WAT     H127069   1.696   0.425   2.391
 8669WAT     H227070   1.654   0.332   2.280
 8670WAT      O27071   2.151   0.489   1.719
 8670WAT     H127072   2.163   0.485   1.814
 8670WAT     H227073   2.113   0.575   1.703
 8671WAT      O27074   2.548   0.266   2.521
 8671WAT     H127075   2.549   0.311   2.605
 8671WAT     H227076   2.523   0.176   2.542
 8672WAT      O27077   2.053   0.720   1.659
 8672WAT     H127078   1.996   0.675   1.596
 8672WAT     H227079   2.123   0.756   1.605
 8673WAT      O27080   1.560   1.110   3.046
 8673WAT     H127081   1.522   1.046   3.106
 8673WAT     H227082   1.591   1.180   3.103
 8674WAT      O27083   2.175   0.795   2.595
 8674WAT     H127084   2.212   0.747   2.669
 8674WAT     H227085   2.156   0.882   2.629
 8675WAT      O27086   1.462   0.269   2.207
 8675WAT     H127087   1.433   0.233   2.291
 8675WAT     H227088   1.455   0.196   2.146
 8676WAT      O27089   1.954   0.699   2.826
 8676WAT     H127090   1.924   0.787   2.849
 8676WAT     H227091   2.050   0.705   2.830
 8677WAT      O27092   1.807   1.119   1.886
 8677WAT     H127093   1.730   1.065   1.870
 8677WAT     H227094   1.880   1.067   1.852
 8678WAT      O27095   2.883   1.019   2.465
 8678WAT     H127096   2.955   1.069   2.426
 8678WAT     H227097   2.863   0.951   2.401
 8679WAT      O27098   2.421   1.026   3.054
 8679WAT     H127099   2.414   0.934   3.029
 8679WAT     H227100   2.358   1.036   3.125
 8680WAT      O27101   2.700   0.596   1.709
 8680WAT     H127102   2.789   0.627   1.692
 8680WAT     H227103   2.698   0.508   1.670
 8681WAT      O27104   1.811   1.086   2.250
 8681WAT     H127105   1.863   1.006   2.244
 8681WAT     H227106   1.766   1.080   2.334
 8682WAT      O27107   2.300   1.213   1.777
 8682WAT     H127108   2.334   1.287   1.728
 8682WAT     H227109   2.217   1.244   1.813
 8683WAT      O27110   1.560   0.783   2.941
 8683WAT     H127111   1.524   0.849   3.000
 8683WAT     H227112   1.530   0.700   2.978
 8684WAT      O27113   1.880   0.829   3.229
 8684WAT     H127114   1.850   0.843   3.140
 8684WAT     H227115   1.957   0.773   3.220
 8685WAT      O27116   2.414   1.308   3.029
 8685WAT     H127117   2.416   1.215   3.007
 8685WAT     H227118   2.343   1.317   3.093
 8686WAT      O27119   2.928   0.727   1.656
 8686WAT     H127120   2.919   0.770   1.571
 8686WAT     H227121   3.000   0.773   1.699
 8687WAT      O27122   3.035   0.972   2.964
 8687WAT     H127123   2.963   1.032   2.944
 8687WAT     H227124   3.088   0.972   2.884
 8688WAT      O27125   3.030   1.412   1.929
 8688WAT     H127126   2.966   1.347   1.956
 8688WAT     H227127   2.992   1.453   1.851
 8689WAT      O27128   2.588   1.145   2.314
 8689WAT     H127129   2.624   1.085   2.248
 8689WAT     H227130   2.500   1.112   2.331
 8690WAT      O27131   2.197   1.221   2.054
 8690WAT     H127132   2.266   1.276   2.092
 8690WAT     H227133   2.118   1.275   2.058
 8691WAT      O27134   1.411   0.783   1.603
 8691WAT     H127135   1.498   0.811   1.632
 8691WAT     H227136   1.362   0.864   1.592
 8692WAT      O27137   2.127   0.921   2.016
 8692WAT     H127138   2.173   1.002   2.038
 8692WAT     H227139   2.092   0.890   2.099
 8693WAT      O27140   2.358   1.472   2.738
 8693WAT     H127141   2.422   1.493   2.806
 8693WAT     H227142   2.394   1.396   2.693
 8694WAT      O27143   2.485   1.273   2.610
 8694WAT     H127144   2.549   1.203   2.622
 8694WAT     H227145   2.537   1.351   2.592
 8695WAT      O27146   2.869   1.301   1.583
 8695WAT     H127147   2.847   1.230   1.642
 8695WAT     H227148   2.830   1.276   1.499
 8696WAT      O27149   2.662   1.353   2.931
 8696WAT     H127150   2.696   1.411   2.998
 8696WAT     H227151   2.570   1.340   2.954
 8697WAT      O27152   1.448   1.704   1.660
 8697WAT     H127153   1.484   1.764   1.595
 8697WAT     H227154   1.434   1.759   1.737
 8698WAT      O27155   2.828   1.093   1.749
 8698WAT     H127156   2.799   1.139   1.828
 8698WAT     H227157   2.907   1.047   1.776
 8699WAT      O27158   1.446   1.530   3.107
 8699WAT     H127159   1.457   1.436   3.093
 8699WAT     H227160   1.381   1.557   3.043
 8700WAT      O27161   2.245   1.358   3.247
 8700WAT     H127162   2.213   1.286   3.302
 8700WAT     H227163   2.178   1.425   3.255
 8701WAT      O27164   2.049   1.442   1.742
 8701WAT     H127165   2.048   1.516   1.680
 8701WAT     H227166   1.957   1.418   1.751
 8702WAT      O27167   1.609   0.964   1.816
 8702WAT     H127168   1.549   1.038   1.817
 8702WAT     H227169   1.657   0.973   1.734
 8703WAT      O27170   2.567   0.381   2.784
 8703WAT     H127171   2.603   0.299   2.817
 8703WAT     H227172   2.481   0.387   2.825
 8704WAT      O27173   2.903   0.276   1.865
 8704WAT     H127174   2.840   0.287   1.793
 8704WAT     H227175   2.854   0.298   1.944
 8705WAT      O27176   2.348   1.449   1.608
 8705WAT     H127177   2.358   1.428   1.515
 8705WAT     H227178   2.258   1.423   1.629
 8706WAT      O27179   2.100   0.504   2.006
 8706WAT     H127180   2.029   0.551   2.050
 8706WAT     H227181   2.129   0.439   2.070
 8707WAT      O27182   2.263   0.646   2.806
 8707WAT     H127183   2.313   0.694   2.873
 8707WAT     H227184   2.277   0.554   2.827
 8708WAT      O27185   2.503   0.177   2.150
 8708WAT     H127186   2.491   0.179   2.055
 8708WAT     H227187   2.598   0.182   2.162
 8709WAT      O27188   2.212   1.700   2.078
 8709WAT     H127189   2.237   1.697   1.985
 8709WAT     H227190   2.117   1.688   2.077
 8710WAT      O27191   1.920   0.335   1.744
 8710WAT     H127192   2.005   0.379   1.737
 8710WAT     H227193   1.884   0.366   1.827
 8711WAT      O27194   2.983   0.268   2.890
 8711WAT     H127195   2.933   0.342   2.924
 8711WAT     H227196   3.065   0.307   2.859
 8712WAT      O27197   2.813   0.792   2.235
 8712WAT     H127198   2.718   0.794   2.253
 8712WAT     H227199   2.844   0.714   2.280
 8713WAT      O27200   1.810   0.960   1.591
 8713WAT     H127201   1.887   0.949   1.647
 8713WAT     H227202   1.818   0.891   1.526
 8714WAT      O27203   1.680   0.704   1.659
 8714WAT     H127204   1.688   0.609   1.671
 8714WAT     H227205   1.769   0.737   1.670
 8715WAT      O27206   3.013   1.509   2.403
 8715WAT     H127207   3.025   1.592   2.450
 8715WAT     H227208   3.100   1.488   2.368
 8716WAT      O27209   1.760   1.719   2.370
 8716WAT     H127210   1.834   1.664   2.397
 8716WAT     H227211   1.798   1.805   2.356
 8717WAT      O27212   1.448   1.325   1.957
 8717WAT     H127213   1.356   1.350   1.956
 8717WAT     H227214   1.495   1.408   1.945
 8718WAT      O27215   1.661   1.637   3.289
 8718WAT     H127216   1.741   1.669   3.330
 8718WAT     H227217   1.609   1.601   3.361
 8719WAT      O27218   2.071   1.636   1.552
 8719WAT     H127219   2.150   1.665   1.507
 8719WAT     H227220   2.019   1.593   1.484
 8720WAT      O27221   2.544   1.248   3.283
 8720WAT     H127222   2.484   1.250   3.209
 8720WAT     H227223   2.514   1.175   3.337
 8721WAT      O27224   2.687   1.621   3.145
 8721WAT     H127225   2.782   1.612   3.140
 8721WAT     H227226   2.673   1.687   3.212
 8722WAT      O27227   2.976   1.559   1.694
 8722WAT     H127228   2.948   1.517   1.613
 8722WAT     H227229   2.957   1.652   1.682
 8723WAT      O27230   1.433   0.886   3.183
 8723WAT     H127231   1.483   0.828   3.240
 8723WAT     H227232   1.359   0.914   3.237
 8724WAT      O27233   2.123   1.158   1.538
 8724WAT     H127234   2.112   1.097   1.611
 8724WAT     H227235   2.106   1.106   1.460
 8725WAT      O27236   2.138   1.027   3.136
 8725WAT     H127237   2.061   1.083   3.128
 8725WAT     H227238   2.156   0.997   3.047
 8726WAT      O27239   2.447   1.064   1.599
 8726WAT     H127240   2.392   1.109   1.663
 8726WAT     H227241   2.509   1.014   1.651
 8727WAT      O27242   2.852   1.200   3.192
 8727WAT     H127243   2.926   1.233   3.142
 8727WAT     H227244   2.776   1.217   3.137
 8728WAT      O27245   1.636   0.700   3.273
 8728WAT     H127246   1.640   0.670   3.363
 8728WAT     H227247   1.721   0.740   3.257
 8729WAT      O27248   2.014   0.960   1.789
 8729WAT     H127249   2.056   0.944   1.873
 8729WAT     H227250   2.026   0.879   1.739
 8730WAT      O27251   1.830   0.558   3.069
 8730WAT     H127252   1.777   0.509   3.007
 8730WAT     H227253   1.897   0.601   3.016
 8731WAT      O27254   2.265   0.863   1.513
 8731WAT     H127255   2.317   0.791   1.477
 8731WAT     H227256   2.330   0.926   1.543
 8732WAT      O27257   2.720   1.005   3.046
 8732WAT     H127258   2.761   1.020   3.131
 8732WAT     H227259   2.626   1.017   3.062
 8733WAT      O27260   2.767   0.739   3.246
 8733WAT     H127261   2.825   0.663   3.237
 8733WAT     H227262   2.784   0.792   3.168
 8734WAT      O27263   1.879   0.255   3.077
 8734WAT     H127264   1.869   0.193   3.005
 8734WAT     H227265   1.821   0.327   3.055
 8735WAT      O27266   2.196   1.000   2.843
 8735WAT     H127267   2.238   1.084   2.825
 8735WAT     H227268   2.104   1.014   2.820
 8736WAT      O27269   2.429   0.773   2.981
 8736WAT     H127270   2.441   0.714   3.055
 8736WAT     H227271   2.515   0.777   2.939
 8737WAT      O27272   2.663   0.829   2.839
 8737WAT     H127273   2.611   0.881   2.778
 8737WAT     H227274   2.698   0.892   2.902
 8738WAT      O27275   1.903   0.567   1.483
 8738WAT     H127276   1.883   0.481   1.519
 8738WAT     H227277   1.886   0.559   1.389
 8739WAT      O27278   1.981   1.631   2.954
 8739WAT     H127279   1.927   1.703   2.922
 8739WAT     H227280   2.006   1.583   2.875
 8740WAT      O27281   2.106   0.427   3.107
 8740WAT     H127282   2.165   0.397   3.176
 8740WAT     H227283   2.024   0.380   3.122
 8741WAT      O27284   2.588   0.389   3.130
 8741WAT     H127285   2.519   0.323   3.124
 8741WAT     H227286   2.660   0.344   3.175
 8742WAT      O27287   1.783   0.277   1.482
 8742WAT     H127288   1.813   0.278   1.391
 8742WAT     H227289   1.857   0.242   1.532
 8743WAT      O27290   2.267   1.754   2.980
 8743WAT     H127291   2.259   1.844   3.011
 8743WAT     H227292   2.176   1.722   2.977
 8744WAT      O27293   2.321   1.671   1.742
 8744WAT     H127294   2.411   1.704   1.745
 8744WAT     H227295   2.325   1.598   1.680
 8745WAT      O27296   1.685   1.208   1.565
 8745WAT     H127297   1.729   1.262   1.631
 8745WAT     H227298   1.734   1.125   1.566
 8746WAT      O27299   1.407   1.487   2.310
 8746WAT     H127300   1.440   1.400   2.287
 8746WAT     H227301   1.450   1.507   2.393
 8747WAT      O27302   1.866   1.320   2.076
 8747WAT     H127303   1.836   1.308   2.166
 8747WAT     H227304   1.856   1.234   2.036
 8748WAT      O27305   1.456   1.574   2.584
 8748WAT     H127306   1.412   1.592   2.667
 8748WAT     H227307   1.512   1.649   2.570
 8749WAT      O27308   3.019   1.524   3.013
 8749WAT     H127309   2.959   1.530   2.939
 8749WAT     H227310   3.032   1.430   3.026
 8750WAT      O27311   3.143   1.298   1.547
 8750WAT     H127312   3.060   1.305   1.594
 8750WAT     H227313   3.161   1.387   1.516
 8751WAT      O27314   3.089   0.972   1.797
 8751WAT     H127315   3.165   1.029   1.808
 8751WAT     H227316   3.090   0.916   1.874
 8752WAT      O27317   1.439   0.825   2.220
 8752WAT     H127318   1.373   0.798   2.156
 8752WAT     H227319   1.523   0.814   2.175
 8753WAT      O27320   3.189   1.058   2.281
 8753WAT     H127321   3.227   0.980   2.241
 8753WAT     H227322   3.254   1.127   2.264
 8754WAT      O27323   2.888   1.196   2.823
 8754WAT     H127324   2.806   1.239   2.849
 8754WAT     H227325   2.929   1.257   2.761
 8755WAT      O27326   3.094   1.002   1.513
 8755WAT     H127327   3.122   1.092   1.500
 8755WAT     H227328   3.075   0.995   1.606
 8756WAT      O27329   2.734   0.304   1.642
 8756WAT     H127330   2.776   0.285   1.558
 8756WAT     H227331   2.703   0.219   1.673
 8757WAT      O27332   3.084   0.795   2.012
 8757WAT     H127333   3.046   0.719   1.969
 8757WAT     H227334   3.011   0.834   2.061
 8758WAT      O27335   1.543   0.863   2.674
 8758WAT     H127336   1.579   0.855   2.762
 8758WAT     H227337   1.486   0.787   2.664
 8759WAT      O27338   3.023   0.710   2.975
 8759WAT     H127339   3.000   0.687   2.885
 8759WAT     H227340   3.049   0.802   2.971
 8760WAT      O27341   1.498   0.554   3.065
 8760WAT     H127342   1.408   0.551   3.099
 8760WAT     H227343   1.552   0.574   3.141
 8761WAT      O27344   2.867   0.233   3.253
 8761WAT     H127345   2.954   0.233   3.292
 8761WAT     H227346   2.868   0.159   3.192
 8762WAT      O27347   1.360   0.546   1.814
 8762WAT     H127348   1.270   0.572   1.797
 8762WAT     H227349   1.409   0.573   1.736
 8763WAT      O27350   3.011   0.618   2.342
 8763WAT     H127351   3.064   0.569   2.279
 8763WAT     H227352   3.070   0.631   2.417
 8764WAT      O27353   3.029   0.626   2.694
 8764WAT     H127354   2.934   0.623   2.706
 8764WAT     H227355   3.047   0.717   2.671
 8765WAT      O27356   1.615   0.451   1.605
 8765WAT     H127357   1.685   0.409   1.557
 8765WAT     H227358   1.543   0.458   1.542
 8766WAT      O27359   2.960   0.544   1.936
 8766WAT     H127360   3.010   0.520   2.015
 8766WAT     H227361   2.940   0.460   1.894
 8767WAT      O27362   3.103   0.407   2.189
 8767WAT     H127363   3.092   0.392   2.283
 8767WAT     H227364   3.179   0.354   2.165
 8768WAT      O27365   3.192   0.190   1.514
 8768WAT     H127366   3.285   0.177   1.493
 8768WAT     H227367   3.190   0.198   1.609
 8769WAT      O27368   3.199   0.267   1.776
 8769WAT     H127369   3.120   0.261   1.829
 8769WAT     H227370   3.220   0.361   1.775
 8770WAT      O27371   2.894   1.671   2.175
 8770WAT     H127372   2.953   1.639   2.108
 8770WAT     H227373   2.919   1.624   2.255
 8771WAT      O27374   1.684   1.315   3.190
 8771WAT     H127375   1.680   1.277   3.279
 8771WAT     H227376   1.697   1.408   3.204
 8772WAT      O27377   2.054   1.470   2.750
 8772WAT     H127378   2.030   1.497   2.662
 8772WAT     H227379   2.148   1.487   2.756
 8773WAT      O27380   3.180   1.672   2.831
 8773WAT     H127381   3.131   1.712   2.759
 8773WAT     H227382   3.119   1.610   2.870
 8774WAT      O27383   1.668   1.609   2.902
 8774WAT     H127384   1.609   1.596   2.976
 8774WAT     H227385   1.667   1.526   2.856
 8775WAT      O27386   2.949   1.736   2.558
 8775WAT     H127387   2.903   1.811   2.521
 8775WAT     H227388   2.886   1.664   2.553
 8776WAT      O27389   1.631   1.346   2.797
 8776WAT     H127390   1.559   1.284   2.791
 8776WAT     H227391   1.637   1.385   2.710
 8777WAT      O27392   1.992   1.567   2.476
 8777WAT     H127393   2.043   1.506   2.423
 8777WAT     H227394   2.057   1.618   2.525
 8778WAT      O27395   2.266   1.656   2.559
 8778WAT     H127396   2.294   1.631   2.471
 8778WAT     H227397   2.317   1.601   2.618
 8779WAT      O27398   1.460   1.678   2.118
 8779WAT     H127399   1.443   1.614   2.188
 8779WAT     H227400   1.373   1.698   2.083
 8780WAT      O27401   2.176   0.272   2.168
 8780WAT     H127402   2.095   0.235   2.134
 8780WAT     H227403   2.226   0.197   2.198
 8781WAT      O27404   1.620   1.547   1.863
 8781WAT     H127405   1.568   1.585   1.793
 8781WAT     H227406   1.613   1.609   1.935
 8782WAT      O27407   2.272   1.748   3.295
 8782WAT     H127408   2.365   1.725   3.300
 8782WAT     H227409   2.271   1.831   3.247
 8783WAT      O27410   3.096   1.703   1.995
 8783WAT     H127411   3.113   1.634   1.931
 8783WAT     H227412   3.026   1.755   1.956
 8784WAT      O27413   1.880   1.742   1.750
 8784WAT     H127414   1.953   1.713   1.696
 8784WAT     H227415   1.906   1.718   1.839
 8785WAT      O27416   1.796   1.353   1.751
 8785WAT     H127417   1.733   1.400   1.806
 8785WAT     H227418   1.808   1.269   1.794
 8786WAT      O27419   2.929   1.671   3.278
 8786WAT     H127420   3.008   1.622   3.257
 8786WAT     H227421   2.958   1.739   3.338
 8787WAT      O27422   2.542   0.758   0.366
 8787WAT     H127423   2.534   0.667   0.339
 8787WAT     H227424   2.500   0.808   0.295
 8788WAT      O27425   2.355   0.936   0.554
 8788WAT     H127426   2.277   0.888   0.583
 8788WAT     H227427   2.420   0.868   0.537
 8789WAT      O27428   1.757   0.967   0.642
 8789WAT     H127429   1.673   0.942   0.682
 8789WAT     H227430   1.817   0.974   0.715
 8790WAT      O27431   2.757   1.377   0.432
 8790WAT     H127432   2.711   1.300   0.465
 8790WAT     H227433   2.838   1.379   0.482
 8791WAT      O27434   1.755   1.371   0.661
 8791WAT     H127435   1.785   1.282   0.643
 8791WAT     H227436   1.829   1.426   0.639
 8792WAT      O27437   1.394   0.723   0.609
 8792WAT     H127438   1.451   0.647   0.609
 8792WAT     H227439   1.394   0.753   0.518
 8793WAT      O27440   2.380   1.605   0.394
 8793WAT     H127441   2.318   1.651   0.337
 8793WAT     H227442   2.465   1.621   0.354
 8794WAT      O27443   2.299   1.204   0.555
 8794WAT     H127444   2.292   1.110   0.539
 8794WAT     H227445   2.375   1.213   0.612
 8795WAT      O27446   1.518   0.264   0.787
 8795WAT     H127447   1.500   0.175   0.815
 8795WAT     H227448   1.478   0.319   0.855
 8796WAT      O27449   2.402   0.484   0.577
 8796WAT     H127450   2.440   0.397   0.566
 8796WAT     H227451   2.392   0.518   0.488
 8797WAT      O27452   2.780   0.234   0.271
 8797WAT     H127453   2.862   0.185   0.275
 8797WAT     H227454   2.784   0.293   0.346
 8798WAT      O27455   1.580   0.514   0.648
 8798WAT     H127456   1.648   0.540   0.710
 8798WAT     H227457   1.548   0.430   0.681
 8799WAT      O27458   1.999   0.619   0.557
 8799WAT     H127459   2.050   0.668   0.621
 8799WAT     H227460   2.052   0.541   0.539
 8800WAT      O27461   3.209   0.436   0.927
 8800WAT     H127462   3.139   0.474   0.875
 8800WAT     H227463   3.236   0.505   0.987
 8801WAT      O27464   1.953   1.046   0.801
 8801WAT     H127465   1.919   1.109   0.865
 8801WAT     H227466   1.970   1.099   0.723
 8802WAT      O27467   2.804   0.428   0.548
 8802WAT     H127468   2.733   0.457   0.606
 8802WAT     H227469   2.840   0.509   0.512
 8803WAT      O27470   1.796   0.254   0.784
 8803WAT     H127471   1.830   0.338   0.755
 8803WAT     H227472   1.702   0.268   0.796
 8804WAT      O27473   1.874   1.243   0.983
 8804WAT     H127474   1.935   1.311   0.954
 8804WAT     H227475   1.788   1.284   0.974
 8805WAT      O27476   2.966   1.390   0.774
 8805WAT     H127477   2.897   1.457   0.773
 8805WAT     H227478   3.019   1.410   0.698
 8806WAT      O27479   3.111   0.372   0.587
 8806WAT     H127480   3.016   0.376   0.600
 8806WAT     H227481   3.143   0.454   0.625
 8807WAT      O27482   2.719   1.574   0.646
 8807WAT     H127483   2.720   1.534   0.559
 8807WAT     H227484   2.664   1.652   0.635
 8808WAT      O27485   2.659   1.064   0.778
 8808WAT     H127486   2.701   1.043   0.695
 8808WAT     H227487   2.731   1.090   0.836
 8809WAT      O27488   3.054   0.904   0.788
 8809WAT     H127489   2.971   0.911   0.740
 8809WAT     H227490   3.113   0.963   0.741
 8810WAT      O27491   2.750   0.583   0.882
 8810WAT     H127492   2.709   0.666   0.908
 8810WAT     H227493   2.677   0.524   0.863
 8811WAT      O27494   1.963   0.862   0.368
 8811WAT     H127495   1.923   0.790   0.319
 8811WAT     H227496   1.972   0.827   0.457
 8812WAT      O27497   2.010   1.230   0.585
 8812WAT     H127498   1.980   1.170   0.517
 8812WAT     H227499   2.105   1.234   0.574
 8813WAT      O27500   1.835   0.539   0.746
 8813WAT     H127501   1.890   0.550   0.669
 8813WAT     H227502   1.886   0.576   0.818
 8814WAT      O27503   2.819   1.588   0.951
 8814WAT     H127504   2.771   1.668   0.932
 8814WAT     H227505   2.751   1.522   0.966
 8815WAT      O27506   1.919   1.204   1.250
 8815WAT     H127507   1.830   1.226   1.275
 8815WAT     H227508   1.922   1.216   1.155
 8816WAT      O27509   1.802   0.891   1.107
 8816WAT     H127510   1.788   0.978   1.144
 8816WAT     H227511   1.714   0.857   1.093
 8817WAT      O27512   2.434   1.383   0.238
 8817WAT     H127513   2.478   1.457   0.197
 8817WAT     H227514   2.428   1.407   0.330
 8818WAT      O27515   1.982   1.485   1.328
 8818WAT     H127516   1.979   1.526   1.242
 8818WAT     H227517   1.965   1.393   1.312
 8819WAT      O27518   3.177   1.564   1.458
 8819WAT     H127519   3.225   1.612   1.526
 8819WAT     H227520   3.239   1.557   1.385
 8820WAT      O27521   1.397   1.068   0.699
 8820WAT     H127522   1.405   1.082   0.605
 8820WAT     H227523   1.459   0.997   0.718
 8821WAT      O27524   1.522   1.238   0.340
 8821WAT     H127525   1.481   1.252   0.255
 8821WAT     H227526   1.611   1.210   0.320
 8822WAT      O27527   3.117   1.283   1.174
 8822WAT     H127528   3.130   1.259   1.082
 8822WAT     H227529   3.122   1.200   1.221
 8823WAT      O27530   2.503   1.653   1.031
 8823WAT     H127531   2.555   1.644   1.111
 8823WAT     H227532   2.419   1.688   1.060
 8824WAT      O27533   2.628   1.595   0.237
 8824WAT     H127534   2.673   1.517   0.269
 8824WAT     H227535   2.662   1.666   0.292
 8825WAT      O27536   3.103   0.488   1.270
 8825WAT     H127537   3.041   0.539   1.218
 8825WAT     H227538   3.071   0.398   1.265
 8826WAT      O27539   1.403   1.172   0.953
 8826WAT     H127540   1.419   1.125   0.871
 8826WAT     H227541   1.449   1.122   1.020
 8827WAT      O27542   2.309   0.372   1.017
 8827WAT     H127543   2.263   0.393   1.098
 8827WAT     H227544   2.268   0.291   0.987
 8828WAT      O27545   2.809   0.494   1.130
 8828WAT     H127546   2.724   0.464   1.162
 8828WAT     H227547   2.793   0.519   1.039
 8829WAT      O27548   2.518   0.644   1.340
 8829WAT     H127549   2.551   0.561   1.306
 8829WAT     H227550   2.597   0.696   1.355
 8830WAT      O27551   1.859   0.598   0.229
 8830WAT     H127552   1.837   0.576   0.320
 8830WAT     H227553   1.781   0.641   0.195
 8831WAT      O27554   2.103   0.688   1.296
 8831WAT     H127555   2.094   0.594   1.281
 8831WAT     H227556   2.187   0.710   1.257
 8832WAT      O27557   2.443   0.462   0.292
 8832WAT     H127558   2.482   0.494   0.211
 8832WAT     H227559   2.479   0.374   0.304
 8833WAT      O27560   1.616   0.329   1.111
 8833WAT     H127561   1.577   0.413   1.132
 8833WAT     H227562   1.547   0.265   1.130
 8834WAT      O27563   2.274   0.337   1.418
 8834WAT     H127564   2.205   0.318   1.482
 8834WAT     H227565   2.348   0.365   1.472
 8835WAT      O27566   2.501   0.721   0.702
 8835WAT     H127567   2.428   0.772   0.737
 8835WAT     H227568   2.462   0.639   0.672
 8836WAT      O27569   2.145   0.389   0.542
 8836WAT     H127570   2.145   0.345   0.457
 8836WAT     H227571   2.235   0.421   0.553
 8837WAT      O27572   1.730   0.377   0.438
 8837WAT     H127573   1.696   0.425   0.514
 8837WAT     H227574   1.654   0.332   0.402
 8838WAT      O27575   2.548   0.266   0.643
 8838WAT     H127576   2.549   0.311   0.728
 8838WAT     H227577   2.523   0.176   0.664
 8839WAT      O27578   1.560   1.110   1.169
 8839WAT     H127579   1.522   1.046   1.229
 8839WAT     H227580   1.591   1.180   1.226
 8840WAT      O27581   2.175   0.795   0.717
 8840WAT     H127582   2.212   0.747   0.792
 8840WAT     H227583   2.156   0.882   0.751
 8841WAT      O27584   1.462   0.269   0.330
 8841WAT     H127585   1.433   0.233   0.414
 8841WAT     H227586   1.455   0.196   0.269
 8842WAT      O27587   1.954   0.699   0.949
 8842WAT     H127588   1.924   0.787   0.971
 8842WAT     H227589   2.050   0.705   0.953
 8843WAT      O27590   2.883   1.019   0.588
 8843WAT     H127591   2.955   1.069   0.549
 8843WAT     H227592   2.863   0.951   0.523
 8844WAT      O27593   2.421   1.026   1.177
 8844WAT     H127594   2.414   0.934   1.151
 8844WAT     H227595   2.358   1.036   1.248
 8845WAT      O27596   1.811   1.086   0.372
 8845WAT     H127597   1.863   1.006   0.367
 8845WAT     H227598   1.766   1.080   0.457
 8846WAT      O27599   1.560   0.783   1.064
 8846WAT     H127600   1.524   0.849   1.122
 8846WAT     H227601   1.530   0.700   1.101
 8847WAT      O27602   1.880   0.829   1.352
 8847WAT     H127603   1.850   0.843   1.262
 8847WAT     H227604   1.957   0.773   1.343
 8848WAT      O27605   2.414   1.308   1.152
 8848WAT     H127606   2.416   1.215   1.130
 8848WAT     H227607   2.343   1.317   1.215
 8849WAT      O27608   3.035   0.972   1.086
 8849WAT     H127609   2.963   1.032   1.067
 8849WAT     H227610   3.088   0.972   1.006
 8850WAT      O27611   2.588   1.145   0.436
 8850WAT     H127612   2.624   1.085   0.370
 8850WAT     H227613   2.500   1.112   0.453
 8851WAT      O27614   2.197   1.221   0.177
 8851WAT     H127615   2.266   1.276   0.215
 8851WAT     H227616   2.118   1.275   0.180
 8852WAT      O27617   2.358   1.472   0.861
 8852WAT     H127618   2.422   1.493   0.929
 8852WAT     H227619   2.394   1.396   0.816
 8853WAT      O27620   2.485   1.273   0.733
 8853WAT     H127621   2.549   1.203   0.744
 8853WAT     H227622   2.537   1.351   0.715
 8854WAT      O27623   2.662   1.353   1.053
 8854WAT     H127624   2.696   1.411   1.121
 8854WAT     H227625   2.570   1.340   1.076
 8855WAT      O27626   1.446   1.530   1.230
 8855WAT     H127627   1.457   1.436   1.216
 8855WAT     H227628   1.381   1.557   1.165
 8856WAT      O27629   2.245   1.358   1.370
 8856WAT     H127630   2.213   1.286   1.424
 8856WAT     H227631   2.178   1.425   1.377
 8857WAT      O27632   2.567   0.381   0.906
 8857WAT     H127633   2.603   0.299   0.939
 8857WAT     H227634   2.481   0.387   0.948
 8858WAT      O27635   2.263   0.646   0.929
 8858WAT     H127636   2.313   0.694   0.995
 8858WAT     H227637   2.277   0.554   0.949
 8859WAT      O27638   2.503   0.177   0.273
 8859WAT     H127639   2.491   0.179   0.178
 8859WAT     H227640   2.598   0.182   0.285
 8860WAT      O27641   2.983   0.268   1.013
 8860WAT     H127642   2.933   0.342   1.047
 8860WAT     H227643   3.065   0.307   0.981
 8861WAT      O27644   2.813   0.792   0.358
 8861WAT     H127645   2.718   0.794   0.375
 8861WAT     H227646   2.844   0.714   0.402
 8862WAT      O27647   3.013   1.509   0.525
 8862WAT     H127648   3.025   1.592   0.572
 8862WAT     H227649   3.100   1.488   0.490
 8863WAT      O27650   1.760   1.719   0.492
 8863WAT     H127651   1.834   1.664   0.519
 8863WAT     H227652   1.798   1.805   0.478
 8864WAT      O27653   1.661   1.637   1.411
 8864WAT     H127654   1.741   1.669   1.453
 8864WAT     H227655   1.609   1.601   1.483
 8865WAT      O27656   2.544   1.248   1.406
 8865WAT     H127657   2.484   1.250   1.332
 8865WAT     H227658   2.514   1.175   1.460
 8866WAT      O27659   2.687   1.621   1.267
 8866WAT     H127660   2.782   1.612   1.262
 8866WAT     H227661   2.673   1.687   1.334
 8867WAT      O27662   1.433   0.886   1.306
 8867WAT     H127663   1.483   0.828   1.363
 8867WAT     H227664   1.359   0.914   1.359
 8868WAT      O27665   2.138   1.027   1.259
 8868WAT     H127666   2.061   1.083   1.250
 8868WAT     H227667   2.156   0.997   1.170
 8869WAT      O27668   2.852   1.200   1.315
 8869WAT     H127669   2.926   1.233   1.264
 8869WAT     H227670   2.776   1.217   1.259
 8870WAT      O27671   1.636   0.700   1.395
 8870WAT     H127672   1.640   0.670   1.486
 8870WAT     H227673   1.721   0.740   1.379
 8871WAT      O27674   1.830   0.558   1.192
 8871WAT     H127675   1.777   0.509   1.129
 8871WAT     H227676   1.897   0.601   1.138
 8872WAT      O27677   2.720   1.005   1.168
 8872WAT     H127678   2.761   1.020   1.253
 8872WAT     H227679   2.626   1.017   1.185
 8873WAT      O27680   2.767   0.739   1.369
 8873WAT     H127681   2.825   0.663   1.360
 8873WAT     H227682   2.784   0.792   1.291
 8874WAT      O27683   1.879   0.255   1.200
 8874WAT     H127684   1.869   0.193   1.127
 8874WAT     H227685   1.821   0.327   1.177
 8875WAT      O27686   2.196   1.000   0.965
 8875WAT     H127687   2.238   1.084   0.948
 8875WAT     H227688   2.104   1.014   0.942
 8876WAT      O27689   2.429   0.773   1.104
 8876WAT     H127690   2.441   0.714   1.178
 8876WAT     H227691   2.515   0.777   1.062
 8877WAT      O27692   2.663   0.829   0.961
 8877WAT     H127693   2.611   0.881   0.901
 8877WAT     H227694   2.698   0.892   1.024
 8878WAT      O27695   1.981   1.631   1.077
 8878WAT     H127696   1.927   1.703   1.045
 8878WAT     H227697   2.006   1.583   0.998
 8879WAT      O27698   2.106   0.427   1.229
 8879WAT     H127699   2.165   0.397   1.298
 8879WAT     H227700   2.024   0.380   1.245
 8880WAT      O27701   2.588   0.389   1.253
 8880WAT     H127702   2.519   0.323   1.246
 8880WAT     H227703   2.660   0.344   1.297
 8881WAT      O27704   2.267   1.754   1.103
 8881WAT     H127705   2.259   1.844   1.133
 8881WAT     H227706   2.176   1.722   1.100
 8882WAT      O27707   1.407   1.487   0.433
 8882WAT     H127708   1.440   1.400   0.410
 8882WAT     H227709   1.450   1.507   0.516
 8883WAT      O27710   1.456   1.574   0.707
 8883WAT     H127711   1.412   1.592   0.790
 8883WAT     H227712   1.512   1.649   0.693
 8884WAT      O27713   3.019   1.524   1.136
 8884WAT     H127714   2.959   1.530   1.061
 8884WAT     H227715   3.032   1.430   1.149
 8885WAT      O27716   1.439   0.825   0.343
 8885WAT     H127717   1.373   0.798   0.278
 8885WAT     H227718   1.523   0.814   0.298
 8886WAT      O27719   3.189   1.058   0.404
 8886WAT     H127720   3.227   0.980   0.363
 8886WAT     H227721   3.254   1.127   0.386
 8887WAT      O27722   2.888   1.196   0.945
 8887WAT     H127723   2.806   1.239   0.972
 8887WAT     H227724   2.929   1.257   0.884
 8888WAT      O27725   1.543   0.863   0.797
 8888WAT     H127726   1.579   0.855   0.885
 8888WAT     H227727   1.486   0.787   0.787
 8889WAT      O27728   3.023   0.710   1.098
 8889WAT     H127729   3.000   0.687   1.008
 8889WAT     H227730   3.049   0.802   1.093
 8890WAT      O27731   1.498   0.554   1.187
 8890WAT     H127732   1.408   0.551   1.221
 8890WAT     H227733   1.552   0.574   1.264
 8891WAT      O27734   2.867   0.233   1.376
 8891WAT     H127735   2.954   0.233   1.414
 8891WAT     H227736   2.868   0.159   1.315
 8892WAT      O27737   3.011   0.618   0.465
 8892WAT     H127738   3.064   0.569   0.402
 8892WAT     H227739   3.070   0.631   0.539
 8893WAT      O27740   3.029   0.626   0.817
 8893WAT     H127741   2.934   0.623   0.828
 8893WAT     H227742   3.047   0.717   0.793
 8894WAT      O27743   3.103   0.407   0.312
 8894WAT     H127744   3.092   0.392   0.406
 8894WAT     H227745   3.179   0.354   0.288
 8895WAT      O27746   2.894   1.671   0.298
 8895WAT     H127747   2.953   1.639   0.230
 8895WAT     H227748   2.919   1.624   0.377
 8896WAT      O27749   1.684   1.315   1.313
 8896WAT     H127750   1.680   1.277   1.401
 8896WAT     H227751   1.697   1.408   1.327
 8897WAT      O27752   2.054   1.470   0.873
 8897WAT     H127753   2.030   1.497   0.784
 8897WAT     H227754   2.148   1.487   0.879
 8898WAT      O27755   3.180   1.672   0.953
 8898WAT     H127756   3.131   1.712   0.881
 8898WAT     H227757   3.119   1.610   0.993
 8899WAT      O27758   1.668   1.609   1.025
 8899WAT     H127759   1.609   1.596   1.099
 8899WAT     H227760   1.667   1.526   0.978
 8900WAT      O27761   2.949   1.736   0.681
 8900WAT     H127762   2.903   1.811   0.644
 8900WAT     H227763   2.886   1.664   0.675
 8901WAT      O27764   1.631   1.346   0.920
 8901WAT     H127765   1.559   1.284   0.913
 8901WAT     H227766   1.637   1.385   0.833
 8902WAT      O27767   1.992   1.567   0.598
 8902WAT     H127768   2.043   1.506   0.546
 8902WAT     H227769   2.057   1.618   0.648
 8903WAT      O27770   2.266   1.656   0.681
 8903WAT     H127771   2.294   1.631   0.594
 8903WAT     H227772   2.317   1.601   0.740
 8904WAT      O27773   1.460   1.678   0.241
 8904WAT     H127774   1.443   1.614   0.311
 8904WAT     H227775   1.373   1.698   0.206
 8905WAT      O27776   2.176   0.272   0.290
 8905WAT     H127777   2.095   0.235   0.256
 8905WAT     H227778   2.226   0.197   0.321
 8906WAT      O27779   2.272   1.748   1.418
 8906WAT     H127780   2.365   1.725   1.422
 8906WAT     H227781   2.271   1.831   1.370
 8907WAT      O27782   2.929   1.671   1.400
 8907WAT     H127783   3.008   1.622   1.380
 8907WAT     H227784   2.958   1.739   1.461
 8908WAT      O27785   0.664   6.391   5.998
 8908WAT     H127786   0.656   6.299   5.971
 8908WAT     H227787   0.623   6.440   5.928
 8909WAT      O27788   0.477   6.568   6.186
 8909WAT     H127789   0.400   6.520   6.215
 8909WAT     H227790   0.543   6.501   6.169
 8910WAT      O27791   0.880   7.009   6.064
 8910WAT     H127792   0.833   6.932   6.097
 8910WAT     H227793   0.961   7.012   6.115
 8911WAT      O27794   0.422   6.836   6.187
 8911WAT     H127795   0.415   6.742   6.171
 8911WAT     H227796   0.498   6.845   6.244
 8912WAT      O27797   0.525   6.117   6.210
 8912WAT     H127798   0.562   6.029   6.198
 8912WAT     H227799   0.515   6.150   6.121
 8913WAT      O27800   0.903   5.866   5.903
 8913WAT     H127801   0.985   5.817   5.907
 8913WAT     H227802   0.906   5.925   5.978
 8914WAT      O27803   0.589   6.726   5.766
 8914WAT     H127804   0.527   6.773   5.709
 8914WAT     H227805   0.640   6.795   5.807
 8915WAT      O27806   0.926   6.060   6.180
 8915WAT     H127807   0.856   6.089   6.238
 8915WAT     H227808   0.963   6.141   6.144
 8916WAT      O27809   1.088   7.022   6.406
 8916WAT     H127810   1.020   7.089   6.406
 8916WAT     H227811   1.142   7.042   6.330
 8917WAT      O27812   1.233   6.005   6.219
 8917WAT     H127813   1.139   6.008   6.232
 8917WAT     H227814   1.266   6.086   6.258
 8918WAT      O27815   0.287   5.635   6.049
 8918WAT     H127816   0.317   5.579   5.977
 8918WAT     H227817   0.194   5.648   6.031
 8919WAT      O27818   0.971   6.879   5.787
 8919WAT     H127819   0.960   6.784   5.799
 8919WAT     H227820   0.971   6.915   5.875
 8920WAT      O27821   0.782   6.697   6.411
 8920WAT     H127822   0.823   6.675   6.327
 8920WAT     H227823   0.854   6.722   6.468
 8921WAT      O27824   0.525   6.441   5.722
 8921WAT     H127825   0.433   6.435   5.745
 8921WAT     H227826   0.541   6.535   5.711
 8922WAT      O27827   0.524   6.068   5.422
 8922WAT     H127828   0.430   6.085   5.431
 8922WAT     H227829   0.556   6.140   5.367
 8923WAT      O27830   1.176   6.537   6.420
 8923WAT     H127831   1.093   6.544   6.372
 8923WAT     H227832   1.236   6.595   6.373
 8924WAT      O27833   0.928   6.597   5.773
 8924WAT     H127834   0.866   6.564   5.708
 8924WAT     H227835   0.927   6.533   5.844
 8925WAT      O27836   0.746   6.521   5.474
 8925WAT     H127837   0.790   6.438   5.459
 8925WAT     H227838   0.817   6.585   5.482
 8926WAT      O27839   0.557   7.015   5.870
 8926WAT     H127840   0.601   7.090   5.829
 8926WAT     H227841   0.551   7.040   5.963
 8927WAT      O27842   1.104   5.647   5.305
 8927WAT     H127843   1.073   5.656   5.395
 8927WAT     H227844   1.180   5.705   5.300
 8928WAT      O27845   0.794   7.065   5.462
 8928WAT     H127846   0.725   7.065   5.396
 8928WAT     H227847   0.868   7.022   5.419
 8929WAT      O27848   0.314   5.680   5.577
 8929WAT     H127849   0.252   5.679   5.650
 8929WAT     H227850   0.305   5.593   5.537
 8930WAT      O27851   0.206   5.772   6.275
 8930WAT     H127852   0.236   5.863   6.267
 8930WAT     H227853   0.261   5.723   6.213
 8931WAT      O27854   0.705   6.231   5.722
 8931WAT     H127855   0.645   6.303   5.703
 8931WAT     H227856   0.759   6.224   5.643
 8932WAT      O27857   0.565   6.094   5.925
 8932WAT     H127858   0.605   6.126   5.843
 8932WAT     H227859   0.602   6.006   5.936
 8933WAT      O27860   0.624   6.353   6.334
 8933WAT     H127861   0.551   6.404   6.369
 8933WAT     H227862   0.584   6.272   6.304
 8934WAT      O27863   0.268   6.021   6.175
 8934WAT     H127864   0.268   5.977   6.090
 8934WAT     H227865   0.357   6.053   6.185
 8935WAT      O27866   0.274   6.121   5.474
 8935WAT     H127867   0.286   6.117   5.569
 8935WAT     H227868   0.235   6.207   5.458
 8936WAT      O27869   0.670   5.899   6.275
 8936WAT     H127870   0.672   5.944   6.360
 8936WAT     H227871   0.645   5.809   6.297
 8937WAT      O27872   0.298   6.427   6.349
 8937WAT     H127873   0.334   6.380   6.424
 8937WAT     H227874   0.279   6.514   6.383
 8938WAT      O27875   1.005   6.651   6.220
 8938WAT     H127876   1.077   6.701   6.181
 8938WAT     H227877   0.985   6.583   6.156
 8939WAT      O27878   0.552   5.791   5.634
 8939WAT     H127879   0.470   5.741   5.627
 8939WAT     H227880   0.532   5.875   5.593
 8940WAT      O27881   0.823   6.228   5.464
 8940WAT     H127882   0.912   6.259   5.447
 8940WAT     H227883   0.820   6.141   5.425
 8941WAT      O27884   0.423   6.845   5.532
 8941WAT     H127885   0.457   6.920   5.482
 8941WAT     H227886   0.340   6.876   5.568
 8942WAT      O27887   1.050   6.359   5.411
 8942WAT     H127888   1.042   6.402   5.326
 8942WAT     H227889   1.122   6.405   5.454
 8943WAT      O27890   1.153   7.044   5.684
 8943WAT     H127891   1.089   6.979   5.711
 8943WAT     H227892   1.114   7.085   5.606
 8944WAT      O27893   0.711   6.777   6.068
 8944WAT     H127894   0.746   6.718   6.002
 8944WAT     H227895   0.623   6.745   6.086
 8945WAT      O27896   0.320   6.853   5.809
 8945WAT     H127897   0.388   6.908   5.847
 8945WAT     H227898   0.241   6.908   5.813
 8946WAT      O27899   0.250   6.554   5.770
 8946WAT     H127900   0.295   6.635   5.793
 8946WAT     H227901   0.215   6.522   5.854
 8947WAT      O27902   0.607   6.905   6.365
 8947WAT     H127903   0.672   6.835   6.376
 8947WAT     H227904   0.660   6.983   6.347
 8948WAT      O27905   0.992   6.934   5.337
 8948WAT     H127906   0.969   6.862   5.397
 8948WAT     H227907   0.953   6.909   5.254
 8949WAT      O27908   0.950   6.725   5.504
 8949WAT     H127909   0.921   6.771   5.582
 8949WAT     H227910   1.030   6.679   5.530
 8950WAT      O27911   1.026   5.909   5.620
 8950WAT     H127912   0.963   5.919   5.548
 8950WAT     H227913   0.976   5.931   5.699
 8951WAT      O27914   0.470   7.081   5.363
 8951WAT     H127915   0.481   7.060   5.270
 8951WAT     H227916   0.380   7.055   5.383
 8952WAT      O27917   0.223   6.137   5.761
 8952WAT     H127918   0.152   6.183   5.805
 8952WAT     H227919   0.251   6.071   5.825
 8953WAT      O27920   0.626   5.809   5.905
 8953WAT     H127921   0.614   5.811   5.810
 8953WAT     H227922   0.721   5.814   5.917
 8954WAT      O27923   0.935   6.425   5.990
 8954WAT     H127924   0.841   6.426   6.007
 8954WAT     H227925   0.967   6.346   6.035
 8955WAT      O27926   0.245   6.790   5.293
 8955WAT     H127927   0.235   6.729   5.366
 8955WAT     H227928   0.229   6.738   5.215
 8956WAT      O27929   0.569   6.697   5.354
 8956WAT     H127930   0.515   6.741   5.418
 8956WAT     H227931   0.632   6.646   5.406
 8957WAT      O27932   0.387   6.495   5.268
 8957WAT     H127933   0.439   6.423   5.232
 8957WAT     H227934   0.452   6.559   5.298
 8958WAT      O27935   0.774   5.681   5.491
 8958WAT     H127936   0.802   5.597   5.526
 8958WAT     H227937   0.696   5.704   5.542
 8959WAT      O27938   0.227   5.804   5.335
 8959WAT     H127939   0.193   5.736   5.277
 8959WAT     H227940   0.248   5.758   5.417
 8960WAT      O27941   1.266   6.930   5.302
 8960WAT     H127942   1.183   6.937   5.349
 8960WAT     H227943   1.284   7.019   5.271
 8961WAT      O27944   1.211   6.605   5.552
 8961WAT     H127945   1.288   6.662   5.563
 8961WAT     H227946   1.213   6.548   5.629
 8962WAT      O27947   1.312   6.690   6.036
 8962WAT     H127948   1.349   6.612   5.996
 8962WAT     H227949   1.376   6.759   6.019
 8963WAT      O27950   1.217   6.634   5.268
 8963WAT     H127951   1.244   6.725   5.255
 8963WAT     H227952   1.198   6.628   5.361
 8964WAT      O27953   0.856   5.936   5.397
 8964WAT     H127954   0.898   5.918   5.313
 8964WAT     H227955   0.826   5.851   5.428
 8965WAT      O27956   1.206   6.428   5.767
 8965WAT     H127957   1.169   6.351   5.724
 8965WAT     H227958   1.133   6.466   5.816
 8966WAT      O27959   1.134   6.250   6.097
 8966WAT     H127960   1.186   6.201   6.034
 8966WAT     H227961   1.192   6.264   6.171
 8967WAT      O27962   1.152   6.259   6.449
 8967WAT     H127963   1.057   6.255   6.461
 8967WAT     H227964   1.170   6.350   6.426
 8968WAT      O27965   1.083   6.176   5.691
 8968WAT     H127966   1.132   6.153   5.769
 8968WAT     H227967   1.063   6.092   5.649
 8969WAT      O27968   1.226   6.040   5.944
 8969WAT     H127969   1.215   6.024   6.038
 8969WAT     H227970   1.302   5.987   5.920
 8970WAT      O27971   1.315   5.823   5.268
 8970WAT     H127972   1.407   5.809   5.248
 8970WAT     H227973   1.312   5.831   5.364
 8971WAT      O27974   1.322   5.900   5.531
 8971WAT     H127975   1.242   5.893   5.584
 8971WAT     H227976   1.342   5.993   5.530
 8972WAT      O27977   0.177   7.102   6.505
 8972WAT     H127978   0.153   7.129   6.417
 8972WAT     H227979   0.271   7.120   6.511
 8973WAT      O27980   0.510   5.663   6.371
 8973WAT     H127981   0.432   5.710   6.399
 8973WAT     H227982   0.481   5.572   6.361
 8974WAT      O27983   0.965   5.733   6.176
 8974WAT     H127984   1.009   5.727   6.091
 8974WAT     H227985   0.938   5.824   6.183
 8975WAT      O27986   1.152   5.696   5.977
 8975WAT     H127987   1.145   5.602   5.962
 8975WAT     H227988   1.229   5.707   6.032
 8976WAT      O27989   0.298   5.904   5.923
 8976WAT     H127990   0.217   5.867   5.889
 8976WAT     H227991   0.349   5.829   5.953
 8977WAT      O27992   0.749   5.571   6.046
 8977WAT     H127993   0.809   5.628   6.094
 8977WAT     H227994   0.675   5.627   6.024
 8978WAT      O27995   1.063   5.611   5.574
 8978WAT     H127996   1.083   5.701   5.601
 8978WAT     H227997   0.984   5.588   5.623
 8979WAT      O27998   0.664   6.391   4.121
 8979WAT     H127999   0.656   6.299   4.094
 8979WAT     H228000   0.623   6.440   4.050
 8980WAT      O28001   0.477   6.568   4.309
 8980WAT     H128002   0.400   6.520   4.338
 8980WAT     H228003   0.543   6.501   4.291
 8981WAT      O28004   0.880   7.009   4.187
 8981WAT     H128005   0.833   6.932   4.220
 8981WAT     H228006   0.961   7.012   4.237
 8982WAT      O28007   0.422   6.836   4.310
 8982WAT     H128008   0.415   6.742   4.293
 8982WAT     H228009   0.498   6.845   4.367
 8983WAT      O28010   0.525   6.117   4.332
 8983WAT     H128011   0.562   6.029   4.321
 8983WAT     H228012   0.515   6.150   4.243
 8984WAT      O28013   0.903   5.866   4.026
 8984WAT     H128014   0.985   5.817   4.030
 8984WAT     H228015   0.906   5.925   4.101
 8985WAT      O28016   1.332   6.068   4.682
 8985WAT     H128017   1.261   6.107   4.630
 8985WAT     H228018   1.358   6.137   4.742
 8986WAT      O28019   0.589   6.726   3.888
 8986WAT     H128020   0.527   6.773   3.832
 8986WAT     H228021   0.640   6.795   3.930
 8987WAT      O28022   0.926   6.060   4.303
 8987WAT     H128023   0.856   6.089   4.361
 8987WAT     H228024   0.963   6.141   4.267
 8988WAT      O28025   1.088   7.022   4.529
 8988WAT     H128026   1.020   7.089   4.528
 8988WAT     H228027   1.142   7.042   4.452
 8989WAT      O28028   1.233   6.005   4.342
 8989WAT     H128029   1.139   6.008   4.355
 8989WAT     H228030   1.266   6.086   4.380
 8990WAT      O28031   0.287   5.635   4.171
 8990WAT     H128032   0.317   5.579   4.100
 8990WAT     H228033   0.194   5.648   4.153
 8991WAT      O28034   0.971   6.879   3.909
 8991WAT     H128035   0.960   6.784   3.922
 8991WAT     H228036   0.971   6.915   3.998
 8992WAT      O28037   0.782   6.697   4.533
 8992WAT     H128038   0.823   6.675   4.450
 8992WAT     H228039   0.854   6.722   4.590
 8993WAT      O28040   0.525   6.441   3.845
 8993WAT     H128041   0.433   6.435   3.868
 8993WAT     H228042   0.541   6.535   3.834
 8994WAT      O28043   0.524   6.068   3.545
 8994WAT     H128044   0.430   6.085   3.553
 8994WAT     H228045   0.556   6.140   3.490
 8995WAT      O28046   1.176   6.537   4.542
 8995WAT     H128047   1.093   6.544   4.495
 8995WAT     H228048   1.236   6.595   4.496
 8996WAT      O28049   0.928   6.597   3.895
 8996WAT     H128050   0.866   6.564   3.831
 8996WAT     H228051   0.927   6.533   3.966
 8997WAT      O28052   0.873   6.215   4.637
 8997WAT     H128053   0.831   6.298   4.662
 8997WAT     H228054   0.799   6.157   4.618
 8998WAT      O28055   0.746   6.521   3.596
 8998WAT     H128056   0.790   6.438   3.581
 8998WAT     H228057   0.817   6.585   3.605
 8999WAT      O28058   0.557   7.015   3.993
 8999WAT     H128059   0.601   7.090   3.951
 8999WAT     H228060   0.551   7.040   4.085
 9000WAT      O28061   1.104   5.647   3.428
 9000WAT     H128062   1.073   5.656   3.518
 9000WAT     H228063   1.180   5.705   3.422
 9001WAT      O28064   1.240   6.915   4.929
 9001WAT     H128065   1.253   6.891   4.837
 9001WAT     H228066   1.244   6.832   4.976
 9002WAT      O28067   0.794   7.065   3.585
 9002WAT     H128068   0.725   7.065   3.519
 9002WAT     H228069   0.868   7.022   3.541
 9003WAT      O28070   1.225   6.120   5.025
 9003WAT     H128071   1.164   6.171   4.972
 9003WAT     H228072   1.193   6.030   5.020
 9004WAT      O28073   0.431   6.004   4.772
 9004WAT     H128074   0.385   6.025   4.853
 9004WAT     H228075   0.391   5.923   4.742
 9005WAT      O28076   0.931   6.126   4.885
 9005WAT     H128077   0.846   6.097   4.917
 9005WAT     H228078   0.915   6.151   4.794
 9006WAT      O28079   0.641   6.277   5.095
 9006WAT     H128080   0.673   6.193   5.061
 9006WAT     H228081   0.720   6.329   5.110
 9007WAT      O28082   0.314   5.680   3.700
 9007WAT     H128083   0.252   5.679   3.772
 9007WAT     H228084   0.305   5.593   3.660
 9008WAT      O28085   0.206   5.772   4.397
 9008WAT     H128086   0.236   5.863   4.389
 9008WAT     H228087   0.261   5.723   4.336
 9009WAT      O28088   0.705   6.231   3.844
 9009WAT     H128089   0.645   6.303   3.826
 9009WAT     H228090   0.759   6.224   3.766
 9010WAT      O28091   0.226   6.320   5.051
 9010WAT     H128092   0.216   6.226   5.036
 9010WAT     H228093   0.310   6.342   5.011
 9011WAT      O28094   0.565   6.094   4.047
 9011WAT     H128095   0.605   6.126   3.966
 9011WAT     H228096   0.602   6.006   4.059
 9012WAT      O28097   0.396   5.969   5.173
 9012WAT     H128098   0.327   5.950   5.237
 9012WAT     H228099   0.471   5.998   5.226
 9013WAT      O28100   0.624   6.353   4.457
 9013WAT     H128101   0.551   6.404   4.492
 9013WAT     H228102   0.584   6.272   4.427
 9014WAT      O28103   0.268   6.021   4.297
 9014WAT     H128104   0.268   5.977   4.212
 9014WAT     H228105   0.357   6.053   4.308
 9015WAT      O28106   0.274   6.121   3.596
 9015WAT     H128107   0.286   6.117   3.691
 9015WAT     H228108   0.235   6.207   3.581
 9016WAT      O28109   0.670   5.899   4.398
 9016WAT     H128110   0.672   5.944   4.482
 9016WAT     H228111   0.645   5.809   4.419
 9017WAT      O28112   1.013   5.640   4.982
 9017WAT     H128113   1.045   5.567   5.034
 9017WAT     H228114   1.016   5.608   4.892
 9018WAT      O28115   0.298   6.427   4.472
 9018WAT     H128116   0.334   6.380   4.547
 9018WAT     H228117   0.279   6.514   4.506
 9019WAT      O28118   1.005   6.651   4.343
 9019WAT     H128119   1.077   6.701   4.304
 9019WAT     H228120   0.985   6.583   4.278
 9020WAT      O28121   0.552   5.791   3.757
 9020WAT     H128122   0.470   5.741   3.749
 9020WAT     H228123   0.532   5.875   3.715
 9021WAT      O28124   0.544   6.658   4.931
 9021WAT     H128125   0.537   6.566   4.906
 9021WAT     H228126   0.481   6.668   5.003
 9022WAT      O28127   0.823   6.228   3.587
 9022WAT     H128128   0.912   6.259   3.569
 9022WAT     H228129   0.820   6.141   3.547
 9023WAT      O28130   0.423   6.845   3.655
 9023WAT     H128131   0.457   6.920   3.605
 9023WAT     H228132   0.340   6.876   3.691
 9024WAT      O28133   0.537   6.941   4.906
 9024WAT     H128134   0.538   6.847   4.885
 9024WAT     H228135   0.466   6.949   4.970
 9025WAT      O28136   1.050   6.359   3.533
 9025WAT     H128137   1.042   6.402   3.448
 9025WAT     H228138   1.122   6.405   3.577
 9026WAT      O28139   1.158   6.605   4.841
 9026WAT     H128140   1.085   6.664   4.821
 9026WAT     H228141   1.211   6.604   4.761
 9027WAT      O28142   1.153   7.044   3.806
 9027WAT     H128143   1.089   6.979   3.834
 9027WAT     H228144   1.114   7.085   3.729
 9028WAT      O28145   0.711   6.777   4.191
 9028WAT     H128146   0.746   6.718   4.125
 9028WAT     H228147   0.623   6.745   4.208
 9029WAT      O28148   0.320   6.853   3.932
 9029WAT     H128149   0.388   6.908   3.970
 9029WAT     H228150   0.241   6.908   3.935
 9030WAT      O28151   0.250   6.554   3.893
 9030WAT     H128152   0.295   6.635   3.916
 9030WAT     H228153   0.215   6.522   3.976
 9031WAT      O28154   0.480   7.105   4.616
 9031WAT     H128155   0.545   7.125   4.684
 9031WAT     H228156   0.516   7.029   4.571
 9032WAT      O28157   0.607   6.905   4.488
 9032WAT     H128158   0.672   6.835   4.499
 9032WAT     H228159   0.660   6.983   4.470
 9033WAT      O28160   0.992   6.934   3.460
 9033WAT     H128161   0.969   6.862   3.519
 9033WAT     H228162   0.953   6.909   3.376
 9034WAT      O28163   0.785   6.985   4.808
 9034WAT     H128164   0.818   7.044   4.876
 9034WAT     H228165   0.693   6.972   4.831
 9035WAT      O28166   0.950   6.725   3.626
 9035WAT     H128167   0.921   6.771   3.705
 9035WAT     H228168   1.030   6.679   3.653
 9036WAT      O28169   0.368   6.990   5.125
 9036WAT     H128170   0.336   6.918   5.179
 9036WAT     H228171   0.300   7.057   5.132
 9037WAT      O28172   0.689   6.013   4.661
 9037WAT     H128173   0.726   5.931   4.694
 9037WAT     H228174   0.603   6.019   4.703
 9038WAT      O28175   1.026   5.909   3.742
 9038WAT     H128176   0.963   5.919   3.671
 9038WAT     H228177   0.976   5.931   3.821
 9039WAT      O28178   0.470   7.081   3.485
 9039WAT     H128179   0.481   7.060   3.392
 9039WAT     H228180   0.380   7.055   3.506
 9040WAT      O28181   0.223   6.137   3.884
 9040WAT     H128182   0.152   6.183   3.928
 9040WAT     H228183   0.251   6.071   3.947
 9041WAT      O28184   0.385   6.279   4.684
 9041WAT     H128185   0.435   6.326   4.750
 9041WAT     H228186   0.400   6.186   4.704
 9042WAT      O28187   0.626   5.809   4.028
 9042WAT     H128188   0.614   5.811   3.933
 9042WAT     H228189   0.721   5.814   4.040
 9043WAT      O28190   1.106   5.900   4.768
 9043WAT     H128191   1.056   5.974   4.802
 9043WAT     H228192   1.188   5.939   4.736
 9044WAT      O28193   0.935   6.425   4.113
 9044WAT     H128194   0.841   6.426   4.130
 9044WAT     H228195   0.967   6.346   4.157
 9045WAT      O28196   0.667   6.880   5.161
 9045WAT     H128197   0.606   6.883   5.087
 9045WAT     H228198   0.636   6.807   5.215
 9046WAT      O28199   0.245   6.790   3.416
 9046WAT     H128200   0.235   6.729   3.489
 9046WAT     H228201   0.229   6.738   3.338
 9047WAT      O28202   0.261   6.659   5.014
 9047WAT     H128203   0.184   6.716   5.005
 9047WAT     H228204   0.279   6.630   4.925
 9048WAT      O28205   0.569   6.697   3.476
 9048WAT     H128206   0.515   6.741   3.541
 9048WAT     H228207   0.632   6.646   3.529
 9049WAT      O28208   0.975   6.832   5.070
 9049WAT     H128209   1.049   6.866   5.019
 9049WAT     H228210   0.898   6.849   5.014
 9050WAT      O28211   0.387   6.495   3.391
 9050WAT     H128212   0.439   6.423   3.354
 9050WAT     H228213   0.452   6.559   3.421
 9051WAT      O28214   0.842   6.637   4.923
 9051WAT     H128215   0.884   6.653   5.008
 9051WAT     H228216   0.749   6.650   4.939
 9052WAT      O28217   0.889   6.371   5.124
 9052WAT     H128218   0.948   6.296   5.115
 9052WAT     H228219   0.907   6.424   5.046
 9053WAT      O28220   0.278   5.743   4.658
 9053WAT     H128221   0.233   5.745   4.573
 9053WAT     H228222   0.214   5.703   4.718
 9054WAT      O28223   0.318   6.632   4.720
 9054WAT     H128224   0.360   6.717   4.703
 9054WAT     H228225   0.226   6.646   4.697
 9055WAT      O28226   0.552   6.405   4.858
 9055WAT     H128227   0.564   6.346   4.932
 9055WAT     H228228   0.638   6.409   4.816
 9056WAT      O28229   0.786   6.461   4.716
 9056WAT     H128230   0.733   6.513   4.656
 9056WAT     H228231   0.820   6.524   4.779
 9057WAT      O28232   0.229   6.060   4.984
 9057WAT     H128233   0.288   6.029   5.053
 9057WAT     H228234   0.147   6.012   5.000
 9058WAT      O28235   0.711   6.021   5.008
 9058WAT     H128236   0.642   5.955   5.001
 9058WAT     H228237   0.783   5.977   5.052
 9059WAT      O28238   0.774   5.681   3.613
 9059WAT     H128239   0.802   5.597   3.649
 9059WAT     H228240   0.696   5.704   3.665
 9060WAT      O28241   0.227   5.804   3.458
 9060WAT     H128242   0.193   5.736   3.400
 9060WAT     H228243   0.248   5.758   3.539
 9061WAT      O28244   1.142   7.156   4.890
 9061WAT     H128245   1.082   7.162   4.816
 9061WAT     H228246   1.155   7.062   4.903
 9062WAT      O28247   1.266   6.930   3.424
 9062WAT     H128248   1.183   6.937   3.471
 9062WAT     H228249   1.284   7.019   3.394
 9063WAT      O28250   1.211   6.605   3.674
 9063WAT     H128251   1.288   6.662   3.685
 9063WAT     H228252   1.213   6.548   3.752
 9064WAT      O28253   1.312   6.690   4.159
 9064WAT     H128254   1.349   6.612   4.118
 9064WAT     H228255   1.376   6.759   4.141
 9065WAT      O28256   1.010   6.829   4.700
 9065WAT     H128257   0.929   6.871   4.726
 9065WAT     H228258   1.051   6.890   4.639
 9066WAT      O28259   1.217   6.634   3.390
 9066WAT     H128260   1.244   6.725   3.377
 9066WAT     H228261   1.198   6.628   3.484
 9067WAT      O28262   0.856   5.936   3.520
 9067WAT     H128263   0.898   5.918   3.436
 9067WAT     H228264   0.826   5.851   3.551
 9068WAT      O28265   1.206   6.428   3.890
 9068WAT     H128266   1.169   6.351   3.846
 9068WAT     H228267   1.133   6.466   3.938
 9069WAT      O28268   1.145   6.342   4.853
 9069WAT     H128269   1.122   6.320   4.763
 9069WAT     H228270   1.171   6.434   4.848
 9070WAT      O28271   0.989   5.865   5.131
 9070WAT     H128272   1.077   5.866   5.169
 9070WAT     H228273   0.990   5.791   5.070
 9071WAT      O28274   1.134   6.250   4.220
 9071WAT     H128275   1.186   6.201   4.156
 9071WAT     H228276   1.192   6.264   4.294
 9072WAT      O28277   1.152   6.259   4.572
 9072WAT     H128278   1.057   6.255   4.583
 9072WAT     H228279   1.170   6.350   4.548
 9073WAT      O28280   1.083   6.176   3.814
 9073WAT     H128281   1.132   6.153   3.892
 9073WAT     H228282   1.063   6.092   3.772
 9074WAT      O28283   1.226   6.040   4.067
 9074WAT     H128284   1.215   6.024   4.161
 9074WAT     H228285   1.302   5.987   4.043
 9075WAT      O28286   1.060   5.634   4.713
 9075WAT     H128287   1.124   5.695   4.749
 9075WAT     H228288   1.075   5.637   4.618
 9076WAT      O28289   1.315   5.823   3.391
 9076WAT     H128290   1.407   5.809   3.370
 9076WAT     H228291   1.312   5.831   3.486
 9077WAT      O28292   1.322   5.900   3.654
 9077WAT     H128293   1.242   5.893   3.706
 9077WAT     H228294   1.342   5.993   3.652
 9078WAT      O28295   0.177   7.102   4.628
 9078WAT     H128296   0.153   7.129   4.539
 9078WAT     H228297   0.271   7.120   4.633
 9079WAT      O28298   0.397   5.749   5.003
 9079WAT     H128299   0.391   5.808   5.078
 9079WAT     H228300   0.491   5.738   4.989
 9080WAT      O28301   0.661   5.714   4.967
 9080WAT     H128302   0.723   5.746   4.901
 9080WAT     H228303   0.716   5.666   5.029
 9081WAT      O28304   0.735   5.571   4.600
 9081WAT     H128305   0.648   5.604   4.580
 9081WAT     H228306   0.724   5.524   4.683
 9082WAT      O28307   0.826   5.792   4.738
 9082WAT     H128308   0.793   5.710   4.701
 9082WAT     H228309   0.921   5.787   4.726
 9083WAT      O28310   0.510   5.663   4.494
 9083WAT     H128311   0.432   5.710   4.522
 9083WAT     H228312   0.481   5.572   4.483
 9084WAT      O28313   0.965   5.733   4.299
 9084WAT     H128314   1.009   5.727   4.214
 9084WAT     H228315   0.938   5.824   4.306
 9085WAT      O28316   1.152   5.696   4.100
 9085WAT     H128317   1.145   5.602   4.085
 9085WAT     H228318   1.229   5.707   4.154
 9086WAT      O28319   0.298   5.904   4.045
 9086WAT     H128320   0.217   5.867   4.011
 9086WAT     H228321   0.349   5.829   4.075
 9087WAT      O28322   0.749   5.571   4.169
 9087WAT     H128323   0.809   5.628   4.216
 9087WAT     H228324   0.675   5.627   4.147
 9088WAT      O28325   1.063   5.611   3.696
 9088WAT     H128326   1.083   5.701   3.723
 9088WAT     H228327   0.984   5.588   3.746
 9089WAT      O28328   0.774   5.589   5.207
 9089WAT     H128329   0.762   5.621   5.296
 9089WAT     H228330   0.855   5.629   5.177
 9090WAT      O28331   0.664   6.391   2.243
 9090WAT     H128332   0.656   6.299   2.216
 9090WAT     H228333   0.623   6.440   2.173
 9091WAT      O28334   0.477   6.568   2.431
 9091WAT     H128335   0.400   6.520   2.460
 9091WAT     H228336   0.543   6.501   2.414
 9092WAT      O28337   0.880   7.009   2.309
 9092WAT     H128338   0.833   6.932   2.342
 9092WAT     H228339   0.961   7.012   2.360
 9093WAT      O28340   0.422   6.836   2.432
 9093WAT     H128341   0.415   6.742   2.416
 9093WAT     H228342   0.498   6.845   2.489
 9094WAT      O28343   0.525   6.117   2.455
 9094WAT     H128344   0.562   6.029   2.444
 9094WAT     H228345   0.515   6.150   2.366
 9095WAT      O28346   0.903   5.866   2.148
 9095WAT     H128347   0.985   5.817   2.152
 9095WAT     H228348   0.906   5.925   2.223
 9096WAT      O28349   1.332   6.068   2.805
 9096WAT     H128350   1.261   6.107   2.753
 9096WAT     H228351   1.358   6.137   2.865
 9097WAT      O28352   0.589   6.726   2.011
 9097WAT     H128353   0.527   6.773   1.954
 9097WAT     H228354   0.640   6.795   2.052
 9098WAT      O28355   0.926   6.060   2.425
 9098WAT     H128356   0.856   6.089   2.483
 9098WAT     H228357   0.963   6.141   2.389
 9099WAT      O28358   1.088   7.022   2.652
 9099WAT     H128359   1.020   7.089   2.651
 9099WAT     H228360   1.142   7.042   2.575
 9100WAT      O28361   1.233   6.005   2.464
 9100WAT     H128362   1.139   6.008   2.478
 9100WAT     H228363   1.266   6.086   2.503
 9101WAT      O28364   0.287   5.635   2.294
 9101WAT     H128365   0.317   5.579   2.222
 9101WAT     H228366   0.194   5.648   2.276
 9102WAT      O28367   0.971   6.879   2.032
 9102WAT     H128368   0.960   6.784   2.044
 9102WAT     H228369   0.971   6.915   2.121
 9103WAT      O28370   0.782   6.697   2.656
 9103WAT     H128371   0.823   6.675   2.572
 9103WAT     H228372   0.854   6.722   2.713
 9104WAT      O28373   0.525   6.441   1.968
 9104WAT     H128374   0.433   6.435   1.990
 9104WAT     H228375   0.541   6.535   1.956
 9105WAT      O28376   0.524   6.068   1.667
 9105WAT     H128377   0.430   6.085   1.676
 9105WAT     H228378   0.556   6.140   1.613
 9106WAT      O28379   1.176   6.537   2.665
 9106WAT     H128380   1.093   6.544   2.618
 9106WAT     H228381   1.236   6.595   2.618
 9107WAT      O28382   0.928   6.597   2.018
 9107WAT     H128383   0.866   6.564   1.953
 9107WAT     H228384   0.927   6.533   2.089
 9108WAT      O28385   0.873   6.215   2.760
 9108WAT     H128386   0.831   6.298   2.785
 9108WAT     H228387   0.799   6.157   2.740
 9109WAT      O28388   0.746   6.521   1.719
 9109WAT     H128389   0.790   6.438   1.704
 9109WAT     H228390   0.817   6.585   1.727
 9110WAT      O28391   0.557   7.015   2.115
 9110WAT     H128392   0.601   7.090   2.074
 9110WAT     H228393   0.551   7.040   2.208
 9111WAT      O28394   1.104   5.647   1.550
 9111WAT     H128395   1.073   5.656   1.640
 9111WAT     H228396   1.180   5.705   1.545
 9112WAT      O28397   1.240   6.915   3.051
 9112WAT     H128398   1.253   6.891   2.960
 9112WAT     H228399   1.244   6.832   3.099
 9113WAT      O28400   0.794   7.065   1.707
 9113WAT     H128401   0.725   7.065   1.641
 9113WAT     H228402   0.868   7.022   1.664
 9114WAT      O28403   1.225   6.120   3.148
 9114WAT     H128404   1.164   6.171   3.095
 9114WAT     H228405   1.193   6.030   3.142
 9115WAT      O28406   0.431   6.004   2.894
 9115WAT     H128407   0.385   6.025   2.976
 9115WAT     H228408   0.391   5.923   2.864
 9116WAT      O28409   0.931   6.126   3.007
 9116WAT     H128410   0.846   6.097   3.040
 9116WAT     H228411   0.915   6.151   2.916
 9117WAT      O28412   0.641   6.277   3.217
 9117WAT     H128413   0.673   6.193   3.183
 9117WAT     H228414   0.720   6.329   3.232
 9118WAT      O28415   0.314   5.680   1.822
 9118WAT     H128416   0.252   5.679   1.895
 9118WAT     H228417   0.305   5.593   1.783
 9119WAT      O28418   0.206   5.772   2.520
 9119WAT     H128419   0.236   5.863   2.512
 9119WAT     H228420   0.261   5.723   2.459
 9120WAT      O28421   0.705   6.231   1.967
 9120WAT     H128422   0.645   6.303   1.948
 9120WAT     H228423   0.759   6.224   1.889
 9121WAT      O28424   0.226   6.320   3.174
 9121WAT     H128425   0.216   6.226   3.159
 9121WAT     H228426   0.310   6.342   3.134
 9122WAT      O28427   0.565   6.094   2.170
 9122WAT     H128428   0.605   6.126   2.089
 9122WAT     H228429   0.602   6.006   2.181
 9123WAT      O28430   0.396   5.969   3.296
 9123WAT     H128431   0.327   5.950   3.359
 9123WAT     H228432   0.471   5.998   3.349
 9124WAT      O28433   0.624   6.353   2.579
 9124WAT     H128434   0.551   6.404   2.614
 9124WAT     H228435   0.584   6.272   2.549
 9125WAT      O28436   0.268   6.021   2.420
 9125WAT     H128437   0.268   5.977   2.335
 9125WAT     H228438   0.357   6.053   2.431
 9126WAT      O28439   0.274   6.121   1.719
 9126WAT     H128440   0.286   6.117   1.814
 9126WAT     H228441   0.235   6.207   1.703
 9127WAT      O28442   0.670   5.899   2.521
 9127WAT     H128443   0.672   5.944   2.605
 9127WAT     H228444   0.645   5.809   2.542
 9128WAT      O28445   1.013   5.640   3.104
 9128WAT     H128446   1.045   5.567   3.157
 9128WAT     H228447   1.016   5.608   3.014
 9129WAT      O28448   0.298   6.427   2.595
 9129WAT     H128449   0.334   6.380   2.669
 9129WAT     H228450   0.279   6.514   2.629
 9130WAT      O28451   1.005   6.651   2.465
 9130WAT     H128452   1.077   6.701   2.426
 9130WAT     H228453   0.985   6.583   2.401
 9131WAT      O28454   0.552   5.791   1.880
 9131WAT     H128455   0.470   5.741   1.872
 9131WAT     H228456   0.532   5.875   1.838
 9132WAT      O28457   0.544   6.658   3.054
 9132WAT     H128458   0.537   6.566   3.029
 9132WAT     H228459   0.481   6.668   3.125
 9133WAT      O28460   0.823   6.228   1.709
 9133WAT     H128461   0.912   6.259   1.692
 9133WAT     H228462   0.820   6.141   1.670
 9134WAT      O28463   0.423   6.845   1.777
 9134WAT     H128464   0.457   6.920   1.728
 9134WAT     H228465   0.340   6.876   1.813
 9135WAT      O28466   0.537   6.941   3.029
 9135WAT     H128467   0.538   6.847   3.007
 9135WAT     H228468   0.466   6.949   3.093
 9136WAT      O28469   1.050   6.359   1.656
 9136WAT     H128470   1.042   6.402   1.571
 9136WAT     H228471   1.122   6.405   1.699
 9137WAT      O28472   1.158   6.605   2.964
 9137WAT     H128473   1.085   6.664   2.944
 9137WAT     H228474   1.211   6.604   2.884
 9138WAT      O28475   1.153   7.044   1.929
 9138WAT     H128476   1.089   6.979   1.956
 9138WAT     H228477   1.114   7.085   1.851
 9139WAT      O28478   0.711   6.777   2.314
 9139WAT     H128479   0.746   6.718   2.248
 9139WAT     H228480   0.623   6.745   2.331
 9140WAT      O28481   0.320   6.853   2.054
 9140WAT     H128482   0.388   6.908   2.092
 9140WAT     H228483   0.241   6.908   2.058
 9141WAT      O28484   0.250   6.554   2.016
 9141WAT     H128485   0.295   6.635   2.038
 9141WAT     H228486   0.215   6.522   2.099
 9142WAT      O28487   0.480   7.105   2.738
 9142WAT     H128488   0.545   7.125   2.806
 9142WAT     H228489   0.516   7.029   2.693
 9143WAT      O28490   0.607   6.905   2.610
 9143WAT     H128491   0.672   6.835   2.622
 9143WAT     H228492   0.660   6.983   2.592
 9144WAT      O28493   0.992   6.934   1.583
 9144WAT     H128494   0.969   6.862   1.642
 9144WAT     H228495   0.953   6.909   1.499
 9145WAT      O28496   0.785   6.985   2.931
 9145WAT     H128497   0.818   7.044   2.998
 9145WAT     H228498   0.693   6.972   2.954
 9146WAT      O28499   0.950   6.725   1.749
 9146WAT     H128500   0.921   6.771   1.828
 9146WAT     H228501   1.030   6.679   1.776
 9147WAT      O28502   0.368   6.990   3.247
 9147WAT     H128503   0.336   6.918   3.302
 9147WAT     H228504   0.300   7.057   3.255
 9148WAT      O28505   0.689   6.013   2.784
 9148WAT     H128506   0.726   5.931   2.817
 9148WAT     H228507   0.603   6.019   2.825
 9149WAT      O28508   1.026   5.909   1.865
 9149WAT     H128509   0.963   5.919   1.793
 9149WAT     H228510   0.976   5.931   1.944
 9150WAT      O28511   0.470   7.081   1.608
 9150WAT     H128512   0.481   7.060   1.515
 9150WAT     H228513   0.380   7.055   1.629
 9151WAT      O28514   0.223   6.137   2.006
 9151WAT     H128515   0.152   6.183   2.050
 9151WAT     H228516   0.251   6.071   2.070
 9152WAT      O28517   0.385   6.279   2.806
 9152WAT     H128518   0.435   6.326   2.873
 9152WAT     H228519   0.400   6.186   2.827
 9153WAT      O28520   0.626   5.809   2.150
 9153WAT     H128521   0.614   5.811   2.055
 9153WAT     H228522   0.721   5.814   2.162
 9154WAT      O28523   1.106   5.900   2.890
 9154WAT     H128524   1.056   5.974   2.924
 9154WAT     H228525   1.188   5.939   2.859
 9155WAT      O28526   0.935   6.425   2.235
 9155WAT     H128527   0.841   6.426   2.253
 9155WAT     H228528   0.967   6.346   2.280
 9156WAT      O28529   0.667   6.880   3.283
 9156WAT     H128530   0.606   6.883   3.209
 9156WAT     H228531   0.636   6.807   3.337
 9157WAT      O28532   0.245   6.790   1.538
 9157WAT     H128533   0.235   6.729   1.611
 9157WAT     H228534   0.229   6.738   1.460
 9158WAT      O28535   0.261   6.659   3.136
 9158WAT     H128536   0.184   6.716   3.128
 9158WAT     H228537   0.279   6.630   3.047
 9159WAT      O28538   0.569   6.697   1.599
 9159WAT     H128539   0.515   6.741   1.663
 9159WAT     H228540   0.632   6.646   1.651
 9160WAT      O28541   0.975   6.832   3.192
 9160WAT     H128542   1.049   6.866   3.142
 9160WAT     H228543   0.898   6.849   3.137
 9161WAT      O28544   0.387   6.495   1.513
 9161WAT     H128545   0.439   6.423   1.477
 9161WAT     H228546   0.452   6.559   1.543
 9162WAT      O28547   0.842   6.637   3.046
 9162WAT     H128548   0.884   6.653   3.131
 9162WAT     H228549   0.749   6.650   3.062
 9163WAT      O28550   0.889   6.371   3.246
 9163WAT     H128551   0.948   6.296   3.237
 9163WAT     H228552   0.907   6.424   3.168
 9164WAT      O28553   0.278   5.743   2.781
 9164WAT     H128554   0.233   5.745   2.696
 9164WAT     H228555   0.214   5.703   2.840
 9165WAT      O28556   0.318   6.632   2.843
 9165WAT     H128557   0.360   6.717   2.825
 9165WAT     H228558   0.226   6.646   2.820
 9166WAT      O28559   0.552   6.405   2.981
 9166WAT     H128560   0.564   6.346   3.055
 9166WAT     H228561   0.638   6.409   2.939
 9167WAT      O28562   0.786   6.461   2.839
 9167WAT     H128563   0.733   6.513   2.778
 9167WAT     H228564   0.820   6.524   2.902
 9168WAT      O28565   0.229   6.060   3.107
 9168WAT     H128566   0.288   6.029   3.176
 9168WAT     H228567   0.147   6.012   3.122
 9169WAT      O28568   0.711   6.021   3.130
 9169WAT     H128569   0.642   5.955   3.124
 9169WAT     H228570   0.783   5.977   3.175
 9170WAT      O28571   0.774   5.681   1.736
 9170WAT     H128572   0.802   5.597   1.772
 9170WAT     H228573   0.696   5.704   1.787
 9171WAT      O28574   0.227   5.804   1.580
 9171WAT     H128575   0.193   5.736   1.523
 9171WAT     H228576   0.248   5.758   1.662
 9172WAT      O28577   1.142   7.156   3.013
 9172WAT     H128578   1.082   7.162   2.939
 9172WAT     H228579   1.155   7.062   3.026
 9173WAT      O28580   1.266   6.930   1.547
 9173WAT     H128581   1.183   6.937   1.594
 9173WAT     H228582   1.284   7.019   1.516
 9174WAT      O28583   1.211   6.605   1.797
 9174WAT     H128584   1.288   6.662   1.808
 9174WAT     H228585   1.213   6.548   1.874
 9175WAT      O28586   1.312   6.690   2.281
 9175WAT     H128587   1.349   6.612   2.241
 9175WAT     H228588   1.376   6.759   2.264
 9176WAT      O28589   1.010   6.829   2.823
 9176WAT     H128590   0.929   6.871   2.849
 9176WAT     H228591   1.051   6.890   2.761
 9177WAT      O28592   1.217   6.634   1.513
 9177WAT     H128593   1.244   6.725   1.500
 9177WAT     H228594   1.198   6.628   1.606
 9178WAT      O28595   0.856   5.936   1.642
 9178WAT     H128596   0.898   5.918   1.558
 9178WAT     H228597   0.826   5.851   1.673
 9179WAT      O28598   1.206   6.428   2.012
 9179WAT     H128599   1.169   6.351   1.969
 9179WAT     H228600   1.133   6.466   2.061
 9180WAT      O28601   1.145   6.342   2.975
 9180WAT     H128602   1.122   6.320   2.885
 9180WAT     H228603   1.171   6.434   2.971
 9181WAT      O28604   0.989   5.865   3.253
 9181WAT     H128605   1.077   5.866   3.292
 9181WAT     H228606   0.990   5.791   3.192
 9182WAT      O28607   1.134   6.250   2.342
 9182WAT     H128608   1.186   6.201   2.279
 9182WAT     H228609   1.192   6.264   2.417
 9183WAT      O28610   1.152   6.259   2.694
 9183WAT     H128611   1.057   6.255   2.706
 9183WAT     H228612   1.170   6.350   2.671
 9184WAT      O28613   1.083   6.176   1.936
 9184WAT     H128614   1.132   6.153   2.015
 9184WAT     H228615   1.063   6.092   1.894
 9185WAT      O28616   1.226   6.040   2.189
 9185WAT     H128617   1.215   6.024   2.283
 9185WAT     H228618   1.302   5.987   2.165
 9186WAT      O28619   1.060   5.634   2.835
 9186WAT     H128620   1.124   5.695   2.872
 9186WAT     H228621   1.075   5.637   2.741
 9187WAT      O28622   1.315   5.823   1.514
 9187WAT     H128623   1.407   5.809   1.493
 9187WAT     H228624   1.312   5.831   1.609
 9188WAT      O28625   1.322   5.900   1.776
 9188WAT     H128626   1.242   5.893   1.829
 9188WAT     H228627   1.342   5.993   1.775
 9189WAT      O28628   0.177   7.102   2.750
 9189WAT     H128629   0.153   7.129   2.662
 9189WAT     H228630   0.271   7.120   2.756
 9190WAT      O28631   0.397   5.749   3.126
 9190WAT     H128632   0.391   5.808   3.201
 9190WAT     H228633   0.491   5.738   3.112
 9191WAT      O28634   0.661   5.714   3.090
 9191WAT     H128635   0.723   5.746   3.024
 9191WAT     H228636   0.716   5.666   3.152
 9192WAT      O28637   0.735   5.571   2.723
 9192WAT     H128638   0.648   5.604   2.702
 9192WAT     H228639   0.724   5.524   2.805
 9193WAT      O28640   0.826   5.792   2.861
 9193WAT     H128641   0.793   5.710   2.823
 9193WAT     H228642   0.921   5.787   2.849
 9194WAT      O28643   0.510   5.663   2.617
 9194WAT     H128644   0.432   5.710   2.645
 9194WAT     H228645   0.481   5.572   2.606
 9195WAT      O28646   0.965   5.733   2.421
 9195WAT     H128647   1.009   5.727   2.336
 9195WAT     H228648   0.938   5.824   2.428
 9196WAT      O28649   1.152   5.696   2.222
 9196WAT     H128650   1.145   5.602   2.207
 9196WAT     H228651   1.229   5.707   2.277
 9197WAT      O28652   0.298   5.904   2.168
 9197WAT     H128653   0.217   5.867   2.134
 9197WAT     H228654   0.349   5.829   2.198
 9198WAT      O28655   0.749   5.571   2.292
 9198WAT     H128656   0.809   5.628   2.339
 9198WAT     H228657   0.675   5.627   2.269
 9199WAT      O28658   1.063   5.611   1.819
 9199WAT     H128659   1.083   5.701   1.846
 9199WAT     H228660   0.984   5.588   1.868
 9200WAT      O28661   0.774   5.589   3.330
 9200WAT     H128662   0.762   5.621   3.419
 9200WAT     H228663   0.855   5.629   3.300
 9201WAT      O28664   0.664   6.391   0.366
 9201WAT     H128665   0.656   6.299   0.339
 9201WAT     H228666   0.623   6.440   0.295
 9202WAT      O28667   0.477   6.568   0.554
 9202WAT     H128668   0.400   6.520   0.583
 9202WAT     H228669   0.543   6.501   0.537
 9203WAT      O28670   0.880   7.009   0.432
 9203WAT     H128671   0.833   6.932   0.465
 9203WAT     H228672   0.961   7.012   0.482
 9204WAT      O28673   0.422   6.836   0.555
 9204WAT     H128674   0.415   6.742   0.539
 9204WAT     H228675   0.498   6.845   0.612
 9205WAT      O28676   0.525   6.117   0.577
 9205WAT     H128677   0.562   6.029   0.566
 9205WAT     H228678   0.515   6.150   0.488
 9206WAT      O28679   0.903   5.866   0.271
 9206WAT     H128680   0.985   5.817   0.275
 9206WAT     H228681   0.906   5.925   0.346
 9207WAT      O28682   1.332   6.068   0.927
 9207WAT     H128683   1.261   6.107   0.875
 9207WAT     H228684   1.358   6.137   0.987
 9208WAT      O28685   0.926   6.060   0.548
 9208WAT     H128686   0.856   6.089   0.606
 9208WAT     H228687   0.963   6.141   0.512
 9209WAT      O28688   1.088   7.022   0.774
 9209WAT     H128689   1.020   7.089   0.773
 9209WAT     H228690   1.142   7.042   0.698
 9210WAT      O28691   1.233   6.005   0.587
 9210WAT     H128692   1.139   6.008   0.600
 9210WAT     H228693   1.266   6.086   0.625
 9211WAT      O28694   0.287   5.635   0.417
 9211WAT     H128695   0.317   5.579   0.345
 9211WAT     H228696   0.194   5.648   0.398
 9212WAT      O28697   0.782   6.697   0.778
 9212WAT     H128698   0.823   6.675   0.695
 9212WAT     H228699   0.854   6.722   0.836
 9213WAT      O28700   1.176   6.537   0.788
 9213WAT     H128701   1.093   6.544   0.740
 9213WAT     H228702   1.236   6.595   0.741
 9214WAT      O28703   0.873   6.215   0.882
 9214WAT     H128704   0.831   6.298   0.908
 9214WAT     H228705   0.799   6.157   0.863
 9215WAT      O28706   0.557   7.015   0.238
 9215WAT     H128707   0.601   7.090   0.197
 9215WAT     H228708   0.551   7.040   0.330
 9216WAT      O28709   1.240   6.915   1.174
 9216WAT     H128710   1.253   6.891   1.082
 9216WAT     H228711   1.244   6.832   1.221
 9217WAT      O28712   1.225   6.120   1.270
 9217WAT     H128713   1.164   6.171   1.218
 9217WAT     H228714   1.193   6.030   1.265
 9218WAT      O28715   0.431   6.004   1.017
 9218WAT     H128716   0.385   6.025   1.098
 9218WAT     H228717   0.391   5.923   0.987
 9219WAT      O28718   0.931   6.126   1.130
 9219WAT     H128719   0.846   6.097   1.162
 9219WAT     H228720   0.915   6.151   1.039
 9220WAT      O28721   0.641   6.277   1.340
 9220WAT     H128722   0.673   6.193   1.306
 9220WAT     H228723   0.720   6.329   1.355
 9221WAT      O28724   0.206   5.772   0.643
 9221WAT     H128725   0.236   5.863   0.634
 9221WAT     H228726   0.261   5.723   0.581
 9222WAT      O28727   0.226   6.320   1.296
 9222WAT     H128728   0.216   6.226   1.281
 9222WAT     H228729   0.310   6.342   1.257
 9223WAT      O28730   0.565   6.094   0.292
 9223WAT     H128731   0.605   6.126   0.211
 9223WAT     H228732   0.602   6.006   0.304
 9224WAT      O28733   0.396   5.969   1.418
 9224WAT     H128734   0.327   5.950   1.482
 9224WAT     H228735   0.471   5.998   1.472
 9225WAT      O28736   0.624   6.353   0.702
 9225WAT     H128737   0.551   6.404   0.737
 9225WAT     H228738   0.584   6.272   0.672
 9226WAT      O28739   0.268   6.021   0.542
 9226WAT     H128740   0.268   5.977   0.457
 9226WAT     H228741   0.357   6.053   0.553
 9227WAT      O28742   0.670   5.899   0.643
 9227WAT     H128743   0.672   5.944   0.728
 9227WAT     H228744   0.645   5.809   0.664
 9228WAT      O28745   1.013   5.640   1.227
 9228WAT     H128746   1.045   5.567   1.280
 9228WAT     H228747   1.016   5.608   1.137
 9229WAT      O28748   0.298   6.427   0.717
 9229WAT     H128749   0.334   6.380   0.792
 9229WAT     H228750   0.279   6.514   0.751
 9230WAT      O28751   1.005   6.651   0.588
 9230WAT     H128752   1.077   6.701   0.549
 9230WAT     H228753   0.985   6.583   0.523
 9231WAT      O28754   0.544   6.658   1.177
 9231WAT     H128755   0.537   6.566   1.151
 9231WAT     H228756   0.481   6.668   1.248
 9232WAT      O28757   0.537   6.941   1.152
 9232WAT     H128758   0.538   6.847   1.130
 9232WAT     H228759   0.466   6.949   1.215
 9233WAT      O28760   1.158   6.605   1.086
 9233WAT     H128761   1.085   6.664   1.067
 9233WAT     H228762   1.211   6.604   1.006
 9234WAT      O28763   0.711   6.777   0.436
 9234WAT     H128764   0.746   6.718   0.370
 9234WAT     H228765   0.623   6.745   0.453
 9235WAT      O28766   0.320   6.853   0.177
 9235WAT     H128767   0.388   6.908   0.215
 9235WAT     H228768   0.241   6.908   0.180
 9236WAT      O28769   0.480   7.105   0.861
 9236WAT     H128770   0.545   7.125   0.929
 9236WAT     H228771   0.516   7.029   0.816
 9237WAT      O28772   0.607   6.905   0.733
 9237WAT     H128773   0.672   6.835   0.744
 9237WAT     H228774   0.660   6.983   0.715
 9238WAT      O28775   0.785   6.985   1.053
 9238WAT     H128776   0.818   7.044   1.121
 9238WAT     H228777   0.693   6.972   1.076
 9239WAT      O28778   0.368   6.990   1.370
 9239WAT     H128779   0.336   6.918   1.424
 9239WAT     H228780   0.300   7.057   1.377
 9240WAT      O28781   0.689   6.013   0.906
 9240WAT     H128782   0.726   5.931   0.939
 9240WAT     H228783   0.603   6.019   0.948
 9241WAT      O28784   0.385   6.279   0.929
 9241WAT     H128785   0.435   6.326   0.995
 9241WAT     H228786   0.400   6.186   0.949
 9242WAT      O28787   0.626   5.809   0.273
 9242WAT     H128788   0.614   5.811   0.178
 9242WAT     H228789   0.721   5.814   0.285
 9243WAT      O28790   1.106   5.900   1.013
 9243WAT     H128791   1.056   5.974   1.047
 9243WAT     H228792   1.188   5.939   0.981
 9244WAT      O28793   0.935   6.425   0.358
 9244WAT     H128794   0.841   6.426   0.375
 9244WAT     H228795   0.967   6.346   0.402
 9245WAT      O28796   0.667   6.880   1.406
 9245WAT     H128797   0.606   6.883   1.332
 9245WAT     H228798   0.636   6.807   1.460
 9246WAT      O28799   0.261   6.659   1.259
 9246WAT     H128800   0.184   6.716   1.250
 9246WAT     H228801   0.279   6.630   1.170
 9247WAT      O28802   0.975   6.832   1.315
 9247WAT     H128803   1.049   6.866   1.264
 9247WAT     H228804   0.898   6.849   1.259
 9248WAT      O28805   0.842   6.637   1.168
 9248WAT     H128806   0.884   6.653   1.253
 9248WAT     H228807   0.749   6.650   1.185
 9249WAT      O28808   0.889   6.371   1.369
 9249WAT     H128809   0.948   6.296   1.360
 9249WAT     H228810   0.907   6.424   1.291
 9250WAT      O28811   0.278   5.743   0.903
 9250WAT     H128812   0.233   5.745   0.819
 9250WAT     H228813   0.214   5.703   0.963
 9251WAT      O28814   0.318   6.632   0.965
 9251WAT     H128815   0.360   6.717   0.948
 9251WAT     H228816   0.226   6.646   0.942
 9252WAT      O28817   0.552   6.405   1.104
 9252WAT     H128818   0.564   6.346   1.178
 9252WAT     H228819   0.638   6.409   1.062
 9253WAT      O28820   0.786   6.461   0.961
 9253WAT     H128821   0.733   6.513   0.901
 9253WAT     H228822   0.820   6.524   1.024
 9254WAT      O28823   0.229   6.060   1.229
 9254WAT     H128824   0.288   6.029   1.298
 9254WAT     H228825   0.147   6.012   1.245
 9255WAT      O28826   0.711   6.021   1.253
 9255WAT     H128827   0.642   5.955   1.246
 9255WAT     H228828   0.783   5.977   1.297
 9256WAT      O28829   1.142   7.156   1.136
 9256WAT     H128830   1.082   7.162   1.061
 9256WAT     H228831   1.155   7.062   1.149
 9257WAT      O28832   1.312   6.690   0.404
 9257WAT     H128833   1.349   6.612   0.363
 9257WAT     H228834   1.376   6.759   0.386
 9258WAT      O28835   1.010   6.829   0.945
 9258WAT     H128836   0.929   6.871   0.972
 9258WAT     H228837   1.051   6.890   0.884
 9259WAT      O28838   1.145   6.342   1.098
 9259WAT     H128839   1.122   6.320   1.008
 9259WAT     H228840   1.171   6.434   1.093
 9260WAT      O28841   0.989   5.865   1.376
 9260WAT     H128842   1.077   5.866   1.414
 9260WAT     H228843   0.990   5.791   1.315
 9261WAT      O28844   1.134   6.250   0.465
 9261WAT     H128845   1.186   6.201   0.402
 9261WAT     H228846   1.192   6.264   0.539
 9262WAT      O28847   1.152   6.259   0.817
 9262WAT     H128848   1.057   6.255   0.828
 9262WAT     H228849   1.170   6.350   0.793
 9263WAT      O28850   1.226   6.040   0.312
 9263WAT     H128851   1.215   6.024   0.406
 9263WAT     H228852   1.302   5.987   0.288
 9264WAT      O28853   1.060   5.634   0.958
 9264WAT     H128854   1.124   5.695   0.994
 9264WAT     H228855   1.075   5.637   0.863
 9265WAT      O28856   0.177   7.102   0.873
 9265WAT     H128857   0.153   7.129   0.784
 9265WAT     H228858   0.271   7.120   0.879
 9266WAT      O28859   0.397   5.749   1.249
 9266WAT     H128860   0.391   5.808   1.324
 9266WAT     H228861   0.491   5.738   1.234
 9267WAT      O28862   0.661   5.714   1.213
 9267WAT     H128863   0.723   5.746   1.146
 9267WAT     H228864   0.716   5.666   1.274
 9268WAT      O28865   0.735   5.571   0.845
 9268WAT     H128866   0.648   5.604   0.825
 9268WAT     H228867   0.724   5.524   0.928
 9269WAT      O28868   0.826   5.792   0.984
 9269WAT     H128869   0.793   5.710   0.946
 9269WAT     H228870   0.921   5.787   0.971
 9270WAT      O28871   0.510   5.663   0.739
 9270WAT     H128872   0.432   5.710   0.767
 9270WAT     H228873   0.481   5.572   0.728
 9271WAT      O28874   0.965   5.733   0.544
 9271WAT     H128875   1.009   5.727   0.459
 9271WAT     H228876   0.938   5.824   0.551
 9272WAT      O28877   1.152   5.696   0.345
 9272WAT     H128878   1.145   5.602   0.330
 9272WAT     H228879   1.229   5.707   0.399
 9273WAT      O28880   0.298   5.904   0.290
 9273WAT     H128881   0.217   5.867   0.256
 9273WAT     H228882   0.349   5.829   0.321
 9274WAT      O28883   0.749   5.571   0.414
 9274WAT     H128884   0.809   5.628   0.462
 9274WAT     H228885   0.675   5.627   0.392
 9275WAT      O28886   0.774   5.589   1.452
 9275WAT     H128887   0.762   5.621   1.542
 9275WAT     H228888   0.855   5.629   1.422
 9276WAT      O28889   0.664   4.513   5.998
 9276WAT     H128890   0.656   4.422   5.971
 9276WAT     H228891   0.623   4.563   5.928
 9277WAT      O28892   0.477   4.691   6.186
 9277WAT     H128893   0.400   4.643   6.215
 9277WAT     H228894   0.543   4.623   6.169
 9278WAT      O28895   0.880   5.132   6.064
 9278WAT     H128896   0.833   5.055   6.097
 9278WAT     H228897   0.961   5.134   6.115
 9279WAT      O28898   0.502   5.360   6.026
 9279WAT     H128899   0.440   5.406   5.969
 9279WAT     H228900   0.588   5.376   5.986
 9280WAT      O28901   0.422   4.959   6.187
 9280WAT     H128902   0.415   4.865   6.171
 9280WAT     H228903   0.498   4.968   6.244
 9281WAT      O28904   0.525   4.239   6.210
 9281WAT     H128905   0.562   4.152   6.198
 9281WAT     H228906   0.515   4.273   6.121
 9282WAT      O28907   0.903   3.989   5.903
 9282WAT     H128908   0.985   3.940   5.907
 9282WAT     H228909   0.906   4.048   5.978
 9283WAT      O28910   0.589   4.849   5.766
 9283WAT     H128911   0.527   4.895   5.709
 9283WAT     H228912   0.640   4.918   5.807
 9284WAT      O28913   0.926   4.183   6.180
 9284WAT     H128914   0.856   4.212   6.238
 9284WAT     H228915   0.963   4.264   6.144
 9285WAT      O28916   1.088   5.145   6.406
 9285WAT     H128917   1.020   5.212   6.406
 9285WAT     H228918   1.142   5.164   6.330
 9286WAT      O28919   1.233   4.127   6.219
 9286WAT     H128920   1.139   4.131   6.232
 9286WAT     H228921   1.266   4.209   6.258
 9287WAT      O28922   0.287   3.757   6.049
 9287WAT     H128923   0.317   3.702   5.977
 9287WAT     H228924   0.194   3.771   6.031
 9288WAT      O28925   0.842   5.329   6.278
 9288WAT     H128926   0.843   5.289   6.191
 9288WAT     H228927   0.786   5.406   6.268
 9289WAT      O28928   0.971   5.001   5.787
 9289WAT     H128929   0.960   4.907   5.799
 9289WAT     H228930   0.971   5.037   5.875
 9290WAT      O28931   0.782   4.819   6.411
 9290WAT     H128932   0.823   4.798   6.327
 9290WAT     H228933   0.854   4.845   6.468
 9291WAT      O28934   0.525   4.564   5.722
 9291WAT     H128935   0.433   4.557   5.745
 9291WAT     H228936   0.541   4.658   5.711
 9292WAT      O28937   0.524   4.191   5.422
 9292WAT     H128938   0.430   4.207   5.431
 9292WAT     H228939   0.556   4.263   5.367
 9293WAT      O28940   1.176   4.659   6.420
 9293WAT     H128941   1.093   4.666   6.372
 9293WAT     H228942   1.236   4.718   6.373
 9294WAT      O28943   0.928   4.720   5.773
 9294WAT     H128944   0.866   4.686   5.708
 9294WAT     H228945   0.927   4.656   5.844
 9295WAT      O28946   0.746   4.644   5.474
 9295WAT     H128947   0.790   4.560   5.459
 9295WAT     H228948   0.817   4.707   5.482
 9296WAT      O28949   0.557   5.138   5.870
 9296WAT     H128950   0.601   5.212   5.829
 9296WAT     H228951   0.551   5.162   5.963
 9297WAT      O28952   1.104   3.769   5.305
 9297WAT     H128953   1.073   3.779   5.395
 9297WAT     H228954   1.180   3.827   5.300
 9298WAT      O28955   0.824   5.437   5.606
 9298WAT     H128956   0.808   5.408   5.696
 9298WAT     H228957   0.807   5.359   5.552
 9299WAT      O28958   0.794   5.187   5.462
 9299WAT     H128959   0.725   5.187   5.396
 9299WAT     H228960   0.868   5.145   5.419
 9300WAT      O28961   0.750   5.350   5.869
 9300WAT     H128962   0.796   5.272   5.901
 9300WAT     H228963   0.784   5.421   5.924
 9301WAT      O28964   0.314   3.802   5.577
 9301WAT     H128965   0.252   3.802   5.650
 9301WAT     H228966   0.305   3.716   5.537
 9302WAT      O28967   0.206   3.895   6.275
 9302WAT     H128968   0.236   3.985   6.267
 9302WAT     H228969   0.261   3.846   6.213
 9303WAT      O28970   0.705   4.353   5.722
 9303WAT     H128971   0.645   4.426   5.703
 9303WAT     H228972   0.759   4.347   5.643
 9304WAT      O28973   0.565   4.217   5.925
 9304WAT     H128974   0.605   4.249   5.843
 9304WAT     H228975   0.602   4.129   5.936
 9305WAT      O28976   0.624   4.476   6.334
 9305WAT     H128977   0.551   4.527   6.369
 9305WAT     H228978   0.584   4.394   6.304
 9306WAT      O28979   0.268   4.143   6.175
 9306WAT     H128980   0.268   4.099   6.090
 9306WAT     H228981   0.357   4.176   6.185
 9307WAT      O28982   0.274   4.244   5.474
 9307WAT     H128983   0.286   4.239   5.569
 9307WAT     H228984   0.235   4.330   5.458
 9308WAT      O28985   0.670   4.021   6.275
 9308WAT     H128986   0.672   4.066   6.360
 9308WAT     H228987   0.645   3.931   6.297
 9309WAT      O28988   0.298   4.549   6.349
 9309WAT     H128989   0.334   4.502   6.424
 9309WAT     H228990   0.279   4.637   6.383
 9310WAT      O28991   1.005   4.774   6.220
 9310WAT     H128992   1.077   4.823   6.181
 9310WAT     H228993   0.985   4.706   6.156
 9311WAT      O28994   0.552   3.913   5.634
 9311WAT     H128995   0.470   3.863   5.627
 9311WAT     H228996   0.532   3.997   5.593
 9312WAT      O28997   0.823   4.350   5.464
 9312WAT     H128998   0.912   4.382   5.447
 9312WAT     H228999   0.820   4.263   5.425
 9313WAT      O29000   0.423   4.968   5.532
 9313WAT     H129001   0.457   5.042   5.482
 9313WAT     H229002   0.340   4.999   5.568
 9314WAT      O29003   1.050   4.482   5.411
 9314WAT     H129004   1.042   4.525   5.326
 9314WAT     H229005   1.122   4.528   5.454
 9315WAT      O29006   1.153   5.167   5.684
 9315WAT     H129007   1.089   5.102   5.711
 9315WAT     H229008   1.114   5.208   5.606
 9316WAT      O29009   0.711   4.900   6.068
 9316WAT     H129010   0.746   4.840   6.002
 9316WAT     H229011   0.623   4.867   6.086
 9317WAT      O29012   0.320   4.976   5.809
 9317WAT     H129013   0.388   5.030   5.847
 9317WAT     H229014   0.241   5.030   5.813
 9318WAT      O29015   0.250   4.676   5.770
 9318WAT     H129016   0.295   4.757   5.793
 9318WAT     H229017   0.215   4.644   5.854
 9319WAT      O29018   0.607   5.028   6.365
 9319WAT     H129019   0.672   4.958   6.376
 9319WAT     H229020   0.660   5.106   6.347
 9320WAT      O29021   0.992   5.056   5.337
 9320WAT     H129022   0.969   4.984   5.397
 9320WAT     H229023   0.953   5.031   5.254
 9321WAT      O29024   0.950   4.848   5.504
 9321WAT     H129025   0.921   4.894   5.582
 9321WAT     H229026   1.030   4.802   5.530
 9322WAT      O29027   1.026   4.031   5.620
 9322WAT     H129028   0.963   4.042   5.548
 9322WAT     H229029   0.976   4.053   5.699
 9323WAT      O29030   0.470   5.203   5.363
 9323WAT     H129031   0.481   5.183   5.270
 9323WAT     H229032   0.380   5.178   5.383
 9324WAT      O29033   0.223   4.259   5.761
 9324WAT     H129034   0.152   4.306   5.805
 9324WAT     H229035   0.251   4.193   5.825
 9325WAT      O29036   0.626   3.932   5.905
 9325WAT     H129037   0.614   3.934   5.810
 9325WAT     H229038   0.721   3.936   5.917
 9326WAT      O29039   0.335   5.455   5.832
 9326WAT     H129040   0.360   5.451   5.740
 9326WAT     H229041   0.240   5.443   5.832
 9327WAT      O29042   0.935   4.547   5.990
 9327WAT     H129043   0.841   4.549   6.007
 9327WAT     H229044   0.967   4.469   6.035
 9328WAT      O29045   1.135   5.264   6.158
 9328WAT     H129046   1.148   5.347   6.205
 9328WAT     H229047   1.222   5.243   6.123
 9329WAT      O29048   0.194   5.391   5.307
 9329WAT     H129049   0.273   5.420   5.262
 9329WAT     H229050   0.142   5.348   5.239
 9330WAT      O29051   1.099   5.314   5.449
 9330WAT     H129052   1.070   5.272   5.368
 9330WAT     H229053   1.079   5.406   5.437
 9331WAT      O29054   0.245   4.913   5.293
 9331WAT     H129055   0.235   4.851   5.366
 9331WAT     H229056   0.229   4.861   5.215
 9332WAT      O29057   0.569   4.819   5.354
 9332WAT     H129058   0.515   4.864   5.418
 9332WAT     H229059   0.632   4.769   5.406
 9333WAT      O29060   0.387   4.617   5.268
 9333WAT     H129061   0.439   4.546   5.232
 9333WAT     H229062   0.452   4.681   5.298
 9334WAT      O29063   0.774   3.803   5.491
 9334WAT     H129064   0.802   3.719   5.526
 9334WAT     H229065   0.696   3.827   5.542
 9335WAT      O29066   0.227   3.927   5.335
 9335WAT     H129067   0.193   3.859   5.277
 9335WAT     H229068   0.248   3.881   5.417
 9336WAT      O29069   0.444   5.426   5.497
 9336WAT     H129070   0.533   5.459   5.499
 9336WAT     H229071   0.447   5.353   5.434
 9337WAT      O29072   1.266   5.053   5.302
 9337WAT     H129073   1.183   5.059   5.349
 9337WAT     H229074   1.284   5.142   5.271
 9338WAT      O29075   1.211   4.727   5.552
 9338WAT     H129076   1.288   4.784   5.563
 9338WAT     H229077   1.213   4.670   5.629
 9339WAT      O29078   1.312   4.813   6.036
 9339WAT     H129079   1.349   4.734   5.996
 9339WAT     H229080   1.376   4.882   6.019
 9340WAT      O29081   1.217   4.757   5.268
 9340WAT     H129082   1.244   4.847   5.255
 9340WAT     H229083   1.198   4.750   5.361
 9341WAT      O29084   0.856   4.059   5.397
 9341WAT     H129085   0.898   4.040   5.313
 9341WAT     H229086   0.826   3.974   5.428
 9342WAT      O29087   1.206   4.550   5.767
 9342WAT     H129088   1.169   4.474   5.724
 9342WAT     H229089   1.133   4.588   5.816
 9343WAT      O29090   1.134   4.373   6.097
 9343WAT     H129091   1.186   4.323   6.034
 9343WAT     H229092   1.192   4.386   6.171
 9344WAT      O29093   1.152   4.381   6.449
 9344WAT     H129094   1.057   4.378   6.461
 9344WAT     H229095   1.170   4.472   6.426
 9345WAT      O29096   1.083   4.299   5.691
 9345WAT     H129097   1.132   4.275   5.769
 9345WAT     H229098   1.063   4.215   5.649
 9346WAT      O29099   1.226   4.162   5.944
 9346WAT     H129100   1.215   4.147   6.038
 9346WAT     H229101   1.302   4.109   5.920
 9347WAT      O29102   1.315   3.945   5.268
 9347WAT     H129103   1.407   3.932   5.248
 9347WAT     H229104   1.312   3.953   5.364
 9348WAT      O29105   1.322   4.022   5.531
 9348WAT     H129106   1.242   4.016   5.584
 9348WAT     H229107   1.342   4.116   5.530
 9349WAT      O29108   1.016   5.426   5.930
 9349WAT     H129109   1.076   5.394   5.863
 9349WAT     H229110   1.042   5.379   6.009
 9350WAT      O29111   0.177   5.225   6.505
 9350WAT     H129112   0.153   5.252   6.417
 9350WAT     H229113   0.271   5.242   6.511
 9351WAT      O29114   1.071   5.491   6.313
 9351WAT     H129115   1.025   5.566   6.276
 9351WAT     H229116   1.008   5.419   6.307
 9352WAT      O29117   0.388   5.411   6.313
 9352WAT     H129118   0.417   5.386   6.226
 9352WAT     H229119   0.439   5.356   6.373
 9353WAT      O29120   0.510   3.785   6.371
 9353WAT     H129121   0.432   3.833   6.399
 9353WAT     H229122   0.481   3.695   6.361
 9354WAT      O29123   0.965   3.855   6.176
 9354WAT     H129124   1.009   3.850   6.091
 9354WAT     H229125   0.938   3.947   6.183
 9355WAT      O29126   1.152   3.818   5.977
 9355WAT     H129127   1.145   3.724   5.962
 9355WAT     H229128   1.229   3.829   6.032
 9356WAT      O29129   0.298   4.027   5.923
 9356WAT     H129130   0.217   3.990   5.889
 9356WAT     H229131   0.349   3.951   5.953
 9357WAT      O29132   0.749   3.693   6.046
 9357WAT     H129133   0.809   3.751   6.094
 9357WAT     H229134   0.675   3.750   6.024
 9358WAT      O29135   1.063   3.734   5.574
 9358WAT     H129136   1.083   3.823   5.601
 9358WAT     H229137   0.984   3.710   5.623
 9359WAT      O29138   1.218   5.458   5.750
 9359WAT     H129139   1.236   5.389   5.686
 9359WAT     H229140   1.149   5.510   5.711
 9360WAT      O29141   0.664   4.513   4.121
 9360WAT     H129142   0.656   4.422   4.094
 9360WAT     H229143   0.623   4.563   4.050
 9361WAT      O29144   0.477   4.691   4.309
 9361WAT     H129145   0.400   4.643   4.338
 9361WAT     H229146   0.543   4.623   4.291
 9362WAT      O29147   0.880   5.132   4.187
 9362WAT     H129148   0.833   5.055   4.220
 9362WAT     H229149   0.961   5.134   4.237
 9363WAT      O29150   0.502   5.360   4.149
 9363WAT     H129151   0.440   5.406   4.092
 9363WAT     H229152   0.588   5.376   4.109
 9364WAT      O29153   0.422   4.959   4.310
 9364WAT     H129154   0.415   4.865   4.293
 9364WAT     H229155   0.498   4.968   4.367
 9365WAT      O29156   0.525   4.239   4.332
 9365WAT     H129157   0.562   4.152   4.321
 9365WAT     H229158   0.515   4.273   4.243
 9366WAT      O29159   0.903   3.989   4.026
 9366WAT     H129160   0.985   3.940   4.030
 9366WAT     H229161   0.906   4.048   4.101
 9367WAT      O29162   1.332   4.190   4.682
 9367WAT     H129163   1.261   4.229   4.630
 9367WAT     H229164   1.358   4.260   4.742
 9368WAT      O29165   0.589   4.849   3.888
 9368WAT     H129166   0.527   4.895   3.832
 9368WAT     H229167   0.640   4.918   3.930
 9369WAT      O29168   0.926   4.183   4.303
 9369WAT     H129169   0.856   4.212   4.361
 9369WAT     H229170   0.963   4.264   4.267
 9370WAT      O29171   1.088   5.145   4.529
 9370WAT     H129172   1.020   5.212   4.528
 9370WAT     H229173   1.142   5.164   4.452
 9371WAT      O29174   1.233   4.127   4.342
 9371WAT     H129175   1.139   4.131   4.355
 9371WAT     H229176   1.266   4.209   4.380
 9372WAT      O29177   0.287   3.757   4.171
 9372WAT     H129178   0.317   3.702   4.100
 9372WAT     H229179   0.194   3.771   4.153
 9373WAT      O29180   0.842   5.329   4.401
 9373WAT     H129181   0.843   5.289   4.314
 9373WAT     H229182   0.786   5.406   4.390
 9374WAT      O29183   0.971   5.001   3.909
 9374WAT     H129184   0.960   4.907   3.922
 9374WAT     H229185   0.971   5.037   3.998
 9375WAT      O29186   0.782   4.819   4.533
 9375WAT     H129187   0.823   4.798   4.450
 9375WAT     H229188   0.854   4.845   4.590
 9376WAT      O29189   0.525   4.564   3.845
 9376WAT     H129190   0.433   4.557   3.868
 9376WAT     H229191   0.541   4.658   3.834
 9377WAT      O29192   0.524   4.191   3.545
 9377WAT     H129193   0.430   4.207   3.553
 9377WAT     H229194   0.556   4.263   3.490
 9378WAT      O29195   1.176   4.659   4.542
 9378WAT     H129196   1.093   4.666   4.495
 9378WAT     H229197   1.236   4.718   4.496
 9379WAT      O29198   0.928   4.720   3.895
 9379WAT     H129199   0.866   4.686   3.831
 9379WAT     H229200   0.927   4.656   3.966
 9380WAT      O29201   0.873   4.338   4.637
 9380WAT     H129202   0.831   4.420   4.662
 9380WAT     H229203   0.799   4.279   4.618
 9381WAT      O29204   0.942   5.342   4.706
 9381WAT     H129205   0.894   5.423   4.687
 9381WAT     H229206   0.873   5.277   4.721
 9382WAT      O29207   0.746   4.644   3.596
 9382WAT     H129208   0.790   4.560   3.581
 9382WAT     H229209   0.817   4.707   3.605
 9383WAT      O29210   0.557   5.138   3.993
 9383WAT     H129211   0.601   5.212   3.951
 9383WAT     H229212   0.551   5.162   4.085
 9384WAT      O29213   1.104   3.769   3.428
 9384WAT     H129214   1.073   3.779   3.518
 9384WAT     H229215   1.180   3.827   3.422
 9385WAT      O29216   1.300   5.319   5.213
 9385WAT     H129217   1.347   5.366   5.281
 9385WAT     H229218   1.362   5.312   5.140
 9386WAT      O29219   1.240   5.038   4.929
 9386WAT     H129220   1.253   5.014   4.837
 9386WAT     H229221   1.244   4.955   4.976
 9387WAT      O29222   0.626   5.408   4.786
 9387WAT     H129223   0.678   5.399   4.866
 9387WAT     H229224   0.542   5.443   4.815
 9388WAT      O29225   0.824   5.437   3.729
 9388WAT     H129226   0.808   5.408   3.818
 9388WAT     H229227   0.807   5.359   3.675
 9389WAT      O29228   0.794   5.187   3.585
 9389WAT     H129229   0.725   5.187   3.519
 9389WAT     H229230   0.868   5.145   3.541
 9390WAT      O29231   0.750   5.350   3.992
 9390WAT     H129232   0.796   5.272   4.023
 9390WAT     H229233   0.784   5.421   4.046
 9391WAT      O29234   1.225   4.243   5.025
 9391WAT     H129235   1.164   4.294   4.972
 9391WAT     H229236   1.193   4.153   5.020
 9392WAT      O29237   0.431   4.127   4.772
 9392WAT     H129238   0.385   4.148   4.853
 9392WAT     H229239   0.391   4.046   4.742
 9393WAT      O29240   0.931   4.249   4.885
 9393WAT     H129241   0.846   4.219   4.917
 9393WAT     H229242   0.915   4.273   4.794
 9394WAT      O29243   0.641   4.399   5.095
 9394WAT     H129244   0.673   4.316   5.061
 9394WAT     H229245   0.720   4.451   5.110
 9395WAT      O29246   0.314   3.802   3.700
 9395WAT     H129247   0.252   3.802   3.772
 9395WAT     H229248   0.305   3.716   3.660
 9396WAT      O29249   0.206   3.895   4.397
 9396WAT     H129250   0.236   3.985   4.389
 9396WAT     H229251   0.261   3.846   4.336
 9397WAT      O29252   0.705   4.353   3.844
 9397WAT     H129253   0.645   4.426   3.826
 9397WAT     H229254   0.759   4.347   3.766
 9398WAT      O29255   0.226   4.442   5.051
 9398WAT     H129256   0.216   4.348   5.036
 9398WAT     H229257   0.310   4.465   5.011
 9399WAT      O29258   0.565   4.217   4.047
 9399WAT     H129259   0.605   4.249   3.966
 9399WAT     H229260   0.602   4.129   4.059
 9400WAT      O29261   0.396   4.092   5.173
 9400WAT     H129262   0.327   4.073   5.237
 9400WAT     H229263   0.471   4.120   5.226
 9401WAT      O29264   0.624   4.476   4.457
 9401WAT     H129265   0.551   4.527   4.492
 9401WAT     H229266   0.584   4.394   4.427
 9402WAT      O29267   0.268   4.143   4.297
 9402WAT     H129268   0.268   4.099   4.212
 9402WAT     H229269   0.357   4.176   4.308
 9403WAT      O29270   0.274   4.244   3.596
 9403WAT     H129271   0.286   4.239   3.691
 9403WAT     H229272   0.235   4.330   3.581
 9404WAT      O29273   0.670   4.021   4.398
 9404WAT     H129274   0.672   4.066   4.482
 9404WAT     H229275   0.645   3.931   4.419
 9405WAT      O29276   1.013   3.763   4.982
 9405WAT     H129277   1.045   3.689   5.034
 9405WAT     H229278   1.016   3.731   4.892
 9406WAT      O29279   0.298   4.549   4.472
 9406WAT     H129280   0.334   4.502   4.547
 9406WAT     H229281   0.279   4.637   4.506
 9407WAT      O29282   1.005   4.774   4.343
 9407WAT     H129283   1.077   4.823   4.304
 9407WAT     H229284   0.985   4.706   4.278
 9408WAT      O29285   0.552   3.913   3.757
 9408WAT     H129286   0.470   3.863   3.749
 9408WAT     H229287   0.532   3.997   3.715
 9409WAT      O29288   0.544   4.781   4.931
 9409WAT     H129289   0.537   4.689   4.906
 9409WAT     H229290   0.481   4.791   5.003
 9410WAT      O29291   0.823   4.350   3.587
 9410WAT     H129292   0.912   4.382   3.569
 9410WAT     H229293   0.820   4.263   3.547
 9411WAT      O29294   0.423   4.968   3.655
 9411WAT     H129295   0.457   5.042   3.605
 9411WAT     H229296   0.340   4.999   3.691
 9412WAT      O29297   0.537   5.063   4.906
 9412WAT     H129298   0.538   4.970   4.885
 9412WAT     H229299   0.466   5.072   4.970
 9413WAT      O29300   1.050   4.482   3.533
 9413WAT     H129301   1.042   4.525   3.448
 9413WAT     H229302   1.122   4.528   3.577
 9414WAT      O29303   1.158   4.727   4.841
 9414WAT     H129304   1.085   4.787   4.821
 9414WAT     H229305   1.211   4.726   4.761
 9415WAT      O29306   1.153   5.167   3.806
 9415WAT     H129307   1.089   5.102   3.834
 9415WAT     H229308   1.114   5.208   3.729
 9416WAT      O29309   0.711   4.900   4.191
 9416WAT     H129310   0.746   4.840   4.125
 9416WAT     H229311   0.623   4.867   4.208
 9417WAT      O29312   0.320   4.976   3.932
 9417WAT     H129313   0.388   5.030   3.970
 9417WAT     H229314   0.241   5.030   3.935
 9418WAT      O29315   0.250   4.676   3.893
 9418WAT     H129316   0.295   4.757   3.916
 9418WAT     H229317   0.215   4.644   3.976
 9419WAT      O29318   0.480   5.227   4.616
 9419WAT     H129319   0.545   5.248   4.684
 9419WAT     H229320   0.516   5.151   4.571
 9420WAT      O29321   0.607   5.028   4.488
 9420WAT     H129322   0.672   4.958   4.499
 9420WAT     H229323   0.660   5.106   4.470
 9421WAT      O29324   0.992   5.056   3.460
 9421WAT     H129325   0.969   4.984   3.519
 9421WAT     H229326   0.953   5.031   3.376
 9422WAT      O29327   0.785   5.108   4.808
 9422WAT     H129328   0.818   5.166   4.876
 9422WAT     H229329   0.693   5.095   4.831
 9423WAT      O29330   0.950   4.848   3.626
 9423WAT     H129331   0.921   4.894   3.705
 9423WAT     H229332   1.030   4.802   3.653
 9424WAT      O29333   0.368   5.113   5.125
 9424WAT     H129334   0.336   5.041   5.179
 9424WAT     H229335   0.300   5.180   5.132
 9425WAT      O29336   0.689   4.136   4.661
 9425WAT     H129337   0.726   4.054   4.694
 9425WAT     H229338   0.603   4.142   4.703
 9426WAT      O29339   1.026   4.031   3.742
 9426WAT     H129340   0.963   4.042   3.671
 9426WAT     H229341   0.976   4.053   3.821
 9427WAT      O29342   0.470   5.203   3.485
 9427WAT     H129343   0.481   5.183   3.392
 9427WAT     H229344   0.380   5.178   3.506
 9428WAT      O29345   0.223   4.259   3.884
 9428WAT     H129346   0.152   4.306   3.928
 9428WAT     H229347   0.251   4.193   3.947
 9429WAT      O29348   0.385   4.401   4.684
 9429WAT     H129349   0.435   4.449   4.750
 9429WAT     H229350   0.400   4.309   4.704
 9430WAT      O29351   0.626   3.932   4.028
 9430WAT     H129352   0.614   3.934   3.933
 9430WAT     H229353   0.721   3.936   4.040
 9431WAT      O29354   0.335   5.455   3.955
 9431WAT     H129355   0.360   5.451   3.863
 9431WAT     H229356   0.240   5.443   3.954
 9432WAT      O29357   1.106   4.023   4.768
 9432WAT     H129358   1.056   4.097   4.802
 9432WAT     H229359   1.188   4.062   4.736
 9433WAT      O29360   0.935   4.547   4.113
 9433WAT     H129361   0.841   4.549   4.130
 9433WAT     H229362   0.967   4.469   4.157
 9434WAT      O29363   1.135   5.264   4.280
 9434WAT     H129364   1.148   5.347   4.327
 9434WAT     H229365   1.222   5.243   4.245
 9435WAT      O29366   0.194   5.391   3.430
 9435WAT     H129367   0.273   5.420   3.384
 9435WAT     H229368   0.142   5.348   3.362
 9436WAT      O29369   0.667   5.003   5.161
 9436WAT     H129370   0.606   5.005   5.087
 9436WAT     H229371   0.636   4.930   5.215
 9437WAT      O29372   0.810   5.376   5.022
 9437WAT     H129373   0.905   5.367   5.017
 9437WAT     H229374   0.795   5.442   5.089
 9438WAT      O29375   1.099   5.314   3.572
 9438WAT     H129376   1.070   5.272   3.490
 9438WAT     H229377   1.079   5.406   3.560
 9439WAT      O29378   0.245   4.913   3.416
 9439WAT     H129379   0.235   4.851   3.489
 9439WAT     H229380   0.229   4.861   3.338
 9440WAT      O29381   0.261   4.781   5.014
 9440WAT     H129382   0.184   4.838   5.005
 9440WAT     H229383   0.279   4.752   4.925
 9441WAT      O29384   0.569   4.819   3.476
 9441WAT     H129385   0.515   4.864   3.541
 9441WAT     H229386   0.632   4.769   3.529
 9442WAT      O29387   0.975   4.955   5.070
 9442WAT     H129388   1.049   4.988   5.019
 9442WAT     H229389   0.898   4.971   5.014
 9443WAT      O29390   0.387   4.617   3.391
 9443WAT     H129391   0.439   4.546   3.354
 9443WAT     H229392   0.452   4.681   3.421
 9444WAT      O29393   0.842   4.760   4.923
 9444WAT     H129394   0.884   4.775   5.008
 9444WAT     H229395   0.749   4.772   4.939
 9445WAT      O29396   0.889   4.494   5.124
 9445WAT     H129397   0.948   4.418   5.115
 9445WAT     H229398   0.907   4.547   5.046
 9446WAT      O29399   0.278   3.865   4.658
 9446WAT     H129400   0.233   3.868   4.573
 9446WAT     H229401   0.214   3.826   4.718
 9447WAT      O29402   0.318   4.755   4.720
 9447WAT     H129403   0.360   4.839   4.703
 9447WAT     H229404   0.226   4.769   4.697
 9448WAT      O29405   0.552   4.528   4.858
 9448WAT     H129406   0.564   4.468   4.932
 9448WAT     H229407   0.638   4.532   4.816
 9449WAT      O29408   0.786   4.583   4.716
 9449WAT     H129409   0.733   4.636   4.656
 9449WAT     H229410   0.820   4.647   4.779
 9450WAT      O29411   0.229   4.182   4.984
 9450WAT     H129412   0.288   4.151   5.053
 9450WAT     H229413   0.147   4.135   5.000
 9451WAT      O29414   0.711   4.144   5.008
 9451WAT     H129415   0.642   4.078   5.001
 9451WAT     H229416   0.783   4.099   5.052
 9452WAT      O29417   0.774   3.803   3.613
 9452WAT     H129418   0.802   3.719   3.649
 9452WAT     H229419   0.696   3.827   3.665
 9453WAT      O29420   0.389   5.509   4.858
 9453WAT     H129421   0.382   5.599   4.888
 9453WAT     H229422   0.299   5.477   4.855
 9454WAT      O29423   0.227   3.927   3.458
 9454WAT     H129424   0.193   3.859   3.400
 9454WAT     H229425   0.248   3.881   3.539
 9455WAT      O29426   0.444   5.426   3.620
 9455WAT     H129427   0.533   5.459   3.622
 9455WAT     H229428   0.447   5.353   3.557
 9456WAT      O29429   1.142   5.279   4.890
 9456WAT     H129430   1.082   5.284   4.816
 9456WAT     H229431   1.155   5.185   4.903
 9457WAT      O29432   1.266   5.053   3.424
 9457WAT     H129433   1.183   5.059   3.471
 9457WAT     H229434   1.284   5.142   3.394
 9458WAT      O29435   1.211   4.727   3.674
 9458WAT     H129436   1.288   4.784   3.685
 9458WAT     H229437   1.213   4.670   3.752
 9459WAT      O29438   1.010   4.951   4.700
 9459WAT     H129439   0.929   4.994   4.726
 9459WAT     H229440   1.051   5.012   4.639
 9460WAT      O29441   1.217   4.757   3.390
 9460WAT     H129442   1.244   4.847   3.377
 9460WAT     H229443   1.198   4.750   3.484
 9461WAT      O29444   0.856   4.059   3.520
 9461WAT     H129445   0.898   4.040   3.436
 9461WAT     H229446   0.826   3.974   3.551
 9462WAT      O29447   1.206   4.550   3.890
 9462WAT     H129448   1.169   4.474   3.846
 9462WAT     H229449   1.133   4.588   3.938
 9463WAT      O29450   1.145   4.465   4.853
 9463WAT     H129451   1.122   4.442   4.763
 9463WAT     H229452   1.171   4.557   4.848
 9464WAT      O29453   0.989   3.988   5.131
 9464WAT     H129454   1.077   3.988   5.169
 9464WAT     H229455   0.990   3.914   5.070
 9465WAT      O29456   1.134   4.373   4.220
 9465WAT     H129457   1.186   4.323   4.156
 9465WAT     H229458   1.192   4.386   4.294
 9466WAT      O29459   1.152   4.381   4.572
 9466WAT     H129460   1.057   4.378   4.583
 9466WAT     H229461   1.170   4.472   4.548
 9467WAT      O29462   1.083   4.299   3.814
 9467WAT     H129463   1.132   4.275   3.892
 9467WAT     H229464   1.063   4.215   3.772
 9468WAT      O29465   1.226   4.162   4.067
 9468WAT     H129466   1.215   4.147   4.161
 9468WAT     H229467   1.302   4.109   4.043
 9469WAT      O29468   1.060   3.756   4.713
 9469WAT     H129469   1.124   3.817   4.749
 9469WAT     H229470   1.075   3.760   4.618
 9470WAT      O29471   1.315   3.945   3.391
 9470WAT     H129472   1.407   3.932   3.370
 9470WAT     H229473   1.312   3.953   3.486
 9471WAT      O29474   1.322   4.022   3.654
 9471WAT     H129475   1.242   4.016   3.706
 9471WAT     H229476   1.342   4.116   3.652
 9472WAT      O29477   1.016   5.426   4.053
 9472WAT     H129478   1.076   5.394   3.985
 9472WAT     H229479   1.042   5.379   4.132
 9473WAT      O29480   0.177   5.225   4.628
 9473WAT     H129481   0.153   5.252   4.539
 9473WAT     H229482   0.271   5.242   4.633
 9474WAT      O29483   0.397   3.871   5.003
 9474WAT     H129484   0.391   3.931   5.078
 9474WAT     H229485   0.491   3.861   4.989
 9475WAT      O29486   0.661   3.837   4.967
 9475WAT     H129487   0.723   3.869   4.901
 9475WAT     H229488   0.716   3.789   5.029
 9476WAT      O29489   1.303   5.427   4.708
 9476WAT     H129490   1.253   5.467   4.636
 9476WAT     H229491   1.242   5.364   4.747
 9477WAT      O29492   0.735   3.693   4.600
 9477WAT     H129493   0.648   3.727   4.580
 9477WAT     H229494   0.724   3.646   4.683
 9478WAT      O29495   0.826   3.914   4.738
 9478WAT     H129496   0.793   3.833   4.701
 9478WAT     H229497   0.921   3.910   4.726
 9479WAT      O29498   1.071   5.491   4.436
 9479WAT     H129499   1.025   5.566   4.398
 9479WAT     H229500   1.008   5.419   4.430
 9480WAT      O29501   0.388   5.411   4.436
 9480WAT     H129502   0.417   5.386   4.348
 9480WAT     H229503   0.439   5.356   4.495
 9481WAT      O29504   0.510   3.785   4.494
 9481WAT     H129505   0.432   3.833   4.522
 9481WAT     H229506   0.481   3.695   4.483
 9482WAT      O29507   0.965   3.855   4.299
 9482WAT     H129508   1.009   3.850   4.214
 9482WAT     H229509   0.938   3.947   4.306
 9483WAT      O29510   1.152   3.818   4.100
 9483WAT     H129511   1.145   3.724   4.085
 9483WAT     H229512   1.229   3.829   4.154
 9484WAT      O29513   0.298   4.027   4.045
 9484WAT     H129514   0.217   3.990   4.011
 9484WAT     H229515   0.349   3.951   4.075
 9485WAT      O29516   0.749   3.693   4.169
 9485WAT     H129517   0.809   3.751   4.216
 9485WAT     H229518   0.675   3.750   4.147
 9486WAT      O29519   1.063   3.734   3.696
 9486WAT     H129520   1.083   3.823   3.723
 9486WAT     H229521   0.984   3.710   3.746
 9487WAT      O29522   0.395   5.503   5.173
 9487WAT     H129523   0.488   5.480   5.177
 9487WAT     H229524   0.393   5.586   5.125
 9488WAT      O29525   1.218   5.458   3.872
 9488WAT     H129526   1.236   5.389   3.808
 9488WAT     H229527   1.149   5.510   3.833
 9489WAT      O29528   0.774   3.711   5.207
 9489WAT     H129529   0.762   3.743   5.296
 9489WAT     H229530   0.855   3.751   5.177
 9490WAT      O29531   1.052   5.426   5.155
 9490WAT     H129532   1.131   5.377   5.134
 9490WAT     H229533   1.081   5.494   5.216
 9491WAT      O29534   0.664   4.513   2.243
 9491WAT     H129535   0.656   4.422   2.216
 9491WAT     H229536   0.623   4.563   2.173
 9492WAT      O29537   0.477   4.691   2.431
 9492WAT     H129538   0.400   4.643   2.460
 9492WAT     H229539   0.543   4.623   2.414
 9493WAT      O29540   0.880   5.132   2.309
 9493WAT     H129541   0.833   5.055   2.342
 9493WAT     H229542   0.961   5.134   2.360
 9494WAT      O29543   0.502   5.360   2.271
 9494WAT     H129544   0.440   5.406   2.214
 9494WAT     H229545   0.588   5.376   2.231
 9495WAT      O29546   0.422   4.959   2.432
 9495WAT     H129547   0.415   4.865   2.416
 9495WAT     H229548   0.498   4.968   2.489
 9496WAT      O29549   0.525   4.239   2.455
 9496WAT     H129550   0.562   4.152   2.444
 9496WAT     H229551   0.515   4.273   2.366
 9497WAT      O29552   0.903   3.989   2.148
 9497WAT     H129553   0.985   3.940   2.152
 9497WAT     H229554   0.906   4.048   2.223
 9498WAT      O29555   1.332   4.190   2.805
 9498WAT     H129556   1.261   4.229   2.753
 9498WAT     H229557   1.358   4.260   2.865
 9499WAT      O29558   0.589   4.849   2.011
 9499WAT     H129559   0.527   4.895   1.954
 9499WAT     H229560   0.640   4.918   2.052
 9500WAT      O29561   0.926   4.183   2.425
 9500WAT     H129562   0.856   4.212   2.483
 9500WAT     H229563   0.963   4.264   2.389
 9501WAT      O29564   1.088   5.145   2.652
 9501WAT     H129565   1.020   5.212   2.651
 9501WAT     H229566   1.142   5.164   2.575
 9502WAT      O29567   1.233   4.127   2.464
 9502WAT     H129568   1.139   4.131   2.478
 9502WAT     H229569   1.266   4.209   2.503
 9503WAT      O29570   0.287   3.757   2.294
 9503WAT     H129571   0.317   3.702   2.222
 9503WAT     H229572   0.194   3.771   2.276
 9504WAT      O29573   0.842   5.329   2.523
 9504WAT     H129574   0.843   5.289   2.436
 9504WAT     H229575   0.786   5.406   2.513
 9505WAT      O29576   0.971   5.001   2.032
 9505WAT     H129577   0.960   4.907   2.044
 9505WAT     H229578   0.971   5.037   2.121
 9506WAT      O29579   0.782   4.819   2.656
 9506WAT     H129580   0.823   4.798   2.572
 9506WAT     H229581   0.854   4.845   2.713
 9507WAT      O29582   0.525   4.564   1.968
 9507WAT     H129583   0.433   4.557   1.990
 9507WAT     H229584   0.541   4.658   1.956
 9508WAT      O29585   0.524   4.191   1.667
 9508WAT     H129586   0.430   4.207   1.676
 9508WAT     H229587   0.556   4.263   1.613
 9509WAT      O29588   1.176   4.659   2.665
 9509WAT     H129589   1.093   4.666   2.618
 9509WAT     H229590   1.236   4.718   2.618
 9510WAT      O29591   0.928   4.720   2.018
 9510WAT     H129592   0.866   4.686   1.953
 9510WAT     H229593   0.927   4.656   2.089
 9511WAT      O29594   0.873   4.338   2.760
 9511WAT     H129595   0.831   4.420   2.785
 9511WAT     H229596   0.799   4.279   2.740
 9512WAT      O29597   0.942   5.342   2.828
 9512WAT     H129598   0.894   5.423   2.809
 9512WAT     H229599   0.873   5.277   2.844
 9513WAT      O29600   0.746   4.644   1.719
 9513WAT     H129601   0.790   4.560   1.704
 9513WAT     H229602   0.817   4.707   1.727
 9514WAT      O29603   0.557   5.138   2.115
 9514WAT     H129604   0.601   5.212   2.074
 9514WAT     H229605   0.551   5.162   2.208
 9515WAT      O29606   1.104   3.769   1.550
 9515WAT     H129607   1.073   3.779   1.640
 9515WAT     H229608   1.180   3.827   1.545
 9516WAT      O29609   1.300   5.319   3.335
 9516WAT     H129610   1.347   5.366   3.403
 9516WAT     H229611   1.362   5.312   3.263
 9517WAT      O29612   1.240   5.038   3.051
 9517WAT     H129613   1.253   5.014   2.960
 9517WAT     H229614   1.244   4.955   3.099
 9518WAT      O29615   0.626   5.408   2.908
 9518WAT     H129616   0.678   5.399   2.989
 9518WAT     H229617   0.542   5.443   2.938
 9519WAT      O29618   0.824   5.437   1.851
 9519WAT     H129619   0.808   5.408   1.941
 9519WAT     H229620   0.807   5.359   1.798
 9520WAT      O29621   0.794   5.187   1.707
 9520WAT     H129622   0.725   5.187   1.641
 9520WAT     H229623   0.868   5.145   1.664
 9521WAT      O29624   0.750   5.350   2.115
 9521WAT     H129625   0.796   5.272   2.146
 9521WAT     H229626   0.784   5.421   2.169
 9522WAT      O29627   1.225   4.243   3.148
 9522WAT     H129628   1.164   4.294   3.095
 9522WAT     H229629   1.193   4.153   3.142
 9523WAT      O29630   0.431   4.127   2.894
 9523WAT     H129631   0.385   4.148   2.976
 9523WAT     H229632   0.391   4.046   2.864
 9524WAT      O29633   0.931   4.249   3.007
 9524WAT     H129634   0.846   4.219   3.040
 9524WAT     H229635   0.915   4.273   2.916
 9525WAT      O29636   0.641   4.399   3.217
 9525WAT     H129637   0.673   4.316   3.183
 9525WAT     H229638   0.720   4.451   3.232
 9526WAT      O29639   0.314   3.802   1.822
 9526WAT     H129640   0.252   3.802   1.895
 9526WAT     H229641   0.305   3.716   1.783
 9527WAT      O29642   0.206   3.895   2.520
 9527WAT     H129643   0.236   3.985   2.512
 9527WAT     H229644   0.261   3.846   2.459
 9528WAT      O29645   0.705   4.353   1.967
 9528WAT     H129646   0.645   4.426   1.948
 9528WAT     H229647   0.759   4.347   1.889
 9529WAT      O29648   0.226   4.442   3.174
 9529WAT     H129649   0.216   4.348   3.159
 9529WAT     H229650   0.310   4.465   3.134
 9530WAT      O29651   0.565   4.217   2.170
 9530WAT     H129652   0.605   4.249   2.089
 9530WAT     H229653   0.602   4.129   2.181
 9531WAT      O29654   0.396   4.092   3.296
 9531WAT     H129655   0.327   4.073   3.359
 9531WAT     H229656   0.471   4.120   3.349
 9532WAT      O29657   0.624   4.476   2.579
 9532WAT     H129658   0.551   4.527   2.614
 9532WAT     H229659   0.584   4.394   2.549
 9533WAT      O29660   0.268   4.143   2.420
 9533WAT     H129661   0.268   4.099   2.335
 9533WAT     H229662   0.357   4.176   2.431
 9534WAT      O29663   0.274   4.244   1.719
 9534WAT     H129664   0.286   4.239   1.814
 9534WAT     H229665   0.235   4.330   1.703
 9535WAT      O29666   0.670   4.021   2.521
 9535WAT     H129667   0.672   4.066   2.605
 9535WAT     H229668   0.645   3.931   2.542
 9536WAT      O29669   1.013   3.763   3.104
 9536WAT     H129670   1.045   3.689   3.157
 9536WAT     H229671   1.016   3.731   3.014
 9537WAT      O29672   0.298   4.549   2.595
 9537WAT     H129673   0.334   4.502   2.669
 9537WAT     H229674   0.279   4.637   2.629
 9538WAT      O29675   1.005   4.774   2.465
 9538WAT     H129676   1.077   4.823   2.426
 9538WAT     H229677   0.985   4.706   2.401
 9539WAT      O29678   0.552   3.913   1.880
 9539WAT     H129679   0.470   3.863   1.872
 9539WAT     H229680   0.532   3.997   1.838
 9540WAT      O29681   0.544   4.781   3.054
 9540WAT     H129682   0.537   4.689   3.029
 9540WAT     H229683   0.481   4.791   3.125
 9541WAT      O29684   0.823   4.350   1.709
 9541WAT     H129685   0.912   4.382   1.692
 9541WAT     H229686   0.820   4.263   1.670
 9542WAT      O29687   0.423   4.968   1.777
 9542WAT     H129688   0.457   5.042   1.728
 9542WAT     H229689   0.340   4.999   1.813
 9543WAT      O29690   0.537   5.063   3.029
 9543WAT     H129691   0.538   4.970   3.007
 9543WAT     H229692   0.466   5.072   3.093
 9544WAT      O29693   1.050   4.482   1.656
 9544WAT     H129694   1.042   4.525   1.571
 9544WAT     H229695   1.122   4.528   1.699
 9545WAT      O29696   1.158   4.727   2.964
 9545WAT     H129697   1.085   4.787   2.944
 9545WAT     H229698   1.211   4.726   2.884
 9546WAT      O29699   1.153   5.167   1.929
 9546WAT     H129700   1.089   5.102   1.956
 9546WAT     H229701   1.114   5.208   1.851
 9547WAT      O29702   0.711   4.900   2.314
 9547WAT     H129703   0.746   4.840   2.248
 9547WAT     H229704   0.623   4.867   2.331
 9548WAT      O29705   0.320   4.976   2.054
 9548WAT     H129706   0.388   5.030   2.092
 9548WAT     H229707   0.241   5.030   2.058
 9549WAT      O29708   0.250   4.676   2.016
 9549WAT     H129709   0.295   4.757   2.038
 9549WAT     H229710   0.215   4.644   2.099
 9550WAT      O29711   0.480   5.227   2.738
 9550WAT     H129712   0.545   5.248   2.806
 9550WAT     H229713   0.516   5.151   2.693
 9551WAT      O29714   0.607   5.028   2.610
 9551WAT     H129715   0.672   4.958   2.622
 9551WAT     H229716   0.660   5.106   2.592
 9552WAT      O29717   0.992   5.056   1.583
 9552WAT     H129718   0.969   4.984   1.642
 9552WAT     H229719   0.953   5.031   1.499
 9553WAT      O29720   0.785   5.108   2.931
 9553WAT     H129721   0.818   5.166   2.998
 9553WAT     H229722   0.693   5.095   2.954
 9554WAT      O29723   0.950   4.848   1.749
 9554WAT     H129724   0.921   4.894   1.828
 9554WAT     H229725   1.030   4.802   1.776
 9555WAT      O29726   0.368   5.113   3.247
 9555WAT     H129727   0.336   5.041   3.302
 9555WAT     H229728   0.300   5.180   3.255
 9556WAT      O29729   0.689   4.136   2.784
 9556WAT     H129730   0.726   4.054   2.817
 9556WAT     H229731   0.603   4.142   2.825
 9557WAT      O29732   1.026   4.031   1.865
 9557WAT     H129733   0.963   4.042   1.793
 9557WAT     H229734   0.976   4.053   1.944
 9558WAT      O29735   0.470   5.203   1.608
 9558WAT     H129736   0.481   5.183   1.515
 9558WAT     H229737   0.380   5.178   1.629
 9559WAT      O29738   0.223   4.259   2.006
 9559WAT     H129739   0.152   4.306   2.050
 9559WAT     H229740   0.251   4.193   2.070
 9560WAT      O29741   0.385   4.401   2.806
 9560WAT     H129742   0.435   4.449   2.873
 9560WAT     H229743   0.400   4.309   2.827
 9561WAT      O29744   0.626   3.932   2.150
 9561WAT     H129745   0.614   3.934   2.055
 9561WAT     H229746   0.721   3.936   2.162
 9562WAT      O29747   0.335   5.455   2.078
 9562WAT     H129748   0.360   5.451   1.985
 9562WAT     H229749   0.240   5.443   2.077
 9563WAT      O29750   1.106   4.023   2.890
 9563WAT     H129751   1.056   4.097   2.924
 9563WAT     H229752   1.188   4.062   2.859
 9564WAT      O29753   0.935   4.547   2.235
 9564WAT     H129754   0.841   4.549   2.253
 9564WAT     H229755   0.967   4.469   2.280
 9565WAT      O29756   1.135   5.264   2.403
 9565WAT     H129757   1.148   5.347   2.450
 9565WAT     H229758   1.222   5.243   2.368
 9566WAT      O29759   0.194   5.391   1.552
 9566WAT     H129760   0.273   5.420   1.507
 9566WAT     H229761   0.142   5.348   1.484
 9567WAT      O29762   0.667   5.003   3.283
 9567WAT     H129763   0.606   5.005   3.209
 9567WAT     H229764   0.636   4.930   3.337
 9568WAT      O29765   0.810   5.376   3.145
 9568WAT     H129766   0.905   5.367   3.140
 9568WAT     H229767   0.795   5.442   3.212
 9569WAT      O29768   1.099   5.314   1.694
 9569WAT     H129769   1.070   5.272   1.613
 9569WAT     H229770   1.079   5.406   1.682
 9570WAT      O29771   0.245   4.913   1.538
 9570WAT     H129772   0.235   4.851   1.611
 9570WAT     H229773   0.229   4.861   1.460
 9571WAT      O29774   0.261   4.781   3.136
 9571WAT     H129775   0.184   4.838   3.128
 9571WAT     H229776   0.279   4.752   3.047
 9572WAT      O29777   0.569   4.819   1.599
 9572WAT     H129778   0.515   4.864   1.663
 9572WAT     H229779   0.632   4.769   1.651
 9573WAT      O29780   0.975   4.955   3.192
 9573WAT     H129781   1.049   4.988   3.142
 9573WAT     H229782   0.898   4.971   3.137
 9574WAT      O29783   0.387   4.617   1.513
 9574WAT     H129784   0.439   4.546   1.477
 9574WAT     H229785   0.452   4.681   1.543
 9575WAT      O29786   0.842   4.760   3.046
 9575WAT     H129787   0.884   4.775   3.131
 9575WAT     H229788   0.749   4.772   3.062
 9576WAT      O29789   0.889   4.494   3.246
 9576WAT     H129790   0.948   4.418   3.237
 9576WAT     H229791   0.907   4.547   3.168
 9577WAT      O29792   0.278   3.865   2.781
 9577WAT     H129793   0.233   3.868   2.696
 9577WAT     H229794   0.214   3.826   2.840
 9578WAT      O29795   0.318   4.755   2.843
 9578WAT     H129796   0.360   4.839   2.825
 9578WAT     H229797   0.226   4.769   2.820
 9579WAT      O29798   0.552   4.528   2.981
 9579WAT     H129799   0.564   4.468   3.055
 9579WAT     H229800   0.638   4.532   2.939
 9580WAT      O29801   0.786   4.583   2.839
 9580WAT     H129802   0.733   4.636   2.778
 9580WAT     H229803   0.820   4.647   2.902
 9581WAT      O29804   0.229   4.182   3.107
 9581WAT     H129805   0.288   4.151   3.176
 9581WAT     H229806   0.147   4.135   3.122
 9582WAT      O29807   0.711   4.144   3.130
 9582WAT     H129808   0.642   4.078   3.124
 9582WAT     H229809   0.783   4.099   3.175
 9583WAT      O29810   0.774   3.803   1.736
 9583WAT     H129811   0.802   3.719   1.772
 9583WAT     H229812   0.696   3.827   1.787
 9584WAT      O29813   0.389   5.509   2.980
 9584WAT     H129814   0.382   5.599   3.011
 9584WAT     H229815   0.299   5.477   2.977
 9585WAT      O29816   0.227   3.927   1.580
 9585WAT     H129817   0.193   3.859   1.523
 9585WAT     H229818   0.248   3.881   1.662
 9586WAT      O29819   0.444   5.426   1.742
 9586WAT     H129820   0.533   5.459   1.745
 9586WAT     H229821   0.447   5.353   1.680
 9587WAT      O29822   1.142   5.279   3.013
 9587WAT     H129823   1.082   5.284   2.939
 9587WAT     H229824   1.155   5.185   3.026
 9588WAT      O29825   1.266   5.053   1.547
 9588WAT     H129826   1.183   5.059   1.594
 9588WAT     H229827   1.284   5.142   1.516
 9589WAT      O29828   1.211   4.727   1.797
 9589WAT     H129829   1.288   4.784   1.808
 9589WAT     H229830   1.213   4.670   1.874
 9590WAT      O29831   1.312   4.813   2.281
 9590WAT     H129832   1.349   4.734   2.241
 9590WAT     H229833   1.376   4.882   2.264
 9591WAT      O29834   1.010   4.951   2.823
 9591WAT     H129835   0.929   4.994   2.849
 9591WAT     H229836   1.051   5.012   2.761
 9592WAT      O29837   1.217   4.757   1.513
 9592WAT     H129838   1.244   4.847   1.500
 9592WAT     H229839   1.198   4.750   1.606
 9593WAT      O29840   0.856   4.059   1.642
 9593WAT     H129841   0.898   4.040   1.558
 9593WAT     H229842   0.826   3.974   1.673
 9594WAT      O29843   1.206   4.550   2.012
 9594WAT     H129844   1.169   4.474   1.969
 9594WAT     H229845   1.133   4.588   2.061
 9595WAT      O29846   1.145   4.465   2.975
 9595WAT     H129847   1.122   4.442   2.885
 9595WAT     H229848   1.171   4.557   2.971
 9596WAT      O29849   0.989   3.988   3.253
 9596WAT     H129850   1.077   3.988   3.292
 9596WAT     H229851   0.990   3.914   3.192
 9597WAT      O29852   1.134   4.373   2.342
 9597WAT     H129853   1.186   4.323   2.279
 9597WAT     H229854   1.192   4.386   2.417
 9598WAT      O29855   1.152   4.381   2.694
 9598WAT     H129856   1.057   4.378   2.706
 9598WAT     H229857   1.170   4.472   2.671
 9599WAT      O29858   1.083   4.299   1.936
 9599WAT     H129859   1.132   4.275   2.015
 9599WAT     H229860   1.063   4.215   1.894
 9600WAT      O29861   1.226   4.162   2.189
 9600WAT     H129862   1.215   4.147   2.283
 9600WAT     H229863   1.302   4.109   2.165
 9601WAT      O29864   1.060   3.756   2.835
 9601WAT     H129865   1.124   3.817   2.872
 9601WAT     H229866   1.075   3.760   2.741
 9602WAT      O29867   1.315   3.945   1.514
 9602WAT     H129868   1.407   3.932   1.493
 9602WAT     H229869   1.312   3.953   1.609
 9603WAT      O29870   1.322   4.022   1.776
 9603WAT     H129871   1.242   4.016   1.829
 9603WAT     H229872   1.342   4.116   1.775
 9604WAT      O29873   1.016   5.426   2.175
 9604WAT     H129874   1.076   5.394   2.108
 9604WAT     H229875   1.042   5.379   2.255
 9605WAT      O29876   0.177   5.225   2.750
 9605WAT     H129877   0.153   5.252   2.662
 9605WAT     H229878   0.271   5.242   2.756
 9606WAT      O29879   0.397   3.871   3.126
 9606WAT     H129880   0.391   3.931   3.201
 9606WAT     H229881   0.491   3.861   3.112
 9607WAT      O29882   0.661   3.837   3.090
 9607WAT     H129883   0.723   3.869   3.024
 9607WAT     H229884   0.716   3.789   3.152
 9608WAT      O29885   1.303   5.427   2.831
 9608WAT     H129886   1.253   5.467   2.759
 9608WAT     H229887   1.242   5.364   2.870
 9609WAT      O29888   0.735   3.693   2.723
 9609WAT     H129889   0.648   3.727   2.702
 9609WAT     H229890   0.724   3.646   2.805
 9610WAT      O29891   0.826   3.914   2.861
 9610WAT     H129892   0.793   3.833   2.823
 9610WAT     H229893   0.921   3.910   2.849
 9611WAT      O29894   1.071   5.491   2.558
 9611WAT     H129895   1.025   5.566   2.521
 9611WAT     H229896   1.008   5.419   2.553
 9612WAT      O29897   0.388   5.411   2.559
 9612WAT     H129898   0.417   5.386   2.471
 9612WAT     H229899   0.439   5.356   2.618
 9613WAT      O29900   0.510   3.785   2.617
 9613WAT     H129901   0.432   3.833   2.645
 9613WAT     H229902   0.481   3.695   2.606
 9614WAT      O29903   0.965   3.855   2.421
 9614WAT     H129904   1.009   3.850   2.336
 9614WAT     H229905   0.938   3.947   2.428
 9615WAT      O29906   1.152   3.818   2.222
 9615WAT     H129907   1.145   3.724   2.207
 9615WAT     H229908   1.229   3.829   2.277
 9616WAT      O29909   0.298   4.027   2.168
 9616WAT     H129910   0.217   3.990   2.134
 9616WAT     H229911   0.349   3.951   2.198
 9617WAT      O29912   0.749   3.693   2.292
 9617WAT     H129913   0.809   3.751   2.339
 9617WAT     H229914   0.675   3.750   2.269
 9618WAT      O29915   1.063   3.734   1.819
 9618WAT     H129916   1.083   3.823   1.846
 9618WAT     H229917   0.984   3.710   1.868
 9619WAT      O29918   0.395   5.503   3.295
 9619WAT     H129919   0.488   5.480   3.300
 9619WAT     H229920   0.393   5.586   3.247
 9620WAT      O29921   1.218   5.458   1.995
 9620WAT     H129922   1.236   5.389   1.931
 9620WAT     H229923   1.149   5.510   1.956
 9621WAT      O29924   0.774   3.711   3.330
 9621WAT     H129925   0.762   3.743   3.419
 9621WAT     H229926   0.855   3.751   3.300
 9622WAT      O29927   1.052   5.426   3.278
 9622WAT     H129928   1.131   5.377   3.257
 9622WAT     H229929   1.081   5.494   3.338
 9623WAT      O29930   0.664   4.513   0.366
 9623WAT     H129931   0.656   4.422   0.339
 9623WAT     H229932   0.623   4.563   0.295
 9624WAT      O29933   0.477   4.691   0.554
 9624WAT     H129934   0.400   4.643   0.583
 9624WAT     H229935   0.543   4.623   0.537
 9625WAT      O29936   0.880   5.132   0.432
 9625WAT     H129937   0.833   5.055   0.465
 9625WAT     H229938   0.961   5.134   0.482
 9626WAT      O29939   0.502   5.360   0.394
 9626WAT     H129940   0.440   5.406   0.337
 9626WAT     H229941   0.588   5.376   0.354
 9627WAT      O29942   0.422   4.959   0.555
 9627WAT     H129943   0.415   4.865   0.539
 9627WAT     H229944   0.498   4.968   0.612
 9628WAT      O29945   0.525   4.239   0.577
 9628WAT     H129946   0.562   4.152   0.566
 9628WAT     H229947   0.515   4.273   0.488
 9629WAT      O29948   0.903   3.989   0.271
 9629WAT     H129949   0.985   3.940   0.275
 9629WAT     H229950   0.906   4.048   0.346
 9630WAT      O29951   1.332   4.190   0.927
 9630WAT     H129952   1.261   4.229   0.875
 9630WAT     H229953   1.358   4.260   0.987
 9631WAT      O29954   0.926   4.183   0.548
 9631WAT     H129955   0.856   4.212   0.606
 9631WAT     H229956   0.963   4.264   0.512
 9632WAT      O29957   1.088   5.145   0.774
 9632WAT     H129958   1.020   5.212   0.773
 9632WAT     H229959   1.142   5.164   0.698
 9633WAT      O29960   1.233   4.127   0.587
 9633WAT     H129961   1.139   4.131   0.600
 9633WAT     H229962   1.266   4.209   0.625
 9634WAT      O29963   0.287   3.757   0.417
 9634WAT     H129964   0.317   3.702   0.345
 9634WAT     H229965   0.194   3.771   0.398
 9635WAT      O29966   0.842   5.329   0.646
 9635WAT     H129967   0.843   5.289   0.559
 9635WAT     H229968   0.786   5.406   0.635
 9636WAT      O29969   0.782   4.819   0.778
 9636WAT     H129970   0.823   4.798   0.695
 9636WAT     H229971   0.854   4.845   0.836
 9637WAT      O29972   1.176   4.659   0.788
 9637WAT     H129973   1.093   4.666   0.740
 9637WAT     H229974   1.236   4.718   0.741
 9638WAT      O29975   0.873   4.338   0.882
 9638WAT     H129976   0.831   4.420   0.908
 9638WAT     H229977   0.799   4.279   0.863
 9639WAT      O29978   0.942   5.342   0.951
 9639WAT     H129979   0.894   5.423   0.932
 9639WAT     H229980   0.873   5.277   0.966
 9640WAT      O29981   0.557   5.138   0.238
 9640WAT     H129982   0.601   5.212   0.197
 9640WAT     H229983   0.551   5.162   0.330
 9641WAT      O29984   1.300   5.319   1.458
 9641WAT     H129985   1.347   5.366   1.526
 9641WAT     H229986   1.362   5.312   1.385
 9642WAT      O29987   1.240   5.038   1.174
 9642WAT     H129988   1.253   5.014   1.082
 9642WAT     H229989   1.244   4.955   1.221
 9643WAT      O29990   0.626   5.408   1.031
 9643WAT     H129991   0.678   5.399   1.111
 9643WAT     H229992   0.542   5.443   1.060
 9644WAT      O29993   0.750   5.350   0.237
 9644WAT     H129994   0.796   5.272   0.269
 9644WAT     H229995   0.784   5.421   0.292
 9645WAT      O29996   1.225   4.243   1.270
 9645WAT     H129997   1.164   4.294   1.218
 9645WAT     H229998   1.193   4.153   1.265
 9646WAT      O29999   0.431   4.127   1.017
 9646WAT     H130000   0.385   4.148   1.098
 9646WAT     H230001   0.391   4.046   0.987
 9647WAT      O30002   0.931   4.249   1.130
 9647WAT     H130003   0.846   4.219   1.162
 9647WAT     H230004   0.915   4.273   1.039
 9648WAT      O30005   0.641   4.399   1.340
 9648WAT     H130006   0.673   4.316   1.306
 9648WAT     H230007   0.720   4.451   1.355
 9649WAT      O30008   0.206   3.895   0.643
 9649WAT     H130009   0.236   3.985   0.634
 9649WAT     H230010   0.261   3.846   0.581
 9650WAT      O30011   0.226   4.442   1.296
 9650WAT     H130012   0.216   4.348   1.281
 9650WAT     H230013   0.310   4.465   1.257
 9651WAT      O30014   0.565   4.217   0.292
 9651WAT     H130015   0.605   4.249   0.211
 9651WAT     H230016   0.602   4.129   0.304
 9652WAT      O30017   0.396   4.092   1.418
 9652WAT     H130018   0.327   4.073   1.482
 9652WAT     H230019   0.471   4.120   1.472
 9653WAT      O30020   0.624   4.476   0.702
 9653WAT     H130021   0.551   4.527   0.737
 9653WAT     H230022   0.584   4.394   0.672
 9654WAT      O30023   0.268   4.143   0.542
 9654WAT     H130024   0.268   4.099   0.457
 9654WAT     H230025   0.357   4.176   0.553
 9655WAT      O30026   0.670   4.021   0.643
 9655WAT     H130027   0.672   4.066   0.728
 9655WAT     H230028   0.645   3.931   0.664
 9656WAT      O30029   1.013   3.763   1.227
 9656WAT     H130030   1.045   3.689   1.280
 9656WAT     H230031   1.016   3.731   1.137
 9657WAT      O30032   0.298   4.549   0.717
 9657WAT     H130033   0.334   4.502   0.792
 9657WAT     H230034   0.279   4.637   0.751
 9658WAT      O30035   1.005   4.774   0.588
 9658WAT     H130036   1.077   4.823   0.549
 9658WAT     H230037   0.985   4.706   0.523
 9659WAT      O30038   0.544   4.781   1.177
 9659WAT     H130039   0.537   4.689   1.151
 9659WAT     H230040   0.481   4.791   1.248
 9660WAT      O30041   0.537   5.063   1.152
 9660WAT     H130042   0.538   4.970   1.130
 9660WAT     H230043   0.466   5.072   1.215
 9661WAT      O30044   1.158   4.727   1.086
 9661WAT     H130045   1.085   4.787   1.067
 9661WAT     H230046   1.211   4.726   1.006
 9662WAT      O30047   0.711   4.900   0.436
 9662WAT     H130048   0.746   4.840   0.370
 9662WAT     H230049   0.623   4.867   0.453
 9663WAT      O30050   0.320   4.976   0.177
 9663WAT     H130051   0.388   5.030   0.215
 9663WAT     H230052   0.241   5.030   0.180
 9664WAT      O30053   0.480   5.227   0.861
 9664WAT     H130054   0.545   5.248   0.929
 9664WAT     H230055   0.516   5.151   0.816
 9665WAT      O30056   0.607   5.028   0.733
 9665WAT     H130057   0.672   4.958   0.744
 9665WAT     H230058   0.660   5.106   0.715
 9666WAT      O30059   0.785   5.108   1.053
 9666WAT     H130060   0.818   5.166   1.121
 9666WAT     H230061   0.693   5.095   1.076
 9667WAT      O30062   0.368   5.113   1.370
 9667WAT     H130063   0.336   5.041   1.424
 9667WAT     H230064   0.300   5.180   1.377
 9668WAT      O30065   0.689   4.136   0.906
 9668WAT     H130066   0.726   4.054   0.939
 9668WAT     H230067   0.603   4.142   0.948
 9669WAT      O30068   0.385   4.401   0.929
 9669WAT     H130069   0.435   4.449   0.995
 9669WAT     H230070   0.400   4.309   0.949
 9670WAT      O30071   0.626   3.932   0.273
 9670WAT     H130072   0.614   3.934   0.178
 9670WAT     H230073   0.721   3.936   0.285
 9671WAT      O30074   1.106   4.023   1.013
 9671WAT     H130075   1.056   4.097   1.047
 9671WAT     H230076   1.188   4.062   0.981
 9672WAT      O30077   0.935   4.547   0.358
 9672WAT     H130078   0.841   4.549   0.375
 9672WAT     H230079   0.967   4.469   0.402
 9673WAT      O30080   1.135   5.264   0.525
 9673WAT     H130081   1.148   5.347   0.572
 9673WAT     H230082   1.222   5.243   0.490
 9674WAT      O30083   0.667   5.003   1.406
 9674WAT     H130084   0.606   5.005   1.332
 9674WAT     H230085   0.636   4.930   1.460
 9675WAT      O30086   0.810   5.376   1.267
 9675WAT     H130087   0.905   5.367   1.262
 9675WAT     H230088   0.795   5.442   1.334
 9676WAT      O30089   0.261   4.781   1.259
 9676WAT     H130090   0.184   4.838   1.250
 9676WAT     H230091   0.279   4.752   1.170
 9677WAT      O30092   0.975   4.955   1.315
 9677WAT     H130093   1.049   4.988   1.264
 9677WAT     H230094   0.898   4.971   1.259
 9678WAT      O30095   0.842   4.760   1.168
 9678WAT     H130096   0.884   4.775   1.253
 9678WAT     H230097   0.749   4.772   1.185
 9679WAT      O30098   0.889   4.494   1.369
 9679WAT     H130099   0.948   4.418   1.360
 9679WAT     H230100   0.907   4.547   1.291
 9680WAT      O30101   0.278   3.865   0.903
 9680WAT     H130102   0.233   3.868   0.819
 9680WAT     H230103   0.214   3.826   0.963
 9681WAT      O30104   0.318   4.755   0.965
 9681WAT     H130105   0.360   4.839   0.948
 9681WAT     H230106   0.226   4.769   0.942
 9682WAT      O30107   0.552   4.528   1.104
 9682WAT     H130108   0.564   4.468   1.178
 9682WAT     H230109   0.638   4.532   1.062
 9683WAT      O30110   0.786   4.583   0.961
 9683WAT     H130111   0.733   4.636   0.901
 9683WAT     H230112   0.820   4.647   1.024
 9684WAT      O30113   0.229   4.182   1.229
 9684WAT     H130114   0.288   4.151   1.298
 9684WAT     H230115   0.147   4.135   1.245
 9685WAT      O30116   0.711   4.144   1.253
 9685WAT     H130117   0.642   4.078   1.246
 9685WAT     H230118   0.783   4.099   1.297
 9686WAT      O30119   0.389   5.509   1.103
 9686WAT     H130120   0.382   5.599   1.133
 9686WAT     H230121   0.299   5.477   1.100
 9687WAT      O30122   1.142   5.279   1.136
 9687WAT     H130123   1.082   5.284   1.061
 9687WAT     H230124   1.155   5.185   1.149
 9688WAT      O30125   1.312   4.813   0.404
 9688WAT     H130126   1.349   4.734   0.363
 9688WAT     H230127   1.376   4.882   0.386
 9689WAT      O30128   1.010   4.951   0.945
 9689WAT     H130129   0.929   4.994   0.972
 9689WAT     H230130   1.051   5.012   0.884
 9690WAT      O30131   1.145   4.465   1.098
 9690WAT     H130132   1.122   4.442   1.008
 9690WAT     H230133   1.171   4.557   1.093
 9691WAT      O30134   0.989   3.988   1.376
 9691WAT     H130135   1.077   3.988   1.414
 9691WAT     H230136   0.990   3.914   1.315
 9692WAT      O30137   1.134   4.373   0.465
 9692WAT     H130138   1.186   4.323   0.402
 9692WAT     H230139   1.192   4.386   0.539
 9693WAT      O30140   1.152   4.381   0.817
 9693WAT     H130141   1.057   4.378   0.828
 9693WAT     H230142   1.170   4.472   0.793
 9694WAT      O30143   1.226   4.162   0.312
 9694WAT     H130144   1.215   4.147   0.406
 9694WAT     H230145   1.302   4.109   0.288
 9695WAT      O30146   1.060   3.756   0.958
 9695WAT     H130147   1.124   3.817   0.994
 9695WAT     H230148   1.075   3.760   0.863
 9696WAT      O30149   1.016   5.426   0.298
 9696WAT     H130150   1.076   5.394   0.230
 9696WAT     H230151   1.042   5.379   0.377
 9697WAT      O30152   0.177   5.225   0.873
 9697WAT     H130153   0.153   5.252   0.784
 9697WAT     H230154   0.271   5.242   0.879
 9698WAT      O30155   0.397   3.871   1.249
 9698WAT     H130156   0.391   3.931   1.324
 9698WAT     H230157   0.491   3.861   1.234
 9699WAT      O30158   0.661   3.837   1.213
 9699WAT     H130159   0.723   3.869   1.146
 9699WAT     H230160   0.716   3.789   1.274
 9700WAT      O30161   1.303   5.427   0.953
 9700WAT     H130162   1.253   5.467   0.881
 9700WAT     H230163   1.242   5.364   0.993
 9701WAT      O30164   0.735   3.693   0.845
 9701WAT     H130165   0.648   3.727   0.825
 9701WAT     H230166   0.724   3.646   0.928
 9702WAT      O30167   0.826   3.914   0.984
 9702WAT     H130168   0.793   3.833   0.946
 9702WAT     H230169   0.921   3.910   0.971
 9703WAT      O30170   1.071   5.491   0.681
 9703WAT     H130171   1.025   5.566   0.644
 9703WAT     H230172   1.008   5.419   0.675
 9704WAT      O30173   0.388   5.411   0.681
 9704WAT     H130174   0.417   5.386   0.594
 9704WAT     H230175   0.439   5.356   0.740
 9705WAT      O30176   0.510   3.785   0.739
 9705WAT     H130177   0.432   3.833   0.767
 9705WAT     H230178   0.481   3.695   0.728
 9706WAT      O30179   0.965   3.855   0.544
 9706WAT     H130180   1.009   3.850   0.459
 9706WAT     H230181   0.938   3.947   0.551
 9707WAT      O30182   1.152   3.818   0.345
 9707WAT     H130183   1.145   3.724   0.330
 9707WAT     H230184   1.229   3.829   0.399
 9708WAT      O30185   0.298   4.027   0.290
 9708WAT     H130186   0.217   3.990   0.256
 9708WAT     H230187   0.349   3.951   0.321
 9709WAT      O30188   0.749   3.693   0.414
 9709WAT     H130189   0.809   3.751   0.462
 9709WAT     H230190   0.675   3.750   0.392
 9710WAT      O30191   0.395   5.503   1.418
 9710WAT     H130192   0.488   5.480   1.422
 9710WAT     H230193   0.393   5.586   1.370
 9711WAT      O30194   0.774   3.711   1.452
 9711WAT     H130195   0.762   3.743   1.542
 9711WAT     H230196   0.855   3.751   1.422
 9712WAT      O30197   1.052   5.426   1.400
 9712WAT     H130198   1.131   5.377   1.380
 9712WAT     H230199   1.081   5.494   1.461
 9713WAT      O30200   0.664   2.636   5.998
 9713WAT     H130201   0.656   2.544   5.971
 9713WAT     H230202   0.623   2.685   5.928
 9714WAT      O30203   0.477   2.814   6.186
 9714WAT     H130204   0.400   2.766   6.215
 9714WAT     H230205   0.543   2.746   6.169
 9715WAT      O30206   0.880   3.254   6.064
 9715WAT     H130207   0.833   3.177   6.097
 9715WAT     H230208   0.961   3.257   6.115
 9716WAT      O30209   0.502   3.483   6.026
 9716WAT     H130210   0.440   3.528   5.969
 9716WAT     H230211   0.588   3.498   5.986
 9717WAT      O30212   0.422   3.081   6.187
 9717WAT     H130213   0.415   2.987   6.171
 9717WAT     H230214   0.498   3.090   6.244
 9718WAT      O30215   0.525   2.362   6.210
 9718WAT     H130216   0.562   2.275   6.198
 9718WAT     H230217   0.515   2.395   6.121
 9719WAT      O30218   0.903   2.111   5.903
 9719WAT     H130219   0.985   2.062   5.907
 9719WAT     H230220   0.906   2.170   5.978
 9720WAT      O30221   0.589   2.971   5.766
 9720WAT     H130222   0.527   3.018   5.709
 9720WAT     H230223   0.640   3.040   5.807
 9721WAT      O30224   0.926   2.305   6.180
 9721WAT     H130225   0.856   2.334   6.238
 9721WAT     H230226   0.963   2.386   6.144
 9722WAT      O30227   1.088   3.267   6.406
 9722WAT     H130228   1.020   3.334   6.406
 9722WAT     H230229   1.142   3.287   6.330
 9723WAT      O30230   1.233   2.250   6.219
 9723WAT     H130231   1.139   2.253   6.232
 9723WAT     H230232   1.266   2.331   6.258
 9724WAT      O30233   0.287   1.880   6.049
 9724WAT     H130234   0.317   1.824   5.977
 9724WAT     H230235   0.194   1.893   6.031
 9725WAT      O30236   0.842   3.452   6.278
 9725WAT     H130237   0.843   3.411   6.191
 9725WAT     H230238   0.786   3.529   6.268
 9726WAT      O30239   0.971   3.124   5.787
 9726WAT     H130240   0.960   3.029   5.799
 9726WAT     H230241   0.971   3.160   5.875
 9727WAT      O30242   0.782   2.942   6.411
 9727WAT     H130243   0.823   2.920   6.327
 9727WAT     H230244   0.854   2.968   6.468
 9728WAT      O30245   0.525   2.686   5.722
 9728WAT     H130246   0.433   2.680   5.745
 9728WAT     H230247   0.541   2.780   5.711
 9729WAT      O30248   0.524   2.314   5.422
 9729WAT     H130249   0.430   2.330   5.431
 9729WAT     H230250   0.556   2.385   5.367
 9730WAT      O30251   1.176   2.782   6.420
 9730WAT     H130252   1.093   2.789   6.372
 9730WAT     H230253   1.236   2.840   6.373
 9731WAT      O30254   0.928   2.843   5.773
 9731WAT     H130255   0.866   2.809   5.708
 9731WAT     H230256   0.927   2.778   5.844
 9732WAT      O30257   0.746   2.766   5.474
 9732WAT     H130258   0.790   2.683   5.459
 9732WAT     H230259   0.817   2.830   5.482
 9733WAT      O30260   0.557   3.260   5.870
 9733WAT     H130261   0.601   3.335   5.829
 9733WAT     H230262   0.551   3.285   5.963
 9734WAT      O30263   1.104   1.892   5.305
 9734WAT     H130264   1.073   1.901   5.395
 9734WAT     H230265   1.180   1.950   5.300
 9735WAT      O30266   0.824   3.559   5.606
 9735WAT     H130267   0.808   3.530   5.696
 9735WAT     H230268   0.807   3.482   5.552
 9736WAT      O30269   0.794   3.310   5.462
 9736WAT     H130270   0.725   3.310   5.396
 9736WAT     H230271   0.868   3.268   5.419
 9737WAT      O30272   0.750   3.473   5.869
 9737WAT     H130273   0.796   3.395   5.901
 9737WAT     H230274   0.784   3.544   5.924
 9738WAT      O30275   0.314   1.925   5.577
 9738WAT     H130276   0.252   1.925   5.650
 9738WAT     H230277   0.305   1.838   5.537
 9739WAT      O30278   0.206   2.017   6.275
 9739WAT     H130279   0.236   2.108   6.267
 9739WAT     H230280   0.261   1.968   6.213
 9740WAT      O30281   0.705   2.476   5.722
 9740WAT     H130282   0.645   2.548   5.703
 9740WAT     H230283   0.759   2.470   5.643
 9741WAT      O30284   0.565   2.339   5.925
 9741WAT     H130285   0.605   2.371   5.843
 9741WAT     H230286   0.602   2.252   5.936
 9742WAT      O30287   0.624   2.599   6.334
 9742WAT     H130288   0.551   2.649   6.369
 9742WAT     H230289   0.584   2.517   6.304
 9743WAT      O30290   0.268   2.266   6.175
 9743WAT     H130291   0.268   2.222   6.090
 9743WAT     H230292   0.357   2.298   6.185
 9744WAT      O30293   0.274   2.366   5.474
 9744WAT     H130294   0.286   2.362   5.569
 9744WAT     H230295   0.235   2.452   5.458
 9745WAT      O30296   0.670   2.144   6.275
 9745WAT     H130297   0.672   2.189   6.360
 9745WAT     H230298   0.645   2.054   6.297
 9746WAT      O30299   0.298   2.672   6.349
 9746WAT     H130300   0.334   2.625   6.424
 9746WAT     H230301   0.279   2.759   6.383
 9747WAT      O30302   1.005   2.896   6.220
 9747WAT     H130303   1.077   2.946   6.181
 9747WAT     H230304   0.985   2.829   6.156
 9748WAT      O30305   0.552   2.036   5.634
 9748WAT     H130306   0.470   1.986   5.627
 9748WAT     H230307   0.532   2.120   5.593
 9749WAT      O30308   0.823   2.473   5.464
 9749WAT     H130309   0.912   2.504   5.447
 9749WAT     H230310   0.820   2.386   5.425
 9750WAT      O30311   0.423   3.090   5.532
 9750WAT     H130312   0.457   3.165   5.482
 9750WAT     H230313   0.340   3.122   5.568
 9751WAT      O30314   1.050   2.604   5.411
 9751WAT     H130315   1.042   2.647   5.326
 9751WAT     H230316   1.122   2.650   5.454
 9752WAT      O30317   1.153   3.290   5.684
 9752WAT     H130318   1.089   3.224   5.711
 9752WAT     H230319   1.114   3.330   5.606
 9753WAT      O30320   0.711   3.022   6.068
 9753WAT     H130321   0.746   2.963   6.002
 9753WAT     H230322   0.623   2.990   6.086
 9754WAT      O30323   0.320   3.098   5.809
 9754WAT     H130324   0.388   3.153   5.847
 9754WAT     H230325   0.241   3.153   5.813
 9755WAT      O30326   0.250   2.799   5.770
 9755WAT     H130327   0.295   2.880   5.793
 9755WAT     H230328   0.215   2.767   5.854
 9756WAT      O30329   0.607   3.150   6.365
 9756WAT     H130330   0.672   3.080   6.376
 9756WAT     H230331   0.660   3.228   6.347
 9757WAT      O30332   0.992   3.179   5.337
 9757WAT     H130333   0.969   3.107   5.397
 9757WAT     H230334   0.953   3.154   5.254
 9758WAT      O30335   0.950   2.970   5.504
 9758WAT     H130336   0.921   3.017   5.582
 9758WAT     H230337   1.030   2.924   5.530
 9759WAT      O30338   1.026   2.154   5.620
 9759WAT     H130339   0.963   2.164   5.548
 9759WAT     H230340   0.976   2.176   5.699
 9760WAT      O30341   0.470   3.326   5.363
 9760WAT     H130342   0.481   3.306   5.270
 9760WAT     H230343   0.380   3.301   5.383
 9761WAT      O30344   0.223   2.382   5.761
 9761WAT     H130345   0.152   2.429   5.805
 9761WAT     H230346   0.251   2.316   5.825
 9762WAT      O30347   0.626   2.054   5.905
 9762WAT     H130348   0.614   2.056   5.810
 9762WAT     H230349   0.721   2.059   5.917
 9763WAT      O30350   0.335   3.578   5.832
 9763WAT     H130351   0.360   3.574   5.740
 9763WAT     H230352   0.240   3.565   5.832
 9764WAT      O30353   0.935   2.670   5.990
 9764WAT     H130354   0.841   2.671   6.007
 9764WAT     H230355   0.967   2.591   6.035
 9765WAT      O30356   1.135   3.387   6.158
 9765WAT     H130357   1.148   3.469   6.205
 9765WAT     H230358   1.222   3.366   6.123
 9766WAT      O30359   0.194   3.513   5.307
 9766WAT     H130360   0.273   3.542   5.262
 9766WAT     H230361   0.142   3.470   5.239
 9767WAT      O30362   1.099   3.436   5.449
 9767WAT     H130363   1.070   3.395   5.368
 9767WAT     H230364   1.079   3.529   5.437
 9768WAT      O30365   0.245   3.035   5.293
 9768WAT     H130366   0.235   2.974   5.366
 9768WAT     H230367   0.229   2.983   5.215
 9769WAT      O30368   0.569   2.942   5.354
 9769WAT     H130369   0.515   2.986   5.418
 9769WAT     H230370   0.632   2.891   5.406
 9770WAT      O30371   0.387   2.740   5.268
 9770WAT     H130372   0.439   2.668   5.232
 9770WAT     H230373   0.452   2.804   5.298
 9771WAT      O30374   0.774   1.926   5.491
 9771WAT     H130375   0.802   1.842   5.526
 9771WAT     H230376   0.696   1.949   5.542
 9772WAT      O30377   0.227   2.049   5.335
 9772WAT     H130378   0.193   1.982   5.277
 9772WAT     H230379   0.248   2.003   5.417
 9773WAT      O30380   0.444   3.548   5.497
 9773WAT     H130381   0.533   3.582   5.499
 9773WAT     H230382   0.447   3.476   5.434
 9774WAT      O30383   1.266   3.175   5.302
 9774WAT     H130384   1.183   3.182   5.349
 9774WAT     H230385   1.284   3.264   5.271
 9775WAT      O30386   1.211   2.850   5.552
 9775WAT     H130387   1.288   2.907   5.563
 9775WAT     H230388   1.213   2.793   5.629
 9776WAT      O30389   1.312   2.935   6.036
 9776WAT     H130390   1.349   2.857   5.996
 9776WAT     H230391   1.376   3.004   6.019
 9777WAT      O30392   1.217   2.879   5.268
 9777WAT     H130393   1.244   2.970   5.255
 9777WAT     H230394   1.198   2.873   5.361
 9778WAT      O30395   0.856   2.182   5.397
 9778WAT     H130396   0.898   2.163   5.313
 9778WAT     H230397   0.826   2.096   5.428
 9779WAT      O30398   1.206   2.673   5.767
 9779WAT     H130399   1.169   2.596   5.724
 9779WAT     H230400   1.133   2.711   5.816
 9780WAT      O30401   1.134   2.495   6.097
 9780WAT     H130402   1.186   2.446   6.034
 9780WAT     H230403   1.192   2.509   6.171
 9781WAT      O30404   1.152   2.504   6.449
 9781WAT     H130405   1.057   2.500   6.461
 9781WAT     H230406   1.170   2.595   6.426
 9782WAT      O30407   1.083   2.421   5.691
 9782WAT     H130408   1.132   2.398   5.769
 9782WAT     H230409   1.063   2.337   5.649
 9783WAT      O30410   1.226   2.285   5.944
 9783WAT     H130411   1.215   2.269   6.038
 9783WAT     H230412   1.302   2.232   5.920
 9784WAT      O30413   1.315   2.068   5.268
 9784WAT     H130414   1.407   2.055   5.248
 9784WAT     H230415   1.312   2.076   5.364
 9785WAT      O30416   1.322   2.145   5.531
 9785WAT     H130417   1.242   2.138   5.584
 9785WAT     H230418   1.342   2.238   5.530
 9786WAT      O30419   1.016   3.549   5.930
 9786WAT     H130420   1.076   3.517   5.863
 9786WAT     H230421   1.042   3.502   6.009
 9787WAT      O30422   0.177   3.348   6.505
 9787WAT     H130423   0.153   3.374   6.417
 9787WAT     H230424   0.271   3.365   6.511
 9788WAT      O30425   1.071   3.614   6.313
 9788WAT     H130426   1.025   3.689   6.276
 9788WAT     H230427   1.008   3.542   6.307
 9789WAT      O30428   0.388   3.534   6.313
 9789WAT     H130429   0.417   3.508   6.226
 9789WAT     H230430   0.439   3.479   6.373
 9790WAT      O30431   0.510   1.908   6.371
 9790WAT     H130432   0.432   1.955   6.399
 9790WAT     H230433   0.481   1.817   6.361
 9791WAT      O30434   0.965   1.978   6.176
 9791WAT     H130435   1.009   1.972   6.091
 9791WAT     H230436   0.938   2.069   6.183
 9792WAT      O30437   1.152   1.941   5.977
 9792WAT     H130438   1.145   1.847   5.962
 9792WAT     H230439   1.229   1.952   6.032
 9793WAT      O30440   0.298   2.150   5.923
 9793WAT     H130441   0.217   2.112   5.889
 9793WAT     H230442   0.349   2.074   5.953
 9794WAT      O30443   0.749   1.816   6.046
 9794WAT     H130444   0.809   1.873   6.094
 9794WAT     H230445   0.675   1.872   6.024
 9795WAT      O30446   1.063   1.856   5.574
 9795WAT     H130447   1.083   1.946   5.601
 9795WAT     H230448   0.984   1.833   5.623
 9796WAT      O30449   1.218   3.580   5.750
 9796WAT     H130450   1.236   3.512   5.686
 9796WAT     H230451   1.149   3.633   5.711
 9797WAT      O30452   0.664   2.636   4.121
 9797WAT     H130453   0.656   2.544   4.094
 9797WAT     H230454   0.623   2.685   4.050
 9798WAT      O30455   0.477   2.814   4.309
 9798WAT     H130456   0.400   2.766   4.338
 9798WAT     H230457   0.543   2.746   4.291
 9799WAT      O30458   0.880   3.254   4.187
 9799WAT     H130459   0.833   3.177   4.220
 9799WAT     H230460   0.961   3.257   4.237
 9800WAT      O30461   0.502   3.483   4.149
 9800WAT     H130462   0.440   3.528   4.092
 9800WAT     H230463   0.588   3.498   4.109
 9801WAT      O30464   0.422   3.081   4.310
 9801WAT     H130465   0.415   2.987   4.293
 9801WAT     H230466   0.498   3.090   4.367
 9802WAT      O30467   0.525   2.362   4.332
 9802WAT     H130468   0.562   2.275   4.321
 9802WAT     H230469   0.515   2.395   4.243
 9803WAT      O30470   0.903   2.111   4.026
 9803WAT     H130471   0.985   2.062   4.030
 9803WAT     H230472   0.906   2.170   4.101
 9804WAT      O30473   1.332   2.313   4.682
 9804WAT     H130474   1.261   2.352   4.630
 9804WAT     H230475   1.358   2.383   4.742
 9805WAT      O30476   0.589   2.971   3.888
 9805WAT     H130477   0.527   3.018   3.832
 9805WAT     H230478   0.640   3.040   3.930
 9806WAT      O30479   0.926   2.305   4.303
 9806WAT     H130480   0.856   2.334   4.361
 9806WAT     H230481   0.963   2.386   4.267
 9807WAT      O30482   1.088   3.267   4.529
 9807WAT     H130483   1.020   3.334   4.528
 9807WAT     H230484   1.142   3.287   4.452
 9808WAT      O30485   1.233   2.250   4.342
 9808WAT     H130486   1.139   2.253   4.355
 9808WAT     H230487   1.266   2.331   4.380
 9809WAT      O30488   0.287   1.880   4.171
 9809WAT     H130489   0.317   1.824   4.100
 9809WAT     H230490   0.194   1.893   4.153
 9810WAT      O30491   0.842   3.452   4.401
 9810WAT     H130492   0.843   3.411   4.314
 9810WAT     H230493   0.786   3.529   4.390
 9811WAT      O30494   0.971   3.124   3.909
 9811WAT     H130495   0.960   3.029   3.922
 9811WAT     H230496   0.971   3.160   3.998
 9812WAT      O30497   0.782   2.942   4.533
 9812WAT     H130498   0.823   2.920   4.450
 9812WAT     H230499   0.854   2.968   4.590
 9813WAT      O30500   0.525   2.686   3.845
 9813WAT     H130501   0.433   2.680   3.868
 9813WAT     H230502   0.541   2.780   3.834
 9814WAT      O30503   0.524   2.314   3.545
 9814WAT     H130504   0.430   2.330   3.553
 9814WAT     H230505   0.556   2.385   3.490
 9815WAT      O30506   1.176   2.782   4.542
 9815WAT     H130507   1.093   2.789   4.495
 9815WAT     H230508   1.236   2.840   4.496
 9816WAT      O30509   0.928   2.843   3.895
 9816WAT     H130510   0.866   2.809   3.831
 9816WAT     H230511   0.927   2.778   3.966
 9817WAT      O30512   0.873   2.460   4.637
 9817WAT     H130513   0.831   2.543   4.662
 9817WAT     H230514   0.799   2.402   4.618
 9818WAT      O30515   0.942   3.465   4.706
 9818WAT     H130516   0.894   3.546   4.687
 9818WAT     H230517   0.873   3.400   4.721
 9819WAT      O30518   0.746   2.766   3.596
 9819WAT     H130519   0.790   2.683   3.581
 9819WAT     H230520   0.817   2.830   3.605
 9820WAT      O30521   0.557   3.260   3.993
 9820WAT     H130522   0.601   3.335   3.951
 9820WAT     H230523   0.551   3.285   4.085
 9821WAT      O30524   1.104   1.892   3.428
 9821WAT     H130525   1.073   1.901   3.518
 9821WAT     H230526   1.180   1.950   3.422
 9822WAT      O30527   1.300   3.441   5.213
 9822WAT     H130528   1.347   3.489   5.281
 9822WAT     H230529   1.362   3.434   5.140
 9823WAT      O30530   1.240   3.160   4.929
 9823WAT     H130531   1.253   3.136   4.837
 9823WAT     H230532   1.244   3.077   4.976
 9824WAT      O30533   0.626   3.531   4.786
 9824WAT     H130534   0.678   3.522   4.866
 9824WAT     H230535   0.542   3.565   4.815
 9825WAT      O30536   0.824   3.559   3.729
 9825WAT     H130537   0.808   3.530   3.818
 9825WAT     H230538   0.807   3.482   3.675
 9826WAT      O30539   0.794   3.310   3.585
 9826WAT     H130540   0.725   3.310   3.519
 9826WAT     H230541   0.868   3.268   3.541
 9827WAT      O30542   0.750   3.473   3.992
 9827WAT     H130543   0.796   3.395   4.023
 9827WAT     H230544   0.784   3.544   4.046
 9828WAT      O30545   1.225   2.366   5.025
 9828WAT     H130546   1.164   2.416   4.972
 9828WAT     H230547   1.193   2.276   5.020
 9829WAT      O30548   0.431   2.250   4.772
 9829WAT     H130549   0.385   2.270   4.853
 9829WAT     H230550   0.391   2.168   4.742
 9830WAT      O30551   0.931   2.372   4.885
 9830WAT     H130552   0.846   2.342   4.917
 9830WAT     H230553   0.915   2.396   4.794
 9831WAT      O30554   0.641   2.522   5.095
 9831WAT     H130555   0.673   2.438   5.061
 9831WAT     H230556   0.720   2.574   5.110
 9832WAT      O30557   0.314   1.925   3.700
 9832WAT     H130558   0.252   1.925   3.772
 9832WAT     H230559   0.305   1.838   3.660
 9833WAT      O30560   0.206   2.017   4.397
 9833WAT     H130561   0.236   2.108   4.389
 9833WAT     H230562   0.261   1.968   4.336
 9834WAT      O30563   0.705   2.476   3.844
 9834WAT     H130564   0.645   2.548   3.826
 9834WAT     H230565   0.759   2.470   3.766
 9835WAT      O30566   0.226   2.565   5.051
 9835WAT     H130567   0.216   2.471   5.036
 9835WAT     H230568   0.310   2.587   5.011
 9836WAT      O30569   0.565   2.339   4.047
 9836WAT     H130570   0.605   2.371   3.966
 9836WAT     H230571   0.602   2.252   4.059
 9837WAT      O30572   0.396   2.215   5.173
 9837WAT     H130573   0.327   2.195   5.237
 9837WAT     H230574   0.471   2.243   5.226
 9838WAT      O30575   0.624   2.599   4.457
 9838WAT     H130576   0.551   2.649   4.492
 9838WAT     H230577   0.584   2.517   4.427
 9839WAT      O30578   0.268   2.266   4.297
 9839WAT     H130579   0.268   2.222   4.212
 9839WAT     H230580   0.357   2.298   4.308
 9840WAT      O30581   0.274   2.366   3.596
 9840WAT     H130582   0.286   2.362   3.691
 9840WAT     H230583   0.235   2.452   3.581
 9841WAT      O30584   0.670   2.144   4.398
 9841WAT     H130585   0.672   2.189   4.482
 9841WAT     H230586   0.645   2.054   4.419
 9842WAT      O30587   1.013   1.885   4.982
 9842WAT     H130588   1.045   1.812   5.034
 9842WAT     H230589   1.016   1.853   4.892
 9843WAT      O30590   0.298   2.672   4.472
 9843WAT     H130591   0.334   2.625   4.547
 9843WAT     H230592   0.279   2.759   4.506
 9844WAT      O30593   1.005   2.896   4.343
 9844WAT     H130594   1.077   2.946   4.304
 9844WAT     H230595   0.985   2.829   4.278
 9845WAT      O30596   0.552   2.036   3.757
 9845WAT     H130597   0.470   1.986   3.749
 9845WAT     H230598   0.532   2.120   3.715
 9846WAT      O30599   0.544   2.904   4.931
 9846WAT     H130600   0.537   2.811   4.906
 9846WAT     H230601   0.481   2.913   5.003
 9847WAT      O30602   0.823   2.473   3.587
 9847WAT     H130603   0.912   2.504   3.569
 9847WAT     H230604   0.820   2.386   3.547
 9848WAT      O30605   0.423   3.090   3.655
 9848WAT     H130606   0.457   3.165   3.605
 9848WAT     H230607   0.340   3.122   3.691
 9849WAT      O30608   0.537   3.186   4.906
 9849WAT     H130609   0.538   3.093   4.885
 9849WAT     H230610   0.466   3.194   4.970
 9850WAT      O30611   1.050   2.604   3.533
 9850WAT     H130612   1.042   2.647   3.448
 9850WAT     H230613   1.122   2.650   3.577
 9851WAT      O30614   1.158   2.850   4.841
 9851WAT     H130615   1.085   2.909   4.821
 9851WAT     H230616   1.211   2.849   4.761
 9852WAT      O30617   1.153   3.290   3.806
 9852WAT     H130618   1.089   3.224   3.834
 9852WAT     H230619   1.114   3.330   3.729
 9853WAT      O30620   0.711   3.022   4.191
 9853WAT     H130621   0.746   2.963   4.125
 9853WAT     H230622   0.623   2.990   4.208
 9854WAT      O30623   0.320   3.098   3.932
 9854WAT     H130624   0.388   3.153   3.970
 9854WAT     H230625   0.241   3.153   3.935
 9855WAT      O30626   0.250   2.799   3.893
 9855WAT     H130627   0.295   2.880   3.916
 9855WAT     H230628   0.215   2.767   3.976
 9856WAT      O30629   0.480   3.350   4.616
 9856WAT     H130630   0.545   3.370   4.684
 9856WAT     H230631   0.516   3.274   4.571
 9857WAT      O30632   0.607   3.150   4.488
 9857WAT     H130633   0.672   3.080   4.499
 9857WAT     H230634   0.660   3.228   4.470
 9858WAT      O30635   0.992   3.179   3.460
 9858WAT     H130636   0.969   3.107   3.519
 9858WAT     H230637   0.953   3.154   3.376
 9859WAT      O30638   0.785   3.230   4.808
 9859WAT     H130639   0.818   3.289   4.876
 9859WAT     H230640   0.693   3.217   4.831
 9860WAT      O30641   0.950   2.970   3.626
 9860WAT     H130642   0.921   3.017   3.705
 9860WAT     H230643   1.030   2.924   3.653
 9861WAT      O30644   0.368   3.235   5.125
 9861WAT     H130645   0.336   3.163   5.179
 9861WAT     H230646   0.300   3.303   5.132
 9862WAT      O30647   0.689   2.258   4.661
 9862WAT     H130648   0.726   2.176   4.694
 9862WAT     H230649   0.603   2.264   4.703
 9863WAT      O30650   1.026   2.154   3.742
 9863WAT     H130651   0.963   2.164   3.671
 9863WAT     H230652   0.976   2.176   3.821
 9864WAT      O30653   0.470   3.326   3.485
 9864WAT     H130654   0.481   3.306   3.392
 9864WAT     H230655   0.380   3.301   3.506
 9865WAT      O30656   0.223   2.382   3.884
 9865WAT     H130657   0.152   2.429   3.928
 9865WAT     H230658   0.251   2.316   3.947
 9866WAT      O30659   0.385   2.524   4.684
 9866WAT     H130660   0.435   2.571   4.750
 9866WAT     H230661   0.400   2.431   4.704
 9867WAT      O30662   0.626   2.054   4.028
 9867WAT     H130663   0.614   2.056   3.933
 9867WAT     H230664   0.721   2.059   4.040
 9868WAT      O30665   0.335   3.578   3.955
 9868WAT     H130666   0.360   3.574   3.863
 9868WAT     H230667   0.240   3.565   3.954
 9869WAT      O30668   1.106   2.145   4.768
 9869WAT     H130669   1.056   2.219   4.802
 9869WAT     H230670   1.188   2.184   4.736
 9870WAT      O30671   0.935   2.670   4.113
 9870WAT     H130672   0.841   2.671   4.130
 9870WAT     H230673   0.967   2.591   4.157
 9871WAT      O30674   1.135   3.387   4.280
 9871WAT     H130675   1.148   3.469   4.327
 9871WAT     H230676   1.222   3.366   4.245
 9872WAT      O30677   0.194   3.513   3.430
 9872WAT     H130678   0.273   3.542   3.384
 9872WAT     H230679   0.142   3.470   3.362
 9873WAT      O30680   0.667   3.125   5.161
 9873WAT     H130681   0.606   3.128   5.087
 9873WAT     H230682   0.636   3.052   5.215
 9874WAT      O30683   0.810   3.498   5.022
 9874WAT     H130684   0.905   3.490   5.017
 9874WAT     H230685   0.795   3.565   5.089
 9875WAT      O30686   1.099   3.436   3.572
 9875WAT     H130687   1.070   3.395   3.490
 9875WAT     H230688   1.079   3.529   3.560
 9876WAT      O30689   0.245   3.035   3.416
 9876WAT     H130690   0.235   2.974   3.489
 9876WAT     H230691   0.229   2.983   3.338
 9877WAT      O30692   0.261   2.904   5.014
 9877WAT     H130693   0.184   2.961   5.005
 9877WAT     H230694   0.279   2.875   4.925
 9878WAT      O30695   0.569   2.942   3.476
 9878WAT     H130696   0.515   2.986   3.541
 9878WAT     H230697   0.632   2.891   3.529
 9879WAT      O30698   0.975   3.077   5.070
 9879WAT     H130699   1.049   3.111   5.019
 9879WAT     H230700   0.898   3.094   5.014
 9880WAT      O30701   0.387   2.740   3.391
 9880WAT     H130702   0.439   2.668   3.354
 9880WAT     H230703   0.452   2.804   3.421
 9881WAT      O30704   0.842   2.882   4.923
 9881WAT     H130705   0.884   2.898   5.008
 9881WAT     H230706   0.749   2.895   4.939
 9882WAT      O30707   0.889   2.616   5.124
 9882WAT     H130708   0.948   2.541   5.115
 9882WAT     H230709   0.907   2.669   5.046
 9883WAT      O30710   0.278   1.988   4.658
 9883WAT     H130711   0.233   1.990   4.573
 9883WAT     H230712   0.214   1.948   4.718
 9884WAT      O30713   0.318   2.877   4.720
 9884WAT     H130714   0.360   2.962   4.703
 9884WAT     H230715   0.226   2.891   4.697
 9885WAT      O30716   0.552   2.651   4.858
 9885WAT     H130717   0.564   2.591   4.932
 9885WAT     H230718   0.638   2.654   4.816
 9886WAT      O30719   0.786   2.706   4.716
 9886WAT     H130720   0.733   2.758   4.656
 9886WAT     H230721   0.820   2.769   4.779
 9887WAT      O30722   0.229   2.305   4.984
 9887WAT     H130723   0.288   2.274   5.053
 9887WAT     H230724   0.147   2.258   5.000
 9888WAT      O30725   0.711   2.266   5.008
 9888WAT     H130726   0.642   2.200   5.001
 9888WAT     H230727   0.783   2.222   5.052
 9889WAT      O30728   0.774   1.926   3.613
 9889WAT     H130729   0.802   1.842   3.649
 9889WAT     H230730   0.696   1.949   3.665
 9890WAT      O30731   0.389   3.631   4.858
 9890WAT     H130732   0.382   3.722   4.888
 9890WAT     H230733   0.299   3.600   4.855
 9891WAT      O30734   0.227   2.049   3.458
 9891WAT     H130735   0.193   1.982   3.400
 9891WAT     H230736   0.248   2.003   3.539
 9892WAT      O30737   0.444   3.548   3.620
 9892WAT     H130738   0.533   3.582   3.622
 9892WAT     H230739   0.447   3.476   3.557
 9893WAT      O30740   1.142   3.401   4.890
 9893WAT     H130741   1.082   3.407   4.816
 9893WAT     H230742   1.155   3.307   4.903
 9894WAT      O30743   1.266   3.175   3.424
 9894WAT     H130744   1.183   3.182   3.471
 9894WAT     H230745   1.284   3.264   3.394
 9895WAT      O30746   1.211   2.850   3.674
 9895WAT     H130747   1.288   2.907   3.685
 9895WAT     H230748   1.213   2.793   3.752
 9896WAT      O30749   1.312   2.935   4.159
 9896WAT     H130750   1.349   2.857   4.118
 9896WAT     H230751   1.376   3.004   4.141
 9897WAT      O30752   1.010   3.074   4.700
 9897WAT     H130753   0.929   3.117   4.726
 9897WAT     H230754   1.051   3.135   4.639
 9898WAT      O30755   1.217   2.879   3.390
 9898WAT     H130756   1.244   2.970   3.377
 9898WAT     H230757   1.198   2.873   3.484
 9899WAT      O30758   0.856   2.182   3.520
 9899WAT     H130759   0.898   2.163   3.436
 9899WAT     H230760   0.826   2.096   3.551
 9900WAT      O30761   1.206   2.673   3.890
 9900WAT     H130762   1.169   2.596   3.846
 9900WAT     H230763   1.133   2.711   3.938
 9901WAT      O30764   1.145   2.588   4.853
 9901WAT     H130765   1.122   2.565   4.763
 9901WAT     H230766   1.171   2.680   4.848
 9902WAT      O30767   0.989   2.110   5.131
 9902WAT     H130768   1.077   2.111   5.169
 9902WAT     H230769   0.990   2.036   5.070
 9903WAT      O30770   1.134   2.495   4.220
 9903WAT     H130771   1.186   2.446   4.156
 9903WAT     H230772   1.192   2.509   4.294
 9904WAT      O30773   1.152   2.504   4.572
 9904WAT     H130774   1.057   2.500   4.583
 9904WAT     H230775   1.170   2.595   4.548
 9905WAT      O30776   1.083   2.421   3.814
 9905WAT     H130777   1.132   2.398   3.892
 9905WAT     H230778   1.063   2.337   3.772
 9906WAT      O30779   1.226   2.285   4.067
 9906WAT     H130780   1.215   2.269   4.161
 9906WAT     H230781   1.302   2.232   4.043
 9907WAT      O30782   1.060   1.879   4.713
 9907WAT     H130783   1.124   1.940   4.749
 9907WAT     H230784   1.075   1.882   4.618
 9908WAT      O30785   1.315   2.068   3.391
 9908WAT     H130786   1.407   2.055   3.370
 9908WAT     H230787   1.312   2.076   3.486
 9909WAT      O30788   1.322   2.145   3.654
 9909WAT     H130789   1.242   2.138   3.706
 9909WAT     H230790   1.342   2.238   3.652
 9910WAT      O30791   1.016   3.549   4.053
 9910WAT     H130792   1.076   3.517   3.985
 9910WAT     H230793   1.042   3.502   4.132
 9911WAT      O30794   0.177   3.348   4.628
 9911WAT     H130795   0.153   3.374   4.539
 9911WAT     H230796   0.271   3.365   4.633
 9912WAT      O30797   0.397   1.994   5.003
 9912WAT     H130798   0.391   2.053   5.078
 9912WAT     H230799   0.491   1.983   4.989
 9913WAT      O30800   0.661   1.960   4.967
 9913WAT     H130801   0.723   1.991   4.901
 9913WAT     H230802   0.716   1.911   5.029
 9914WAT      O30803   1.303   3.550   4.708
 9914WAT     H130804   1.253   3.589   4.636
 9914WAT     H230805   1.242   3.487   4.747
 9915WAT      O30806   0.735   1.816   4.600
 9915WAT     H130807   0.648   1.849   4.580
 9915WAT     H230808   0.724   1.769   4.683
 9916WAT      O30809   0.826   2.037   4.738
 9916WAT     H130810   0.793   1.955   4.701
 9916WAT     H230811   0.921   2.032   4.726
 9917WAT      O30812   1.071   3.614   4.436
 9917WAT     H130813   1.025   3.689   4.398
 9917WAT     H230814   1.008   3.542   4.430
 9918WAT      O30815   0.388   3.534   4.436
 9918WAT     H130816   0.417   3.508   4.348
 9918WAT     H230817   0.439   3.479   4.495
 9919WAT      O30818   0.510   1.908   4.494
 9919WAT     H130819   0.432   1.955   4.522
 9919WAT     H230820   0.481   1.817   4.483
 9920WAT      O30821   0.965   1.978   4.299
 9920WAT     H130822   1.009   1.972   4.214
 9920WAT     H230823   0.938   2.069   4.306
 9921WAT      O30824   1.152   1.941   4.100
 9921WAT     H130825   1.145   1.847   4.085
 9921WAT     H230826   1.229   1.952   4.154
 9922WAT      O30827   0.298   2.150   4.045
 9922WAT     H130828   0.217   2.112   4.011
 9922WAT     H230829   0.349   2.074   4.075
 9923WAT      O30830   0.749   1.816   4.169
 9923WAT     H130831   0.809   1.873   4.216
 9923WAT     H230832   0.675   1.872   4.147
 9924WAT      O30833   1.063   1.856   3.696
 9924WAT     H130834   1.083   1.946   3.723
 9924WAT     H230835   0.984   1.833   3.746
 9925WAT      O30836   0.395   3.626   5.173
 9925WAT     H130837   0.488   3.602   5.177
 9925WAT     H230838   0.393   3.709   5.125
 9926WAT      O30839   1.218   3.580   3.872
 9926WAT     H130840   1.236   3.512   3.808
 9926WAT     H230841   1.149   3.633   3.833
 9927WAT      O30842   0.774   1.834   5.207
 9927WAT     H130843   0.762   1.866   5.296
 9927WAT     H230844   0.855   1.874   5.177
 9928WAT      O30845   1.052   3.549   5.155
 9928WAT     H130846   1.131   3.499   5.134
 9928WAT     H230847   1.081   3.616   5.216
 9929WAT      O30848   0.664   2.636   2.243
 9929WAT     H130849   0.656   2.544   2.216
 9929WAT     H230850   0.623   2.685   2.173
 9930WAT      O30851   0.477   2.814   2.431
 9930WAT     H130852   0.400   2.766   2.460
 9930WAT     H230853   0.543   2.746   2.414
 9931WAT      O30854   0.880   3.254   2.309
 9931WAT     H130855   0.833   3.177   2.342
 9931WAT     H230856   0.961   3.257   2.360
 9932WAT      O30857   0.502   3.483   2.271
 9932WAT     H130858   0.440   3.528   2.214
 9932WAT     H230859   0.588   3.498   2.231
 9933WAT      O30860   0.422   3.081   2.432
 9933WAT     H130861   0.415   2.987   2.416
 9933WAT     H230862   0.498   3.090   2.489
 9934WAT      O30863   0.525   2.362   2.455
 9934WAT     H130864   0.562   2.275   2.444
 9934WAT     H230865   0.515   2.395   2.366
 9935WAT      O30866   0.903   2.111   2.148
 9935WAT     H130867   0.985   2.062   2.152
 9935WAT     H230868   0.906   2.170   2.223
 9936WAT      O30869   1.332   2.313   2.805
 9936WAT     H130870   1.261   2.352   2.753
 9936WAT     H230871   1.358   2.383   2.865
 9937WAT      O30872   0.589   2.971   2.011
 9937WAT     H130873   0.527   3.018   1.954
 9937WAT     H230874   0.640   3.040   2.052
 9938WAT      O30875   0.926   2.305   2.425
 9938WAT     H130876   0.856   2.334   2.483
 9938WAT     H230877   0.963   2.386   2.389
 9939WAT      O30878   1.088   3.267   2.652
 9939WAT     H130879   1.020   3.334   2.651
 9939WAT     H230880   1.142   3.287   2.575
 9940WAT      O30881   1.233   2.250   2.464
 9940WAT     H130882   1.139   2.253   2.478
 9940WAT     H230883   1.266   2.331   2.503
 9941WAT      O30884   0.287   1.880   2.294
 9941WAT     H130885   0.317   1.824   2.222
 9941WAT     H230886   0.194   1.893   2.276
 9942WAT      O30887   0.842   3.452   2.523
 9942WAT     H130888   0.843   3.411   2.436
 9942WAT     H230889   0.786   3.529   2.513
 9943WAT      O30890   0.971   3.124   2.032
 9943WAT     H130891   0.960   3.029   2.044
 9943WAT     H230892   0.971   3.160   2.121
 9944WAT      O30893   0.782   2.942   2.656
 9944WAT     H130894   0.823   2.920   2.572
 9944WAT     H230895   0.854   2.968   2.713
 9945WAT      O30896   0.525   2.686   1.968
 9945WAT     H130897   0.433   2.680   1.990
 9945WAT     H230898   0.541   2.780   1.956
 9946WAT      O30899   0.524   2.314   1.667
 9946WAT     H130900   0.430   2.330   1.676
 9946WAT     H230901   0.556   2.385   1.613
 9947WAT      O30902   1.176   2.782   2.665
 9947WAT     H130903   1.093   2.789   2.618
 9947WAT     H230904   1.236   2.840   2.618
 9948WAT      O30905   0.928   2.843   2.018
 9948WAT     H130906   0.866   2.809   1.953
 9948WAT     H230907   0.927   2.778   2.089
 9949WAT      O30908   0.873   2.460   2.760
 9949WAT     H130909   0.831   2.543   2.785
 9949WAT     H230910   0.799   2.402   2.740
 9950WAT      O30911   0.942   3.465   2.828
 9950WAT     H130912   0.894   3.546   2.809
 9950WAT     H230913   0.873   3.400   2.844
 9951WAT      O30914   0.746   2.766   1.719
 9951WAT     H130915   0.790   2.683   1.704
 9951WAT     H230916   0.817   2.830   1.727
 9952WAT      O30917   0.557   3.260   2.115
 9952WAT     H130918   0.601   3.335   2.074
 9952WAT     H230919   0.551   3.285   2.208
 9953WAT      O30920   1.104   1.892   1.550
 9953WAT     H130921   1.073   1.901   1.640
 9953WAT     H230922   1.180   1.950   1.545
 9954WAT      O30923   1.300   3.441   3.335
 9954WAT     H130924   1.347   3.489   3.403
 9954WAT     H230925   1.362   3.434   3.263
 9955WAT      O30926   1.240   3.160   3.051
 9955WAT     H130927   1.253   3.136   2.960
 9955WAT     H230928   1.244   3.077   3.099
 9956WAT      O30929   0.626   3.531   2.908
 9956WAT     H130930   0.678   3.522   2.989
 9956WAT     H230931   0.542   3.565   2.938
 9957WAT      O30932   0.824   3.559   1.851
 9957WAT     H130933   0.808   3.530   1.941
 9957WAT     H230934   0.807   3.482   1.798
 9958WAT      O30935   0.794   3.310   1.707
 9958WAT     H130936   0.725   3.310   1.641
 9958WAT     H230937   0.868   3.268   1.664
 9959WAT      O30938   0.750   3.473   2.115
 9959WAT     H130939   0.796   3.395   2.146
 9959WAT     H230940   0.784   3.544   2.169
 9960WAT      O30941   1.225   2.366   3.148
 9960WAT     H130942   1.164   2.416   3.095
 9960WAT     H230943   1.193   2.276   3.142
 9961WAT      O30944   0.431   2.250   2.894
 9961WAT     H130945   0.385   2.270   2.976
 9961WAT     H230946   0.391   2.168   2.864
 9962WAT      O30947   0.931   2.372   3.007
 9962WAT     H130948   0.846   2.342   3.040
 9962WAT     H230949   0.915   2.396   2.916
 9963WAT      O30950   0.641   2.522   3.217
 9963WAT     H130951   0.673   2.438   3.183
 9963WAT     H230952   0.720   2.574   3.232
 9964WAT      O30953   0.314   1.925   1.822
 9964WAT     H130954   0.252   1.925   1.895
 9964WAT     H230955   0.305   1.838   1.783
 9965WAT      O30956   0.206   2.017   2.520
 9965WAT     H130957   0.236   2.108   2.512
 9965WAT     H230958   0.261   1.968   2.459
 9966WAT      O30959   0.705   2.476   1.967
 9966WAT     H130960   0.645   2.548   1.948
 9966WAT     H230961   0.759   2.470   1.889
 9967WAT      O30962   0.226   2.565   3.174
 9967WAT     H130963   0.216   2.471   3.159
 9967WAT     H230964   0.310   2.587   3.134
 9968WAT      O30965   0.565   2.339   2.170
 9968WAT     H130966   0.605   2.371   2.089
 9968WAT     H230967   0.602   2.252   2.181
 9969WAT      O30968   0.396   2.215   3.296
 9969WAT     H130969   0.327   2.195   3.359
 9969WAT     H230970   0.471   2.243   3.349
 9970WAT      O30971   0.624   2.599   2.579
 9970WAT     H130972   0.551   2.649   2.614
 9970WAT     H230973   0.584   2.517   2.549
 9971WAT      O30974   0.268   2.266   2.420
 9971WAT     H130975   0.268   2.222   2.335
 9971WAT     H230976   0.357   2.298   2.431
 9972WAT      O30977   0.274   2.366   1.719
 9972WAT     H130978   0.286   2.362   1.814
 9972WAT     H230979   0.235   2.452   1.703
 9973WAT      O30980   0.670   2.144   2.521
 9973WAT     H130981   0.672   2.189   2.605
 9973WAT     H230982   0.645   2.054   2.542
 9974WAT      O30983   1.013   1.885   3.104
 9974WAT     H130984   1.045   1.812   3.157
 9974WAT     H230985   1.016   1.853   3.014
 9975WAT      O30986   0.298   2.672   2.595
 9975WAT     H130987   0.334   2.625   2.669
 9975WAT     H230988   0.279   2.759   2.629
 9976WAT      O30989   1.005   2.896   2.465
 9976WAT     H130990   1.077   2.946   2.426
 9976WAT     H230991   0.985   2.829   2.401
 9977WAT      O30992   0.552   2.036   1.880
 9977WAT     H130993   0.470   1.986   1.872
 9977WAT     H230994   0.532   2.120   1.838
 9978WAT      O30995   0.544   2.904   3.054
 9978WAT     H130996   0.537   2.811   3.029
 9978WAT     H230997   0.481   2.913   3.125
 9979WAT      O30998   0.823   2.473   1.709
 9979WAT     H130999   0.912   2.504   1.692
 9979WAT     H231000   0.820   2.386   1.670
 9980WAT      O31001   0.423   3.090   1.777
 9980WAT     H131002   0.457   3.165   1.728
 9980WAT     H231003   0.340   3.122   1.813
 9981WAT      O31004   0.537   3.186   3.029
 9981WAT     H131005   0.538   3.093   3.007
 9981WAT     H231006   0.466   3.194   3.093
 9982WAT      O31007   1.050   2.604   1.656
 9982WAT     H131008   1.042   2.647   1.571
 9982WAT     H231009   1.122   2.650   1.699
 9983WAT      O31010   1.158   2.850   2.964
 9983WAT     H131011   1.085   2.909   2.944
 9983WAT     H231012   1.211   2.849   2.884
 9984WAT      O31013   1.153   3.290   1.929
 9984WAT     H131014   1.089   3.224   1.956
 9984WAT     H231015   1.114   3.330   1.851
 9985WAT      O31016   0.711   3.022   2.314
 9985WAT     H131017   0.746   2.963   2.248
 9985WAT     H231018   0.623   2.990   2.331
 9986WAT      O31019   0.320   3.098   2.054
 9986WAT     H131020   0.388   3.153   2.092
 9986WAT     H231021   0.241   3.153   2.058
 9987WAT      O31022   0.250   2.799   2.016
 9987WAT     H131023   0.295   2.880   2.038
 9987WAT     H231024   0.215   2.767   2.099
 9988WAT      O31025   0.480   3.350   2.738
 9988WAT     H131026   0.545   3.370   2.806
 9988WAT     H231027   0.516   3.274   2.693
 9989WAT      O31028   0.607   3.150   2.610
 9989WAT     H131029   0.672   3.080   2.622
 9989WAT     H231030   0.660   3.228   2.592
 9990WAT      O31031   0.992   3.179   1.583
 9990WAT     H131032   0.969   3.107   1.642
 9990WAT     H231033   0.953   3.154   1.499
 9991WAT      O31034   0.785   3.230   2.931
 9991WAT     H131035   0.818   3.289   2.998
 9991WAT     H231036   0.693   3.217   2.954
 9992WAT      O31037   0.950   2.970   1.749
 9992WAT     H131038   0.921   3.017   1.828
 9992WAT     H231039   1.030   2.924   1.776
 9993WAT      O31040   0.368   3.235   3.247
 9993WAT     H131041   0.336   3.163   3.302
 9993WAT     H231042   0.300   3.303   3.255
 9994WAT      O31043   0.689   2.258   2.784
 9994WAT     H131044   0.726   2.176   2.817
 9994WAT     H231045   0.603   2.264   2.825
 9995WAT      O31046   1.026   2.154   1.865
 9995WAT     H131047   0.963   2.164   1.793
 9995WAT     H231048   0.976   2.176   1.944
 9996WAT      O31049   0.470   3.326   1.608
 9996WAT     H131050   0.481   3.306   1.515
 9996WAT     H231051   0.380   3.301   1.629
 9997WAT      O31052   0.223   2.382   2.006
 9997WAT     H131053   0.152   2.429   2.050
 9997WAT     H231054   0.251   2.316   2.070
 9998WAT      O31055   0.385   2.524   2.806
 9998WAT     H131056   0.435   2.571   2.873
 9998WAT     H231057   0.400   2.431   2.827
 9999WAT      O31058   0.626   2.054   2.150
 9999WAT     H131059   0.614   2.056   2.055
 9999WAT     H231060   0.721   2.059   2.162
10000WAT      O31061   0.335   3.578   2.078
10000WAT     H131062   0.360   3.574   1.985
10000WAT     H231063   0.240   3.565   2.077
10001WAT      O31064   1.106   2.145   2.890
10001WAT     H131065   1.056   2.219   2.924
10001WAT     H231066   1.188   2.184   2.859
10002WAT      O31067   0.935   2.670   2.235
10002WAT     H131068   0.841   2.671   2.253
10002WAT     H231069   0.967   2.591   2.280
10003WAT      O31070   1.135   3.387   2.403
10003WAT     H131071   1.148   3.469   2.450
10003WAT     H231072   1.222   3.366   2.368
10004WAT      O31073   0.194   3.513   1.552
10004WAT     H131074   0.273   3.542   1.507
10004WAT     H231075   0.142   3.470   1.484
10005WAT      O31076   0.667   3.125   3.283
10005WAT     H131077   0.606   3.128   3.209
10005WAT     H231078   0.636   3.052   3.337
10006WAT      O31079   0.810   3.498   3.145
10006WAT     H131080   0.905   3.490   3.140
10006WAT     H231081   0.795   3.565   3.212
10007WAT      O31082   1.099   3.436   1.694
10007WAT     H131083   1.070   3.395   1.613
10007WAT     H231084   1.079   3.529   1.682
10008WAT      O31085   0.245   3.035   1.538
10008WAT     H131086   0.235   2.974   1.611
10008WAT     H231087   0.229   2.983   1.460
10009WAT      O31088   0.261   2.904   3.136
10009WAT     H131089   0.184   2.961   3.128
10009WAT     H231090   0.279   2.875   3.047
10010WAT      O31091   0.569   2.942   1.599
10010WAT     H131092   0.515   2.986   1.663
10010WAT     H231093   0.632   2.891   1.651
10011WAT      O31094   0.975   3.077   3.192
10011WAT     H131095   1.049   3.111   3.142
10011WAT     H231096   0.898   3.094   3.137
10012WAT      O31097   0.387   2.740   1.513
10012WAT     H131098   0.439   2.668   1.477
10012WAT     H231099   0.452   2.804   1.543
10013WAT      O31100   0.842   2.882   3.046
10013WAT     H131101   0.884   2.898   3.131
10013WAT     H231102   0.749   2.895   3.062
10014WAT      O31103   0.889   2.616   3.246
10014WAT     H131104   0.948   2.541   3.237
10014WAT     H231105   0.907   2.669   3.168
10015WAT      O31106   0.278   1.988   2.781
10015WAT     H131107   0.233   1.990   2.696
10015WAT     H231108   0.214   1.948   2.840
10016WAT      O31109   0.318   2.877   2.843
10016WAT     H131110   0.360   2.962   2.825
10016WAT     H231111   0.226   2.891   2.820
10017WAT      O31112   0.552   2.651   2.981
10017WAT     H131113   0.564   2.591   3.055
10017WAT     H231114   0.638   2.654   2.939
10018WAT      O31115   0.786   2.706   2.839
10018WAT     H131116   0.733   2.758   2.778
10018WAT     H231117   0.820   2.769   2.902
10019WAT      O31118   0.229   2.305   3.107
10019WAT     H131119   0.288   2.274   3.176
10019WAT     H231120   0.147   2.258   3.122
10020WAT      O31121   0.711   2.266   3.130
10020WAT     H131122   0.642   2.200   3.124
10020WAT     H231123   0.783   2.222   3.175
10021WAT      O31124   0.774   1.926   1.736
10021WAT     H131125   0.802   1.842   1.772
10021WAT     H231126   0.696   1.949   1.787
10022WAT      O31127   0.389   3.631   2.980
10022WAT     H131128   0.382   3.722   3.011
10022WAT     H231129   0.299   3.600   2.977
10023WAT      O31130   0.227   2.049   1.580
10023WAT     H131131   0.193   1.982   1.523
10023WAT     H231132   0.248   2.003   1.662
10024WAT      O31133   0.444   3.548   1.742
10024WAT     H131134   0.533   3.582   1.745
10024WAT     H231135   0.447   3.476   1.680
10025WAT      O31136   1.142   3.401   3.013
10025WAT     H131137   1.082   3.407   2.939
10025WAT     H231138   1.155   3.307   3.026
10026WAT      O31139   1.266   3.175   1.547
10026WAT     H131140   1.183   3.182   1.594
10026WAT     H231141   1.284   3.264   1.516
10027WAT      O31142   1.211   2.850   1.797
10027WAT     H131143   1.288   2.907   1.808
10027WAT     H231144   1.213   2.793   1.874
10028WAT      O31145   1.312   2.935   2.281
10028WAT     H131146   1.349   2.857   2.241
10028WAT     H231147   1.376   3.004   2.264
10029WAT      O31148   1.010   3.074   2.823
10029WAT     H131149   0.929   3.117   2.849
10029WAT     H231150   1.051   3.135   2.761
10030WAT      O31151   1.217   2.879   1.513
10030WAT     H131152   1.244   2.970   1.500
10030WAT     H231153   1.198   2.873   1.606
10031WAT      O31154   0.856   2.182   1.642
10031WAT     H131155   0.898   2.163   1.558
10031WAT     H231156   0.826   2.096   1.673
10032WAT      O31157   1.206   2.673   2.012
10032WAT     H131158   1.169   2.596   1.969
10032WAT     H231159   1.133   2.711   2.061
10033WAT      O31160   1.145   2.588   2.975
10033WAT     H131161   1.122   2.565   2.885
10033WAT     H231162   1.171   2.680   2.971
10034WAT      O31163   0.989   2.110   3.253
10034WAT     H131164   1.077   2.111   3.292
10034WAT     H231165   0.990   2.036   3.192
10035WAT      O31166   1.134   2.495   2.342
10035WAT     H131167   1.186   2.446   2.279
10035WAT     H231168   1.192   2.509   2.417
10036WAT      O31169   1.152   2.504   2.694
10036WAT     H131170   1.057   2.500   2.706
10036WAT     H231171   1.170   2.595   2.671
10037WAT      O31172   1.083   2.421   1.936
10037WAT     H131173   1.132   2.398   2.015
10037WAT     H231174   1.063   2.337   1.894
10038WAT      O31175   1.226   2.285   2.189
10038WAT     H131176   1.215   2.269   2.283
10038WAT     H231177   1.302   2.232   2.165
10039WAT      O31178   1.060   1.879   2.835
10039WAT     H131179   1.124   1.940   2.872
10039WAT     H231180   1.075   1.882   2.741
10040WAT      O31181   1.315   2.068   1.514
10040WAT     H131182   1.407   2.055   1.493
10040WAT     H231183   1.312   2.076   1.609
10041WAT      O31184   1.322   2.145   1.776
10041WAT     H131185   1.242   2.138   1.829
10041WAT     H231186   1.342   2.238   1.775
10042WAT      O31187   1.016   3.549   2.175
10042WAT     H131188   1.076   3.517   2.108
10042WAT     H231189   1.042   3.502   2.255
10043WAT      O31190   0.177   3.348   2.750
10043WAT     H131191   0.153   3.374   2.662
10043WAT     H231192   0.271   3.365   2.756
10044WAT      O31193   0.397   1.994   3.126
10044WAT     H131194   0.391   2.053   3.201
10044WAT     H231195   0.491   1.983   3.112
10045WAT      O31196   0.661   1.960   3.090
10045WAT     H131197   0.723   1.991   3.024
10045WAT     H231198   0.716   1.911   3.152
10046WAT      O31199   1.303   3.550   2.831
10046WAT     H131200   1.253   3.589   2.759
10046WAT     H231201   1.242   3.487   2.870
10047WAT      O31202   0.735   1.816   2.723
10047WAT     H131203   0.648   1.849   2.702
10047WAT     H231204   0.724   1.769   2.805
10048WAT      O31205   0.826   2.037   2.861
10048WAT     H131206   0.793   1.955   2.823
10048WAT     H231207   0.921   2.032   2.849
10049WAT      O31208   1.071   3.614   2.558
10049WAT     H131209   1.025   3.689   2.521
10049WAT     H231210   1.008   3.542   2.553
10050WAT      O31211   0.388   3.534   2.559
10050WAT     H131212   0.417   3.508   2.471
10050WAT     H231213   0.439   3.479   2.618
10051WAT      O31214   0.510   1.908   2.617
10051WAT     H131215   0.432   1.955   2.645
10051WAT     H231216   0.481   1.817   2.606
10052WAT      O31217   0.965   1.978   2.421
10052WAT     H131218   1.009   1.972   2.336
10052WAT     H231219   0.938   2.069   2.428
10053WAT      O31220   1.152   1.941   2.222
10053WAT     H131221   1.145   1.847   2.207
10053WAT     H231222   1.229   1.952   2.277
10054WAT      O31223   0.298   2.150   2.168
10054WAT     H131224   0.217   2.112   2.134
10054WAT     H231225   0.349   2.074   2.198
10055WAT      O31226   0.749   1.816   2.292
10055WAT     H131227   0.809   1.873   2.339
10055WAT     H231228   0.675   1.872   2.269
10056WAT      O31229   1.063   1.856   1.819
10056WAT     H131230   1.083   1.946   1.846
10056WAT     H231231   0.984   1.833   1.868
10057WAT      O31232   0.395   3.626   3.295
10057WAT     H131233   0.488   3.602   3.300
10057WAT     H231234   0.393   3.709   3.247
10058WAT      O31235   1.218   3.580   1.995
10058WAT     H131236   1.236   3.512   1.931
10058WAT     H231237   1.149   3.633   1.956
10059WAT      O31238   0.774   1.834   3.330
10059WAT     H131239   0.762   1.866   3.419
10059WAT     H231240   0.855   1.874   3.300
10060WAT      O31241   1.052   3.549   3.278
10060WAT     H131242   1.131   3.499   3.257
10060WAT     H231243   1.081   3.616   3.338
10061WAT      O31244   0.664   2.636   0.366
10061WAT     H131245   0.656   2.544   0.339
10061WAT     H231246   0.623   2.685   0.295
10062WAT      O31247   0.477   2.814   0.554
10062WAT     H131248   0.400   2.766   0.583
10062WAT     H231249   0.543   2.746   0.537
10063WAT      O31250   0.880   3.254   0.432
10063WAT     H131251   0.833   3.177   0.465
10063WAT     H231252   0.961   3.257   0.482
10064WAT      O31253   0.502   3.483   0.394
10064WAT     H131254   0.440   3.528   0.337
10064WAT     H231255   0.588   3.498   0.354
10065WAT      O31256   0.422   3.081   0.555
10065WAT     H131257   0.415   2.987   0.539
10065WAT     H231258   0.498   3.090   0.612
10066WAT      O31259   0.525   2.362   0.577
10066WAT     H131260   0.562   2.275   0.566
10066WAT     H231261   0.515   2.395   0.488
10067WAT      O31262   0.903   2.111   0.271
10067WAT     H131263   0.985   2.062   0.275
10067WAT     H231264   0.906   2.170   0.346
10068WAT      O31265   1.332   2.313   0.927
10068WAT     H131266   1.261   2.352   0.875
10068WAT     H231267   1.358   2.383   0.987
10069WAT      O31268   0.926   2.305   0.548
10069WAT     H131269   0.856   2.334   0.606
10069WAT     H231270   0.963   2.386   0.512
10070WAT      O31271   1.088   3.267   0.774
10070WAT     H131272   1.020   3.334   0.773
10070WAT     H231273   1.142   3.287   0.698
10071WAT      O31274   1.233   2.250   0.587
10071WAT     H131275   1.139   2.253   0.600
10071WAT     H231276   1.266   2.331   0.625
10072WAT      O31277   0.287   1.880   0.417
10072WAT     H131278   0.317   1.824   0.345
10072WAT     H231279   0.194   1.893   0.398
10073WAT      O31280   0.842   3.452   0.646
10073WAT     H131281   0.843   3.411   0.559
10073WAT     H231282   0.786   3.529   0.635
10074WAT      O31283   0.782   2.942   0.778
10074WAT     H131284   0.823   2.920   0.695
10074WAT     H231285   0.854   2.968   0.836
10075WAT      O31286   1.176   2.782   0.788
10075WAT     H131287   1.093   2.789   0.740
10075WAT     H231288   1.236   2.840   0.741
10076WAT      O31289   0.873   2.460   0.882
10076WAT     H131290   0.831   2.543   0.908
10076WAT     H231291   0.799   2.402   0.863
10077WAT      O31292   0.942   3.465   0.951
10077WAT     H131293   0.894   3.546   0.932
10077WAT     H231294   0.873   3.400   0.966
10078WAT      O31295   0.557   3.260   0.238
10078WAT     H131296   0.601   3.335   0.197
10078WAT     H231297   0.551   3.285   0.330
10079WAT      O31298   1.300   3.441   1.458
10079WAT     H131299   1.347   3.489   1.526
10079WAT     H231300   1.362   3.434   1.385
10080WAT      O31301   1.240   3.160   1.174
10080WAT     H131302   1.253   3.136   1.082
10080WAT     H231303   1.244   3.077   1.221
10081WAT      O31304   0.626   3.531   1.031
10081WAT     H131305   0.678   3.522   1.111
10081WAT     H231306   0.542   3.565   1.060
10082WAT      O31307   0.750   3.473   0.237
10082WAT     H131308   0.796   3.395   0.269
10082WAT     H231309   0.784   3.544   0.292
10083WAT      O31310   1.225   2.366   1.270
10083WAT     H131311   1.164   2.416   1.218
10083WAT     H231312   1.193   2.276   1.265
10084WAT      O31313   0.431   2.250   1.017
10084WAT     H131314   0.385   2.270   1.098
10084WAT     H231315   0.391   2.168   0.987
10085WAT      O31316   0.931   2.372   1.130
10085WAT     H131317   0.846   2.342   1.162
10085WAT     H231318   0.915   2.396   1.039
10086WAT      O31319   0.641   2.522   1.340
10086WAT     H131320   0.673   2.438   1.306
10086WAT     H231321   0.720   2.574   1.355
10087WAT      O31322   0.206   2.017   0.643
10087WAT     H131323   0.236   2.108   0.634
10087WAT     H231324   0.261   1.968   0.581
10088WAT      O31325   0.226   2.565   1.296
10088WAT     H131326   0.216   2.471   1.281
10088WAT     H231327   0.310   2.587   1.257
10089WAT      O31328   0.565   2.339   0.292
10089WAT     H131329   0.605   2.371   0.211
10089WAT     H231330   0.602   2.252   0.304
10090WAT      O31331   0.396   2.215   1.418
10090WAT     H131332   0.327   2.195   1.482
10090WAT     H231333   0.471   2.243   1.472
10091WAT      O31334   0.624   2.599   0.702
10091WAT     H131335   0.551   2.649   0.737
10091WAT     H231336   0.584   2.517   0.672
10092WAT      O31337   0.268   2.266   0.542
10092WAT     H131338   0.268   2.222   0.457
10092WAT     H231339   0.357   2.298   0.553
10093WAT      O31340   0.670   2.144   0.643
10093WAT     H131341   0.672   2.189   0.728
10093WAT     H231342   0.645   2.054   0.664
10094WAT      O31343   1.013   1.885   1.227
10094WAT     H131344   1.045   1.812   1.280
10094WAT     H231345   1.016   1.853   1.137
10095WAT      O31346   0.298   2.672   0.717
10095WAT     H131347   0.334   2.625   0.792
10095WAT     H231348   0.279   2.759   0.751
10096WAT      O31349   1.005   2.896   0.588
10096WAT     H131350   1.077   2.946   0.549
10096WAT     H231351   0.985   2.829   0.523
10097WAT      O31352   0.544   2.904   1.177
10097WAT     H131353   0.537   2.811   1.151
10097WAT     H231354   0.481   2.913   1.248
10098WAT      O31355   0.537   3.186   1.152
10098WAT     H131356   0.538   3.093   1.130
10098WAT     H231357   0.466   3.194   1.215
10099WAT      O31358   1.158   2.850   1.086
10099WAT     H131359   1.085   2.909   1.067
10099WAT     H231360   1.211   2.849   1.006
10100WAT      O31361   0.711   3.022   0.436
10100WAT     H131362   0.746   2.963   0.370
10100WAT     H231363   0.623   2.990   0.453
10101WAT      O31364   0.320   3.098   0.177
10101WAT     H131365   0.388   3.153   0.215
10101WAT     H231366   0.241   3.153   0.180
10102WAT      O31367   0.480   3.350   0.861
10102WAT     H131368   0.545   3.370   0.929
10102WAT     H231369   0.516   3.274   0.816
10103WAT      O31370   0.607   3.150   0.733
10103WAT     H131371   0.672   3.080   0.744
10103WAT     H231372   0.660   3.228   0.715
10104WAT      O31373   0.785   3.230   1.053
10104WAT     H131374   0.818   3.289   1.121
10104WAT     H231375   0.693   3.217   1.076
10105WAT      O31376   0.368   3.235   1.370
10105WAT     H131377   0.336   3.163   1.424
10105WAT     H231378   0.300   3.303   1.377
10106WAT      O31379   0.689   2.258   0.906
10106WAT     H131380   0.726   2.176   0.939
10106WAT     H231381   0.603   2.264   0.948
10107WAT      O31382   0.385   2.524   0.929
10107WAT     H131383   0.435   2.571   0.995
10107WAT     H231384   0.400   2.431   0.949
10108WAT      O31385   0.626   2.054   0.273
10108WAT     H131386   0.614   2.056   0.178
10108WAT     H231387   0.721   2.059   0.285
10109WAT      O31388   1.106   2.145   1.013
10109WAT     H131389   1.056   2.219   1.047
10109WAT     H231390   1.188   2.184   0.981
10110WAT      O31391   0.935   2.670   0.358
10110WAT     H131392   0.841   2.671   0.375
10110WAT     H231393   0.967   2.591   0.402
10111WAT      O31394   1.135   3.387   0.525
10111WAT     H131395   1.148   3.469   0.572
10111WAT     H231396   1.222   3.366   0.490
10112WAT      O31397   0.667   3.125   1.406
10112WAT     H131398   0.606   3.128   1.332
10112WAT     H231399   0.636   3.052   1.460
10113WAT      O31400   0.810   3.498   1.267
10113WAT     H131401   0.905   3.490   1.262
10113WAT     H231402   0.795   3.565   1.334
10114WAT      O31403   0.261   2.904   1.259
10114WAT     H131404   0.184   2.961   1.250
10114WAT     H231405   0.279   2.875   1.170
10115WAT      O31406   0.975   3.077   1.315
10115WAT     H131407   1.049   3.111   1.264
10115WAT     H231408   0.898   3.094   1.259
10116WAT      O31409   0.842   2.882   1.168
10116WAT     H131410   0.884   2.898   1.253
10116WAT     H231411   0.749   2.895   1.185
10117WAT      O31412   0.889   2.616   1.369
10117WAT     H131413   0.948   2.541   1.360
10117WAT     H231414   0.907   2.669   1.291
10118WAT      O31415   0.278   1.988   0.903
10118WAT     H131416   0.233   1.990   0.819
10118WAT     H231417   0.214   1.948   0.963
10119WAT      O31418   0.318   2.877   0.965
10119WAT     H131419   0.360   2.962   0.948
10119WAT     H231420   0.226   2.891   0.942
10120WAT      O31421   0.552   2.651   1.104
10120WAT     H131422   0.564   2.591   1.178
10120WAT     H231423   0.638   2.654   1.062
10121WAT      O31424   0.786   2.706   0.961
10121WAT     H131425   0.733   2.758   0.901
10121WAT     H231426   0.820   2.769   1.024
10122WAT      O31427   0.229   2.305   1.229
10122WAT     H131428   0.288   2.274   1.298
10122WAT     H231429   0.147   2.258   1.245
10123WAT      O31430   0.711   2.266   1.253
10123WAT     H131431   0.642   2.200   1.246
10123WAT     H231432   0.783   2.222   1.297
10124WAT      O31433   0.389   3.631   1.103
10124WAT     H131434   0.382   3.722   1.133
10124WAT     H231435   0.299   3.600   1.100
10125WAT      O31436   1.142   3.401   1.136
10125WAT     H131437   1.082   3.407   1.061
10125WAT     H231438   1.155   3.307   1.149
10126WAT      O31439   1.312   2.935   0.404
10126WAT     H131440   1.349   2.857   0.363
10126WAT     H231441   1.376   3.004   0.386
10127WAT      O31442   1.010   3.074   0.945
10127WAT     H131443   0.929   3.117   0.972
10127WAT     H231444   1.051   3.135   0.884
10128WAT      O31445   1.145   2.588   1.098
10128WAT     H131446   1.122   2.565   1.008
10128WAT     H231447   1.171   2.680   1.093
10129WAT      O31448   0.989   2.110   1.376
10129WAT     H131449   1.077   2.111   1.414
10129WAT     H231450   0.990   2.036   1.315
10130WAT      O31451   1.134   2.495   0.465
10130WAT     H131452   1.186   2.446   0.402
10130WAT     H231453   1.192   2.509   0.539
10131WAT      O31454   1.152   2.504   0.817
10131WAT     H131455   1.057   2.500   0.828
10131WAT     H231456   1.170   2.595   0.793
10132WAT      O31457   1.226   2.285   0.312
10132WAT     H131458   1.215   2.269   0.406
10132WAT     H231459   1.302   2.232   0.288
10133WAT      O31460   1.060   1.879   0.958
10133WAT     H131461   1.124   1.940   0.994
10133WAT     H231462   1.075   1.882   0.863
10134WAT      O31463   1.016   3.549   0.298
10134WAT     H131464   1.076   3.517   0.230
10134WAT     H231465   1.042   3.502   0.377
10135WAT      O31466   0.177   3.348   0.873
10135WAT     H131467   0.153   3.374   0.784
10135WAT     H231468   0.271   3.365   0.879
10136WAT      O31469   0.397   1.994   1.249
10136WAT     H131470   0.391   2.053   1.324
10136WAT     H231471   0.491   1.983   1.234
10137WAT      O31472   0.661   1.960   1.213
10137WAT     H131473   0.723   1.991   1.146
10137WAT     H231474   0.716   1.911   1.274
10138WAT      O31475   1.303   3.550   0.953
10138WAT     H131476   1.253   3.589   0.881
10138WAT     H231477   1.242   3.487   0.993
10139WAT      O31478   0.735   1.816   0.845
10139WAT     H131479   0.648   1.849   0.825
10139WAT     H231480   0.724   1.769   0.928
10140WAT      O31481   0.826   2.037   0.984
10140WAT     H131482   0.793   1.955   0.946
10140WAT     H231483   0.921   2.032   0.971
10141WAT      O31484   1.071   3.614   0.681
10141WAT     H131485   1.025   3.689   0.644
10141WAT     H231486   1.008   3.542   0.675
10142WAT      O31487   0.388   3.534   0.681
10142WAT     H131488   0.417   3.508   0.594
10142WAT     H231489   0.439   3.479   0.740
10143WAT      O31490   0.510   1.908   0.739
10143WAT     H131491   0.432   1.955   0.767
10143WAT     H231492   0.481   1.817   0.728
10144WAT      O31493   0.965   1.978   0.544
10144WAT     H131494   1.009   1.972   0.459
10144WAT     H231495   0.938   2.069   0.551
10145WAT      O31496   1.152   1.941   0.345
10145WAT     H131497   1.145   1.847   0.330
10145WAT     H231498   1.229   1.952   0.399
10146WAT      O31499   0.298   2.150   0.290
10146WAT     H131500   0.217   2.112   0.256
10146WAT     H231501   0.349   2.074   0.321
10147WAT      O31502   0.749   1.816   0.414
10147WAT     H131503   0.809   1.873   0.462
10147WAT     H231504   0.675   1.872   0.392
10148WAT      O31505   0.395   3.626   1.418
10148WAT     H131506   0.488   3.602   1.422
10148WAT     H231507   0.393   3.709   1.370
10149WAT      O31508   0.774   1.834   1.452
10149WAT     H131509   0.762   1.866   1.542
10149WAT     H231510   0.855   1.874   1.422
10150WAT      O31511   1.052   3.549   1.400
10150WAT     H131512   1.131   3.499   1.380
10150WAT     H231513   1.081   3.616   1.461
10151WAT      O31514   0.664   0.758   5.998
10151WAT     H131515   0.656   0.667   5.971
10151WAT     H231516   0.623   0.808   5.928
10152WAT      O31517   0.477   0.936   6.186
10152WAT     H131518   0.400   0.888   6.215
10152WAT     H231519   0.543   0.868   6.169
10153WAT      O31520   0.880   1.377   6.064
10153WAT     H131521   0.833   1.300   6.097
10153WAT     H231522   0.961   1.379   6.115
10154WAT      O31523   0.502   1.605   6.026
10154WAT     H131524   0.440   1.651   5.969
10154WAT     H231525   0.588   1.621   5.986
10155WAT      O31526   0.422   1.204   6.187
10155WAT     H131527   0.415   1.110   6.171
10155WAT     H231528   0.498   1.213   6.244
10156WAT      O31529   0.525   0.484   6.210
10156WAT     H131530   0.562   0.397   6.198
10156WAT     H231531   0.515   0.518   6.121
10157WAT      O31532   0.903   0.234   5.903
10157WAT     H131533   0.985   0.185   5.907
10157WAT     H231534   0.906   0.293   5.978
10158WAT      O31535   0.589   1.094   5.766
10158WAT     H131536   0.527   1.140   5.709
10158WAT     H231537   0.640   1.163   5.807
10159WAT      O31538   0.926   0.428   6.180
10159WAT     H131539   0.856   0.457   6.238
10159WAT     H231540   0.963   0.509   6.144
10160WAT      O31541   1.088   1.390   6.406
10160WAT     H131542   1.020   1.457   6.406
10160WAT     H231543   1.142   1.410   6.330
10161WAT      O31544   1.233   0.372   6.219
10161WAT     H131545   1.139   0.376   6.232
10161WAT     H231546   1.266   0.454   6.258
10162WAT      O31547   0.842   1.574   6.278
10162WAT     H131548   0.843   1.534   6.191
10162WAT     H231549   0.786   1.652   6.268
10163WAT      O31550   0.971   1.246   5.787
10163WAT     H131551   0.960   1.152   5.799
10163WAT     H231552   0.971   1.282   5.875
10164WAT      O31553   0.782   1.064   6.411
10164WAT     H131554   0.823   1.043   6.327
10164WAT     H231555   0.854   1.090   6.468
10165WAT      O31556   0.525   0.809   5.722
10165WAT     H131557   0.433   0.802   5.745
10165WAT     H231558   0.541   0.903   5.711
10166WAT      O31559   0.524   0.436   5.422
10166WAT     H131560   0.430   0.452   5.431
10166WAT     H231561   0.556   0.508   5.367
10167WAT      O31562   1.176   0.904   6.420
10167WAT     H131563   1.093   0.911   6.372
10167WAT     H231564   1.236   0.963   6.373
10168WAT      O31565   0.928   0.965   5.773
10168WAT     H131566   0.866   0.931   5.708
10168WAT     H231567   0.927   0.901   5.844
10169WAT      O31568   0.746   0.889   5.474
10169WAT     H131569   0.790   0.805   5.459
10169WAT     H231570   0.817   0.952   5.482
10170WAT      O31571   0.557   1.383   5.870
10170WAT     H131572   0.601   1.457   5.829
10170WAT     H231573   0.551   1.407   5.963
10171WAT      O31574   0.824   1.682   5.606
10171WAT     H131575   0.808   1.653   5.696
10171WAT     H231576   0.807   1.604   5.552
10172WAT      O31577   0.794   1.433   5.462
10172WAT     H131578   0.725   1.432   5.396
10172WAT     H231579   0.868   1.390   5.419
10173WAT      O31580   0.750   1.595   5.869
10173WAT     H131581   0.796   1.517   5.901
10173WAT     H231582   0.784   1.666   5.924
10174WAT      O31583   0.705   0.598   5.722
10174WAT     H131584   0.645   0.671   5.703
10174WAT     H231585   0.759   0.592   5.643
10175WAT      O31586   0.565   0.462   5.925
10175WAT     H131587   0.605   0.494   5.843
10175WAT     H231588   0.602   0.374   5.936
10176WAT      O31589   0.624   0.721   6.334
10176WAT     H131590   0.551   0.772   6.369
10176WAT     H231591   0.584   0.639   6.304
10177WAT      O31592   0.268   0.389   6.175
10177WAT     H131593   0.268   0.345   6.090
10177WAT     H231594   0.357   0.421   6.185
10178WAT      O31595   0.274   0.489   5.474
10178WAT     H131596   0.286   0.485   5.569
10178WAT     H231597   0.235   0.575   5.458
10179WAT      O31598   0.670   0.266   6.275
10179WAT     H131599   0.672   0.311   6.360
10179WAT     H231600   0.645   0.176   6.297
10180WAT      O31601   0.298   0.795   6.349
10180WAT     H131602   0.334   0.747   6.424
10180WAT     H231603   0.279   0.882   6.383
10181WAT      O31604   1.005   1.019   6.220
10181WAT     H131605   1.077   1.069   6.181
10181WAT     H231606   0.985   0.951   6.156
10182WAT      O31607   0.823   0.596   5.464
10182WAT     H131608   0.912   0.627   5.447
10182WAT     H231609   0.820   0.508   5.425
10183WAT      O31610   0.423   1.213   5.532
10183WAT     H131611   0.457   1.287   5.482
10183WAT     H231612   0.340   1.244   5.568
10184WAT      O31613   1.050   0.727   5.411
10184WAT     H131614   1.042   0.770   5.326
10184WAT     H231615   1.122   0.773   5.454
10185WAT      O31616   1.153   1.412   5.684
10185WAT     H131617   1.089   1.347   5.711
10185WAT     H231618   1.114   1.453   5.606
10186WAT      O31619   0.711   1.145   6.068
10186WAT     H131620   0.746   1.085   6.002
10186WAT     H231621   0.623   1.112   6.086
10187WAT      O31622   0.320   1.221   5.809
10187WAT     H131623   0.388   1.276   5.847
10187WAT     H231624   0.241   1.275   5.813
10188WAT      O31625   0.250   0.921   5.770
10188WAT     H131626   0.295   1.002   5.793
10188WAT     H231627   0.215   0.890   5.854
10189WAT      O31628   0.607   1.273   6.365
10189WAT     H131629   0.672   1.203   6.376
10189WAT     H231630   0.660   1.351   6.347
10190WAT      O31631   0.992   1.301   5.337
10190WAT     H131632   0.969   1.230   5.397
10190WAT     H231633   0.953   1.276   5.254
10191WAT      O31634   0.950   1.093   5.504
10191WAT     H131635   0.921   1.139   5.582
10191WAT     H231636   1.030   1.047   5.530
10192WAT      O31637   1.026   0.276   5.620
10192WAT     H131638   0.963   0.287   5.548
10192WAT     H231639   0.976   0.298   5.699
10193WAT      O31640   0.470   1.449   5.363
10193WAT     H131641   0.481   1.428   5.270
10193WAT     H231642   0.380   1.423   5.383
10194WAT      O31643   0.223   0.504   5.761
10194WAT     H131644   0.152   0.551   5.805
10194WAT     H231645   0.251   0.439   5.825
10195WAT      O31646   0.626   0.177   5.905
10195WAT     H131647   0.614   0.179   5.810
10195WAT     H231648   0.721   0.182   5.917
10196WAT      O31649   0.335   1.700   5.832
10196WAT     H131650   0.360   1.697   5.740
10196WAT     H231651   0.240   1.688   5.832
10197WAT      O31652   0.935   0.792   5.990
10197WAT     H131653   0.841   0.794   6.007
10197WAT     H231654   0.967   0.714   6.035
10198WAT      O31655   1.135   1.509   6.158
10198WAT     H131656   1.148   1.592   6.205
10198WAT     H231657   1.222   1.488   6.123
10199WAT      O31658   0.194   1.636   5.307
10199WAT     H131659   0.273   1.665   5.262
10199WAT     H231660   0.142   1.593   5.239
10200WAT      O31661   1.099   1.559   5.449
10200WAT     H131662   1.070   1.517   5.368
10200WAT     H231663   1.079   1.652   5.437
10201WAT      O31664   0.245   1.158   5.293
10201WAT     H131665   0.235   1.097   5.366
10201WAT     H231666   0.229   1.106   5.215
10202WAT      O31667   0.569   1.064   5.354
10202WAT     H131668   0.515   1.109   5.418
10202WAT     H231669   0.632   1.014   5.406
10203WAT      O31670   0.387   0.863   5.268
10203WAT     H131671   0.439   0.791   5.232
10203WAT     H231672   0.452   0.926   5.298
10204WAT      O31673   0.444   1.671   5.497
10204WAT     H131674   0.533   1.704   5.499
10204WAT     H231675   0.447   1.598   5.434
10205WAT      O31676   1.266   1.298   5.302
10205WAT     H131677   1.183   1.305   5.349
10205WAT     H231678   1.284   1.387   5.271
10206WAT      O31679   1.211   0.972   5.552
10206WAT     H131680   1.288   1.029   5.563
10206WAT     H231681   1.213   0.916   5.629
10207WAT      O31682   1.312   1.058   6.036
10207WAT     H131683   1.349   0.980   5.996
10207WAT     H231684   1.376   1.127   6.019
10208WAT      O31685   1.217   1.002   5.268
10208WAT     H131686   1.244   1.092   5.255
10208WAT     H231687   1.198   0.995   5.361
10209WAT      O31688   0.856   0.304   5.397
10209WAT     H131689   0.898   0.285   5.313
10209WAT     H231690   0.826   0.219   5.428
10210WAT      O31691   1.206   0.795   5.767
10210WAT     H131692   1.169   0.719   5.724
10210WAT     H231693   1.133   0.834   5.816
10211WAT      O31694   1.134   0.618   6.097
10211WAT     H131695   1.186   0.569   6.034
10211WAT     H231696   1.192   0.631   6.171
10212WAT      O31697   1.152   0.626   6.449
10212WAT     H131698   1.057   0.623   6.461
10212WAT     H231699   1.170   0.717   6.426
10213WAT      O31700   1.083   0.544   5.691
10213WAT     H131701   1.132   0.520   5.769
10213WAT     H231702   1.063   0.460   5.649
10214WAT      O31703   1.226   0.407   5.944
10214WAT     H131704   1.215   0.392   6.038
10214WAT     H231705   1.302   0.354   5.920
10215WAT      O31706   1.315   0.190   5.268
10215WAT     H131707   1.407   0.177   5.248
10215WAT     H231708   1.312   0.198   5.364
10216WAT      O31709   1.322   0.267   5.531
10216WAT     H131710   1.242   0.261   5.584
10216WAT     H231711   1.342   0.361   5.530
10217WAT      O31712   1.016   1.671   5.930
10217WAT     H131713   1.076   1.639   5.863
10217WAT     H231714   1.042   1.624   6.009
10218WAT      O31715   0.177   1.470   6.505
10218WAT     H131716   0.153   1.497   6.417
10218WAT     H231717   0.271   1.487   6.511
10219WAT      O31718   1.071   1.736   6.313
10219WAT     H131719   1.025   1.811   6.276
10219WAT     H231720   1.008   1.664   6.307
10220WAT      O31721   0.388   1.656   6.313
10220WAT     H131722   0.417   1.631   6.226
10220WAT     H231723   0.439   1.601   6.373
10221WAT      O31724   0.298   0.272   5.923
10221WAT     H131725   0.217   0.235   5.889
10221WAT     H231726   0.349   0.197   5.953
10222WAT      O31727   1.218   1.703   5.750
10222WAT     H131728   1.236   1.634   5.686
10222WAT     H231729   1.149   1.755   5.711
10223WAT      O31730   0.664   0.758   4.121
10223WAT     H131731   0.656   0.667   4.094
10223WAT     H231732   0.623   0.808   4.050
10224WAT      O31733   0.477   0.936   4.309
10224WAT     H131734   0.400   0.888   4.338
10224WAT     H231735   0.543   0.868   4.291
10225WAT      O31736   0.880   1.377   4.187
10225WAT     H131737   0.833   1.300   4.220
10225WAT     H231738   0.961   1.379   4.237
10226WAT      O31739   0.502   1.605   4.149
10226WAT     H131740   0.440   1.651   4.092
10226WAT     H231741   0.588   1.621   4.109
10227WAT      O31742   0.422   1.204   4.310
10227WAT     H131743   0.415   1.110   4.293
10227WAT     H231744   0.498   1.213   4.367
10228WAT      O31745   0.525   0.484   4.332
10228WAT     H131746   0.562   0.397   4.321
10228WAT     H231747   0.515   0.518   4.243
10229WAT      O31748   0.903   0.234   4.026
10229WAT     H131749   0.985   0.185   4.030
10229WAT     H231750   0.906   0.293   4.101
10230WAT      O31751   1.332   0.436   4.682
10230WAT     H131752   1.261   0.474   4.630
10230WAT     H231753   1.358   0.505   4.742
10231WAT      O31754   0.589   1.094   3.888
10231WAT     H131755   0.527   1.140   3.832
10231WAT     H231756   0.640   1.163   3.930
10232WAT      O31757   0.926   0.428   4.303
10232WAT     H131758   0.856   0.457   4.361
10232WAT     H231759   0.963   0.509   4.267
10233WAT      O31760   1.088   1.390   4.529
10233WAT     H131761   1.020   1.457   4.528
10233WAT     H231762   1.142   1.410   4.452
10234WAT      O31763   1.233   0.372   4.342
10234WAT     H131764   1.139   0.376   4.355
10234WAT     H231765   1.266   0.454   4.380
10235WAT      O31766   0.842   1.574   4.401
10235WAT     H131767   0.843   1.534   4.314
10235WAT     H231768   0.786   1.652   4.390
10236WAT      O31769   0.971   1.246   3.909
10236WAT     H131770   0.960   1.152   3.922
10236WAT     H231771   0.971   1.282   3.998
10237WAT      O31772   0.782   1.064   4.533
10237WAT     H131773   0.823   1.043   4.450
10237WAT     H231774   0.854   1.090   4.590
10238WAT      O31775   0.525   0.809   3.845
10238WAT     H131776   0.433   0.802   3.868
10238WAT     H231777   0.541   0.903   3.834
10239WAT      O31778   0.524   0.436   3.545
10239WAT     H131779   0.430   0.452   3.553
10239WAT     H231780   0.556   0.508   3.490
10240WAT      O31781   1.176   0.904   4.542
10240WAT     H131782   1.093   0.911   4.495
10240WAT     H231783   1.236   0.963   4.496
10241WAT      O31784   0.928   0.965   3.895
10241WAT     H131785   0.866   0.931   3.831
10241WAT     H231786   0.927   0.901   3.966
10242WAT      O31787   0.873   0.583   4.637
10242WAT     H131788   0.831   0.666   4.662
10242WAT     H231789   0.799   0.524   4.618
10243WAT      O31790   0.942   1.588   4.706
10243WAT     H131791   0.894   1.668   4.687
10243WAT     H231792   0.873   1.522   4.721
10244WAT      O31793   0.746   0.889   3.596
10244WAT     H131794   0.790   0.805   3.581
10244WAT     H231795   0.817   0.952   3.605
10245WAT      O31796   0.557   1.383   3.993
10245WAT     H131797   0.601   1.457   3.951
10245WAT     H231798   0.551   1.407   4.085
10246WAT      O31799   1.300   1.564   5.213
10246WAT     H131800   1.347   1.612   5.281
10246WAT     H231801   1.362   1.557   5.140
10247WAT      O31802   1.240   1.283   4.929
10247WAT     H131803   1.253   1.259   4.837
10247WAT     H231804   1.244   1.200   4.976
10248WAT      O31805   0.626   1.653   4.786
10248WAT     H131806   0.678   1.644   4.866
10248WAT     H231807   0.542   1.688   4.815
10249WAT      O31808   0.824   1.682   3.729
10249WAT     H131809   0.808   1.653   3.818
10249WAT     H231810   0.807   1.604   3.675
10250WAT      O31811   0.794   1.433   3.585
10250WAT     H131812   0.725   1.432   3.519
10250WAT     H231813   0.868   1.390   3.541
10251WAT      O31814   0.750   1.595   3.992
10251WAT     H131815   0.796   1.517   4.023
10251WAT     H231816   0.784   1.666   4.046
10252WAT      O31817   1.225   0.488   5.025
10252WAT     H131818   1.164   0.539   4.972
10252WAT     H231819   1.193   0.398   5.020
10253WAT      O31820   0.431   0.372   4.772
10253WAT     H131821   0.385   0.393   4.853
10253WAT     H231822   0.391   0.291   4.742
10254WAT      O31823   0.931   0.494   4.885
10254WAT     H131824   0.846   0.464   4.917
10254WAT     H231825   0.915   0.519   4.794
10255WAT      O31826   0.641   0.644   5.095
10255WAT     H131827   0.673   0.561   5.061
10255WAT     H231828   0.720   0.696   5.110
10256WAT      O31829   0.705   0.598   3.844
10256WAT     H131830   0.645   0.671   3.826
10256WAT     H231831   0.759   0.592   3.766
10257WAT      O31832   0.226   0.688   5.051
10257WAT     H131833   0.216   0.594   5.036
10257WAT     H231834   0.310   0.710   5.011
10258WAT      O31835   0.565   0.462   4.047
10258WAT     H131836   0.605   0.494   3.966
10258WAT     H231837   0.602   0.374   4.059
10259WAT      O31838   0.396   0.337   5.173
10259WAT     H131839   0.327   0.318   5.237
10259WAT     H231840   0.471   0.365   5.226
10260WAT      O31841   0.624   0.721   4.457
10260WAT     H131842   0.551   0.772   4.492
10260WAT     H231843   0.584   0.639   4.427
10261WAT      O31844   0.268   0.389   4.297
10261WAT     H131845   0.268   0.345   4.212
10261WAT     H231846   0.357   0.421   4.308
10262WAT      O31847   0.274   0.489   3.596
10262WAT     H131848   0.286   0.485   3.691
10262WAT     H231849   0.235   0.575   3.581
10263WAT      O31850   0.670   0.266   4.398
10263WAT     H131851   0.672   0.311   4.482
10263WAT     H231852   0.645   0.176   4.419
10264WAT      O31853   0.298   0.795   4.472
10264WAT     H131854   0.334   0.747   4.547
10264WAT     H231855   0.279   0.882   4.506
10265WAT      O31856   1.005   1.019   4.343
10265WAT     H131857   1.077   1.069   4.304
10265WAT     H231858   0.985   0.951   4.278
10266WAT      O31859   0.544   1.026   4.931
10266WAT     H131860   0.537   0.934   4.906
10266WAT     H231861   0.481   1.036   5.003
10267WAT      O31862   0.823   0.596   3.587
10267WAT     H131863   0.912   0.627   3.569
10267WAT     H231864   0.820   0.508   3.547
10268WAT      O31865   0.423   1.213   3.655
10268WAT     H131866   0.457   1.287   3.605
10268WAT     H231867   0.340   1.244   3.691
10269WAT      O31868   0.537   1.308   4.906
10269WAT     H131869   0.538   1.215   4.885
10269WAT     H231870   0.466   1.317   4.970
10270WAT      O31871   1.050   0.727   3.533
10270WAT     H131872   1.042   0.770   3.448
10270WAT     H231873   1.122   0.773   3.577
10271WAT      O31874   1.158   0.972   4.841
10271WAT     H131875   1.085   1.032   4.821
10271WAT     H231876   1.211   0.972   4.761
10272WAT      O31877   1.153   1.412   3.806
10272WAT     H131878   1.089   1.347   3.834
10272WAT     H231879   1.114   1.453   3.729
10273WAT      O31880   0.711   1.145   4.191
10273WAT     H131881   0.746   1.085   4.125
10273WAT     H231882   0.623   1.112   4.208
10274WAT      O31883   0.320   1.221   3.932
10274WAT     H131884   0.388   1.276   3.970
10274WAT     H231885   0.241   1.275   3.935
10275WAT      O31886   0.250   0.921   3.893
10275WAT     H131887   0.295   1.002   3.916
10275WAT     H231888   0.215   0.890   3.976
10276WAT      O31889   0.480   1.472   4.616
10276WAT     H131890   0.545   1.493   4.684
10276WAT     H231891   0.516   1.396   4.571
10277WAT      O31892   0.607   1.273   4.488
10277WAT     H131893   0.672   1.203   4.499
10277WAT     H231894   0.660   1.351   4.470
10278WAT      O31895   0.992   1.301   3.460
10278WAT     H131896   0.969   1.230   3.519
10278WAT     H231897   0.953   1.276   3.376
10279WAT      O31898   0.785   1.353   4.808
10279WAT     H131899   0.818   1.411   4.876
10279WAT     H231900   0.693   1.340   4.831
10280WAT      O31901   0.950   1.093   3.626
10280WAT     H131902   0.921   1.139   3.705
10280WAT     H231903   1.030   1.047   3.653
10281WAT      O31904   0.368   1.358   5.125
10281WAT     H131905   0.336   1.286   5.179
10281WAT     H231906   0.300   1.425   5.132
10282WAT      O31907   0.689   0.381   4.661
10282WAT     H131908   0.726   0.299   4.694
10282WAT     H231909   0.603   0.387   4.703
10283WAT      O31910   1.026   0.276   3.742
10283WAT     H131911   0.963   0.287   3.671
10283WAT     H231912   0.976   0.298   3.821
10284WAT      O31913   0.470   1.449   3.485
10284WAT     H131914   0.481   1.428   3.392
10284WAT     H231915   0.380   1.423   3.506
10285WAT      O31916   0.223   0.504   3.884
10285WAT     H131917   0.152   0.551   3.928
10285WAT     H231918   0.251   0.439   3.947
10286WAT      O31919   0.385   0.646   4.684
10286WAT     H131920   0.435   0.694   4.750
10286WAT     H231921   0.400   0.554   4.704
10287WAT      O31922   0.626   0.177   4.028
10287WAT     H131923   0.614   0.179   3.933
10287WAT     H231924   0.721   0.182   4.040
10288WAT      O31925   0.335   1.700   3.955
10288WAT     H131926   0.360   1.697   3.863
10288WAT     H231927   0.240   1.688   3.954
10289WAT      O31928   1.106   0.268   4.768
10289WAT     H131929   1.056   0.342   4.802
10289WAT     H231930   1.188   0.307   4.736
10290WAT      O31931   0.935   0.792   4.113
10290WAT     H131932   0.841   0.794   4.130
10290WAT     H231933   0.967   0.714   4.157
10291WAT      O31934   1.135   1.509   4.280
10291WAT     H131935   1.148   1.592   4.327
10291WAT     H231936   1.222   1.488   4.245
10292WAT      O31937   0.194   1.636   3.430
10292WAT     H131938   0.273   1.665   3.384
10292WAT     H231939   0.142   1.593   3.362
10293WAT      O31940   0.667   1.248   5.161
10293WAT     H131941   0.606   1.250   5.087
10293WAT     H231942   0.636   1.175   5.215
10294WAT      O31943   0.810   1.621   5.022
10294WAT     H131944   0.905   1.612   5.017
10294WAT     H231945   0.795   1.687   5.089
10295WAT      O31946   1.099   1.559   3.572
10295WAT     H131947   1.070   1.517   3.490
10295WAT     H231948   1.079   1.652   3.560
10296WAT      O31949   0.245   1.158   3.416
10296WAT     H131950   0.235   1.097   3.489
10296WAT     H231951   0.229   1.106   3.338
10297WAT      O31952   0.261   1.027   5.014
10297WAT     H131953   0.184   1.083   5.005
10297WAT     H231954   0.279   0.997   4.925
10298WAT      O31955   0.569   1.064   3.476
10298WAT     H131956   0.515   1.109   3.541
10298WAT     H231957   0.632   1.014   3.529
10299WAT      O31958   0.975   1.200   5.070
10299WAT     H131959   1.049   1.233   5.019
10299WAT     H231960   0.898   1.217   5.014
10300WAT      O31961   0.387   0.863   3.391
10300WAT     H131962   0.439   0.791   3.354
10300WAT     H231963   0.452   0.926   3.421
10301WAT      O31964   0.842   1.005   4.923
10301WAT     H131965   0.884   1.020   5.008
10301WAT     H231966   0.749   1.017   4.939
10302WAT      O31967   0.889   0.739   5.124
10302WAT     H131968   0.948   0.663   5.115
10302WAT     H231969   0.907   0.792   5.046
10303WAT      O31970   0.318   1.000   4.720
10303WAT     H131971   0.360   1.084   4.703
10303WAT     H231972   0.226   1.014   4.697
10304WAT      O31973   0.552   0.773   4.858
10304WAT     H131974   0.564   0.714   4.932
10304WAT     H231975   0.638   0.777   4.816
10305WAT      O31976   0.786   0.829   4.716
10305WAT     H131977   0.733   0.881   4.656
10305WAT     H231978   0.820   0.892   4.779
10306WAT      O31979   0.229   0.427   4.984
10306WAT     H131980   0.288   0.397   5.053
10306WAT     H231981   0.147   0.380   5.000
10307WAT      O31982   0.711   0.389   5.008
10307WAT     H131983   0.642   0.323   5.001
10307WAT     H231984   0.783   0.344   5.052
10308WAT      O31985   0.389   1.754   4.858
10308WAT     H131986   0.382   1.844   4.888
10308WAT     H231987   0.299   1.722   4.855
10309WAT      O31988   0.444   1.671   3.620
10309WAT     H131989   0.533   1.704   3.622
10309WAT     H231990   0.447   1.598   3.557
10310WAT      O31991   1.142   1.524   4.890
10310WAT     H131992   1.082   1.530   4.816
10310WAT     H231993   1.155   1.430   4.903
10311WAT      O31994   1.266   1.298   3.424
10311WAT     H131995   1.183   1.305   3.471
10311WAT     H231996   1.284   1.387   3.394
10312WAT      O31997   1.211   0.972   3.674
10312WAT     H131998   1.288   1.029   3.685
10312WAT     H231999   1.213   0.916   3.752
10313WAT      O32000   1.312   1.058   4.159
10313WAT     H132001   1.349   0.980   4.118
10313WAT     H232002   1.376   1.127   4.141
10314WAT      O32003   1.010   1.196   4.700
10314WAT     H132004   0.929   1.239   4.726
10314WAT     H232005   1.051   1.257   4.639
10315WAT      O32006   1.217   1.002   3.390
10315WAT     H132007   1.244   1.092   3.377
10315WAT     H232008   1.198   0.995   3.484
10316WAT      O32009   0.856   0.304   3.520
10316WAT     H132010   0.898   0.285   3.436
10316WAT     H232011   0.826   0.219   3.551
10317WAT      O32012   1.206   0.795   3.890
10317WAT     H132013   1.169   0.719   3.846
10317WAT     H232014   1.133   0.834   3.938
10318WAT      O32015   1.145   0.710   4.853
10318WAT     H132016   1.122   0.687   4.763
10318WAT     H232017   1.171   0.802   4.848
10319WAT      O32018   0.989   0.233   5.131
10319WAT     H132019   1.077   0.233   5.169
10319WAT     H232020   0.990   0.159   5.070
10320WAT      O32021   1.134   0.618   4.220
10320WAT     H132022   1.186   0.569   4.156
10320WAT     H232023   1.192   0.631   4.294
10321WAT      O32024   1.152   0.626   4.572
10321WAT     H132025   1.057   0.623   4.583
10321WAT     H232026   1.170   0.717   4.548
10322WAT      O32027   1.083   0.544   3.814
10322WAT     H132028   1.132   0.520   3.892
10322WAT     H232029   1.063   0.460   3.772
10323WAT      O32030   1.226   0.407   4.067
10323WAT     H132031   1.215   0.392   4.161
10323WAT     H232032   1.302   0.354   4.043
10324WAT      O32033   1.315   0.190   3.391
10324WAT     H132034   1.407   0.177   3.370
10324WAT     H232035   1.312   0.198   3.486
10325WAT      O32036   1.322   0.267   3.654
10325WAT     H132037   1.242   0.261   3.706
10325WAT     H232038   1.342   0.361   3.652
10326WAT      O32039   1.016   1.671   4.053
10326WAT     H132040   1.076   1.639   3.985
10326WAT     H232041   1.042   1.624   4.132
10327WAT      O32042   0.177   1.470   4.628
10327WAT     H132043   0.153   1.497   4.539
10327WAT     H232044   0.271   1.487   4.633
10328WAT      O32045   1.303   1.672   4.708
10328WAT     H132046   1.253   1.712   4.636
10328WAT     H232047   1.242   1.610   4.747
10329WAT      O32048   1.071   1.736   4.436
10329WAT     H132049   1.025   1.811   4.398
10329WAT     H232050   1.008   1.664   4.430
10330WAT      O32051   0.388   1.656   4.436
10330WAT     H132052   0.417   1.631   4.348
10330WAT     H232053   0.439   1.601   4.495
10331WAT      O32054   0.298   0.272   4.045
10331WAT     H132055   0.217   0.235   4.011
10331WAT     H232056   0.349   0.197   4.075
10332WAT      O32057   0.395   1.748   5.173
10332WAT     H132058   0.488   1.725   5.177
10332WAT     H232059   0.393   1.831   5.125
10333WAT      O32060   1.218   1.703   3.872
10333WAT     H132061   1.236   1.634   3.808
10333WAT     H232062   1.149   1.755   3.833
10334WAT      O32063   1.052   1.671   5.155
10334WAT     H132064   1.131   1.622   5.134
10334WAT     H232065   1.081   1.739   5.216
10335WAT      O32066   0.664   0.758   2.243
10335WAT     H132067   0.656   0.667   2.216
10335WAT     H232068   0.623   0.808   2.173
10336WAT      O32069   0.477   0.936   2.431
10336WAT     H132070   0.400   0.888   2.460
10336WAT     H232071   0.543   0.868   2.414
10337WAT      O32072   0.880   1.377   2.309
10337WAT     H132073   0.833   1.300   2.342
10337WAT     H232074   0.961   1.379   2.360
10338WAT      O32075   0.502   1.605   2.271
10338WAT     H132076   0.440   1.651   2.214
10338WAT     H232077   0.588   1.621   2.231
10339WAT      O32078   0.422   1.204   2.432
10339WAT     H132079   0.415   1.110   2.416
10339WAT     H232080   0.498   1.213   2.489
10340WAT      O32081   0.525   0.484   2.455
10340WAT     H132082   0.562   0.397   2.444
10340WAT     H232083   0.515   0.518   2.366
10341WAT      O32084   0.903   0.234   2.148
10341WAT     H132085   0.985   0.185   2.152
10341WAT     H232086   0.906   0.293   2.223
10342WAT      O32087   1.332   0.436   2.805
10342WAT     H132088   1.261   0.474   2.753
10342WAT     H232089   1.358   0.505   2.865
10343WAT      O32090   0.589   1.094   2.011
10343WAT     H132091   0.527   1.140   1.954
10343WAT     H232092   0.640   1.163   2.052
10344WAT      O32093   0.926   0.428   2.425
10344WAT     H132094   0.856   0.457   2.483
10344WAT     H232095   0.963   0.509   2.389
10345WAT      O32096   1.088   1.390   2.652
10345WAT     H132097   1.020   1.457   2.651
10345WAT     H232098   1.142   1.410   2.575
10346WAT      O32099   1.233   0.372   2.464
10346WAT     H132100   1.139   0.376   2.478
10346WAT     H232101   1.266   0.454   2.503
10347WAT      O32102   0.842   1.574   2.523
10347WAT     H132103   0.843   1.534   2.436
10347WAT     H232104   0.786   1.652   2.513
10348WAT      O32105   0.971   1.246   2.032
10348WAT     H132106   0.960   1.152   2.044
10348WAT     H232107   0.971   1.282   2.121
10349WAT      O32108   0.782   1.064   2.656
10349WAT     H132109   0.823   1.043   2.572
10349WAT     H232110   0.854   1.090   2.713
10350WAT      O32111   0.525   0.809   1.968
10350WAT     H132112   0.433   0.802   1.990
10350WAT     H232113   0.541   0.903   1.956
10351WAT      O32114   0.524   0.436   1.667
10351WAT     H132115   0.430   0.452   1.676
10351WAT     H232116   0.556   0.508   1.613
10352WAT      O32117   1.176   0.904   2.665
10352WAT     H132118   1.093   0.911   2.618
10352WAT     H232119   1.236   0.963   2.618
10353WAT      O32120   0.928   0.965   2.018
10353WAT     H132121   0.866   0.931   1.953
10353WAT     H232122   0.927   0.901   2.089
10354WAT      O32123   0.873   0.583   2.760
10354WAT     H132124   0.831   0.666   2.785
10354WAT     H232125   0.799   0.524   2.740
10355WAT      O32126   0.942   1.588   2.828
10355WAT     H132127   0.894   1.668   2.809
10355WAT     H232128   0.873   1.522   2.844
10356WAT      O32129   0.746   0.889   1.719
10356WAT     H132130   0.790   0.805   1.704
10356WAT     H232131   0.817   0.952   1.727
10357WAT      O32132   0.557   1.383   2.115
10357WAT     H132133   0.601   1.457   2.074
10357WAT     H232134   0.551   1.407   2.208
10358WAT      O32135   1.300   1.564   3.335
10358WAT     H132136   1.347   1.612   3.403
10358WAT     H232137   1.362   1.557   3.263
10359WAT      O32138   1.240   1.283   3.051
10359WAT     H132139   1.253   1.259   2.960
10359WAT     H232140   1.244   1.200   3.099
10360WAT      O32141   0.626   1.653   2.908
10360WAT     H132142   0.678   1.644   2.989
10360WAT     H232143   0.542   1.688   2.938
10361WAT      O32144   0.824   1.682   1.851
10361WAT     H132145   0.808   1.653   1.941
10361WAT     H232146   0.807   1.604   1.798
10362WAT      O32147   0.794   1.433   1.707
10362WAT     H132148   0.725   1.432   1.641
10362WAT     H232149   0.868   1.390   1.664
10363WAT      O32150   0.750   1.595   2.115
10363WAT     H132151   0.796   1.517   2.146
10363WAT     H232152   0.784   1.666   2.169
10364WAT      O32153   1.225   0.488   3.148
10364WAT     H132154   1.164   0.539   3.095
10364WAT     H232155   1.193   0.398   3.142
10365WAT      O32156   0.431   0.372   2.894
10365WAT     H132157   0.385   0.393   2.976
10365WAT     H232158   0.391   0.291   2.864
10366WAT      O32159   0.931   0.494   3.007
10366WAT     H132160   0.846   0.464   3.040
10366WAT     H232161   0.915   0.519   2.916
10367WAT      O32162   0.641   0.644   3.217
10367WAT     H132163   0.673   0.561   3.183
10367WAT     H232164   0.720   0.696   3.232
10368WAT      O32165   0.705   0.598   1.967
10368WAT     H132166   0.645   0.671   1.948
10368WAT     H232167   0.759   0.592   1.889
10369WAT      O32168   0.226   0.688   3.174
10369WAT     H132169   0.216   0.594   3.159
10369WAT     H232170   0.310   0.710   3.134
10370WAT      O32171   0.565   0.462   2.170
10370WAT     H132172   0.605   0.494   2.089
10370WAT     H232173   0.602   0.374   2.181
10371WAT      O32174   0.396   0.337   3.296
10371WAT     H132175   0.327   0.318   3.359
10371WAT     H232176   0.471   0.365   3.349
10372WAT      O32177   0.624   0.721   2.579
10372WAT     H132178   0.551   0.772   2.614
10372WAT     H232179   0.584   0.639   2.549
10373WAT      O32180   0.268   0.389   2.420
10373WAT     H132181   0.268   0.345   2.335
10373WAT     H232182   0.357   0.421   2.431
10374WAT      O32183   0.274   0.489   1.719
10374WAT     H132184   0.286   0.485   1.814
10374WAT     H232185   0.235   0.575   1.703
10375WAT      O32186   0.670   0.266   2.521
10375WAT     H132187   0.672   0.311   2.605
10375WAT     H232188   0.645   0.176   2.542
10376WAT      O32189   0.298   0.795   2.595
10376WAT     H132190   0.334   0.747   2.669
10376WAT     H232191   0.279   0.882   2.629
10377WAT      O32192   1.005   1.019   2.465
10377WAT     H132193   1.077   1.069   2.426
10377WAT     H232194   0.985   0.951   2.401
10378WAT      O32195   0.544   1.026   3.054
10378WAT     H132196   0.537   0.934   3.029
10378WAT     H232197   0.481   1.036   3.125
10379WAT      O32198   0.823   0.596   1.709
10379WAT     H132199   0.912   0.627   1.692
10379WAT     H232200   0.820   0.508   1.670
10380WAT      O32201   0.423   1.213   1.777
10380WAT     H132202   0.457   1.287   1.728
10380WAT     H232203   0.340   1.244   1.813
10381WAT      O32204   0.537   1.308   3.029
10381WAT     H132205   0.538   1.215   3.007
10381WAT     H232206   0.466   1.317   3.093
10382WAT      O32207   1.050   0.727   1.656
10382WAT     H132208   1.042   0.770   1.571
10382WAT     H232209   1.122   0.773   1.699
10383WAT      O32210   1.158   0.972   2.964
10383WAT     H132211   1.085   1.032   2.944
10383WAT     H232212   1.211   0.972   2.884
10384WAT      O32213   1.153   1.412   1.929
10384WAT     H132214   1.089   1.347   1.956
10384WAT     H232215   1.114   1.453   1.851
10385WAT      O32216   0.711   1.145   2.314
10385WAT     H132217   0.746   1.085   2.248
10385WAT     H232218   0.623   1.112   2.331
10386WAT      O32219   0.320   1.221   2.054
10386WAT     H132220   0.388   1.276   2.092
10386WAT     H232221   0.241   1.275   2.058
10387WAT      O32222   0.250   0.921   2.016
10387WAT     H132223   0.295   1.002   2.038
10387WAT     H232224   0.215   0.890   2.099
10388WAT      O32225   0.480   1.472   2.738
10388WAT     H132226   0.545   1.493   2.806
10388WAT     H232227   0.516   1.396   2.693
10389WAT      O32228   0.607   1.273   2.610
10389WAT     H132229   0.672   1.203   2.622
10389WAT     H232230   0.660   1.351   2.592
10390WAT      O32231   0.992   1.301   1.583
10390WAT     H132232   0.969   1.230   1.642
10390WAT     H232233   0.953   1.276   1.499
10391WAT      O32234   0.785   1.353   2.931
10391WAT     H132235   0.818   1.411   2.998
10391WAT     H232236   0.693   1.340   2.954
10392WAT      O32237   0.950   1.093   1.749
10392WAT     H132238   0.921   1.139   1.828
10392WAT     H232239   1.030   1.047   1.776
10393WAT      O32240   0.368   1.358   3.247
10393WAT     H132241   0.336   1.286   3.302
10393WAT     H232242   0.300   1.425   3.255
10394WAT      O32243   0.689   0.381   2.784
10394WAT     H132244   0.726   0.299   2.817
10394WAT     H232245   0.603   0.387   2.825
10395WAT      O32246   1.026   0.276   1.865
10395WAT     H132247   0.963   0.287   1.793
10395WAT     H232248   0.976   0.298   1.944
10396WAT      O32249   0.470   1.449   1.608
10396WAT     H132250   0.481   1.428   1.515
10396WAT     H232251   0.380   1.423   1.629
10397WAT      O32252   0.223   0.504   2.006
10397WAT     H132253   0.152   0.551   2.050
10397WAT     H232254   0.251   0.439   2.070
10398WAT      O32255   0.385   0.646   2.806
10398WAT     H132256   0.435   0.694   2.873
10398WAT     H232257   0.400   0.554   2.827
10399WAT      O32258   0.626   0.177   2.150
10399WAT     H132259   0.614   0.179   2.055
10399WAT     H232260   0.721   0.182   2.162
10400WAT      O32261   0.335   1.700   2.078
10400WAT     H132262   0.360   1.697   1.985
10400WAT     H232263   0.240   1.688   2.077
10401WAT      O32264   1.106   0.268   2.890
10401WAT     H132265   1.056   0.342   2.924
10401WAT     H232266   1.188   0.307   2.859
10402WAT      O32267   0.935   0.792   2.235
10402WAT     H132268   0.841   0.794   2.253
10402WAT     H232269   0.967   0.714   2.280
10403WAT      O32270   1.135   1.509   2.403
10403WAT     H132271   1.148   1.592   2.450
10403WAT     H232272   1.222   1.488   2.368
10404WAT      O32273   0.194   1.636   1.552
10404WAT     H132274   0.273   1.665   1.507
10404WAT     H232275   0.142   1.593   1.484
10405WAT      O32276   0.667   1.248   3.283
10405WAT     H132277   0.606   1.250   3.209
10405WAT     H232278   0.636   1.175   3.337
10406WAT      O32279   0.810   1.621   3.145
10406WAT     H132280   0.905   1.612   3.140
10406WAT     H232281   0.795   1.687   3.212
10407WAT      O32282   1.099   1.559   1.694
10407WAT     H132283   1.070   1.517   1.613
10407WAT     H232284   1.079   1.652   1.682
10408WAT      O32285   0.245   1.158   1.538
10408WAT     H132286   0.235   1.097   1.611
10408WAT     H232287   0.229   1.106   1.460
10409WAT      O32288   0.261   1.027   3.136
10409WAT     H132289   0.184   1.083   3.128
10409WAT     H232290   0.279   0.997   3.047
10410WAT      O32291   0.569   1.064   1.599
10410WAT     H132292   0.515   1.109   1.663
10410WAT     H232293   0.632   1.014   1.651
10411WAT      O32294   0.975   1.200   3.192
10411WAT     H132295   1.049   1.233   3.142
10411WAT     H232296   0.898   1.217   3.137
10412WAT      O32297   0.387   0.863   1.513
10412WAT     H132298   0.439   0.791   1.477
10412WAT     H232299   0.452   0.926   1.543
10413WAT      O32300   0.842   1.005   3.046
10413WAT     H132301   0.884   1.020   3.131
10413WAT     H232302   0.749   1.017   3.062
10414WAT      O32303   0.889   0.739   3.246
10414WAT     H132304   0.948   0.663   3.237
10414WAT     H232305   0.907   0.792   3.168
10415WAT      O32306   0.318   1.000   2.843
10415WAT     H132307   0.360   1.084   2.825
10415WAT     H232308   0.226   1.014   2.820
10416WAT      O32309   0.552   0.773   2.981
10416WAT     H132310   0.564   0.714   3.055
10416WAT     H232311   0.638   0.777   2.939
10417WAT      O32312   0.786   0.829   2.839
10417WAT     H132313   0.733   0.881   2.778
10417WAT     H232314   0.820   0.892   2.902
10418WAT      O32315   0.229   0.427   3.107
10418WAT     H132316   0.288   0.397   3.176
10418WAT     H232317   0.147   0.380   3.122
10419WAT      O32318   0.711   0.389   3.130
10419WAT     H132319   0.642   0.323   3.124
10419WAT     H232320   0.783   0.344   3.175
10420WAT      O32321   0.389   1.754   2.980
10420WAT     H132322   0.382   1.844   3.011
10420WAT     H232323   0.299   1.722   2.977
10421WAT      O32324   0.444   1.671   1.742
10421WAT     H132325   0.533   1.704   1.745
10421WAT     H232326   0.447   1.598   1.680
10422WAT      O32327   1.142   1.524   3.013
10422WAT     H132328   1.082   1.530   2.939
10422WAT     H232329   1.155   1.430   3.026
10423WAT      O32330   1.266   1.298   1.547
10423WAT     H132331   1.183   1.305   1.594
10423WAT     H232332   1.284   1.387   1.516
10424WAT      O32333   1.211   0.972   1.797
10424WAT     H132334   1.288   1.029   1.808
10424WAT     H232335   1.213   0.916   1.874
10425WAT      O32336   1.312   1.058   2.281
10425WAT     H132337   1.349   0.980   2.241
10425WAT     H232338   1.376   1.127   2.264
10426WAT      O32339   1.010   1.196   2.823
10426WAT     H132340   0.929   1.239   2.849
10426WAT     H232341   1.051   1.257   2.761
10427WAT      O32342   1.217   1.002   1.513
10427WAT     H132343   1.244   1.092   1.500
10427WAT     H232344   1.198   0.995   1.606
10428WAT      O32345   0.856   0.304   1.642
10428WAT     H132346   0.898   0.285   1.558
10428WAT     H232347   0.826   0.219   1.673
10429WAT      O32348   1.206   0.795   2.012
10429WAT     H132349   1.169   0.719   1.969
10429WAT     H232350   1.133   0.834   2.061
10430WAT      O32351   1.145   0.710   2.975
10430WAT     H132352   1.122   0.687   2.885
10430WAT     H232353   1.171   0.802   2.971
10431WAT      O32354   0.989   0.233   3.253
10431WAT     H132355   1.077   0.233   3.292
10431WAT     H232356   0.990   0.159   3.192
10432WAT      O32357   1.134   0.618   2.342
10432WAT     H132358   1.186   0.569   2.279
10432WAT     H232359   1.192   0.631   2.417
10433WAT      O32360   1.152   0.626   2.694
10433WAT     H132361   1.057   0.623   2.706
10433WAT     H232362   1.170   0.717   2.671
10434WAT      O32363   1.083   0.544   1.936
10434WAT     H132364   1.132   0.520   2.015
10434WAT     H232365   1.063   0.460   1.894
10435WAT      O32366   1.226   0.407   2.189
10435WAT     H132367   1.215   0.392   2.283
10435WAT     H232368   1.302   0.354   2.165
10436WAT      O32369   1.315   0.190   1.514
10436WAT     H132370   1.407   0.177   1.493
10436WAT     H232371   1.312   0.198   1.609
10437WAT      O32372   1.322   0.267   1.776
10437WAT     H132373   1.242   0.261   1.829
10437WAT     H232374   1.342   0.361   1.775
10438WAT      O32375   1.016   1.671   2.175
10438WAT     H132376   1.076   1.639   2.108
10438WAT     H232377   1.042   1.624   2.255
10439WAT      O32378   0.177   1.470   2.750
10439WAT     H132379   0.153   1.497   2.662
10439WAT     H232380   0.271   1.487   2.756
10440WAT      O32381   1.303   1.672   2.831
10440WAT     H132382   1.253   1.712   2.759
10440WAT     H232383   1.242   1.610   2.870
10441WAT      O32384   1.071   1.736   2.558
10441WAT     H132385   1.025   1.811   2.521
10441WAT     H232386   1.008   1.664   2.553
10442WAT      O32387   0.388   1.656   2.559
10442WAT     H132388   0.417   1.631   2.471
10442WAT     H232389   0.439   1.601   2.618
10443WAT      O32390   0.298   0.272   2.168
10443WAT     H132391   0.217   0.235   2.134
10443WAT     H232392   0.349   0.197   2.198
10444WAT      O32393   0.395   1.748   3.295
10444WAT     H132394   0.488   1.725   3.300
10444WAT     H232395   0.393   1.831   3.247
10445WAT      O32396   1.218   1.703   1.995
10445WAT     H132397   1.236   1.634   1.931
10445WAT     H232398   1.149   1.755   1.956
10446WAT      O32399   1.052   1.671   3.278
10446WAT     H132400   1.131   1.622   3.257
10446WAT     H232401   1.081   1.739   3.338
10447WAT      O32402   0.664   0.758   0.366
10447WAT     H132403   0.656   0.667   0.339
10447WAT     H232404   0.623   0.808   0.295
10448WAT      O32405   0.477   0.936   0.554
10448WAT     H132406   0.400   0.888   0.583
10448WAT     H232407   0.543   0.868   0.537
10449WAT      O32408   0.880   1.377   0.432
10449WAT     H132409   0.833   1.300   0.465
10449WAT     H232410   0.961   1.379   0.482
10450WAT      O32411   0.502   1.605   0.394
10450WAT     H132412   0.440   1.651   0.337
10450WAT     H232413   0.588   1.621   0.354
10451WAT      O32414   0.422   1.204   0.555
10451WAT     H132415   0.415   1.110   0.539
10451WAT     H232416   0.498   1.213   0.612
10452WAT      O32417   0.525   0.484   0.577
10452WAT     H132418   0.562   0.397   0.566
10452WAT     H232419   0.515   0.518   0.488
10453WAT      O32420   0.903   0.234   0.271
10453WAT     H132421   0.985   0.185   0.275
10453WAT     H232422   0.906   0.293   0.346
10454WAT      O32423   1.332   0.436   0.927
10454WAT     H132424   1.261   0.474   0.875
10454WAT     H232425   1.358   0.505   0.987
10455WAT      O32426   0.926   0.428   0.548
10455WAT     H132427   0.856   0.457   0.606
10455WAT     H232428   0.963   0.509   0.512
10456WAT      O32429   1.088   1.390   0.774
10456WAT     H132430   1.020   1.457   0.773
10456WAT     H232431   1.142   1.410   0.698
10457WAT      O32432   1.233   0.372   0.587
10457WAT     H132433   1.139   0.376   0.600
10457WAT     H232434   1.266   0.454   0.625
10458WAT      O32435   0.842   1.574   0.646
10458WAT     H132436   0.843   1.534   0.559
10458WAT     H232437   0.786   1.652   0.635
10459WAT      O32438   0.782   1.064   0.778
10459WAT     H132439   0.823   1.043   0.695
10459WAT     H232440   0.854   1.090   0.836
10460WAT      O32441   1.176   0.904   0.788
10460WAT     H132442   1.093   0.911   0.740
10460WAT     H232443   1.236   0.963   0.741
10461WAT      O32444   0.873   0.583   0.882
10461WAT     H132445   0.831   0.666   0.908
10461WAT     H232446   0.799   0.524   0.863
10462WAT      O32447   0.942   1.588   0.951
10462WAT     H132448   0.894   1.668   0.932
10462WAT     H232449   0.873   1.522   0.966
10463WAT      O32450   0.557   1.383   0.238
10463WAT     H132451   0.601   1.457   0.197
10463WAT     H232452   0.551   1.407   0.330
10464WAT      O32453   1.300   1.564   1.458
10464WAT     H132454   1.347   1.612   1.526
10464WAT     H232455   1.362   1.557   1.385
10465WAT      O32456   1.240   1.283   1.174
10465WAT     H132457   1.253   1.259   1.082
10465WAT     H232458   1.244   1.200   1.221
10466WAT      O32459   0.626   1.653   1.031
10466WAT     H132460   0.678   1.644   1.111
10466WAT     H232461   0.542   1.688   1.060
10467WAT      O32462   0.750   1.595   0.237
10467WAT     H132463   0.796   1.517   0.269
10467WAT     H232464   0.784   1.666   0.292
10468WAT      O32465   1.225   0.488   1.270
10468WAT     H132466   1.164   0.539   1.218
10468WAT     H232467   1.193   0.398   1.265
10469WAT      O32468   0.431   0.372   1.017
10469WAT     H132469   0.385   0.393   1.098
10469WAT     H232470   0.391   0.291   0.987
10470WAT      O32471   0.931   0.494   1.130
10470WAT     H132472   0.846   0.464   1.162
10470WAT     H232473   0.915   0.519   1.039
10471WAT      O32474   0.641   0.644   1.340
10471WAT     H132475   0.673   0.561   1.306
10471WAT     H232476   0.720   0.696   1.355
10472WAT      O32477   0.226   0.688   1.296
10472WAT     H132478   0.216   0.594   1.281
10472WAT     H232479   0.310   0.710   1.257
10473WAT      O32480   0.565   0.462   0.292
10473WAT     H132481   0.605   0.494   0.211
10473WAT     H232482   0.602   0.374   0.304
10474WAT      O32483   0.396   0.337   1.418
10474WAT     H132484   0.327   0.318   1.482
10474WAT     H232485   0.471   0.365   1.472
10475WAT      O32486   0.624   0.721   0.702
10475WAT     H132487   0.551   0.772   0.737
10475WAT     H232488   0.584   0.639   0.672
10476WAT      O32489   0.268   0.389   0.542
10476WAT     H132490   0.268   0.345   0.457
10476WAT     H232491   0.357   0.421   0.553
10477WAT      O32492   0.670   0.266   0.643
10477WAT     H132493   0.672   0.311   0.728
10477WAT     H232494   0.645   0.176   0.664
10478WAT      O32495   0.298   0.795   0.717
10478WAT     H132496   0.334   0.747   0.792
10478WAT     H232497   0.279   0.882   0.751
10479WAT      O32498   1.005   1.019   0.588
10479WAT     H132499   1.077   1.069   0.549
10479WAT     H232500   0.985   0.951   0.523
10480WAT      O32501   0.544   1.026   1.177
10480WAT     H132502   0.537   0.934   1.151
10480WAT     H232503   0.481   1.036   1.248
10481WAT      O32504   0.537   1.308   1.152
10481WAT     H132505   0.538   1.215   1.130
10481WAT     H232506   0.466   1.317   1.215
10482WAT      O32507   1.158   0.972   1.086
10482WAT     H132508   1.085   1.032   1.067
10482WAT     H232509   1.211   0.972   1.006
10483WAT      O32510   0.711   1.145   0.436
10483WAT     H132511   0.746   1.085   0.370
10483WAT     H232512   0.623   1.112   0.453
10484WAT      O32513   0.320   1.221   0.177
10484WAT     H132514   0.388   1.276   0.215
10484WAT     H232515   0.241   1.275   0.180
10485WAT      O32516   0.480   1.472   0.861
10485WAT     H132517   0.545   1.493   0.929
10485WAT     H232518   0.516   1.396   0.816
10486WAT      O32519   0.607   1.273   0.733
10486WAT     H132520   0.672   1.203   0.744
10486WAT     H232521   0.660   1.351   0.715
10487WAT      O32522   0.785   1.353   1.053
10487WAT     H132523   0.818   1.411   1.121
10487WAT     H232524   0.693   1.340   1.076
10488WAT      O32525   0.368   1.358   1.370
10488WAT     H132526   0.336   1.286   1.424
10488WAT     H232527   0.300   1.425   1.377
10489WAT      O32528   0.689   0.381   0.906
10489WAT     H132529   0.726   0.299   0.939
10489WAT     H232530   0.603   0.387   0.948
10490WAT      O32531   0.385   0.646   0.929
10490WAT     H132532   0.435   0.694   0.995
10490WAT     H232533   0.400   0.554   0.949
10491WAT      O32534   0.626   0.177   0.273
10491WAT     H132535   0.614   0.179   0.178
10491WAT     H232536   0.721   0.182   0.285
10492WAT      O32537   1.106   0.268   1.013
10492WAT     H132538   1.056   0.342   1.047
10492WAT     H232539   1.188   0.307   0.981
10493WAT      O32540   0.935   0.792   0.358
10493WAT     H132541   0.841   0.794   0.375
10493WAT     H232542   0.967   0.714   0.402
10494WAT      O32543   1.135   1.509   0.525
10494WAT     H132544   1.148   1.592   0.572
10494WAT     H232545   1.222   1.488   0.490
10495WAT      O32546   0.667   1.248   1.406
10495WAT     H132547   0.606   1.250   1.332
10495WAT     H232548   0.636   1.175   1.460
10496WAT      O32549   0.810   1.621   1.267
10496WAT     H132550   0.905   1.612   1.262
10496WAT     H232551   0.795   1.687   1.334
10497WAT      O32552   0.261   1.027   1.259
10497WAT     H132553   0.184   1.083   1.250
10497WAT     H232554   0.279   0.997   1.170
10498WAT      O32555   0.975   1.200   1.315
10498WAT     H132556   1.049   1.233   1.264
10498WAT     H232557   0.898   1.217   1.259
10499WAT      O32558   0.842   1.005   1.168
10499WAT     H132559   0.884   1.020   1.253
10499WAT     H232560   0.749   1.017   1.185
10500WAT      O32561   0.889   0.739   1.369
10500WAT     H132562   0.948   0.663   1.360
10500WAT     H232563   0.907   0.792   1.291
10501WAT      O32564   0.318   1.000   0.965
10501WAT     H132565   0.360   1.084   0.948
10501WAT     H232566   0.226   1.014   0.942
10502WAT      O32567   0.552   0.773   1.104
10502WAT     H132568   0.564   0.714   1.178
10502WAT     H232569   0.638   0.777   1.062
10503WAT      O32570   0.786   0.829   0.961
10503WAT     H132571   0.733   0.881   0.901
10503WAT     H232572   0.820   0.892   1.024
10504WAT      O32573   0.229   0.427   1.229
10504WAT     H132574   0.288   0.397   1.298
10504WAT     H232575   0.147   0.380   1.245
10505WAT      O32576   0.711   0.389   1.253
10505WAT     H132577   0.642   0.323   1.246
10505WAT     H232578   0.783   0.344   1.297
10506WAT      O32579   0.389   1.754   1.103
10506WAT     H132580   0.382   1.844   1.133
10506WAT     H232581   0.299   1.722   1.100
10507WAT      O32582   1.142   1.524   1.136
10507WAT     H132583   1.082   1.530   1.061
10507WAT     H232584   1.155   1.430   1.149
10508WAT      O32585   1.312   1.058   0.404
10508WAT     H132586   1.349   0.980   0.363
10508WAT     H232587   1.376   1.127   0.386
10509WAT      O32588   1.010   1.196   0.945
10509WAT     H132589   0.929   1.239   0.972
10509WAT     H232590   1.051   1.257   0.884
10510WAT      O32591   1.145   0.710   1.098
10510WAT     H132592   1.122   0.687   1.008
10510WAT     H232593   1.171   0.802   1.093
10511WAT      O32594   0.989   0.233   1.376
10511WAT     H132595   1.077   0.233   1.414
10511WAT     H232596   0.990   0.159   1.315
10512WAT      O32597   1.134   0.618   0.465
10512WAT     H132598   1.186   0.569   0.402
10512WAT     H232599   1.192   0.631   0.539
10513WAT      O32600   1.152   0.626   0.817
10513WAT     H132601   1.057   0.623   0.828
10513WAT     H232602   1.170   0.717   0.793
10514WAT      O32603   1.226   0.407   0.312
10514WAT     H132604   1.215   0.392   0.406
10514WAT     H232605   1.302   0.354   0.288
10515WAT      O32606   1.016   1.671   0.298
10515WAT     H132607   1.076   1.639   0.230
10515WAT     H232608   1.042   1.624   0.377
10516WAT      O32609   0.177   1.470   0.873
10516WAT     H132610   0.153   1.497   0.784
10516WAT     H232611   0.271   1.487   0.879
10517WAT      O32612   1.303   1.672   0.953
10517WAT     H132613   1.253   1.712   0.881
10517WAT     H232614   1.242   1.610   0.993
10518WAT      O32615   1.071   1.736   0.681
10518WAT     H132616   1.025   1.811   0.644
10518WAT     H232617   1.008   1.664   0.675
10519WAT      O32618   0.388   1.656   0.681
10519WAT     H132619   0.417   1.631   0.594
10519WAT     H232620   0.439   1.601   0.740
10520WAT      O32621   0.298   0.272   0.290
10520WAT     H132622   0.217   0.235   0.256
10520WAT     H232623   0.349   0.197   0.321
10521WAT      O32624   0.395   1.748   1.418
10521WAT     H132625   0.488   1.725   1.422
10521WAT     H232626   0.393   1.831   1.370
10522WAT      O32627   1.052   1.671   1.400
10522WAT     H132628   1.131   1.622   1.380
10522WAT     H232629   1.081   1.739   1.461
   8.31046   7.33961   6.68217
