default_name
   556
   1.0720000  -1.9350000  -1.7270000   1.6800000  -1.7870000  -2.6200000
   1.4580000  -2.6260000  -0.9770000  -2.0490000   3.0570000   0.4060000
  -1.4230000   2.0120000   0.4600000  -2.0130000   0.6130000   0.5970000
  -2.6350000   0.5550000   1.5000000  -0.7940000  -0.3400000   0.7220000
  -0.9880000  -1.4530000  -0.3490000  -0.0880000  -1.2860000  -1.5590000
  -2.4730000  -1.3390000  -0.7610000  -2.7920000   0.1640000  -0.6570000
  -4.2550000   0.5550000  -0.5880000  -0.7660000  -0.7750000   1.7300000
  -0.0430000   1.8780000   0.3920000   0.8560000   3.0530000   0.3960000
   0.8990000   3.8770000  -0.9180000   0.6950000   3.1190000  -2.2570000
   1.5610000   1.8640000  -2.4860000   2.8980000   2.1150000  -2.0440000
   3.7280000   0.9430000  -1.8860000   4.7890000   1.3220000  -0.8200000
   4.1640000   1.3830000   0.4680000   5.9800000   0.3250000  -0.7810000
   7.1570000   0.8230000   0.0880000   6.7740000   0.8680000   1.4640000
   6.4890000   0.1530000  -2.1180000   5.5470000  -0.4180000  -3.0340000
   6.1780000  -0.6200000  -4.2830000   4.3820000   0.5710000  -3.2440000
   3.4370000  -0.0540000  -4.1290000   0.4270000   0.5730000   0.5530000
   1.6000000   0.2370000   0.6070000  -0.7920000  -2.4370000   0.0980000
  -0.4420000  -0.6000000  -2.3280000  -3.0960000  -1.8970000  -0.0520000
  -2.6600000  -1.7380000  -1.7650000  -2.3490000   0.6670000  -1.5280000
  -4.4100000   1.6220000  -0.4170000   1.8750000   2.7100000   0.6090000
   0.5660000   3.7130000   1.2230000   0.1170000   4.6440000  -0.8580000
   1.8500000   4.4230000  -0.9520000  -0.3600000   2.8300000  -2.3460000
   0.8830000   3.8220000  -3.0770000   1.5440000   1.6120000  -3.5500000
   1.1310000   1.0270000  -1.9320000   3.1500000   0.0830000  -1.5190000
   5.1930000   2.3100000  -1.0850000   3.2860000   0.9400000   0.4100000
   5.6400000  -0.6430000  -0.3870000   8.0110000   0.1450000  -0.0430000
   7.4680000   1.8170000  -0.2600000   5.8490000   1.1970000   1.4800000
   5.1720000  -1.3750000  -2.6450000   5.4140000  -0.6940000  -4.8870000
   4.8030000   1.4850000  -3.6890000   2.8150000   0.6260000  -4.4670000
  -8.8980000  -3.4720000   1.3300000  -7.7810000  -3.0260000   1.1330000
  -6.9000000  -3.3090000  -0.0800000  -6.7680000  -4.3920000  -0.1850000
  -5.5450000  -2.6270000   0.2380000  -5.1840000  -1.7380000  -0.9820000
  -5.3230000  -0.2480000  -0.7250000  -6.1360000  -2.1960000  -2.1000000
  -7.4170000  -2.6750000  -1.3890000  -8.3180000  -3.6100000  -2.1820000
  -4.7730000  -3.3910000   0.3990000  -7.0650000  -2.2040000   1.9970000
  -7.4740000  -2.0250000   3.4070000  -8.6120000  -1.0070000   3.6520000
  -8.5720000   0.3140000   2.8400000  -7.2340000   1.0810000   2.8220000
  -6.6320000   1.0510000   4.1290000  -5.2880000   1.5770000   4.1800000
  -4.4650000   0.7570000   5.2080000  -4.2950000  -0.5900000   4.7550000
  -3.0690000   1.4060000   5.4620000  -2.3050000   0.7630000   6.6420000
  -1.9080000  -0.5680000   6.3070000  -3.2300000   2.8080000   5.7790000
  -3.8960000   3.5800000   4.7720000  -3.9630000   4.9340000   5.1730000
  -5.3350000   3.0490000   4.6480000  -6.0710000   3.8730000   3.7400000
  -5.7730000  -1.9000000   1.5640000  -4.9470000  -1.2390000   2.1750000
  -4.1470000  -1.9480000  -1.2840000  -6.3410000   0.1340000  -0.6560000
  -5.6650000  -3.0240000  -2.6430000  -6.3440000  -1.3910000  -2.8100000
  -8.0010000  -1.7830000  -1.1230000  -9.2280000  -3.8880000  -1.6490000
  -6.6010000  -1.7070000   3.9890000  -7.7790000  -3.0000000   3.8080000
  -9.5660000  -1.5020000   3.4290000  -8.6390000  -0.7700000   4.7220000
  -8.8600000   0.1020000   1.8030000  -9.3470000   0.9800000   3.2380000
  -7.4220000   2.1070000   2.4900000  -6.5710000   0.6180000   2.0830000
  -4.7940000   1.5140000   3.1990000  -5.0130000   0.7560000   6.1620000
  -4.5680000  -0.6550000   3.8100000  -2.4520000   1.3070000   4.5580000
  -1.4200000   1.3710000   6.8700000  -2.9460000   0.7630000   7.5340000
  -2.6670000  -0.9740000   5.8360000  -3.3700000   3.4950000   3.8110000
  -4.8110000   5.2190000   4.7700000  -5.7880000   3.0820000   5.6510000
  -6.9800000   3.5130000   3.7110000  -6.2170000  -7.4840000  -7.0720000
  -6.2190000  -6.7980000  -6.0640000  -5.9810000  -5.2930000  -5.9960000
  -5.0310000  -5.0490000  -6.4830000  -5.9230000  -4.9550000  -4.4820000
  -6.8760000  -3.7490000  -4.2440000  -8.1070000  -4.0900000  -3.4220000
  -7.2660000  -3.2500000  -5.6540000  -7.1480000  -4.4730000  -6.5840000
  -6.9910000  -4.2030000  -8.0740000  -4.8960000  -4.6940000  -4.1980000
  -6.4420000  -7.2440000  -4.7680000  -6.5590000  -8.6840000  -4.4450000
  -7.8930000  -9.3440000  -4.8750000  -9.1880000  -8.5430000  -4.5900000
  -9.4040000  -8.0910000  -3.1310000  -9.1480000  -9.1970000  -2.2560000
  -9.3860000  -8.9720000  -0.8470000  -8.1340000  -8.3360000  -0.1740000
  -8.0680000  -6.9390000  -0.4800000  -8.1690000  -8.4940000   1.3740000
  -6.8500000  -8.0720000   2.0600000  -6.7470000  -6.6450000   2.0810000
  -8.4120000  -9.8710000   1.7160000  -9.6790000 -10.3680000   1.2700000
  -9.8460000 -11.6970000   1.7170000  -9.6880000 -10.3710000  -0.2690000
 -10.9720000 -10.8010000  -0.7380000  -6.2940000  -6.2700000  -3.7830000
  -6.3830000  -6.4540000  -2.5790000  -6.3200000  -2.9550000  -3.7250000
  -8.8180000  -4.7560000  -3.9070000  -6.5640000  -2.4620000  -5.9510000
  -8.2790000  -2.8340000  -5.6760000  -8.0700000  -5.0570000  -6.4490000
  -7.2360000  -5.0640000  -8.6950000  -6.4490000  -8.8140000  -3.3620000
  -5.7270000  -9.2180000  -4.9190000  -7.8480000  -9.5310000  -5.9550000
  -7.9620000 -10.3300000  -4.4010000  -9.2140000  -7.6570000  -5.2360000
 -10.0430000  -9.1600000  -4.8910000 -10.4400000  -7.7450000  -3.0220000
  -8.7380000  -7.2540000  -2.9120000 -10.2590000  -8.3250000  -0.6830000
  -7.2390000  -8.8570000  -0.5460000  -7.4930000  -6.8150000  -1.2730000
  -8.9730000  -7.8710000   1.7850000  -6.8420000  -8.4600000   3.0870000
  -5.9970000  -8.5190000   1.5310000  -6.9810000  -6.3330000   1.1840000
 -10.4910000  -9.7410000   1.6510000 -10.4850000 -12.0680000   1.0780000
  -8.8960000 -11.0630000  -0.5980000 -10.9420000 -10.7210000  -1.7130000
  -3.6730000   0.3260000 -11.1850000  -3.9340000  -0.4050000 -10.2460000
  -4.8780000  -0.0870000  -9.0930000  -4.5370000   0.8210000  -8.5810000
  -4.7840000  -1.3050000  -8.1380000  -6.2350000  -1.8010000  -7.8960000
  -6.5910000  -3.0620000  -8.6710000  -7.1170000  -0.6130000  -8.3370000
  -6.3560000   0.0330000  -9.5120000  -6.7090000   1.4630000  -9.8900000
  -4.3220000  -0.9960000  -7.1930000  -3.3850000  -1.6610000 -10.0140000
  -2.1350000  -2.0790000 -10.6860000  -2.2920000  -2.6220000 -12.1270000
  -3.4830000  -3.5760000 -12.4000000  -3.6980000  -4.7260000 -11.3970000
  -2.4290000  -5.2820000 -11.0060000  -2.4620000  -6.1660000  -9.8620000
  -1.1210000  -6.0110000  -9.0960000  -1.0640000  -4.7270000  -8.4670000
  -0.9260000  -7.1230000  -8.0180000   0.5010000  -7.1490000  -7.4260000
   0.7350000  -5.9740000  -6.6480000  -1.1610000  -8.4210000  -8.6070000
  -2.4740000  -8.5840000  -9.1570000  -2.6270000  -9.8880000  -9.6680000
  -2.6100000  -7.6250000 -10.3510000  -3.8710000  -7.8440000 -10.9890000
  -3.8250000  -2.2710000  -8.8340000  -3.4440000  -3.3450000  -8.3930000
  -6.3820000  -1.9870000  -6.8220000  -6.5160000  -2.9810000  -9.7520000
  -7.2020000   0.0930000  -7.5010000  -8.1220000  -0.9330000  -8.6190000
  -6.5210000  -0.6020000 -10.3960000  -6.3130000   1.7530000 -10.8660000
  -1.6520000  -2.8520000 -10.0830000  -1.4470000  -1.2240000 -10.7060000
  -2.3870000  -1.7680000 -12.8080000  -1.3580000  -3.1260000 -12.4050000
  -4.4050000  -2.9860000 -12.4460000  -3.3500000  -4.0060000 -13.4000000
  -4.3420000  -5.4800000 -11.8640000  -4.2290000  -4.3340000 -10.5230000
  -3.2910000  -5.9180000  -9.1820000  -0.3000000  -6.1040000  -9.8230000
  -1.9680000  -4.3360000  -8.4660000  -1.6360000  -6.9640000  -7.1960000
   0.6110000  -8.0420000  -6.7960000   1.2330000  -7.2250000  -8.2400000
   0.3380000  -5.2290000  -7.1460000  -3.2410000  -8.3820000  -8.3970000
  -3.2790000  -9.7120000 -10.3740000  -1.7800000  -7.8400000 -11.0410000
  -3.9240000  -7.1880000 -11.7110000 -11.8620000   4.3660000  -8.1330000
 -10.9670000   4.1010000  -8.9160000  -9.7040000   4.9260000  -9.1490000
  -9.9990000   5.9080000  -9.5370000  -8.9150000   4.1520000 -10.2330000
  -7.5280000   3.8190000  -9.6300000  -7.3710000   2.3790000  -9.1620000
  -7.3650000   4.8160000  -8.4650000  -8.7880000   5.0640000  -7.9120000
  -9.0270000   6.3940000  -7.2110000  -8.8030000   4.7840000 -11.1230000
 -10.9500000   3.0300000  -9.8060000 -12.2090000   2.3760000 -10.2230000
 -12.7590000   1.2850000  -9.2750000 -11.7320000   0.3260000  -8.6230000
 -10.6700000  -0.3050000  -9.5470000 -11.2620000  -0.6840000 -10.8010000
 -10.3320000  -0.9780000 -11.8730000 -11.0430000  -0.6330000 -13.2110000
 -11.1650000   0.7890000 -13.3310000 -10.2830000  -1.1980000 -14.4500000
 -11.1050000  -1.1040000 -15.7560000 -11.2840000   0.2620000 -16.1300000
  -9.9770000  -2.5930000 -14.2400000  -9.1530000  -2.8420000 -13.0970000
  -8.8550000  -4.2190000 -13.0000000  -9.9620000  -2.4770000 -11.8420000
  -9.1870000  -2.8000000 -10.6830000  -9.8050000   2.9680000 -10.6030000
  -9.5970000   2.1720000 -11.5060000  -6.7550000   4.0210000 -10.3860000
  -7.7680000   2.1500000  -8.1750000  -6.9440000   5.7430000  -8.8710000
  -6.6840000   4.4400000  -7.6930000  -9.0270000   4.2490000  -7.2140000
 -10.0470000   6.5020000  -6.8360000 -12.0570000   1.9190000 -11.2080000
 -12.9770000   3.1480000 -10.3540000 -13.3100000   1.7820000  -8.4660000
 -13.5020000   0.6950000  -9.8260000 -11.2090000   0.8620000  -7.8210000
 -12.2880000  -0.4810000  -8.1320000 -10.2520000  -1.1740000  -9.0300000
  -9.8610000   0.4190000  -9.7040000  -9.4170000  -0.3740000 -11.7920000
 -12.0420000  -1.0910000 -13.1940000 -10.5530000   1.2100000 -12.6850000
  -9.3490000  -0.6370000 -14.5930000 -10.5770000  -1.6460000 -16.5510000
 -12.0760000  -1.5970000 -15.6100000 -11.4550000   0.7590000 -15.3020000
  -8.2260000  -2.2570000 -13.1550000  -8.7140000  -4.2910000 -12.0370000
 -10.8950000  -3.0620000 -11.8670000  -9.6880000  -2.4450000  -9.9240000
  -4.8120000  10.2960000  -4.0380000  -5.8120000   9.6510000  -4.3080000
  -7.0450000  10.1590000  -5.0470000  -7.4450000  11.0410000  -4.5370000
  -8.0610000   8.9850000  -4.9970000  -8.5720000   8.7490000  -6.4450000
  -8.1680000   7.4180000  -7.0580000  -8.0220000   9.9290000  -7.2770000
  -6.7720000  10.4390000  -6.5380000  -6.3990000  11.8850000  -6.8200000
  -8.8970000   9.2440000  -4.3330000  -6.0290000   8.3160000  -4.0020000
  -5.0940000   7.5440000  -3.1570000  -3.8240000   7.0390000  -3.8860000
  -4.0090000   6.4620000  -5.3150000  -5.0730000   5.3560000  -5.4960000
  -5.1050000   4.5280000  -4.3230000  -6.1130000   3.4940000  -4.3080000
  -6.6230000   3.3670000  -2.8480000  -7.4640000   4.4800000  -2.5280000
  -7.4190000   2.0490000  -2.6020000  -7.6820000   1.7750000  -1.1040000
  -8.5950000   2.7400000  -0.5780000  -6.6790000   0.9220000  -3.1160000
  -6.4030000   0.9920000  -4.5190000  -5.7160000  -0.1710000  -4.9230000
  -5.4470000   2.1710000  -4.7520000  -5.0600000   2.2090000  -6.1320000
  -7.2880000   7.8330000  -4.3510000  -7.7140000   6.7120000  -4.1200000
  -9.6700000   8.8070000  -6.4410000  -7.1420000   7.3640000  -7.4180000
  -8.7870000  10.7120000  -7.3260000  -7.7780000   9.6340000  -8.3030000
  -5.9370000   9.8000000  -6.8560000  -5.3320000  12.0410000  -6.9860000
  -5.6220000   6.6780000  -2.7430000  -4.7930000   8.1690000  -2.3060000
  -3.1190000   7.8770000  -3.9560000  -3.3350000   6.2890000  -3.2520000
  -4.2430000   7.2820000  -6.0050000  -3.0410000   6.0630000  -5.6420000
  -4.8260000   4.7760000  -6.3920000  -6.0500000   5.8180000  -5.6650000
  -6.9600000   3.7320000  -4.9670000  -5.7450000   3.3610000  -2.1830000
  -7.3310000   5.2000000  -3.1860000  -8.3890000   2.1120000  -3.1140000
  -8.0990000   0.7650000  -0.9930000  -6.7300000   1.8020000  -0.5560000
  -8.3720000   3.5950000  -1.0060000  -7.3310000   1.1090000  -5.0950000
  -5.1140000   0.2090000  -5.5910000  -4.5670000   2.0060000  -4.1090000
  -4.4600000   2.9770000  -6.2230000 -10.5100000  15.7560000  -9.4890000
  -9.4040000  15.2740000  -9.3190000  -8.3170000  15.8280000  -8.4070000
  -8.0320000  16.8270000  -8.7630000  -7.1200000  14.8630000  -8.5620000
  -6.7640000  14.3580000  -7.1390000  -7.2350000  12.9380000  -6.8700000
  -7.4280000  15.3840000  -6.1900000  -8.7070000  15.8590000  -6.9140000
  -9.2400000  17.2400000  -6.5620000  -6.2680000  15.4000000  -8.9990000
  -8.8900000  14.1590000  -9.9700000  -9.4160000  13.7700000 -11.3000000
 -10.7070000  12.9170000 -11.3060000 -10.7810000  11.7420000 -10.3010000
  -9.5260000  10.8550000 -10.1860000  -8.9990000  10.5620000 -11.4930000
  -7.6710000   9.9860000 -11.4990000  -6.9120000  10.5070000 -12.7510000
  -6.6260000  11.9010000 -12.6030000  -5.5810000   9.7290000 -12.9930000
  -4.9390000  10.0400000 -14.3630000  -4.4640000  11.3870000 -14.3910000
  -5.8290000   8.3050000 -12.9560000  -6.3820000   7.8380000 -11.7200000
  -6.5500000   6.4400000 -11.7570000  -7.7870000   8.4480000 -11.5780000
  -8.4270000   7.9030000 -10.4200000  -7.5890000  13.8210000  -9.5800000
  -6.9080000  12.9200000 -10.0480000  -5.6720000  14.4000000  -7.0070000
  -8.3040000  12.8200000  -6.7040000  -6.7380000  16.2240000  -6.0530000
  -7.6400000  14.9590000  -5.1990000  -9.4960000  15.1120000  -6.7430000
 -10.0830000  17.5430000  -7.1860000  -8.6410000  13.2140000 -11.8380000
  -9.5990000  14.6840000 -11.8800000 -11.5600000  13.5790000 -11.1150000
 -10.8510000  12.5260000 -12.3210000 -11.0060000  12.1430000  -9.3050000
 -11.6350000  11.1100000 -10.5730000  -9.7900000   9.9410000  -9.6430000
  -8.7850000  11.3920000  -9.5880000  -7.1030000  10.2690000 -10.6010000
  -7.5560000  10.3520000 -13.6300000  -6.7140000  12.1450000 -11.6520000
  -4.8590000   9.9910000 -12.2090000  -4.1070000   9.3450000 -14.5360000
  -5.6780000   9.8740000 -15.1600000  -5.1530000  11.9340000 -13.9590000
  -5.7400000   8.1200000 -10.8750000  -7.3230000   6.3530000 -11.1690000
  -8.3510000   8.1930000 -12.4880000  -9.2650000   8.4010000 -10.3280000
  -9.8130000  20.3010000  -1.0110000 -10.0770000  19.9280000  -2.1400000
  -9.7870000  20.6870000  -3.4320000 -10.2900000  21.6630000  -3.4020000
 -10.3840000  19.8090000  -4.5620000  -9.2560000  19.5510000  -5.5940000
  -8.7490000  18.1180000  -5.6720000  -8.1240000  20.5320000  -5.2230000
  -8.2800000  20.8390000  -3.7220000  -7.7360000  22.1910000  -3.2890000
 -11.2200000  20.3370000  -5.0380000 -10.7100000  18.7390000  -2.4840000
 -11.3500000  17.8770000  -1.4650000 -10.3940000  16.9620000  -0.6610000
  -9.1920000  16.3370000  -1.4180000  -9.4990000  15.6240000  -2.7520000
 -10.7110000  14.8600000  -2.6260000 -11.2680000  14.3870000  -3.8730000
 -12.8140000  14.3580000  -3.7500000 -13.3240000  15.6910000  -3.6460000
 -13.4770000  13.6320000  -4.9640000 -14.9820000  13.3560000  -4.7510000
 -15.7140000  14.5820000  -4.7260000 -12.8410000  12.3530000  -5.1860000
 -11.4300000  12.4270000  -5.4280000 -10.9030000  11.1390000  -5.6520000
 -10.7680000  12.9520000  -4.1430000  -9.3450000  12.8940000  -4.2720000
 -10.9490000  18.5810000  -3.8490000 -11.5680000  17.6690000  -4.3730000
  -9.6350000  19.8230000  -6.5890000  -7.8990000  17.8750000  -5.0360000
  -8.2570000  21.4420000  -5.8120000  -7.1300000  20.1310000  -5.4570000
  -7.7440000  20.0510000  -3.1750000  -7.1590000  22.1630000  -2.3640000
 -12.0890000  17.2400000  -1.9620000 -11.9060000  18.5150000  -0.7660000
  -9.9870000  17.5490000   0.1720000 -10.9860000  16.1630000  -0.2010000
  -8.4480000  17.1200000  -1.6120000  -8.7060000  15.6200000  -0.7480000
  -8.6460000  14.9890000  -3.0150000  -9.5950000  16.3740000  -3.5430000
 -10.9910000  15.0430000  -4.7110000 -13.0760000  13.7940000  -2.8410000
 -12.6360000  16.3190000  -3.9670000 -13.3660000  14.2530000  -5.8630000
 -15.3490000  12.7190000  -5.5680000 -15.1220000  12.8030000  -3.8130000
 -15.1750000  15.2170000  -4.2070000 -11.2160000  13.0810000  -6.2840000
 -10.0120000  11.2610000  -5.2710000 -11.1050000  12.3110000  -3.3130000
  -8.9930000  13.2960000  -3.4510000  -6.8700000  26.9860000  -7.4720000
  -6.5970000  26.2500000  -6.5400000  -6.9460000  26.4880000  -5.0750000
  -6.5140000  27.4430000  -4.7460000  -6.2910000  25.3150000  -4.3030000
  -7.3970000  24.6900000  -3.4090000  -7.9270000  23.3630000  -3.9210000
  -8.5200000  25.7540000  -3.3900000  -8.4600000  26.4290000  -4.7780000
  -9.1070000  27.7980000  -4.8880000  -5.4710000  25.7000000  -3.6820000
  -5.8780000  25.0630000  -6.6220000  -5.0050000  24.7840000  -7.7850000
  -5.7200000  24.2610000  -9.0530000  -6.8230000  23.1970000  -8.8430000
  -6.4630000  22.0100000  -7.9330000  -5.1340000  21.5510000  -8.2290000
  -4.6060000  20.5860000  -7.2920000  -3.0900000  20.8580000  -7.1110000
  -2.8950000  22.0900000  -6.4080000  -2.3830000  19.6990000  -6.3420000
  -0.8430000  19.8120000  -6.3610000  -0.4230000  20.9300000  -5.5780000
  -2.7250000  18.4300000  -6.9430000  -4.1280000  18.1390000  -6.9590000
  -4.3550000  16.8750000  -7.5390000  -4.8100000  19.1700000  -7.8730000
  -6.2000000  18.8450000  -8.0140000  -5.6840000  24.4230000  -5.3910000
  -5.0620000  23.3860000  -5.2130000  -7.0060000  24.5540000  -2.3900000
  -8.5030000  23.4160000  -4.8410000  -8.2930000  26.4930000  -2.6090000
  -9.5030000  25.3210000  -3.1700000  -8.9230000  25.7600000  -5.5170000
  -8.8520000  28.3340000  -5.8030000  -4.2510000  24.0450000  -7.4910000
  -4.4610000  25.7020000  -8.0400000  -6.1720000  25.1160000  -9.5720000
  -4.9610000  23.8630000  -9.7380000  -7.7060000  23.6910000  -8.4200000
  -7.1290000  22.8120000  -9.8250000  -7.2070000  21.2150000  -8.0700000
  -6.5250000  22.3410000  -6.8930000  -5.0940000  20.6620000  -6.3110000
  -2.6340000  20.9270000  -8.1100000  -3.7570000  22.4070000  -6.0550000
  -2.7140000  19.7030000  -5.2950000  -0.4100000  18.8870000  -5.9550000
  -0.4960000  19.9110000  -7.3980000  -1.0350000  21.6650000  -5.7910000
  -4.5450000  18.1720000  -5.9430000  -5.2170000  17.0430000  -7.9670000
  -4.3040000  19.1270000  -8.8510000  -6.5760000  19.5340000  -8.5990000
 -10.0340000  31.5550000  -0.2040000  -9.6800000  30.4860000  -0.6730000
 -10.5110000  29.2060000  -0.7310000 -10.7350000  28.8700000   0.2900000
  -9.6020000  28.1720000  -1.4450000 -10.3670000  27.6980000  -2.7090000
  -9.9180000  28.3830000  -3.9900000 -11.8380000  28.0280000  -2.3960000
 -11.8000000  29.3360000  -1.5760000 -13.0200000  29.6250000  -0.7190000
  -9.4120000  27.3250000  -0.7740000  -8.4420000  30.2140000  -1.2400000
  -7.2990000  31.1390000  -1.0890000  -7.2950000  32.3470000  -2.0560000
  -7.6550000  32.0690000  -3.5390000  -6.8930000  30.9220000  -4.2350000
  -5.5230000  30.9160000  -3.7980000  -4.7270000  29.8090000  -4.2740000
  -3.7590000  29.3790000  -3.1430000  -4.4880000  28.7310000  -2.0940000
  -2.6440000  28.4150000  -3.6620000  -1.5090000  28.1990000  -2.6350000
  -1.9970000  27.4720000  -1.5070000  -2.0360000  28.9540000  -4.8600000
  -2.9510000  29.1810000  -5.9380000  -2.2590000  29.6600000  -7.0730000
  -3.9070000  30.2960000  -5.4860000  -4.7690000  30.6920000  -6.5550000
  -8.2840000  28.9040000  -1.6930000  -7.2600000  28.4190000  -2.1510000
 -10.2480000  26.6110000  -2.8200000 -10.3160000  29.3840000  -4.1580000
 -12.2550000  27.2150000  -1.7860000 -12.4540000  28.1230000  -3.3020000
 -11.6640000  30.1740000  -2.2730000 -12.9190000  30.5050000  -0.0800000
  -6.3700000  30.5780000  -1.2340000  -7.2850000  31.5110000  -0.0560000
  -8.0080000  33.0900000  -1.6770000  -6.3090000  32.8260000  -2.0080000
  -8.7290000  31.8630000  -3.6130000  -7.4850000  32.9910000  -4.1070000
  -6.9710000  31.0510000  -5.3200000  -7.3770000  29.9720000  -3.9900000
  -5.3470000  28.9470000  -4.5590000  -3.2680000  30.2820000  -2.7510000
  -5.4540000  28.7720000  -2.2830000  -3.0890000  27.4370000  -3.8910000
  -0.6930000  27.6430000  -3.1150000  -1.1080000  29.1730000  -2.3240000
  -2.9040000  27.8030000  -1.3320000  -3.4960000  28.2600000  -6.1800000
  -2.9220000  30.2640000  -7.4520000  -3.2850000  31.1440000  -5.1590000
  -5.4070000  31.2950000  -6.1260000 -14.1630000  28.9190000  -0.6870000
 -14.3350000  28.0390000  -1.3040000 -14.9820000  29.2140000  -0.0320000
