default_name
   556
   1.0720000  -1.9350000  -1.7270000   1.6800000  -1.7870000  -2.6200000
   1.4580000  -2.6260000  -0.9770000  -2.0490000   3.0570000   0.4060000
  -1.4230000   2.0120000   0.4600000  -2.0130000   0.6130000   0.5970000
  -2.6350000   0.5550000   1.5000000  -0.7940000  -0.3400000   0.7220000
  -0.9880000  -1.4530000  -0.3490000  -0.0880000  -1.2860000  -1.5590000
  -2.4730000  -1.3390000  -0.7610000  -2.7920000   0.1640000  -0.6570000
  -4.2550000   0.5550000  -0.5880000  -0.7660000  -0.7750000   1.7300000
  -0.0430000   1.8780000   0.3920000   0.8560000   3.0530000   0.3960000
   0.8990000   3.8770000  -0.9180000   0.6950000   3.1190000  -2.2570000
   1.5610000   1.8640000  -2.4860000   2.8980000   2.1150000  -2.0440000
   3.7280000   0.9430000  -1.8860000   4.7890000   1.3220000  -0.8200000
   4.1640000   1.3830000   0.4680000   5.9800000   0.3250000  -0.7810000
   7.1570000   0.8230000   0.0880000   6.7740000   0.8680000   1.4640000
   6.4890000   0.1530000  -2.1180000   5.5470000  -0.4180000  -3.0340000
   6.1780000  -0.6200000  -4.2830000   4.3820000   0.5710000  -3.2440000
   3.4370000  -0.0540000  -4.1290000   0.4270000   0.5730000   0.5530000
   1.6000000   0.2370000   0.6070000  -0.7920000  -2.4370000   0.0980000
  -0.4420000  -0.6000000  -2.3280000  -3.0960000  -1.8970000  -0.0520000
  -2.6600000  -1.7380000  -1.7650000  -2.3490000   0.6670000  -1.5280000
  -4.4100000   1.6220000  -0.4170000   1.8750000   2.7100000   0.6090000
   0.5660000   3.7130000   1.2230000   0.1170000   4.6440000  -0.8580000
   1.8500000   4.4230000  -0.9520000  -0.3600000   2.8300000  -2.3460000
   0.8830000   3.8220000  -3.0770000   1.5440000   1.6120000  -3.5500000
   1.1310000   1.0270000  -1.9320000   3.1500000   0.0830000  -1.5190000
   5.1930000   2.3100000  -1.0850000   3.2860000   0.9400000   0.4100000
   5.6400000  -0.6430000  -0.3870000   8.0110000   0.1450000  -0.0430000
   7.4680000   1.8170000  -0.2600000   5.8490000   1.1970000   1.4800000
   5.1720000  -1.3750000  -2.6450000   5.4140000  -0.6940000  -4.8870000
   4.8030000   1.4850000  -3.6890000   2.8150000   0.6260000  -4.4670000
  -8.8980000  -3.4720000   1.3300000  -7.7810000  -3.0260000   1.1330000
  -6.9000000  -3.3090000  -0.0800000  -6.7680000  -4.3920000  -0.1850000
  -5.5450000  -2.6270000   0.2380000  -5.1840000  -1.7380000  -0.9820000
  -5.3230000  -0.2480000  -0.7250000  -6.1360000  -2.1960000  -2.1000000
  -7.4170000  -2.6750000  -1.3890000  -8.3180000  -3.6100000  -2.1820000
  -4.7730000  -3.3910000   0.3990000  -7.0650000  -2.2040000   1.9970000
  -7.4740000  -2.0250000   3.4070000  -8.6120000  -1.0070000   3.6520000
  -8.5720000   0.3140000   2.8400000  -7.2340000   1.0810000   2.8220000
  -6.6320000   1.0510000   4.1290000  -5.2880000   1.5770000   4.1800000
  -4.4650000   0.7570000   5.2080000  -4.2950000  -0.5900000   4.7550000
  -3.0690000   1.4060000   5.4620000  -2.3050000   0.7630000   6.6420000
  -1.9080000  -0.5680000   6.3070000  -3.2300000   2.8080000   5.7790000
  -3.8960000   3.5800000   4.7720000  -3.9630000   4.9340000   5.1730000
  -5.3350000   3.0490000   4.6480000  -6.0710000   3.8730000   3.7400000
  -5.7730000  -1.9000000   1.5640000  -4.9470000  -1.2390000   2.1750000
  -4.1470000  -1.9480000  -1.2840000  -6.3410000   0.1340000  -0.6560000
  -5.6650000  -3.0240000  -2.6430000  -6.3440000  -1.3910000  -2.8100000
  -8.0010000  -1.7830000  -1.1230000  -9.2280000  -3.8880000  -1.6490000
  -6.6010000  -1.7070000   3.9890000  -7.7790000  -3.0000000   3.8080000
  -9.5660000  -1.5020000   3.4290000  -8.6390000  -0.7700000   4.7220000
  -8.8600000   0.1020000   1.8030000  -9.3470000   0.9800000   3.2380000
  -7.4220000   2.1070000   2.4900000  -6.5710000   0.6180000   2.0830000
  -4.7940000   1.5140000   3.1990000  -5.0130000   0.7560000   6.1620000
  -4.5680000  -0.6550000   3.8100000  -2.4520000   1.3070000   4.5580000
  -1.4200000   1.3710000   6.8700000  -2.9460000   0.7630000   7.5340000
  -2.6670000  -0.9740000   5.8360000  -3.3700000   3.4950000   3.8110000
  -4.8110000   5.2190000   4.7700000  -5.7880000   3.0820000   5.6510000
  -6.9800000   3.5130000   3.7110000  -6.2170000  -7.4840000  -7.0720000
  -6.2190000  -6.7980000  -6.0640000  -5.9810000  -5.2930000  -5.9960000
  -5.0310000  -5.0490000  -6.4830000  -5.9230000  -4.9550000  -4.4820000
  -6.8760000  -3.7490000  -4.2440000  -8.1070000  -4.0900000  -3.4220000
  -7.2660000  -3.2500000  -5.6540000  -7.1480000  -4.4730000  -6.5840000
  -6.9910000  -4.2030000  -8.0740000  -4.8960000  -4.6940000  -4.1980000
  -6.4420000  -7.2440000  -4.7680000  -6.5590000  -8.6840000  -4.4450000
  -7.8930000  -9.3440000  -4.8750000  -9.1880000  -8.5430000  -4.5900000
  -9.4040000  -8.0910000  -3.1310000  -9.1480000  -9.1970000  -2.2560000
  -9.3860000  -8.9720000  -0.8470000  -8.1340000  -8.3360000  -0.1740000
  -8.0680000  -6.9390000  -0.4800000  -8.1690000  -8.4940000   1.3740000
  -6.8500000  -8.0720000   2.0600000  -6.7470000  -6.6450000   2.0810000
  -8.4120000  -9.8710000   1.7160000  -9.6790000 -10.3680000   1.2700000
  -9.8460000 -11.6970000   1.7170000  -9.6880000 -10.3710000  -0.2690000
 -10.9720000 -10.8010000  -0.7380000  -6.2940000  -6.2700000  -3.7830000
  -6.3830000  -6.4540000  -2.5790000  -6.3200000  -2.9550000  -3.7250000
  -8.8180000  -4.7560000  -3.9070000  -6.5640000  -2.4620000  -5.9510000
  -8.2790000  -2.8340000  -5.6760000  -8.0700000  -5.0570000  -6.4490000
  -7.2360000  -5.0640000  -8.6950000  -6.4490000  -8.8140000  -3.3620000
  -5.7270000  -9.2180000  -4.9190000  -7.8480000  -9.5310000  -5.9550000
  -7.9620000 -10.3300000  -4.4010000  -9.2140000  -7.6570000  -5.2360000
 -10.0430000  -9.1600000  -4.8910000 -10.4400000  -7.7450000  -3.0220000
  -8.7380000  -7.2540000  -2.9120000 -10.2590000  -8.3250000  -0.6830000
  -7.2390000  -8.8570000  -0.5460000  -7.4930000  -6.8150000  -1.2730000
  -8.9730000  -7.8710000   1.7850000  -6.8420000  -8.4600000   3.0870000
  -5.9970000  -8.5190000   1.5310000  -6.9810000  -6.3330000   1.1840000
 -10.4910000  -9.7410000   1.6510000 -10.4850000 -12.0680000   1.0780000
  -8.8960000 -11.0630000  -0.5980000 -10.9420000 -10.7210000  -1.7130000
  -3.6730000   0.3260000 -11.1850000  -3.9340000  -0.4050000 -10.2460000
  -4.8780000  -0.0870000  -9.0930000  -4.5370000   0.8210000  -8.5810000
  -4.7840000  -1.3050000  -8.1380000  -6.2350000  -1.8010000  -7.8960000
  -6.5910000  -3.0620000  -8.6710000  -7.1170000  -0.6130000  -8.3370000
  -6.3560000   0.0330000  -9.5120000  -6.7090000   1.4630000  -9.8900000
  -4.3220000  -0.9960000  -7.1930000  -3.3850000  -1.6610000 -10.0140000
  -2.1350000  -2.0790000 -10.6860000  -2.2920000  -2.6220000 -12.1270000
  -3.4830000  -3.5760000 -12.4000000  -3.6980000  -4.7260000 -11.3970000
  -2.4290000  -5.2820000 -11.0060000  -2.4620000  -6.1660000  -9.8620000
  -1.1210000  -6.0110000  -9.0960000  -1.0640000  -4.7270000  -8.4670000
  -0.9260000  -7.1230000  -8.0180000   0.5010000  -7.1490000  -7.4260000
   0.7350000  -5.9740000  -6.6480000  -1.1610000  -8.4210000  -8.6070000
  -2.4740000  -8.5840000  -9.1570000  -2.6270000  -9.8880000  -9.6680000
  -2.6100000  -7.6250000 -10.3510000  -3.8710000  -7.8440000 -10.9890000
  -3.8250000  -2.2710000  -8.8340000  -3.4440000  -3.3450000  -8.3930000
  -6.3820000  -1.9870000  -6.8220000  -6.5160000  -2.9810000  -9.7520000
  -7.2020000   0.0930000  -7.5010000  -8.1220000  -0.9330000  -8.6190000
  -6.5210000  -0.6020000 -10.3960000  -6.3130000   1.7530000 -10.8660000
  -1.6520000  -2.8520000 -10.0830000  -1.4470000  -1.2240000 -10.7060000
  -2.3870000  -1.7680000 -12.8080000  -1.3580000  -3.1260000 -12.4050000
  -4.4050000  -2.9860000 -12.4460000  -3.3500000  -4.0060000 -13.4000000
  -4.3420000  -5.4800000 -11.8640000  -4.2290000  -4.3340000 -10.5230000
  -3.2910000  -5.9180000  -9.1820000  -0.3000000  -6.1040000  -9.8230000
  -1.9680000  -4.3360000  -8.4660000  -1.6360000  -6.9640000  -7.1960000
   0.6110000  -8.0420000  -6.7960000   1.2330000  -7.2250000  -8.2400000
   0.3380000  -5.2290000  -7.1460000  -3.2410000  -8.3820000  -8.3970000
  -3.2790000  -9.7120000 -10.3740000  -1.7800000  -7.8400000 -11.0410000
  -3.9240000  -7.1880000 -11.7110000  -6.9400000   6.0100000  -5.7260000
  -6.8060000   4.8510000  -6.0750000  -7.8860000   3.7720000  -6.0440000
  -8.1860000   3.6140000  -5.0010000  -7.1940000   2.4980000  -6.5870000
  -8.0070000   2.0360000  -7.8220000  -7.3710000   2.3790000  -9.1620000
  -9.3810000   2.7150000  -7.6550000  -9.1100000   4.0600000  -6.9420000
 -10.2530000   4.6430000  -6.1230000  -7.2020000   1.7210000  -5.8130000
  -5.6210000   4.2590000  -6.5070000  -4.3110000   4.8430000  -6.1450000
  -3.8020000   5.9890000  -7.0490000  -4.0350000   5.8500000  -8.5740000
  -3.6650000   4.5010000  -9.2240000  -2.4370000   3.9990000  -8.6690000
  -2.1470000   2.6050000  -8.9390000  -1.2990000   2.0700000  -7.7520000
  -2.1270000   1.9620000  -6.5880000  -0.6510000   0.6860000  -8.0620000
   0.4060000   0.2680000  -7.0140000  -0.2190000   0.0140000  -5.7560000
   0.0160000   0.7360000  -9.3420000  -0.8510000   1.0440000 -10.4370000
  -0.1320000   1.0140000 -11.6530000  -1.3490000   2.4870000 -10.2550000
  -2.1490000   2.8450000 -11.3860000  -5.7440000   2.9070000  -6.8330000
  -4.8360000   2.1580000  -7.1580000  -8.1370000   0.9450000  -7.7730000
  -7.5390000   3.3900000  -9.5270000 -10.0040000   2.0670000  -7.0280000
  -9.8910000   2.8550000  -8.6150000  -8.8120000   4.7940000  -7.7040000
 -10.0000000   5.5970000  -5.6540000  -3.5580000   4.0470000  -6.1560000
  -4.3640000   5.2060000  -5.1120000  -4.2830000   6.9210000  -6.7230000
  -2.7290000   6.1240000  -6.8600000  -5.0920000   6.0530000  -8.7890000
  -3.4690000   6.6430000  -9.0760000  -3.5730000   4.6640000 -10.3020000
  -4.4840000   3.7900000  -9.0560000  -3.0670000   2.0080000  -9.0150000
  -0.4860000   2.7860000  -7.5640000  -3.0690000   1.9980000  -6.8710000
  -1.4320000  -0.0860000  -8.0870000   0.9220000  -0.6350000  -7.3670000
   1.1590000   1.0620000  -6.9210000  -0.9060000   0.7040000  -5.6400000
  -1.6900000   0.3370000 -10.4760000  -0.6700000   1.6350000 -12.1790000
  -0.4620000   3.1370000 -10.1790000  -2.5340000   3.7160000 -11.1710000
 -16.7340000   3.8770000  -6.8030000 -15.6430000   4.3950000  -6.6340000
 -14.9540000   4.6410000  -5.2960000 -15.6120000   5.2230000  -4.6430000
 -13.6700000   5.4430000  -5.6410000 -12.4760000   4.7350000  -4.9440000
 -11.4640000   4.1060000  -5.8880000 -13.1070000   3.6670000  -4.0230000
 -14.4880000   3.3370000  -4.6190000 -15.5000000   2.7760000  -3.6340000
 -13.7670000   6.4760000  -5.2790000 -14.7980000   4.8620000  -7.6300000
 -15.2120000   4.9130000  -9.0480000 -15.1390000   3.5590000  -9.7960000
 -13.8940000   2.6700000  -9.5330000 -12.5070000   3.3290000  -9.7070000
 -12.5610000   4.2760000 -10.7860000 -11.3560000   5.0370000 -11.0170000
 -11.7870000   6.4660000 -11.4430000 -12.2710000   7.1870000 -10.3050000
 -10.6230000   7.2760000 -12.0930000 -11.1030000   8.5770000 -12.7740000
 -11.5610000   9.5090000 -11.7920000  -9.9740000   6.4800000 -13.1060000
  -9.4150000   5.2550000 -12.6220000  -8.7730000   4.5790000 -13.6790000
 -10.5740000   4.3570000 -12.1650000 -10.0630000   3.0760000 -11.7730000
 -13.6400000   5.4840000  -7.1710000 -12.7910000   6.0200000  -7.8660000
 -11.9520000   5.4700000  -4.3170000 -11.7640000   3.1560000  -6.3270000
 -13.2130000   4.0890000  -3.0170000 -12.4880000   2.7670000  -3.9460000
 -14.3190000   2.5880000  -5.4040000 -16.0650000   1.9260000  -4.0190000
 -14.5800000   5.6350000  -9.5770000 -16.2410000   5.2950000  -9.0990000
 -16.0270000   2.9750000  -9.5250000 -15.2250000   3.7520000 -10.8730000
 -13.9560000   2.2590000  -8.5170000 -13.9510000   1.8080000 -10.2080000
 -11.7680000   2.5440000  -9.8960000 -12.2240000   3.8270000  -8.7750000
 -10.7280000   5.1020000 -10.1170000 -12.5890000   6.3680000 -12.1900000
 -12.4720000   6.5610000  -9.5730000  -9.8930000   7.5440000 -11.3170000
 -10.2700000   9.0110000 -13.3430000 -11.9040000   8.3410000 -13.4880000
 -12.0210000   8.9830000 -11.1030000  -8.7080000   5.4440000 -11.8020000
  -8.9820000   3.6550000 -13.4440000 -11.2600000   4.2530000 -13.0220000
 -10.8390000   2.5520000 -11.4880000 -14.5570000   3.2880000   2.5190000
 -14.8930000   2.7060000   1.5030000 -16.3110000   2.6100000   0.9550000
 -16.9390000   2.0840000   1.6880000 -16.1980000   1.7610000  -0.3310000
 -16.8010000   2.6080000  -1.4820000 -15.7490000   3.2240000  -2.3900000
 -17.6540000   3.6810000  -0.7630000 -16.9280000   3.9710000   0.5690000
 -17.7680000   4.4900000   1.7260000 -16.7640000   0.8280000  -0.2090000
 -14.0630000   1.9600000   0.6750000 -12.8210000   1.3590000   1.2190000
 -11.5810000   2.2820000   1.2800000 -11.2900000   3.1580000   0.0370000
 -11.4030000   2.4640000  -1.3340000 -10.7810000   1.1660000  -1.2910000
 -11.0750000   0.3120000  -2.4220000 -11.1480000  -1.1580000  -1.9250000
 -12.3090000  -1.3410000  -1.1100000 -11.1820000  -2.1750000  -3.1090000
 -10.9910000  -3.6390000  -2.6550000 -12.1240000  -4.0740000  -1.9030000
 -10.1180000  -1.8790000  -4.0420000 -10.1790000  -0.5630000  -4.6030000
  -9.1350000  -0.3770000  -5.5300000  -9.9410000   0.4410000  -3.4620000
  -9.8630000   1.7640000  -4.0020000 -14.7140000   1.3990000  -0.4290000
 -14.2110000   0.6610000  -1.2640000 -17.4620000   1.9700000  -2.0880000
 -15.2080000   4.0730000  -1.9760000 -18.6460000   3.2590000  -0.5680000
 -17.7880000   4.5850000  -1.3740000 -16.1110000   4.6800000   0.3670000
 -17.2040000   4.5730000   2.6580000 -12.5610000   0.4820000   0.6180000
 -13.0310000   0.9890000   2.2310000 -11.6880000   2.9480000   2.1450000
 -10.7030000   1.6580000   1.4880000 -11.9750000   4.0150000   0.0410000
 -10.2810000   3.5750000   0.1390000 -10.9430000   3.1070000  -2.0930000
 -12.4640000   2.3690000  -1.5810000 -12.0360000   0.5730000  -2.8870000
 -10.2430000  -1.3640000  -1.3320000 -12.9350000  -0.5970000  -1.2760000
 -12.1480000  -2.0990000  -3.6240000 -10.8610000  -4.2750000  -3.5400000
 -10.0740000  -3.7190000  -2.0540000 -12.3670000  -3.3320000  -1.3100000
 -11.1500000  -0.3900000  -5.0870000  -8.9920000   0.5820000  -5.4250000
  -8.9940000   0.1670000  -2.9740000  -9.8150000   2.3590000  -3.2260000
 -22.4870000   8.7520000   1.9960000 -21.4990000   8.1230000   2.3280000
 -21.4680000   6.9200000   3.2680000 -21.8800000   7.2100000   4.2440000
 -19.9690000   6.5500000   3.4050000 -19.8260000   5.0500000   3.0400000
 -19.0840000   4.7540000   1.7440000 -21.2660000   4.4940000   3.0070000
 -22.1920000   5.6840000   2.6960000 -23.6100000   5.5420000   3.2250000
 -19.6390000   6.7220000   4.4380000 -20.1910000   8.3780000   1.9300000
 -19.8270000   9.6210000   1.2140000 -20.1340000   9.6390000  -0.3030000
 -19.9300000   8.3180000  -1.0930000 -18.5820000   7.5910000  -0.9030000
 -17.5120000   8.5520000  -0.8730000 -16.2430000   8.0390000  -0.4090000
 -15.4930000   9.1690000   0.3430000 -16.1800000   9.4930000   1.5560000
 -14.0170000   8.7700000   0.6630000 -13.1700000   9.9570000   1.1740000
 -13.6290000  10.3790000   2.4590000 -13.3670000   8.2710000  -0.5280000
 -14.0150000   7.1400000  -1.1260000 -13.3020000   6.7130000  -2.2650000
 -15.3930000   7.6070000  -1.6230000 -16.0180000   6.5610000  -2.3720000
 -19.2340000   7.5430000   2.5060000 -18.0240000   7.6370000   2.3790000
 -19.2830000   4.5500000   3.8540000 -19.6980000   4.6710000   0.8490000
 -21.4940000   4.0830000   3.9930000 -21.3840000   3.6830000   2.2780000
 -22.2310000   5.7840000   1.6020000 -24.3820000   5.8390000   2.5140000
 -18.7540000   9.7960000   1.3440000 -20.3410000  10.4650000   1.6930000
 -21.1820000   9.9380000  -0.4320000 -19.5380000  10.4320000  -0.7670000
 -20.7350000   7.6200000  -0.8310000 -20.0560000   8.5380000  -2.1580000
 -18.4550000   6.8700000  -1.7180000 -18.6140000   7.0180000   0.0280000
 -16.3790000   7.1880000   0.2740000 -15.4640000  10.0560000  -0.3090000
 -16.7850000   8.7490000   1.7850000 -14.0110000   7.9880000   1.4340000
 -12.1180000   9.6460000   1.2370000 -13.2270000  10.7830000   0.4520000
 -14.6090000  10.3550000   2.4250000 -14.1070000   6.3180000  -0.4040000
 -14.0460000   6.3880000  -2.8080000 -15.2320000   8.4910000  -2.2600000
 -16.9070000   6.9020000  -2.6020000 -25.0430000   1.5310000   8.0310000
 -25.1870000   2.0880000   6.9570000 -25.9480000   3.3870000   6.7130000
 -26.9870000   3.2710000   7.0510000 -25.9100000   3.6010000   5.1790000
 -25.3980000   5.0470000   4.9380000 -23.9610000   5.1200000   4.4530000
 -25.5430000   5.7390000   6.3140000 -25.2870000   4.6260000   7.3540000
 -25.8140000   4.8810000   8.7550000 -26.9220000   3.4810000   4.7690000
 -24.7170000   1.6300000   5.7310000 -24.3590000   0.2060000   5.5410000
 -22.9630000  -0.2120000   6.0600000 -21.7930000   0.7590000   5.7770000
 -21.6680000   1.2740000   4.3320000 -21.8860000   0.1960000   3.4070000
 -22.0100000   0.6020000   2.0260000 -23.0700000  -0.3010000   1.3430000
 -24.3720000  -0.0010000   1.8580000 -23.0670000  -0.1250000  -0.2070000
 -23.9250000  -1.1810000  -0.9370000 -25.3100000  -0.9650000  -0.6600000
 -21.7180000  -0.2480000  -0.7120000 -20.7920000   0.7020000  -0.1720000
 -19.5170000   0.5170000  -0.7440000 -20.6450000   0.4120000   1.3300000
 -19.6360000   1.2630000   1.8900000 -25.0440000   2.4540000   4.6460000
 -24.7630000   2.2420000   3.4760000 -26.0510000   5.5470000   4.2070000
 -23.2090000   4.8240000   5.1790000 -26.5730000   6.1100000   6.4150000
 -24.8640000   6.5920000   6.4280000 -24.2060000   4.4390000   7.4130000
 -25.8170000   3.9970000   9.3930000 -24.4080000  -0.0300000   4.4720000
 -25.1190000  -0.4130000   6.0330000 -23.0280000  -0.3530000   7.1470000
 -22.7220000  -1.1990000   5.6450000 -21.8960000   1.6280000   6.4370000
 -20.8540000   0.2670000   6.0620000 -20.6780000   1.7290000   4.1990000
 -22.4120000   2.0590000   4.1800000 -22.3330000   1.6480000   1.9370000
 -22.8180000  -1.3490000   1.5640000 -24.3290000   0.8150000   2.4060000
 -23.4570000   0.8690000  -0.4600000 -23.7440000  -1.1050000  -2.0180000
 -23.6170000  -2.1860000  -0.6200000 -25.3740000  -0.7640000   0.2970000
 -21.1410000   1.7290000  -0.3460000 -18.9580000   0.7670000   0.0160000
 -20.3550000  -0.6470000   1.4330000 -19.5930000   1.0350000   2.8410000
 -30.3580000   8.6890000  10.0860000 -29.5720000   8.1830000   9.3020000
 -28.2540000   8.7890000   8.8250000 -28.4580000   9.7170000   8.2740000
 -27.6470000   7.7270000   7.8730000 -26.2610000   7.3410000   8.4530000
 -26.2680000   6.0460000   9.2480000 -25.8920000   8.5360000   9.3510000
 -27.2270000   9.0220000   9.9580000 -27.2500000  10.4520000  10.4670000
 -27.5350000   8.1550000   6.8690000 -29.7240000   6.9530000   8.6750000
 -31.0140000   6.2310000   8.6850000 -31.3110000   5.4280000   9.9740000
 -30.1470000   4.5950000  10.5750000 -29.3990000   3.6530000   9.6090000
 -30.3330000   3.0560000   8.6940000 -29.7470000   2.2500000   7.6490000
 -30.5590000   2.4660000   6.3480000 -30.3080000   3.7750000   5.8250000
 -30.2100000   1.4030000   5.2560000 -31.1970000   1.4150000   4.0660000
 -31.0590000   2.6270000   3.3240000 -30.2460000   0.0730000   5.8240000
 -29.3510000  -0.1250000   6.9260000 -29.4230000  -1.4620000   7.3790000
 -29.8480000   0.7710000   8.0720000 -29.1010000   0.5310000   9.2660000
 -28.6840000   6.6060000   7.8110000 -28.6420000   5.6160000   7.0970000
 -25.5330000   7.2570000   7.6340000 -26.6460000   6.1170000  10.2690000
 -25.4570000   9.3240000   8.7220000 -25.1550000   8.2740000  10.1250000
 -27.4880000   8.3560000  10.7920000 -28.2330000  10.7930000  10.7990000
 -31.0380000   5.5400000   7.8350000 -31.8220000   6.9570000   8.5260000
 -31.6440000   6.1330000  10.7470000 -32.1650000   4.7670000   9.7820000
 -29.4170000   5.2760000  11.0270000 -30.5510000   3.9970000  11.3990000
 -28.8660000   2.8960000  10.1950000 -28.6420000   4.2260000   9.0660000
 -28.6960000   2.5180000   7.4610000 -31.6270000   2.3610000   6.5910000
 -29.7380000   4.2820000   6.4490000 -29.2020000   1.6040000   4.8670000
 -30.9870000   0.5540000   3.4190000 -32.2230000   1.3050000   4.4430000
 -30.9080000   3.3420000   3.9800000 -28.3240000   0.1290000   6.6370000
 -29.2850000  -1.3390000   8.3360000 -30.9110000   0.5340000   8.2300000
 -29.4050000   1.2320000   9.8740000 -26.2040000  11.2930000  10.5430000
 -25.1970000  11.0170000  10.2410000 -26.3310000  12.3050000  10.9280000
