default_name
   556
   1.0720000  -1.9350000  -1.7270000   1.6800000  -1.7870000  -2.6200000
   1.4580000  -2.6260000  -0.9770000  -2.0490000   3.0570000   0.4060000
  -1.4230000   2.0120000   0.4600000  -2.0130000   0.6130000   0.5970000
  -2.6350000   0.5550000   1.5000000  -0.7940000  -0.3400000   0.7220000
  -0.9880000  -1.4530000  -0.3490000  -0.0880000  -1.2860000  -1.5590000
  -2.4730000  -1.3390000  -0.7610000  -2.7920000   0.1640000  -0.6570000
  -4.2550000   0.5550000  -0.5880000  -0.7660000  -0.7750000   1.7300000
  -0.0430000   1.8780000   0.3920000   0.8560000   3.0530000   0.3960000
   0.8990000   3.8770000  -0.9180000   0.6950000   3.1190000  -2.2570000
   1.5610000   1.8640000  -2.4860000   2.8980000   2.1150000  -2.0440000
   3.7280000   0.9430000  -1.8860000   4.7890000   1.3220000  -0.8200000
   4.1640000   1.3830000   0.4680000   5.9800000   0.3250000  -0.7810000
   7.1570000   0.8230000   0.0880000   6.7740000   0.8680000   1.4640000
   6.4890000   0.1530000  -2.1180000   5.5470000  -0.4180000  -3.0340000
   6.1780000  -0.6200000  -4.2830000   4.3820000   0.5710000  -3.2440000
   3.4370000  -0.0540000  -4.1290000   0.4270000   0.5730000   0.5530000
   1.6000000   0.2370000   0.6070000  -0.7920000  -2.4370000   0.0980000
  -0.4420000  -0.6000000  -2.3280000  -3.0960000  -1.8970000  -0.0520000
  -2.6600000  -1.7380000  -1.7650000  -2.3490000   0.6670000  -1.5280000
  -4.4100000   1.6220000  -0.4170000   1.8750000   2.7100000   0.6090000
   0.5660000   3.7130000   1.2230000   0.1170000   4.6440000  -0.8580000
   1.8500000   4.4230000  -0.9520000  -0.3600000   2.8300000  -2.3460000
   0.8830000   3.8220000  -3.0770000   1.5440000   1.6120000  -3.5500000
   1.1310000   1.0270000  -1.9320000   3.1500000   0.0830000  -1.5190000
   5.1930000   2.3100000  -1.0850000   3.2860000   0.9400000   0.4100000
   5.6400000  -0.6430000  -0.3870000   8.0110000   0.1450000  -0.0430000
   7.4680000   1.8170000  -0.2600000   5.8490000   1.1970000   1.4800000
   5.1720000  -1.3750000  -2.6450000   5.4140000  -0.6940000  -4.8870000
   4.8030000   1.4850000  -3.6890000   2.8150000   0.6260000  -4.4670000
  -8.8980000  -3.4720000   1.3300000  -7.7810000  -3.0260000   1.1330000
  -6.9000000  -3.3090000  -0.0800000  -6.7680000  -4.3920000  -0.1850000
  -5.5450000  -2.6270000   0.2380000  -5.1840000  -1.7380000  -0.9820000
  -5.3230000  -0.2480000  -0.7250000  -6.1360000  -2.1960000  -2.1000000
  -7.4170000  -2.6750000  -1.3890000  -8.3180000  -3.6100000  -2.1820000
  -4.7730000  -3.3910000   0.3990000  -7.0650000  -2.2040000   1.9970000
  -7.4740000  -2.0250000   3.4070000  -8.6120000  -1.0070000   3.6520000
  -8.5720000   0.3140000   2.8400000  -7.2340000   1.0810000   2.8220000
  -6.6320000   1.0510000   4.1290000  -5.2880000   1.5770000   4.1800000
  -4.4650000   0.7570000   5.2080000  -4.2950000  -0.5900000   4.7550000
  -3.0690000   1.4060000   5.4620000  -2.3050000   0.7630000   6.6420000
  -1.9080000  -0.5680000   6.3070000  -3.2300000   2.8080000   5.7790000
  -3.8960000   3.5800000   4.7720000  -3.9630000   4.9340000   5.1730000
  -5.3350000   3.0490000   4.6480000  -6.0710000   3.8730000   3.7400000
  -5.7730000  -1.9000000   1.5640000  -4.9470000  -1.2390000   2.1750000
  -4.1470000  -1.9480000  -1.2840000  -6.3410000   0.1340000  -0.6560000
  -5.6650000  -3.0240000  -2.6430000  -6.3440000  -1.3910000  -2.8100000
  -8.0010000  -1.7830000  -1.1230000  -9.2280000  -3.8880000  -1.6490000
  -6.6010000  -1.7070000   3.9890000  -7.7790000  -3.0000000   3.8080000
  -9.5660000  -1.5020000   3.4290000  -8.6390000  -0.7700000   4.7220000
  -8.8600000   0.1020000   1.8030000  -9.3470000   0.9800000   3.2380000
  -7.4220000   2.1070000   2.4900000  -6.5710000   0.6180000   2.0830000
  -4.7940000   1.5140000   3.1990000  -5.0130000   0.7560000   6.1620000
  -4.5680000  -0.6550000   3.8100000  -2.4520000   1.3070000   4.5580000
  -1.4200000   1.3710000   6.8700000  -2.9460000   0.7630000   7.5340000
  -2.6670000  -0.9740000   5.8360000  -3.3700000   3.4950000   3.8110000
  -4.8110000   5.2190000   4.7700000  -5.7880000   3.0820000   5.6510000
  -6.9800000   3.5130000   3.7110000  -8.4710000  -4.1670000  -8.7390000
  -8.8370000  -4.0170000  -7.5860000  -9.2510000  -5.1210000  -6.6190000
 -10.0410000  -5.7290000  -7.0720000  -9.7810000  -4.3850000  -5.3590000
  -9.0780000  -5.0220000  -4.1260000  -8.1070000  -4.0900000  -3.4220000
  -8.3560000  -6.2760000  -4.6680000  -8.0630000  -5.9880000  -6.1530000
  -7.8130000  -7.1860000  -7.0590000 -10.8690000  -4.5080000  -5.2870000
  -8.9490000  -2.8080000  -6.9120000  -8.7700000  -1.5090000  -7.5990000
  -7.3040000  -1.1500000  -7.9470000  -6.2440000  -1.4150000  -6.8480000
  -6.5100000  -0.7700000  -5.4730000  -6.8830000   0.6010000  -5.6630000
  -7.0890000   1.3850000  -4.4650000  -8.5450000   1.2130000  -3.9400000
  -8.6750000  -0.0380000  -3.2550000  -8.9410000   2.3510000  -2.9550000
 -10.4400000   2.3400000  -2.5810000 -10.7030000   1.2780000  -1.6590000
  -8.6540000   3.6300000  -3.5510000  -7.2650000   3.8490000  -3.8230000
  -7.0870000   5.1530000  -4.3360000  -6.8120000   2.8420000  -4.8940000
  -5.4080000   2.9980000  -5.1330000  -9.4830000  -2.9040000  -5.6280000
  -9.7260000  -1.9660000  -4.8850000  -9.8450000  -5.3350000  -3.4040000
  -7.2170000  -3.8320000  -3.9920000  -9.0260000  -7.1370000  -4.5600000
  -7.4330000  -6.4880000  -4.1180000  -7.1600000  -5.3610000  -6.1770000
  -7.3040000  -6.9240000  -7.9870000  -9.1730000  -0.7130000  -6.9610000
  -9.3650000  -1.5150000  -8.5200000  -7.0140000  -1.7250000  -8.8350000
  -7.2650000  -0.0950000  -8.2440000  -6.1320000  -2.4980000  -6.7090000
  -5.2750000  -1.0570000  -7.2160000  -5.5960000  -0.8410000  -4.8700000
  -7.3010000  -1.3250000  -4.9620000  -6.3780000   1.1080000  -3.6740000
  -9.2300000   1.2570000  -4.8000000  -9.0070000  -0.7150000  -3.8920000
  -8.3640000   2.2460000  -2.0280000 -10.7010000   3.3030000  -2.1230000
 -11.0480000   2.2300000  -3.4890000 -10.2570000   0.4820000  -2.0120000
  -6.6730000   3.7220000  -2.9110000  -6.2540000   5.0810000  -4.8400000
  -7.3930000   3.0530000  -5.8060000  -5.1640000   2.2950000  -5.7680000
  -8.1320000 -13.2240000  -4.9060000  -7.6370000 -12.2910000  -5.5150000
  -7.9070000 -11.9210000  -6.9680000  -7.6530000 -12.7700000  -7.6150000
  -6.9690000 -10.7240000  -7.2670000  -7.8580000  -9.5860000  -7.8380000
  -8.1480000  -8.4730000  -6.8410000  -9.1580000 -10.3030000  -8.2630000
  -9.3450000 -11.4330000  -7.2310000 -10.2630000 -12.5880000  -7.5960000
  -6.2120000 -11.0250000  -8.0020000  -6.6890000 -11.4050000  -5.0180000
  -5.8980000 -11.7360000  -3.8120000  -6.5900000 -11.4640000  -2.4540000
  -7.3900000 -10.1440000  -2.3170000  -6.6970000  -8.8560000  -2.8020000
  -5.3070000  -8.8750000  -2.4280000  -4.4770000  -7.8750000  -3.0640000
  -3.0580000  -8.4750000  -3.2510000  -3.0890000  -9.5000000  -4.2480000
  -2.0090000  -7.3920000  -3.6550000  -0.5530000  -7.9070000  -3.5930000
  -0.3330000  -8.8890000  -4.6070000  -2.0970000  -6.2670000  -2.7530000
  -3.3800000  -5.6320000  -2.7340000  -3.3600000  -4.5230000  -1.8630000
  -4.3940000  -6.6300000  -2.1510000  -5.6640000  -5.9860000  -2.0160000
  -6.2540000 -10.4500000  -5.9440000  -5.3910000  -9.6060000  -5.7570000
  -7.3720000  -9.1550000  -8.7250000  -8.6630000  -8.7820000  -5.9350000
  -9.0190000 -10.7210000  -9.2680000 -10.0100000  -9.6200000  -8.2900000
  -9.7300000 -10.9720000  -6.3090000 -10.5320000 -13.2050000  -6.7360000
  -4.9640000 -11.1690000  -3.8360000  -5.6210000 -12.7970000  -3.8580000
  -7.2770000 -12.2930000  -2.2460000  -5.8260000 -11.5020000  -1.6680000
  -8.3380000 -10.2470000  -2.8600000  -7.6600000 -10.0180000  -1.2620000
  -7.2190000  -7.9950000  -2.3690000  -6.8000000  -8.7900000  -3.8900000
  -4.8740000  -7.5850000  -4.0480000  -2.7400000  -8.9050000  -2.2890000
  -3.9360000  -9.4290000  -4.7470000  -2.2100000  -7.0530000  -4.6790000
   0.1320000  -7.0600000  -3.7370000  -0.3560000  -8.3270000  -2.5990000
  -1.1350000  -9.4510000  -4.6270000  -3.6720000  -5.3150000  -3.7450000
  -4.2980000  -4.5140000  -1.5890000  -4.0120000  -6.9510000  -1.1700000
  -6.2770000  -6.6690000  -1.6820000  -9.7400000 -15.6570000 -12.9240000
  -9.4500000 -14.7740000 -12.1340000  -9.9680000 -13.3390000 -12.1640000
  -9.6300000 -12.8670000 -13.0950000  -9.2950000 -12.6460000 -10.9540000
 -10.4320000 -12.1070000 -10.0510000 -10.7080000 -12.9470000  -8.8130000
 -11.6620000 -12.0420000 -10.9810000 -11.4970000 -13.2010000 -11.9900000
 -12.1800000 -13.0350000 -13.3410000  -8.6660000 -11.8200000 -11.3100000
  -8.5350000 -14.8780000 -11.0910000  -7.4790000 -15.9150000 -11.1140000
  -7.8850000 -17.3140000 -10.5980000  -8.8040000 -17.3750000  -9.3530000
  -8.4200000 -16.4900000  -8.1490000  -6.9960000 -16.5080000  -7.9510000
  -6.4680000 -15.4780000  -7.0800000  -5.0180000 -15.1730000  -7.5460000
  -5.0570000 -14.4830000  -8.8000000  -4.2260000 -14.3220000  -6.5070000
  -2.7150000 -14.2410000  -6.8200000  -2.4980000 -13.4980000  -8.0220000
  -4.3560000 -14.9090000  -5.1940000  -5.7050000 -14.9910000  -4.7250000
  -5.7370000 -15.5200000  -3.4160000  -6.4600000 -15.9860000  -5.6210000
  -7.7890000 -16.1460000  -5.1160000  -8.3810000 -13.7070000 -10.3460000
  -7.5850000 -13.5300000  -9.4370000 -10.1750000 -11.0890000  -9.7260000
 -11.3430000 -13.8200000  -8.9570000 -11.6430000 -11.0760000 -11.4980000
 -12.6030000 -12.1120000 -10.4230000 -11.8730000 -14.1190000 -11.5160000
 -12.0340000 -13.8920000 -14.0020000  -6.6330000 -15.5660000 -10.5120000
  -7.1080000 -16.0120000 -12.1430000  -8.3930000 -17.8450000 -11.4130000
  -6.9680000 -17.8830000 -10.3950000  -9.8250000 -17.1110000  -9.6570000
  -8.8500000 -18.4170000  -9.0170000  -8.9440000 -16.8770000  -7.2710000
  -8.7730000 -15.4680000  -8.3320000  -7.0610000 -14.5530000  -7.1410000
  -4.4910000 -16.1300000  -7.6650000  -5.9690000 -14.1400000  -8.9390000
  -4.6280000 -13.2990000  -6.4900000  -2.2000000 -13.7560000  -5.9810000
  -2.3080000 -15.2570000  -6.9140000  -3.2050000 -13.7650000  -8.6460000
  -6.1810000 -14.0000000  -4.7450000  -6.6290000 -15.9150000  -3.4180000
  -5.9100000 -16.9390000  -5.5940000  -8.2590000 -16.6900000  -5.7780000
 -13.0240000  -7.0110000 -15.7990000 -12.6400000  -7.9270000 -15.0920000
 -13.3000000  -8.4190000 -13.8090000 -13.4090000  -7.5870000 -13.1050000
 -12.3360000  -9.4970000 -13.2430000 -13.1840000 -10.7630000 -12.9330000
 -12.8680000 -11.9730000 -13.7970000 -14.6560000 -10.3290000 -13.1080000
 -14.6470000  -9.1250000 -14.0640000 -15.8460000  -8.1960000 -13.9500000
 -11.8560000  -9.1250000 -12.3290000 -11.5220000  -8.7160000 -15.3160000
 -10.5620000  -8.4250000 -16.4000000 -11.0120000  -8.8850000 -17.8090000
 -11.6850000 -10.2800000 -17.9170000 -10.9290000 -11.4780000 -17.2990000
  -9.5160000 -11.2920000 -17.4720000  -8.6690000 -12.2930000 -16.8700000
  -7.4020000 -11.5700000 -16.3410000  -7.7200000 -10.8310000 -15.1570000
  -6.2380000 -12.5560000 -16.0180000  -4.8910000 -11.8380000 -15.7690000
  -4.9510000 -11.0880000 -14.5550000  -6.0370000 -13.4610000 -17.1220000
  -7.1830000 -14.2560000 -17.4470000  -6.8690000 -15.1290000 -18.5080000
  -8.2780000 -13.3100000 -17.9670000  -9.4070000 -14.0790000 -18.4040000
 -11.2550000  -9.6490000 -14.3150000 -10.2940000 -10.4000000 -14.2750000
 -13.0240000 -11.0400000 -11.8800000 -13.2850000 -11.9470000 -14.8010000
 -15.0570000 -10.0400000 -12.1280000 -15.2820000 -11.1390000 -13.5000000
 -14.6270000  -9.5350000 -15.0840000 -16.2580000  -7.8870000 -14.9110000
  -9.6060000  -8.9090000 -16.1670000 -10.3740000  -7.3440000 -16.4210000
 -11.7230000  -8.1440000 -18.1950000 -10.1450000  -8.8470000 -18.4790000
 -12.6840000 -10.2320000 -17.4660000 -11.8480000 -10.4900000 -18.9820000
 -11.2770000 -12.3970000 -17.7810000 -11.1770000 -11.5520000 -16.2370000
  -9.1660000 -12.8080000 -16.0340000  -7.0530000 -10.8820000 -17.1270000
  -8.6960000 -10.7250000 -15.0830000  -6.4910000 -13.1320000 -15.1180000
  -4.0920000 -12.5890000 -15.7080000  -4.6660000 -11.1820000 -16.6200000
  -5.8550000 -10.7100000 -14.5050000  -7.5270000 -14.8230000 -16.5720000
  -7.7170000 -15.1290000 -18.9890000  -7.8450000 -12.7460000 -18.8090000
 -10.0680000 -13.4300000 -18.7170000 -16.8240000  -4.0920000  -9.3450000
 -16.1740000  -4.9150000  -9.9640000 -16.0840000  -6.4030000  -9.6540000
 -15.6420000  -6.5290000  -8.6560000 -15.1300000  -6.9890000 -10.7180000
 -15.9020000  -8.1300000 -11.4320000 -16.4050000  -7.7410000 -12.8130000
 -17.0590000  -8.4740000 -10.4660000 -17.4300000  -7.1480000  -9.7650000
 -18.0720000  -7.2390000  -8.3880000 -14.2310000  -7.3870000 -10.2290000
 -15.3330000  -4.6510000 -11.0400000 -14.7340000  -3.3050000 -11.2000000
 -15.6150000  -2.2400000 -11.8970000 -16.3740000  -2.6760000 -13.1720000
 -15.5760000  -3.5000000 -14.2010000 -14.2660000  -2.9360000 -14.3850000
 -13.3330000  -3.7810000 -15.1000000 -11.9120000  -3.5540000 -14.5150000
 -11.8370000  -4.0910000 -13.1900000 -10.8040000  -4.2080000 -15.4000000
  -9.3760000  -3.7820000 -14.9930000  -9.0440000  -4.3250000 -13.7160000
 -10.9850000  -3.8200000 -16.7800000 -12.2520000  -4.1910000 -17.3340000
 -12.3240000  -3.8130000 -18.6880000 -13.3360000  -3.3900000 -16.5940000
 -14.6080000  -3.6330000 -17.2030000 -14.7080000  -5.7870000 -11.5670000
 -13.8880000  -5.8030000 -12.4730000 -15.2400000  -9.0040000 -11.5290000
 -17.2630000  -7.0730000 -12.8320000 -16.6900000  -9.1980000  -9.7310000
 -17.9140000  -8.9280000 -10.9840000 -18.0920000  -6.5790000 -10.4350000
 -18.2100000  -6.2640000  -7.9180000 -13.8030000  -3.3980000 -11.7670000
 -14.4560000  -2.9310000 -10.2070000 -16.3520000  -1.8730000 -11.1730000
 -14.9770000  -1.3790000 -12.1400000 -17.2540000  -3.2630000 -12.8750000
 -16.7620000  -1.7780000 -13.6670000 -16.1400000  -3.5320000 -15.1400000
 -15.5000000  -4.5260000 -13.8270000 -13.5900000  -4.8450000 -14.9960000
 -11.7230000  -2.4700000 -14.4860000 -12.5870000  -4.7180000 -13.0580000
 -10.8710000  -5.3000000 -15.3190000  -8.6650000  -4.1420000 -15.7500000
  -9.3120000  -2.6850000 -14.9750000  -9.8400000  -4.2210000 -13.1520000
 -12.4200000  -5.2720000 -17.2320000 -13.2830000  -3.6500000 -18.7620000
 -13.0680000  -2.3240000 -16.6690000 -15.2610000  -3.1820000 -16.6310000
 -22.5070000 -11.1280000  -5.9980000 -21.8730000 -10.1070000  -6.1950000
 -20.7510000  -9.5580000  -5.3180000 -21.1340000  -9.3840000  -4.3040000
 -20.3400000  -8.2180000  -5.9770000 -18.8100000  -8.2720000  -6.2280000
 -18.3840000  -8.3420000  -7.6870000 -18.3060000  -9.4960000  -5.4340000
 -19.4980000 -10.4600000  -5.3000000 -19.4500000 -11.3670000  -4.0820000
 -20.5830000  -7.3850000  -5.3040000 -22.0480000  -9.2250000  -7.2550000
 -23.2150000  -9.3210000  -8.1600000 -23.1190000 -10.3970000  -9.2690000
 -21.7320000 -10.6320000  -9.9230000 -20.9760000  -9.3860000 -10.4270000
 -21.8970000  -8.4810000 -11.0620000 -21.3780000  -7.1550000 -11.3110000
 -22.5380000  -6.1340000 -11.1830000 -22.9830000  -6.0630000  -9.8250000
 -22.1140000  -4.7120000 -11.6740000 -23.3070000  -3.7390000 -11.8050000
 -23.8480000  -3.4400000 -10.5180000 -21.4960000  -4.8010000 -12.9780000
 -20.3450000  -5.6530000 -13.0320000 -19.8020000  -5.6610000 -14.3320000
 -20.8190000  -7.0870000 -12.7470000 -19.7380000  -8.0040000 -12.9480000
 -21.2280000  -8.0970000  -7.2140000 -21.2670000  -7.1470000  -7.9790000
 -18.3590000  -7.3710000  -5.7940000 -18.2490000  -9.3400000  -8.1000000
 -17.9840000  -9.1510000  -4.4470000 -17.4420000  -9.9770000  -5.9100000
 -19.5100000 -11.0830000  -6.2050000 -19.7170000 -12.4040000  -4.2880000
 -23.3610000  -8.3500000  -8.6440000 -24.1130000  -9.5080000  -7.5570000
 -23.4440000 -11.3540000  -8.8400000 -23.8510000 -10.1560000 -10.0480000
 -21.0870000 -11.1600000  -9.2110000 -21.8700000 -11.3170000 -10.7690000
 -20.1870000  -9.7080000 -11.1160000 -20.4810000  -8.9010000  -9.5780000
 -20.5900000  -6.8900000 -10.5900000 -23.3680000  -6.4740000 -11.8240000
 -22.2840000  -6.4380000  -9.2420000 -21.3980000  -4.2810000 -10.9610000
 -22.9650000  -2.8150000 -12.2910000 -24.0730000  -4.1890000 -12.4510000
 -23.8580000  -4.2830000 -10.0170000 -19.5890000  -5.3310000 -12.3030000
 -19.4590000  -6.5760000 -14.3590000 -21.6420000  -7.3080000 -13.4450000
 -20.0910000  -8.8820000 -12.6920000 -15.8980000  -9.9280000   1.0710000
 -16.3720000 -10.6350000   0.1980000 -17.6710000 -11.4260000   0.2900000
 -17.6200000 -12.1160000   1.1430000 -17.7590000 -12.2240000  -1.0350000
 -19.1620000 -11.9430000  -1.6410000 -19.1420000 -10.9950000  -2.8250000
 -19.9660000 -11.3330000  -0.4690000 -18.9350000 -10.5410000   0.3630000
 -19.3220000 -10.2330000   1.7990000 -17.6420000 -13.2950000  -0.8240000
 -15.7980000 -10.8950000  -1.0410000 -14.3520000 -10.6770000  -1.2680000
 -13.9260000  -9.2140000  -1.5470000 -14.8290000  -8.3950000  -2.4980000
 -15.2200000  -9.0750000  -3.8230000 -14.0780000  -9.7430000  -4.3850000
 -14.3760000 -10.5960000  -5.5120000 -13.4580000 -11.8460000  -5.4360000
 -13.8450000 -12.6710000  -4.3310000 -13.5080000 -12.6810000  -6.7530000
 -12.4270000 -13.7840000  -6.8100000 -12.7150000 -14.8030000  -5.8520000
 -13.2950000 -11.8170000  -7.8910000 -14.2530000 -10.7580000  -8.0180000
 -13.9770000  -9.9900000  -9.1690000 -14.0800000  -9.8200000  -6.8140000
 -14.9390000  -8.6800000  -6.9620000 -16.5420000 -11.7650000  -1.8460000
 -16.2270000 -12.1580000  -2.9620000 -19.6230000 -12.8940000  -1.9440000
 -18.8800000  -9.9650000  -2.5940000 -20.3820000 -12.1500000   0.1380000
 -20.8010000 -10.7120000  -0.8130000 -18.7140000  -9.5960000  -0.1520000
 -18.4920000  -9.8790000   2.4130000 -14.0310000 -11.2890000  -2.1170000
 -13.8020000 -11.0420000  -0.3910000 -13.8770000  -8.6800000  -0.5890000
 -12.9020000  -9.2220000  -1.9380000 -15.7530000  -8.1380000  -1.9660000
 -14.3280000  -7.4430000  -2.7230000 -15.6260000  -8.3190000  -4.5080000
 -16.0160000  -9.7960000  -3.6180000 -15.4210000 -10.9320000  -5.5060000
 -12.4230000 -11.5010000  -5.2930000 -14.7010000 -12.3490000  -3.9650000
 -14.4920000 -13.1600000  -6.8420000 -12.4070000 -14.2150000  -7.8200000
 -11.4410000 -13.3390000  -6.6210000 -12.9940000 -14.3440000  -5.0320000
 -15.2740000 -11.1600000  -8.0670000 -14.2660000  -9.1120000  -8.8550000
 -13.0250000  -9.5060000  -6.7910000 -14.7850000  -8.1280000  -6.1680000
 -24.8960000  -8.1230000   2.9720000 -23.6980000  -8.1730000   3.1870000
 -23.0080000  -8.9980000   4.2720000 -23.3360000  -8.6490000   5.2600000
 -21.4940000  -8.7190000   4.0850000 -20.8130000 -10.0870000   3.8220000
 -20.5380000 -10.3650000   2.3530000 -21.8100000 -11.1130000   4.3990000
 -23.2100000 -10.5220000   4.1200000 -24.3400000 -11.0430000   4.9900000
 -21.0900000  -8.2600000   4.9960000 -22.7140000  -7.4780000   2.4950000
 -23.0490000  -6.3700000   1.5750000 -23.5110000  -6.8020000   0.1630000
 -22.7120000  -7.9400000  -0.5260000 -21.1790000  -7.7820000  -0.5750000
 -20.8410000  -6.4030000  -0.8050000 -19.4310000  -6.0930000  -0.7420000
 -19.2660000  -4.7000000  -0.0820000 -19.5680000  -4.7820000   1.3150000
 -17.8190000  -4.1380000  -0.2620000 -17.7010000  -2.6470000   0.1280000
 -17.8840000  -2.4900000   1.5360000 -17.4080000  -4.2480000  -1.6450000
 -17.4220000  -5.5830000  -2.1620000 -16.9600000  -5.5950000  -3.4980000
 -18.8890000  -6.0400000  -2.1850000 -19.0170000  -7.3130000  -2.8230000
 -21.4140000  -7.7010000   2.9480000 -20.4050000  -7.1420000   2.5460000
 -19.8680000 -10.1380000   4.3830000 -21.3920000 -10.7080000   1.7670000
 -21.6440000 -11.1890000   5.4820000 -21.6860000 -12.1140000   3.9640000
 -23.4650000 -10.7270000   3.0700000 -25.2950000 -10.5350000   4.8320000
 -22.1710000  -5.7210000   1.4690000 -23.8370000  -5.7600000   2.0350000
 -24.5570000  -7.1250000   0.2310000 -23.5130000  -5.9170000  -0.4870000
 -22.9470000  -8.8900000  -0.0310000 -23.0820000  -8.0370000  -1.5550000
 -20.7790000  -8.4330000  -1.3570000 -20.7550000  -8.1260000   0.3740000
 -18.8720000  -6.8340000  -0.1540000 -19.9610000  -4.0040000  -0.5720000
 -19.8930000  -5.6850000   1.5360000 -17.1260000  -4.7130000   0.3680000
 -16.7080000  -2.2760000  -0.1630000 -18.4480000  -2.0630000  -0.4270000
 -18.5880000  -3.1200000   1.7990000 -16.8070000  -6.2450000  -1.5370000
 -17.5090000  -6.3070000  -3.8760000 -19.4580000  -5.2730000  -2.7370000
 -19.9500000  -7.5580000  -2.6620000 -24.2640000 -12.0320000   5.8970000
 -23.3500000 -12.5850000   6.0980000 -25.1410000 -12.3280000   6.4710000
