%VERSION  VERSION_STAMP = V0001.000  DATE = 10/01/26  16:24:59                  
%FLAG TITLE                                                                     
%FORMAT(20a4)                                                                   
default_name                                                                    
%FLAG POINTERS                                                                  
%FORMAT(10I8)                                                                   
     556      12     274     311     656     460    1457    1079       0       0
    3476      12     311     460    1079      21      45      35      14       0
       0       0       0       0       0       0       0       0      55       0
       0
%FLAG ATOM_NAME                                                                 
%FORMAT(20a4)                                                                   
CC  HC1 HC2 O   C   C1  H   C2  C3  C4  C6  C7  C8  H1  N   C10 C11 C12 C13 O1  
C14 C15 O2  C16 C17 O3  O4  C18 O5  C19 O6  C20 O7  H2  H3  H6  H7  H8  H9  H12 
H13 H14 H15 H16 H17 H18 H19 H20 H21 H22 H23 H24 H25 H26 H27 H28 H29 H30 O   C   
C1  H   C2  C3  C4  C6  C7  C8  H1  N   C10 C11 C12 C13 O1  C14 C15 O2  C16 C17 
O3  O4  C18 O5  C19 O6  C20 O7  H2  H3  H6  H7  H8  H9  H12 H13 H14 H15 H16 H17 
H18 H19 H20 H21 H22 H23 H24 H25 H26 H27 H28 H29 H30 O   C   C1  H   C2  C3  C4  
C6  C7  C8  H1  N   C10 C11 C12 C13 O1  C14 C15 O2  C16 C17 O3  O4  C18 O5  C19 
O6  C20 O7  H2  H3  H6  H7  H8  H9  H12 H13 H14 H15 H16 H17 H18 H19 H20 H21 H22 
H23 H24 H25 H26 H27 H28 H29 H30 O   C   C1  H   C2  C3  C4  C6  C7  C8  H1  N   
C10 C11 C12 C13 O1  C14 C15 O2  C16 C17 O3  O4  C18 O5  C19 O6  C20 O7  H2  H3  
H6  H7  H8  H9  H12 H13 H14 H15 H16 H17 H18 H19 H20 H21 H22 H23 H24 H25 H26 H27 
H28 H29 H30 O   C   C1  H   C2  C3  C4  C6  C7  C8  H1  N   C10 C11 C12 C13 O1  
C14 C15 O2  C16 C17 O3  O4  C18 O5  C19 O6  C20 O7  H2  H3  H6  H7  H8  H9  H12 
H13 H14 H15 H16 H17 H18 H19 H20 H21 H22 H23 H24 H25 H26 H27 H28 H29 H30 O   C   
C1  H   C2  C3  C4  C6  C7  C8  H1  N   C10 C11 C12 C13 O1  C14 C15 O2  C16 C17 
O3  O4  C18 O5  C19 O6  C20 O7  H2  H3  H6  H7  H8  H9  H12 H13 H14 H15 H16 H17 
H18 H19 H20 H21 H22 H23 H24 H25 H26 H27 H28 H29 H30 O   C   C1  H   C2  C3  C4  
C6  C7  C8  H1  N   C10 C11 C12 C13 O1  C14 C15 O2  C16 C17 O3  O4  C18 O5  C19 
O6  C20 O7  H2  H3  H6  H7  H8  H9  H12 H13 H14 H15 H16 H17 H18 H19 H20 H21 H22 
H23 H24 H25 H26 H27 H28 H29 H30 O   C   C1  H   C2  C3  C4  C6  C7  C8  H1  N   
C10 C11 C12 C13 O1  C14 C15 O2  C16 C17 O3  O4  C18 O5  C19 O6  C20 O7  H2  H3  
H6  H7  H8  H9  H12 H13 H14 H15 H16 H17 H18 H19 H20 H21 H22 H23 H24 H25 H26 H27 
H28 H29 H30 O   C   C1  H   C2  C3  C4  C6  C7  C8  H1  N   C10 C11 C12 C13 O1  
C14 C15 O2  C16 C17 O3  O4  C18 O5  C19 O6  C20 O7  H2  H3  H6  H7  H8  H9  H12 
H13 H14 H15 H16 H17 H18 H19 H20 H21 H22 H23 H24 H25 H26 H27 H28 H29 H30 O   C   
C1  H   C2  C3  C4  C6  C7  C8  H1  N   C10 C11 C12 C13 O1  C14 C15 O2  C16 C17 
O3  O4  C18 O5  C19 O6  C20 O7  H2  H3  H6  H7  H8  H9  H12 H13 H14 H15 H16 H17 
H18 H19 H20 H21 H22 H23 H24 H25 H26 H27 H28 H29 H30 CC  HC1 HC2 
%FLAG CHARGE                                                                    
%FORMAT(5E16.8)                                                                 
 -7.32694083E+00  3.13350671E+00  3.13350671E+00 -8.31850728E+00  4.72026815E+00
  5.65802415E-02  1.47683541E+00  5.65802415E-02 -7.38968932E-01 -1.93711249E+00
 -1.49838328E+00 -7.38968932E-01 -2.99703990E+00  1.47683541E+00  1.24995867E+00
 -2.34794336E-01 -2.49153508E-01 -1.16934321E+00  3.56482855E-01 -5.08210836E+00
 -7.69053949E-01 -1.84865234E-01 -8.85550935E+00  8.11949243E-01  9.46101816E-01
 -1.08842891E+01 -5.61011772E+00  4.30228503E+00 -1.10303409E+01 -2.69453150E-01
 -1.14920757E+01  4.72026815E+00 -8.31850728E+00  1.76653354E+00  2.16713258E+00
  1.04561380E+00  1.04561380E+00  1.76653354E+00  2.16713258E+00  9.40398236E-01
  9.40398236E-01  5.66932198E-01  5.66932198E-01  6.40112954E-01  6.40112954E-01
  1.02405682E+00  1.02405682E+00  2.48758084E+00  2.73688013E+00  6.83959453E+00
  2.03167712E+00  1.63659943E+00  1.63659943E+00  6.75642795E+00  1.95532568E+00
  8.13197471E+00  2.55369134E+00  8.19646343E+00 -8.31850728E+00  4.72026815E+00
  5.65802415E-02  1.47683541E+00  5.65802415E-02 -7.38968932E-01 -2.99703990E+00
 -1.49838328E+00 -7.38968932E-01 -2.99703990E+00  1.47683541E+00  1.24995867E+00
 -2.34794336E-01 -2.49153508E-01 -1.16934321E+00  3.56482855E-01 -5.08210836E+00
 -7.69053949E-01 -1.84865234E-01 -8.85550935E+00  8.11949243E-01  9.46101816E-01
 -1.08842891E+01 -5.61011772E+00  4.30228503E+00 -1.10303409E+01 -2.69453150E-01
 -1.14920757E+01  4.72026815E+00 -8.31850728E+00  1.76653354E+00  2.16713258E+00
  1.04561380E+00  1.04561380E+00  1.76653354E+00  2.16713258E+00  9.40398236E-01
  9.40398236E-01  5.66932198E-01  5.66932198E-01  6.40112954E-01  6.40112954E-01
  1.02405682E+00  1.02405682E+00  2.48758084E+00  2.73688013E+00  6.83959453E+00
  2.03167712E+00  1.63659943E+00  1.63659943E+00  6.75642795E+00  1.95532568E+00
  8.13197471E+00  2.55369134E+00  8.19646343E+00 -8.31850728E+00  4.72026815E+00
  5.65802415E-02  1.47683541E+00  5.65802415E-02 -7.38968932E-01 -2.99703990E+00
 -1.49838328E+00 -7.38968932E-01 -2.99703990E+00  1.47683541E+00  1.24995867E+00
 -2.34794336E-01 -2.49153508E-01 -1.16934321E+00  3.56482855E-01 -5.08210836E+00
 -7.69053949E-01 -1.84865234E-01 -8.85550935E+00  8.11949243E-01  9.46101816E-01
 -1.08842891E+01 -5.61011772E+00  4.30228503E+00 -1.10303409E+01 -2.69453150E-01
 -1.14920757E+01  4.72026815E+00 -8.31850728E+00  1.76653354E+00  2.16713258E+00
  1.04561380E+00  1.04561380E+00  1.76653354E+00  2.16713258E+00  9.40398236E-01
  9.40398236E-01  5.66932198E-01  5.66932198E-01  6.40112954E-01  6.40112954E-01
  1.02405682E+00  1.02405682E+00  2.48758084E+00  2.73688013E+00  6.83959453E+00
  2.03167712E+00  1.63659943E+00  1.63659943E+00  6.75642795E+00  1.95532568E+00
  8.13197471E+00  2.55369134E+00  8.19646343E+00 -8.31850728E+00  4.72026815E+00
  5.65802415E-02  1.47683541E+00  5.65802415E-02 -7.38968932E-01 -2.99703990E+00
 -1.49838328E+00 -7.38968932E-01 -2.99703990E+00  1.47683541E+00  1.24995867E+00
 -2.34794336E-01 -2.49153508E-01 -1.16934321E+00  3.56482855E-01 -5.08210836E+00
 -7.69053949E-01 -1.84865234E-01 -8.85550935E+00  8.11949243E-01  9.46101816E-01
 -1.08842891E+01 -5.61011772E+00  4.30228503E+00 -1.10303409E+01 -2.69453150E-01
 -1.14920757E+01  4.72026815E+00 -8.31850728E+00  1.76653354E+00  2.16713258E+00
  1.04561380E+00  1.04561380E+00  1.76653354E+00  2.16713258E+00  9.40398236E-01
  9.40398236E-01  5.66932198E-01  5.66932198E-01  6.40112954E-01  6.40112954E-01
  1.02405682E+00  1.02405682E+00  2.48758084E+00  2.73688013E+00  6.83959453E+00
  2.03167712E+00  1.63659943E+00  1.63659943E+00  6.75642795E+00  1.95532568E+00
  8.13197471E+00  2.55369134E+00  8.19646343E+00 -8.31850728E+00  4.72026815E+00
  5.65802415E-02  1.47683541E+00  5.65802415E-02 -7.38968932E-01 -2.99703990E+00
 -1.49838328E+00 -7.38968932E-01 -2.99703990E+00  1.47683541E+00  1.24995867E+00
 -2.34794336E-01 -2.49153508E-01 -1.16934321E+00  3.56482855E-01 -5.08210836E+00
 -7.69053949E-01 -1.84865234E-01 -8.85550935E+00  8.11949243E-01  9.46101816E-01
 -1.08842891E+01 -5.61011772E+00  4.30228503E+00 -1.10303409E+01 -2.69453150E-01
 -1.14920757E+01  4.72026815E+00 -8.31850728E+00  1.76653354E+00  2.16713258E+00
  1.04561380E+00  1.04561380E+00  1.76653354E+00  2.16713258E+00  9.40398236E-01
  9.40398236E-01  5.66932198E-01  5.66932198E-01  6.40112954E-01  6.40112954E-01
  1.02405682E+00  1.02405682E+00  2.48758084E+00  2.73688013E+00  6.83959453E+00
  2.03167712E+00  1.63659943E+00  1.63659943E+00  6.75642795E+00  1.95532568E+00
  8.13197471E+00  2.55369134E+00  8.19646343E+00 -8.31850728E+00  4.72026815E+00
  5.65802415E-02  1.47683541E+00  5.65802415E-02 -7.38968932E-01 -2.99703990E+00
 -1.49838328E+00 -7.38968932E-01 -2.99703990E+00  1.47683541E+00  1.24995867E+00
 -2.34794336E-01 -2.49153508E-01 -1.16934321E+00  3.56482855E-01 -5.08210836E+00
 -7.69053949E-01 -1.84865234E-01 -8.85550935E+00  8.11949243E-01  9.46101816E-01
 -1.08842891E+01 -5.61011772E+00  4.30228503E+00 -1.10303409E+01 -2.69453150E-01
 -1.14920757E+01  4.72026815E+00 -8.31850728E+00  1.76653354E+00  2.16713258E+00
  1.04561380E+00  1.04561380E+00  1.76653354E+00  2.16713258E+00  9.40398236E-01
  9.40398236E-01  5.66932198E-01  5.66932198E-01  6.40112954E-01  6.40112954E-01
  1.02405682E+00  1.02405682E+00  2.48758084E+00  2.73688013E+00  6.83959453E+00
  2.03167712E+00  1.63659943E+00  1.63659943E+00  6.75642795E+00  1.95532568E+00
  8.13197471E+00  2.55369134E+00  8.19646343E+00 -8.31850728E+00  4.72026815E+00
  5.65802415E-02  1.47683541E+00  5.65802415E-02 -7.38968932E-01 -2.99703990E+00
 -1.49838328E+00 -7.38968932E-01 -2.99703990E+00  1.47683541E+00  1.24995867E+00
 -2.34794336E-01 -2.49153508E-01 -1.16934321E+00  3.56482855E-01 -5.08210836E+00
 -7.69053949E-01 -1.84865234E-01 -8.85550935E+00  8.11949243E-01  9.46101816E-01
 -1.08842891E+01 -5.61011772E+00  4.30228503E+00 -1.10303409E+01 -2.69453150E-01
 -1.14920757E+01  4.72026815E+00 -8.31850728E+00  1.76653354E+00  2.16713258E+00
  1.04561380E+00  1.04561380E+00  1.76653354E+00  2.16713258E+00  9.40398236E-01
  9.40398236E-01  5.66932198E-01  5.66932198E-01  6.40112954E-01  6.40112954E-01
  1.02405682E+00  1.02405682E+00  2.48758084E+00  2.73688013E+00  6.83959453E+00
  2.03167712E+00  1.63659943E+00  1.63659943E+00  6.75642795E+00  1.95532568E+00
  8.13197471E+00  2.55369134E+00  8.19646343E+00 -8.31850728E+00  4.72026815E+00
  5.65802415E-02  1.47683541E+00  5.65802415E-02 -7.38968932E-01 -2.99703990E+00
 -1.49838328E+00 -7.38968932E-01 -2.99703990E+00  1.47683541E+00  1.24995867E+00
 -2.34794336E-01 -2.49153508E-01 -1.16934321E+00  3.56482855E-01 -5.08210836E+00
 -7.69053949E-01 -1.84865234E-01 -8.85550935E+00  8.11949243E-01  9.46101816E-01
 -1.08842891E+01 -5.61011772E+00  4.30228503E+00 -1.10303409E+01 -2.69453150E-01
 -1.14920757E+01  4.72026815E+00 -8.31850728E+00  1.76653354E+00  2.16713258E+00
  1.04561380E+00  1.04561380E+00  1.76653354E+00  2.16713258E+00  9.40398236E-01
  9.40398236E-01  5.66932198E-01  5.66932198E-01  6.40112954E-01  6.40112954E-01
  1.02405682E+00  1.02405682E+00  2.48758084E+00  2.73688013E+00  6.83959453E+00
  2.03167712E+00  1.63659943E+00  1.63659943E+00  6.75642795E+00  1.95532568E+00
  8.13197471E+00  2.55369134E+00  8.19646343E+00 -8.31850728E+00  4.72026815E+00
  5.65802415E-02  1.47683541E+00  5.65802415E-02 -7.38968932E-01 -2.99703990E+00
 -1.49838328E+00 -7.38968932E-01 -2.99703990E+00  1.47683541E+00  1.24995867E+00
 -2.34794336E-01 -2.49153508E-01 -1.16934321E+00  3.56482855E-01 -5.08210836E+00
 -7.69053949E-01 -1.84865234E-01 -8.85550935E+00  8.11949243E-01  9.46101816E-01
 -1.08842891E+01 -5.61011772E+00  4.30228503E+00 -1.10303409E+01 -2.69453150E-01
 -1.14920757E+01  4.72026815E+00 -8.31850728E+00  1.76653354E+00  2.16713258E+00
  1.04561380E+00  1.04561380E+00  1.76653354E+00  2.16713258E+00  9.40398236E-01
  9.40398236E-01  5.66932198E-01  5.66932198E-01  6.40112954E-01  6.40112954E-01
  1.02405682E+00  1.02405682E+00  2.48758084E+00  2.73688013E+00  6.83959453E+00
  2.03167712E+00  1.63659943E+00  1.63659943E+00  6.75642795E+00  1.95532568E+00
  8.13197471E+00  2.55369134E+00  8.19646343E+00 -8.31850728E+00  4.72026815E+00
  5.65802415E-02  1.47683541E+00  5.65802415E-02 -7.38968932E-01 -2.99703990E+00
 -1.49838328E+00 -7.38968932E-01 -1.93711249E+00  1.47683541E+00  1.24995867E+00
 -2.34794336E-01 -2.49153508E-01 -1.16934321E+00  3.56482855E-01 -5.08210836E+00
 -7.69053949E-01 -1.84865234E-01 -8.85550935E+00  8.11949243E-01  9.46101816E-01
 -1.08842891E+01 -5.61011772E+00  4.30228503E+00 -1.10303409E+01 -2.69453150E-01
 -1.14920757E+01  4.72026815E+00 -8.31850728E+00  1.76653354E+00  2.16713258E+00
  1.04561380E+00  1.04561380E+00  1.76653354E+00  2.16713258E+00  9.40398236E-01
  9.40398236E-01  5.66932198E-01  5.66932198E-01  6.40112954E-01  6.40112954E-01
  1.02405682E+00  1.02405682E+00  2.48758084E+00  2.73688013E+00  6.83959453E+00
  2.03167712E+00  1.63659943E+00  1.63659943E+00  6.75642795E+00  1.95532568E+00
  8.13197471E+00  2.55369134E+00  8.19646343E+00 -7.32694083E+00  3.13350671E+00
  3.13350671E+00
%FLAG ATOMIC_NUMBER                                                             
%FORMAT(10I8)                                                                   
       6       1       1       8       6       6       1       6       6       6
       6       6       6       1       7       6       6       6       6       8
       6       6       8       6       6       8       8       6       8       6
       8       6       8       1       1       1       1       1       1       1
       1       1       1       1       1       1       1       1       1       1
       1       1       1       1       1       1       1       1       8       6
       6       1       6       6       6       6       6       6       1       7
       6       6       6       6       8       6       6       8       6       6
       8       8       6       8       6       8       6       8       1       1
       1       1       1       1       1       1       1       1       1       1
       1       1       1       1       1       1       1       1       1       1
       1       1       1       8       6       6       1       6       6       6
       6       6       6       1       7       6       6       6       6       8
       6       6       8       6       6       8       8       6       8       6
       8       6       8       1       1       1       1       1       1       1
       1       1       1       1       1       1       1       1       1       1
       1       1       1       1       1       1       1       1       8       6
       6       1       6       6       6       6       6       6       1       7
       6       6       6       6       8       6       6       8       6       6
       8       8       6       8       6       8       6       8       1       1
       1       1       1       1       1       1       1       1       1       1
       1       1       1       1       1       1       1       1       1       1
       1       1       1       8       6       6       1       6       6       6
       6       6       6       1       7       6       6       6       6       8
       6       6       8       6       6       8       8       6       8       6
       8       6       8       1       1       1       1       1       1       1
       1       1       1       1       1       1       1       1       1       1
       1       1       1       1       1       1       1       1       8       6
       6       1       6       6       6       6       6       6       1       7
       6       6       6       6       8       6       6       8       6       6
       8       8       6       8       6       8       6       8       1       1
       1       1       1       1       1       1       1       1       1       1
       1       1       1       1       1       1       1       1       1       1
       1       1       1       8       6       6       1       6       6       6
       6       6       6       1       7       6       6       6       6       8
       6       6       8       6       6       8       8       6       8       6
       8       6       8       1       1       1       1       1       1       1
       1       1       1       1       1       1       1       1       1       1
       1       1       1       1       1       1       1       1       8       6
       6       1       6       6       6       6       6       6       1       7
       6       6       6       6       8       6       6       8       6       6
       8       8       6       8       6       8       6       8       1       1
       1       1       1       1       1       1       1       1       1       1
       1       1       1       1       1       1       1       1       1       1
       1       1       1       8       6       6       1       6       6       6
       6       6       6       1       7       6       6       6       6       8
       6       6       8       6       6       8       8       6       8       6
       8       6       8       1       1       1       1       1       1       1
       1       1       1       1       1       1       1       1       1       1
       1       1       1       1       1       1       1       1       8       6
       6       1       6       6       6       6       6       6       1       7
       6       6       6       6       8       6       6       8       6       6
       8       8       6       8       6       8       6       8       1       1
       1       1       1       1       1       1       1       1       1       1
       1       1       1       1       1       1       1       1       1       1
       1       1       1       6       1       1
%FLAG MASS                                                                      
%FORMAT(5E16.8)                                                                 
  1.20100000E+01  1.00800000E+00  1.00800000E+00  1.60000000E+01  1.20100000E+01
  1.20100000E+01  1.00800000E+00  1.20100000E+01  1.20100000E+01  1.20100000E+01
  1.20100000E+01  1.20100000E+01  1.20100000E+01  1.00800000E+00  1.40100000E+01
  1.20100000E+01  1.20100000E+01  1.20100000E+01  1.20100000E+01  1.60000000E+01
  1.20100000E+01  1.20100000E+01  1.60000000E+01  1.20100000E+01  1.20100000E+01
  1.60000000E+01  1.60000000E+01  1.20100000E+01  1.60000000E+01  1.20100000E+01
  1.60000000E+01  1.20100000E+01  1.60000000E+01  1.00800000E+00  1.00800000E+00
  1.00800000E+00  1.00800000E+00  1.00800000E+00  1.00800000E+00  1.00800000E+00
  1.00800000E+00  1.00800000E+00  1.00800000E+00  1.00800000E+00  1.00800000E+00
  1.00800000E+00  1.00800000E+00  1.00800000E+00  1.00800000E+00  1.00800000E+00
  1.00800000E+00  1.00800000E+00  1.00800000E+00  1.00800000E+00  1.00800000E+00
  1.00800000E+00  1.00800000E+00  1.00800000E+00  1.60000000E+01  1.20100000E+01
  1.20100000E+01  1.00800000E+00  1.20100000E+01  1.20100000E+01  1.20100000E+01
  1.20100000E+01  1.20100000E+01  1.20100000E+01  1.00800000E+00  1.40100000E+01
  1.20100000E+01  1.20100000E+01  1.20100000E+01  1.20100000E+01  1.60000000E+01
  1.20100000E+01  1.20100000E+01  1.60000000E+01  1.20100000E+01  1.20100000E+01
  1.60000000E+01  1.60000000E+01  1.20100000E+01  1.60000000E+01  1.20100000E+01
  1.60000000E+01  1.20100000E+01  1.60000000E+01  1.00800000E+00  1.00800000E+00
  1.00800000E+00  1.00800000E+00  1.00800000E+00  1.00800000E+00  1.00800000E+00
  1.00800000E+00  1.00800000E+00  1.00800000E+00  1.00800000E+00  1.00800000E+00
  1.00800000E+00  1.00800000E+00  1.00800000E+00  1.00800000E+00  1.00800000E+00
  1.00800000E+00  1.00800000E+00  1.00800000E+00  1.00800000E+00  1.00800000E+00
  1.00800000E+00  1.00800000E+00  1.00800000E+00  1.60000000E+01  1.20100000E+01
  1.20100000E+01  1.00800000E+00  1.20100000E+01  1.20100000E+01  1.20100000E+01
  1.20100000E+01  1.20100000E+01  1.20100000E+01  1.00800000E+00  1.40100000E+01
  1.20100000E+01  1.20100000E+01  1.20100000E+01  1.20100000E+01  1.60000000E+01
  1.20100000E+01  1.20100000E+01  1.60000000E+01  1.20100000E+01  1.20100000E+01
  1.60000000E+01  1.60000000E+01  1.20100000E+01  1.60000000E+01  1.20100000E+01
  1.60000000E+01  1.20100000E+01  1.60000000E+01  1.00800000E+00  1.00800000E+00
  1.00800000E+00  1.00800000E+00  1.00800000E+00  1.00800000E+00  1.00800000E+00
  1.00800000E+00  1.00800000E+00  1.00800000E+00  1.00800000E+00  1.00800000E+00
  1.00800000E+00  1.00800000E+00  1.00800000E+00  1.00800000E+00  1.00800000E+00
  1.00800000E+00  1.00800000E+00  1.00800000E+00  1.00800000E+00  1.00800000E+00
  1.00800000E+00  1.00800000E+00  1.00800000E+00  1.60000000E+01  1.20100000E+01
  1.20100000E+01  1.00800000E+00  1.20100000E+01  1.20100000E+01  1.20100000E+01
  1.20100000E+01  1.20100000E+01  1.20100000E+01  1.00800000E+00  1.40100000E+01
  1.20100000E+01  1.20100000E+01  1.20100000E+01  1.20100000E+01  1.60000000E+01
  1.20100000E+01  1.20100000E+01  1.60000000E+01  1.20100000E+01  1.20100000E+01
  1.60000000E+01  1.60000000E+01  1.20100000E+01  1.60000000E+01  1.20100000E+01
  1.60000000E+01  1.20100000E+01  1.60000000E+01  1.00800000E+00  1.00800000E+00
  1.00800000E+00  1.00800000E+00  1.00800000E+00  1.00800000E+00  1.00800000E+00
  1.00800000E+00  1.00800000E+00  1.00800000E+00  1.00800000E+00  1.00800000E+00
  1.00800000E+00  1.00800000E+00  1.00800000E+00  1.00800000E+00  1.00800000E+00
  1.00800000E+00  1.00800000E+00  1.00800000E+00  1.00800000E+00  1.00800000E+00
  1.00800000E+00  1.00800000E+00  1.00800000E+00  1.60000000E+01  1.20100000E+01
  1.20100000E+01  1.00800000E+00  1.20100000E+01  1.20100000E+01  1.20100000E+01
  1.20100000E+01  1.20100000E+01  1.20100000E+01  1.00800000E+00  1.40100000E+01
  1.20100000E+01  1.20100000E+01  1.20100000E+01  1.20100000E+01  1.60000000E+01
  1.20100000E+01  1.20100000E+01  1.60000000E+01  1.20100000E+01  1.20100000E+01
  1.60000000E+01  1.60000000E+01  1.20100000E+01  1.60000000E+01  1.20100000E+01
  1.60000000E+01  1.20100000E+01  1.60000000E+01  1.00800000E+00  1.00800000E+00
  1.00800000E+00  1.00800000E+00  1.00800000E+00  1.00800000E+00  1.00800000E+00
  1.00800000E+00  1.00800000E+00  1.00800000E+00  1.00800000E+00  1.00800000E+00
  1.00800000E+00  1.00800000E+00  1.00800000E+00  1.00800000E+00  1.00800000E+00
  1.00800000E+00  1.00800000E+00  1.00800000E+00  1.00800000E+00  1.00800000E+00
  1.00800000E+00  1.00800000E+00  1.00800000E+00  1.60000000E+01  1.20100000E+01
  1.20100000E+01  1.00800000E+00  1.20100000E+01  1.20100000E+01  1.20100000E+01
  1.20100000E+01  1.20100000E+01  1.20100000E+01  1.00800000E+00  1.40100000E+01
  1.20100000E+01  1.20100000E+01  1.20100000E+01  1.20100000E+01  1.60000000E+01
  1.20100000E+01  1.20100000E+01  1.60000000E+01  1.20100000E+01  1.20100000E+01
  1.60000000E+01  1.60000000E+01  1.20100000E+01  1.60000000E+01  1.20100000E+01
  1.60000000E+01  1.20100000E+01  1.60000000E+01  1.00800000E+00  1.00800000E+00
  1.00800000E+00  1.00800000E+00  1.00800000E+00  1.00800000E+00  1.00800000E+00
  1.00800000E+00  1.00800000E+00  1.00800000E+00  1.00800000E+00  1.00800000E+00
  1.00800000E+00  1.00800000E+00  1.00800000E+00  1.00800000E+00  1.00800000E+00
  1.00800000E+00  1.00800000E+00  1.00800000E+00  1.00800000E+00  1.00800000E+00
  1.00800000E+00  1.00800000E+00  1.00800000E+00  1.60000000E+01  1.20100000E+01
  1.20100000E+01  1.00800000E+00  1.20100000E+01  1.20100000E+01  1.20100000E+01
  1.20100000E+01  1.20100000E+01  1.20100000E+01  1.00800000E+00  1.40100000E+01
  1.20100000E+01  1.20100000E+01  1.20100000E+01  1.20100000E+01  1.60000000E+01
  1.20100000E+01  1.20100000E+01  1.60000000E+01  1.20100000E+01  1.20100000E+01
  1.60000000E+01  1.60000000E+01  1.20100000E+01  1.60000000E+01  1.20100000E+01
  1.60000000E+01  1.20100000E+01  1.60000000E+01  1.00800000E+00  1.00800000E+00
  1.00800000E+00  1.00800000E+00  1.00800000E+00  1.00800000E+00  1.00800000E+00
  1.00800000E+00  1.00800000E+00  1.00800000E+00  1.00800000E+00  1.00800000E+00
  1.00800000E+00  1.00800000E+00  1.00800000E+00  1.00800000E+00  1.00800000E+00
  1.00800000E+00  1.00800000E+00  1.00800000E+00  1.00800000E+00  1.00800000E+00
  1.00800000E+00  1.00800000E+00  1.00800000E+00  1.60000000E+01  1.20100000E+01
  1.20100000E+01  1.00800000E+00  1.20100000E+01  1.20100000E+01  1.20100000E+01
  1.20100000E+01  1.20100000E+01  1.20100000E+01  1.00800000E+00  1.40100000E+01
  1.20100000E+01  1.20100000E+01  1.20100000E+01  1.20100000E+01  1.60000000E+01
  1.20100000E+01  1.20100000E+01  1.60000000E+01  1.20100000E+01  1.20100000E+01
  1.60000000E+01  1.60000000E+01  1.20100000E+01  1.60000000E+01  1.20100000E+01
  1.60000000E+01  1.20100000E+01  1.60000000E+01  1.00800000E+00  1.00800000E+00
  1.00800000E+00  1.00800000E+00  1.00800000E+00  1.00800000E+00  1.00800000E+00
  1.00800000E+00  1.00800000E+00  1.00800000E+00  1.00800000E+00  1.00800000E+00
  1.00800000E+00  1.00800000E+00  1.00800000E+00  1.00800000E+00  1.00800000E+00
  1.00800000E+00  1.00800000E+00  1.00800000E+00  1.00800000E+00  1.00800000E+00
  1.00800000E+00  1.00800000E+00  1.00800000E+00  1.60000000E+01  1.20100000E+01
  1.20100000E+01  1.00800000E+00  1.20100000E+01  1.20100000E+01  1.20100000E+01
  1.20100000E+01  1.20100000E+01  1.20100000E+01  1.00800000E+00  1.40100000E+01
  1.20100000E+01  1.20100000E+01  1.20100000E+01  1.20100000E+01  1.60000000E+01
  1.20100000E+01  1.20100000E+01  1.60000000E+01  1.20100000E+01  1.20100000E+01
  1.60000000E+01  1.60000000E+01  1.20100000E+01  1.60000000E+01  1.20100000E+01
  1.60000000E+01  1.20100000E+01  1.60000000E+01  1.00800000E+00  1.00800000E+00
  1.00800000E+00  1.00800000E+00  1.00800000E+00  1.00800000E+00  1.00800000E+00
  1.00800000E+00  1.00800000E+00  1.00800000E+00  1.00800000E+00  1.00800000E+00
  1.00800000E+00  1.00800000E+00  1.00800000E+00  1.00800000E+00  1.00800000E+00
  1.00800000E+00  1.00800000E+00  1.00800000E+00  1.00800000E+00  1.00800000E+00
  1.00800000E+00  1.00800000E+00  1.00800000E+00  1.60000000E+01  1.20100000E+01
  1.20100000E+01  1.00800000E+00  1.20100000E+01  1.20100000E+01  1.20100000E+01
  1.20100000E+01  1.20100000E+01  1.20100000E+01  1.00800000E+00  1.40100000E+01
  1.20100000E+01  1.20100000E+01  1.20100000E+01  1.20100000E+01  1.60000000E+01
  1.20100000E+01  1.20100000E+01  1.60000000E+01  1.20100000E+01  1.20100000E+01
  1.60000000E+01  1.60000000E+01  1.20100000E+01  1.60000000E+01  1.20100000E+01
  1.60000000E+01  1.20100000E+01  1.60000000E+01  1.00800000E+00  1.00800000E+00
  1.00800000E+00  1.00800000E+00  1.00800000E+00  1.00800000E+00  1.00800000E+00
  1.00800000E+00  1.00800000E+00  1.00800000E+00  1.00800000E+00  1.00800000E+00
  1.00800000E+00  1.00800000E+00  1.00800000E+00  1.00800000E+00  1.00800000E+00
  1.00800000E+00  1.00800000E+00  1.00800000E+00  1.00800000E+00  1.00800000E+00
  1.00800000E+00  1.00800000E+00  1.00800000E+00  1.20100000E+01  1.00800000E+00
  1.00800000E+00
%FLAG ATOM_TYPE_INDEX                                                           
%FORMAT(10I8)                                                                   
       1       2       2       3       1       4       5       4       4       1
       4       4       1       5       6       7       7       7       7       8
       4       4       9       4       7       9       8       4       9       4
       9       1       3       5       2       5       5       5       2      10
      10       5       5       5       5      10      10      10      10      11
      10      10      10      11      12      11      10      11       3       1
       4       5       4       4       1       4       4       1       5       6
       7       7       7       7       8       4       4       9       4       7
       9       8       4       9       4       9       1       3       5       2
       5       5       5       2      10      10       5       5       5       5
      10      10      10      10      11      10      10      10      11      12
      11      10      11       3       1       4       5       4       4       1
       4       4       1       5       6       7       7       7       7       8
       4       4       9       4       7       9       8       4       9       4
       9       1       3       5       2       5       5       5       2      10
      10       5       5       5       5      10      10      10      10      11
      10      10      10      11      12      11      10      11       3       1
       4       5       4       4       1       4       4       1       5       6
       7       7       7       7       8       4       4       9       4       7
       9       8       4       9       4       9       1       3       5       2
       5       5       5       2      10      10       5       5       5       5
      10      10      10      10      11      10      10      10      11      12
      11      10      11       3       1       4       5       4       4       1
       4       4       1       5       6       7       7       7       7       8
       4       4       9       4       7       9       8       4       9       4
       9       1       3       5       2       5       5       5       2      10
      10       5       5       5       5      10      10      10      10      11
      10      10      10      11      12      11      10      11       3       1
       4       5       4       4       1       4       4       1       5       6
       7       7       7       7       8       4       4       9       4       7
       9       8       4       9       4       9       1       3       5       2
       5       5       5       2      10      10       5       5       5       5
      10      10      10      10      11      10      10      10      11      12
      11      10      11       3       1       4       5       4       4       1
       4       4       1       5       6       7       7       7       7       8
       4       4       9       4       7       9       8       4       9       4
       9       1       3       5       2       5       5       5       2      10
      10       5       5       5       5      10      10      10      10      11
      10      10      10      11      12      11      10      11       3       1
       4       5       4       4       1       4       4       1       5       6
       7       7       7       7       8       4       4       9       4       7
       9       8       4       9       4       9       1       3       5       2
       5       5       5       2      10      10       5       5       5       5
      10      10      10      10      11      10      10      10      11      12
      11      10      11       3       1       4       5       4       4       1
       4       4       1       5       6       7       7       7       7       8
       4       4       9       4       7       9       8       4       9       4
       9       1       3       5       2       5       5       5       2      10
      10       5       5       5       5      10      10      10      10      11
      10      10      10      11      12      11      10      11       3       1
       4       5       4       4       1       4       4       1       5       6
       7       7       7       7       8       4       4       9       4       7
       9       8       4       9       4       9       1       3       5       2
       5       5       5       2      10      10       5       5       5       5
      10      10      10      10      11      10      10      10      11      12
      11      10      11       1       2       2
%FLAG NUMBER_EXCLUDED_ATOMS                                                     
%FORMAT(10I8)                                                                   
       8       4       3       8      16      18       9      15      13       8
      11      12      10       4       9      11      12      11      11      14
      18      15       8      14       8       5      11       9       5       7
       4       4       1       3       1       2       1       2       3       3
       2       3       2       3       2       1       1       2       2       1
       2       2       1       1       2       1       1       1       8      16
      18       9      15      13       8      11      12      10       4       9
      11      12      11      11      14      18      15       8      14       8
       5      11       9       5       7       4       4       1       3       1
       2       1       2       3       3       2       3       2       3       2
       1       1       2       2       1       2       2       1       1       2
       1       1       1       8      16      18       9      15      13       8
      11      12      10       4       9      11      12      11      11      14
      18      15       8      14       8       5      11       9       5       7
       4       4       1       3       1       2       1       2       3       3
       2       3       2       3       2       1       1       2       2       1
       2       2       1       1       2       1       1       1       8      16
      18       9      15      13       8      11      12      10       4       9
      11      12      11      11      14      18      15       8      14       8
       5      11       9       5       7       4       4       1       3       1
       2       1       2       3       3       2       3       2       3       2
       1       1       2       2       1       2       2       1       1       2
       1       1       1       8      16      18       9      15      13       8
      11      12      10       4       9      11      12      11      11      14
      18      15       8      14       8       5      11       9       5       7
       4       4       1       3       1       2       1       2       3       3
       2       3       2       3       2       1       1       2       2       1
       2       2       1       1       2       1       1       1       8      16
      18       9      15      13       8      11      12      10       4       9
      11      12      11      11      14      18      15       8      14       8
       5      11       9       5       7       4       4       1       3       1
       2       1       2       3       3       2       3       2       3       2
       1       1       2       2       1       2       2       1       1       2
       1       1       1       8      16      18       9      15      13       8
      11      12      10       4       9      11      12      11      11      14
      18      15       8      14       8       5      11       9       5       7
       4       4       1       3       1       2       1       2       3       3
       2       3       2       3       2       1       1       2       2       1
       2       2       1       1       2       1       1       1       8      16
      18       9      15      13       8      11      12      10       4       9
      11      12      11      11      14      18      15       8      14       8
       5      11       9       5       7       4       4       1       3       1
       2       1       2       3       3       2       3       2       3       2
       1       1       2       2       1       2       2       1       1       2
       1       1       1       8      16      18       9      15      13       8
      11      12      10       4       9      11      12      11      11      14
      18      15       8      14       8       5      11       9       5       7
       4       4       1       3       1       2       1       2       3       3
       2       3       2       3       2       1       1       2       2       1
       2       2       1       1       2       1       1       1       8      16
      18       9      15      13       8      11      12       7       4       9
      11      12      11      11      14      18      15       8      14       8
       5      11       9       5       7       4       4       1       3       1
       2       1       2       3       3       2       3       2       3       2
       1       1       2       2       1       2       2       1       1       2
       1       1       1       2       1       1
%FLAG NONBONDED_PARM_INDEX                                                      
%FORMAT(10I8)                                                                   
       1       2       4       7      11      16      22      29      37      46
      56      67       2       3       5       8      12      17      23      30
      38      47      57      68       4       5       6       9      13      18
      24      31      39      48      58      69       7       8       9      10
      14      19      25      32      40      49      59      70      11      12
      13      14      15      20      26      33      41      50      60      71
      16      17      18      19      20      21      27      34      42      51
      61      72      22      23      24      25      26      27      28      35
      43      52      62      73      29      30      31      32      33      34
      35      36      44      53      63      74      37      38      39      40
      41      42      43      44      45      54      64      75      46      47
      48      49      50      51      52      53      54      55      65      76
      56      57      58      59      60      61      62      63      64      65
      66      77      67      68      69      70      71      72      73      74
      75      76      77      78
%FLAG RESIDUE_LABEL                                                             
%FORMAT(20a4)                                                                   
CPH MNF MON MON MON MON MON MON MON MON MNL CPT 
%FLAG RESIDUE_POINTER                                                           
%FORMAT(10I8)                                                                   
       1       4      59     114     169     224     279     334     389     444
     499     554
%FLAG BOND_FORCE_CONSTANT                                                       
%FORMAT(5E16.8)                                                                 
  3.57290000E+02  4.36000000E+02  5.90600000E+02  5.35510000E+02  3.16700000E+02
  3.30600000E+02  3.31700000E+02  3.00900000E+02  3.08600000E+02  3.44220000E+02
  2.85150000E+02  3.00900000E+02  2.82270000E+02  3.45250000E+02  2.28890000E+02
  3.17460000E+02  2.54460000E+02  3.30600000E+02  3.26800000E+02  3.00900000E+02
  3.13000000E+02
%FLAG BOND_EQUIL_VALUE                                                          
%FORMAT(5E16.8)                                                                 
  1.08820000E+00  1.33790000E+00  1.21900000E+00  9.72500000E-01  1.42300000E+00
  1.09700000E+00  1.09600000E+00  1.53800000E+00  1.43200000E+00  1.09690000E+00
  1.42420000E+00  1.53800000E+00  1.42730000E+00  1.09620000E+00  1.53540000E+00
  1.39670000E+00  1.46430000E+00  1.09700000E+00  1.51000000E+00  1.53800000E+00
  1.52400000E+00
%FLAG ANGLE_FORCE_CONSTANT                                                      
%FORMAT(5E16.8)                                                                 
  4.63700000E+01  3.46600000E+01  6.41000000E+01  3.56400000E+01  3.58000000E+01
  3.94000000E+01  5.09000000E+01  4.74000000E+01  4.62000000E+01  4.64000000E+01
  5.11000000E+01  6.75000000E+01  7.26000000E+01  5.09000000E+01  6.80000000E+01
  5.08000000E+01  5.62900000E+01  6.80000000E+01  4.64000000E+01  6.51300000E+01
  6.27000000E+01  4.64000000E+01  6.75000000E+01  6.29000000E+01  6.29000000E+01
  5.62000000E+01  6.27000000E+01  4.32700000E+01  4.32800000E+01  7.74400000E+01
  5.98700000E+01  7.72400000E+01  8.66800000E+01  6.49500000E+01  4.80900000E+01
  4.69000000E+01  4.70000000E+01  4.63000000E+01  4.59000000E+01  6.34000000E+01
  6.29000000E+01  6.33000000E+01  6.74000000E+01  6.68000000E+01  7.71500000E+01
%FLAG ANGLE_EQUIL_VALUE                                                         
%FORMAT(5E16.8)                                                                 
  2.10120279E+00  2.03610198E+00  2.15775148E+00  1.89455572E+00  1.88024401E+00
  1.87762601E+00  1.92440086E+00  1.87204096E+00  1.92370273E+00  1.91218355E+00
  1.90991462E+00  1.92317913E+00  1.90904195E+00  1.91253261E+00  1.88443280E+00
  1.91602327E+00  1.92649525E+00  1.88443280E+00  1.91218355E+00  1.87430989E+00
  1.96314718E+00  1.91218355E+00  1.92317913E+00  1.94621748E+00  1.94621748E+00
  1.92579712E+00  1.96314718E+00  1.91427794E+00  1.91270715E+00  1.87832415E+00
  1.96576518E+00  2.07397564E+00  2.13925098E+00  1.96838317E+00  1.89822091E+00
  1.89839544E+00  1.92614619E+00  1.91637234E+00  2.01899774E+00  1.94709015E+00
  1.94621748E+00  1.93801443E+00  2.15024656E+00  2.01027109E+00  2.18532769E+00
%FLAG DIHEDRAL_FORCE_CONSTANT                                                   
%FORMAT(5E16.8)                                                                 
  6.65000000E+00  0.00000000E+00  1.15000000E+00  3.80000000E-01  1.66666667E-01
  1.55555556E-01  1.23000000E-01  1.20000000E-01  1.50000000E-01  0.00000000E+00
  2.50000000E-01  0.00000000E+00  1.60000000E-01  1.17500000E+00  1.44000000E-01
  3.83333333E-01  1.00000000E-01  3.83000000E-01  2.00000000E-01  2.50000000E-01
  1.80000000E-01  1.30000000E-01  2.26000000E+00  3.00000000E-02  6.50000000E-01
  5.20000000E-01  2.50000000E+00  1.00000000E-01  8.00000000E-01  8.00000000E-02
  7.00000000E-02  1.00000000E-01  1.50000000E+00  1.10000000E+00  1.05000000E+01
%FLAG DIHEDRAL_PERIODICITY                                                      
%FORMAT(5E16.8)                                                                 
  2.00000000E+00  2.00000000E+00  1.00000000E+00  3.00000000E+00  3.00000000E+00
  3.00000000E+00  3.00000000E+00  3.00000000E+00  3.00000000E+00  2.00000000E+00
  1.00000000E+00  3.00000000E+00  3.00000000E+00  2.00000000E+00  3.00000000E+00
  3.00000000E+00  2.00000000E+00  3.00000000E+00  1.00000000E+00  2.00000000E+00
  3.00000000E+00  3.00000000E+00  1.00000000E+00  3.00000000E+00  4.00000000E+00
  3.00000000E+00  2.00000000E+00  3.00000000E+00  1.00000000E+00  3.00000000E+00
  2.00000000E+00  4.00000000E+00  1.00000000E+00  2.00000000E+00  2.00000000E+00
%FLAG DIHEDRAL_PHASE                                                            
%FORMAT(5E16.8)                                                                 
  3.14159400E+00  0.00000000E+00  0.00000000E+00  3.14159400E+00  0.00000000E+00
  0.00000000E+00  0.00000000E+00  0.00000000E+00  0.00000000E+00  3.14159400E+00
  0.00000000E+00  0.00000000E+00  0.00000000E+00  0.00000000E+00  0.00000000E+00
  0.00000000E+00  3.14159400E+00  0.00000000E+00  3.14159400E+00  3.14159400E+00
  0.00000000E+00  0.00000000E+00  0.00000000E+00  3.14159400E+00  3.14159400E+00
  0.00000000E+00  3.14159400E+00  0.00000000E+00  0.00000000E+00  3.14159400E+00
  0.00000000E+00  0.00000000E+00  3.14159400E+00  3.14159400E+00  3.14159400E+00
%FLAG SCEE_SCALE_FACTOR                                                         
%FORMAT(5E16.8)                                                                 
  1.20000000E+00  1.20000000E+00  1.20000000E+00  1.20000000E+00  1.20000000E+00
  1.20000000E+00  1.20000000E+00  1.20000000E+00  1.20000000E+00  1.20000000E+00
  1.20000000E+00  1.20000000E+00  1.20000000E+00  1.20000000E+00  1.20000000E+00
  1.20000000E+00  1.20000000E+00  1.20000000E+00  1.20000000E+00  1.20000000E+00
  1.20000000E+00  1.20000000E+00  1.20000000E+00  1.20000000E+00  1.20000000E+00
  1.20000000E+00  1.20000000E+00  1.20000000E+00  1.20000000E+00  1.20000000E+00
  1.20000000E+00  1.20000000E+00  1.20000000E+00  0.00000000E+00  0.00000000E+00
%FLAG SCNB_SCALE_FACTOR                                                         
%FORMAT(5E16.8)                                                                 
  2.00000000E+00  2.00000000E+00  2.00000000E+00  2.00000000E+00  2.00000000E+00
  2.00000000E+00  2.00000000E+00  2.00000000E+00  2.00000000E+00  2.00000000E+00
  2.00000000E+00  2.00000000E+00  2.00000000E+00  2.00000000E+00  2.00000000E+00
  2.00000000E+00  2.00000000E+00  2.00000000E+00  2.00000000E+00  2.00000000E+00
  2.00000000E+00  2.00000000E+00  2.00000000E+00  2.00000000E+00  2.00000000E+00
  2.00000000E+00  2.00000000E+00  2.00000000E+00  2.00000000E+00  2.00000000E+00
  2.00000000E+00  2.00000000E+00  2.00000000E+00  0.00000000E+00  0.00000000E+00
%FLAG SOLTY                                                                     
%FORMAT(5E16.8)                                                                 
  0.00000000E+00  0.00000000E+00  0.00000000E+00  0.00000000E+00  0.00000000E+00
  0.00000000E+00  0.00000000E+00  0.00000000E+00  0.00000000E+00  0.00000000E+00
  0.00000000E+00  0.00000000E+00  0.00000000E+00  0.00000000E+00
%FLAG LENNARD_JONES_ACOEF                                                       
%FORMAT(5E16.8)                                                                 
  6.96551276E+05  7.52549148E+04  6.90855956E+03  5.17507491E+05  5.27277400E+04
  3.76435470E+05  8.53193737E+05  9.38067954E+04  6.37913494E+05  1.04308023E+06
  8.12662403E+04  7.41026906E+03  5.68021765E+04  1.01372942E+05  7.94617769E+03
  7.01106848E+05  7.35931098E+04  5.15491878E+05  8.61458248E+05  7.93773615E+04
  7.02078680E+05  8.43969952E+05  9.27554496E+04  6.30925504E+05  1.03184851E+06
  1.00235148E+05  8.52084164E+05  1.02073671E+06  4.46121722E+05  4.65732396E+04
  3.27367585E+05  5.48478208E+05  5.02224902E+04  4.46307018E+05  5.42502534E+05
  2.83662575E+05  5.92438683E+05  6.30298721E+04  4.37717034E+05  7.26877088E+05
  6.80216136E+04  5.94682930E+05  7.18991463E+05  3.78207390E+05  5.03152404E+05
  5.63013422E+04  4.88692384E+03  3.86646725E+04  7.06006146E+04  5.22955465E+03
  5.45183252E+04  6.97998263E+04  3.44374471E+04  4.69084694E+04  3.39005767E+03
  2.25372434E+02  8.53132435E+00  1.15813907E+02  3.07630260E+02  8.80612241E+00
  1.89434762E+02  3.03553352E+02  1.16469347E+02  1.74176419E+02  4.36660257E+00
  1.10360882E-05  3.85565555E+04  3.17496391E+03  2.59855087E+04  4.86195279E+04
  3.39005767E+03  3.69926172E+04  4.80619274E+04  2.33261683E+04  3.19666529E+04
  2.16218723E+03  2.07292270E+00  1.35510742E+03
%FLAG LENNARD_JONES_BCOEF                                                       
%FORMAT(5E16.8)                                                                 
  5.24668528E+02  1.09570372E+02  2.10929191E+01  4.98871431E+02  1.01173582E+02
  4.69350655E+02  5.95658566E+02  1.25489661E+02  5.68167388E+02  6.75612247E+02
  1.21392023E+02  2.32899892E+01  1.11953944E+02  1.39078880E+02  2.57122925E+01
  5.97113873E+02  1.22913863E+02  5.64804067E+02  6.78964813E+02  1.36094315E+02
  6.77820248E+02  5.90251928E+02  1.24325688E+02  5.62969425E+02  6.69494459E+02
  1.37787728E+02  6.72777963E+02  6.63431737E+02  3.88758656E+02  7.98066064E+01
  3.67361018E+02  4.42179058E+02  8.83545880E+01  4.41089616E+02  4.38146883E+02
  2.87011518E+02  4.76608379E+02  9.87712192E+01  4.51916854E+02  5.41546250E+02
  1.09393126E+02  5.41675626E+02  5.36620538E+02  3.52573684E+02  4.32634597E+02
  1.01040256E+02  1.89134207E+01  9.23664132E+01  1.16065835E+02  2.08590256E+01
  1.12788003E+02  1.14981426E+02  7.31636661E+01  9.08431526E+01  1.67944276E+01
  4.40751799E+00  5.44840215E-01  3.48534600E+00  5.28230309E+00  5.90150328E-01
  4.58384710E+00  5.22789272E+00  2.93355636E+00  3.81654050E+00  4.15568027E-01
  4.55498033E-04  8.36149973E+01  1.52447987E+01  7.57220777E+01  9.63175726E+01
  1.67944276E+01  9.29071597E+01  9.54115851E+01  6.02145835E+01  7.49920368E+01
  1.34124560E+01  2.86326700E-01  1.06181419E+01
%FLAG BONDS_INC_HYDROGEN                                                        
%FORMAT(10I8)                                                                   
       0       3       1       0       6       1      90     171       4      87
     168       6      84     165       4      81     162       7      75     159
       4      72     153      10      72     156      10      69     150       6
      66     147       4      63     144       6      60     141       6      54
     135      10      54     138      10      51     132      14      51     129
      14      48     126      14      48     123      14      45     117      10
      45     120      10      36     114       1      33     111      18      30
     108      18      30     105      18      27     102       1      24      99
      18      21      39      18      15      18      18     255     336       4
     252     333       6     249     330       4     246     327       7     240
     324       4     237     318      10     237     321      10     234     315
       6     231     312       4     228     309       6     225     306       6
     219     300      10     219     303      10     216     297      14     216
     294      14     213     291      14     213     288      14     210     282
      10     210     285      10     201     279       1     198     276      18
     195     273      18     195     270      18     192     267       1     189
     264      18     186     204      18     180     183      18     420     501
       4     417     498       6     414     495       4     411     492       7
     405     489       4     402     483      10     402     486      10     399
     480       6     396     477       4     393     474       6     390     471
       6     384     465      10     384     468      10     381     462      14
     381     459      14     378     456      14     378     453      14     375
     447      10     375     450      10     366     444       1     363     441
      18     360     438      18     360     435      18     357     432       1
     354     429      18     351     369      18     345     348      18     585
     666       4     582     663       6     579     660       4     576     657
       7     570     654       4     567     648      10     567     651      10
     564     645       6     561     642       4     558     639       6     555
     636       6     549     630      10     549     633      10     546     627
      14     546     624      14     543     621      14     543     618      14
     540     612      10     540     615      10     531     609       1     528
     606      18     525     603      18     525     600      18     522     597
       1     519     594      18     516     534      18     510     513      18
     750     831       4     747     828       6     744     825       4     741
     822       7     735     819       4     732     813      10     732     816
      10     729     810       6     726     807       4     723     804       6
     720     801       6     714     795      10     714     798      10     711
     792      14     711     789      14     708     786      14     708     783
      14     705     777      10     705     780      10     696     774       1
     693     771      18     690     768      18     690     765      18     687
     762       1     684     759      18     681     699      18     675     678
      18     915     996       4     912     993       6     909     990       4
     906     987       7     900     984       4     897     978      10     897
     981      10     894     975       6     891     972       4     888     969
       6     885     966       6     879     960      10     879     963      10
     876     957      14     876     954      14     873     951      14     873
     948      14     870     942      10     870     945      10     861     939
       1     858     936      18     855     933      18     855     930      18
     852     927       1     849     924      18     846     864      18     840
     843      18    1080    1161       4    1077    1158       6    1074    1155
       4    1071    1152       7    1065    1149       4    1062    1143      10
    1062    1146      10    1059    1140       6    1056    1137       4    1053
    1134       6    1050    1131       6    1044    1125      10    1044    1128
      10    1041    1122      14    1041    1119      14    1038    1116      14
    1038    1113      14    1035    1107      10    1035    1110      10    1026
    1104       1    1023    1101      18    1020    1098      18    1020    1095
      18    1017    1092       1    1014    1089      18    1011    1029      18
    1005    1008      18    1245    1326       4    1242    1323       6    1239
    1320       4    1236    1317       7    1230    1314       4    1227    1308
      10    1227    1311      10    1224    1305       6    1221    1302       4
    1218    1299       6    1215    1296       6    1209    1290      10    1209
    1293      10    1206    1287      14    1206    1284      14    1203    1281
      14    1203    1278      14    1200    1272      10    1200    1275      10
    1191    1269       1    1188    1266      18    1185    1263      18    1185
    1260      18    1182    1257       1    1179    1254      18    1176    1194
      18    1170    1173      18    1410    1491       4    1407    1488       6
    1404    1485       4    1401    1482       7    1395    1479       4    1392
    1473      10    1392    1476      10    1389    1470       6    1386    1467
       4    1383    1464       6    1380    1461       6    1374    1455      10
    1374    1458      10    1371    1452      14    1371    1449      14    1368
    1446      14    1368    1443      14    1365    1437      10    1365    1440
      10    1356    1434       1    1353    1431      18    1350    1428      18
    1350    1425      18    1347    1422       1    1344    1419      18    1341
    1359      18    1335    1338      18    1575    1656       4    1572    1653
       6    1569    1650       4    1566    1647       7    1560    1644       4
    1557    1638      10    1557    1641      10    1554    1635       6    1551
    1632       4    1548    1629       6    1545    1626       6    1539    1620
      10    1539    1623      10    1536    1617      14    1536    1614      14
    1533    1611      14    1533    1608      14    1530    1602      10    1530
    1605      10    1521    1599       1    1518    1596      18    1515    1593
      18    1515    1590      18    1512    1587       1    1509    1584      18
    1506    1524      18    1500    1503      18    1659    1662       1    1659
    1665       1
%FLAG BONDS_WITHOUT_HYDROGEN                                                    
%FORMAT(10I8)                                                                   
       0      27       2      93      96       3      87      90       5      81
      84       5      81      87       8      78      81       9      72      75
      11      69      78       9      69      72      12      63      69       8
      63      66       5      60      87       8      60      63       8      57
      60       9      54      57      13      51      54      15      48      51
      15      45      48      15      42      93      16      42      45      17
      36     192       2      33      36      19      30      33      20      24
      27      19      24      30      20      21      24      20      21      93
      21      15      33      20      15      21      20      12      15      21
      12      42      16       9      12       3     258     261       3     252
     255       5     246     249       5     246     252       8     243     246
       9     237     240      11     234     243       9     234     237      12
     228     234       8     228     231       5     225     252       8     225
     228       8     222     225       9     219     222      13     216     219
      15     213     216      15     210     213      15     207     258      16
     207     210      17     201     357       2     198     201      19     195
     198      20     189     192      19     189     195      20     186     189
      20     186     258      21     180     198      20     180     186      20
     177     180      21     177     207      16     174     177       3     423
     426       3     417     420       5     411     414       5     411     417
       8     408     411       9     402     405      11     399     408       9
     399     402      12     393     399       8     393     396       5     390
     417       8     390     393       8     387     390       9     384     387
      13     381     384      15     378     381      15     375     378      15
     372     423      16     372     375      17     366     522       2     363
     366      19     360     363      20     354     357      19     354     360
      20     351     354      20     351     423      21     345     363      20
     345     351      20     342     345      21     342     372      16     339
     342       3     588     591       3     582     585       5     576     579
       5     576     582       8     573     576       9     567     570      11
     564     573       9     564     567      12     558     564       8     558
     561       5     555     582       8     555     558       8     552     555
       9     549     552      13     546     549      15     543     546      15
     540     543      15     537     588      16     537     540      17     531
     687       2     528     531      19     525     528      20     519     522
      19     519     525      20     516     519      20     516     588      21
     510     528      20     510     516      20     507     510      21     507
     537      16     504     507       3     753     756       3     747     750
       5     741     744       5     741     747       8     738     741       9
     732     735      11     729     738       9     729     732      12     723
     729       8     723     726       5     720     747       8     720     723
       8     717     720       9     714     717      13     711     714      15
     708     711      15     705     708      15     702     753      16     702
     705      17     696     852       2     693     696      19     690     693
      20     684     687      19     684     690      20     681     684      20
     681     753      21     675     693      20     675     681      20     672
     675      21     672     702      16     669     672       3     918     921
       3     912     915       5     906     909       5     906     912       8
     903     906       9     897     900      11     894     903       9     894
     897      12     888     894       8     888     891       5     885     912
       8     885     888       8     882     885       9     879     882      13
     876     879      15     873     876      15     870     873      15     867
     918      16     867     870      17     861    1017       2     858     861
      19     855     858      20     849     852      19     849     855      20
     846     849      20     846     918      21     840     858      20     840
     846      20     837     840      21     837     867      16     834     837
       3    1083    1086       3    1077    1080       5    1071    1074       5
    1071    1077       8    1068    1071       9    1062    1065      11    1059
    1068       9    1059    1062      12    1053    1059       8    1053    1056
       5    1050    1077       8    1050    1053       8    1047    1050       9
    1044    1047      13    1041    1044      15    1038    1041      15    1035
    1038      15    1032    1083      16    1032    1035      17    1026    1182
       2    1023    1026      19    1020    1023      20    1014    1017      19
    1014    1020      20    1011    1014      20    1011    1083      21    1005
    1023      20    1005    1011      20    1002    1005      21    1002    1032
      16     999    1002       3    1248    1251       3    1242    1245       5
    1236    1239       5    1236    1242       8    1233    1236       9    1227
    1230      11    1224    1233       9    1224    1227      12    1218    1224
       8    1218    1221       5    1215    1242       8    1215    1218       8
    1212    1215       9    1209    1212      13    1206    1209      15    1203
    1206      15    1200    1203      15    1197    1248      16    1197    1200
      17    1191    1347       2    1188    1191      19    1185    1188      20
    1179    1182      19    1179    1185      20    1176    1179      20    1176
    1248      21    1170    1188      20    1170    1176      20    1167    1170
      21    1167    1197      16    1164    1167       3    1413    1416       3
    1407    1410       5    1401    1404       5    1401    1407       8    1398
    1401       9    1392    1395      11    1389    1398       9    1389    1392
      12    1383    1389       8    1383    1386       5    1380    1407       8
    1380    1383       8    1377    1380       9    1374    1377      13    1371
    1374      15    1368    1371      15    1365    1368      15    1362    1413
      16    1362    1365      17    1356    1512       2    1353    1356      19
    1350    1353      20    1344    1347      19    1344    1350      20    1341
    1344      20    1341    1413      21    1335    1353      20    1335    1341
      20    1332    1335      21    1332    1362      16    1329    1332       3
    1578    1581       3    1572    1575       5    1566    1569       5    1566
    1572       8    1563    1566       9    1557    1560      11    1554    1563
       9    1554    1557      12    1548    1554       8    1548    1551       5
    1545    1572       8    1545    1548       8    1542    1545       9    1539
    1542      13    1536    1539      15    1533    1536      15    1530    1533
      15    1527    1578      16    1527    1530      17    1521    1659       2
    1518    1521      19    1515    1518      20    1509    1512      19    1509
    1515      20    1506    1509      20    1506    1578      21    1500    1518
      20    1500    1506      20    1497    1500      21    1497    1527      16
    1494    1497       3
%FLAG ANGLES_INC_HYDROGEN                                                       
%FORMAT(10I8)                                                                   
       6       0      27       1       3       0       6       2       3       0
      27       1       0      27     102       1     153      72     156       4
     135      54     138       4     129      51     132       5     123      48
     126       5     117      45     120       4     114      36     192       1
     105      30     108       6      90      87     168       7      87      90
     171       8      87      81     162       9      87      60     141      10
      84      81     162      11      81      84     165       8      81      87
     168      10      78      81     162      14      78      69     150      16
      75      72     153      17      75      72     156      17      72      69
     150      19      72      75     159      20      69      63     144      10
      69      72     153      22      69      72     156      22      66      63
     144       7      63      60     141      10      63      69     150      10
      63      66     147       8      60      87     168      10      60      63
     144      10      57      54     135      26      57      54     138      26
      57      60     141      16      54      51     132      28      54      51
     129      28      51      54     135      29      51      54     138      29
      51      48     126      28      51      48     123      28      48      51
     132      28      48      51     129      28      48      45     117      29
      48      45     120      29      45      48     126      28      45      48
     123      28      42      45     117      35      42      45     120      35
      39      21      93      36      36      33     111      37      36     192
     267       1      33      30     108      38      33      30     105      38
      33      36     114      39      30      24      99      38      30      33
     111      38      27      24      99      37      24      27     102      39
      24      30     108      38      24      30     105      38      24      21
      39      38      21      24      99      38      18      15      33      38
      18      15      21      38      15      33     111      38      15      21
      39      38      12      15      18      36     318     237     321       4
     300     219     303       4     294     216     297       5     288     213
     291       5     282     210     285       4     279     201     357       1
     270     195     273       6     255     252     333       7     252     255
     336       8     252     246     327       9     252     225     306      10
     249     246     327      11     246     249     330       8     246     252
     333      10     243     246     327      14     243     234     315      16
     240     237     318      17     240     237     321      17     237     234
     315      19     237     240     324      20     234     228     309      10
     234     237     318      22     234     237     321      22     231     228
     309       7     228     225     306      10     228     234     315      10
     228     231     312       8     225     252     333      10     225     228
     309      10     222     219     300      26     222     219     303      26
     222     225     306      16     219     216     297      28     219     216
     294      28     216     219     300      29     216     219     303      29
     216     213     291      28     216     213     288      28     213     216
     297      28     213     216     294      28     213     210     282      29
     213     210     285      29     210     213     291      28     210     213
     288      28     207     210     282      35     207     210     285      35
     204     186     258      36     201     198     276      37     201     357
     432       1     198     195     273      38     198     195     270      38
     198     201     279      39     195     189     264      38     195     198
     276      38     192     189     264      37     189     192     267      39
     189     195     273      38     189     195     270      38     189     186
     204      38     186     189     264      38     183     180     198      38
     183     180     186      38     180     198     276      38     180     186
     204      38     177     180     183      36     483     402     486       4
     465     384     468       4     459     381     462       5     453     378
     456       5     447     375     450       4     444     366     522       1
     435     360     438       6     420     417     498       7     417     420
     501       8     417     411     492       9     417     390     471      10
     414     411     492      11     411     414     495       8     411     417
     498      10     408     411     492      14     408     399     480      16
     405     402     483      17     405     402     486      17     402     399
     480      19     402     405     489      20     399     393     474      10
     399     402     483      22     399     402     486      22     396     393
     474       7     393     390     471      10     393     399     480      10
     393     396     477       8     390     417     498      10     390     393
     474      10     387     384     465      26     387     384     468      26
     387     390     471      16     384     381     462      28     384     381
     459      28     381     384     465      29     381     384     468      29
     381     378     456      28     381     378     453      28     378     381
     462      28     378     381     459      28     378     375     447      29
     378     375     450      29     375     378     456      28     375     378
     453      28     372     375     447      35     372     375     450      35
     369     351     423      36     366     363     441      37     366     522
     597       1     363     360     438      38     363     360     435      38
     363     366     444      39     360     354     429      38     360     363
     441      38     357     354     429      37     354     357     432      39
     354     360     438      38     354     360     435      38     354     351
     369      38     351     354     429      38     348     345     363      38
     348     345     351      38     345     363     441      38     345     351
     369      38     342     345     348      36     648     567     651       4
     630     549     633       4     624     546     627       5     618     543
     621       5     612     540     615       4     609     531     687       1
     600     525     603       6     585     582     663       7     582     585
     666       8     582     576     657       9     582     555     636      10
     579     576     657      11     576     579     660       8     576     582
     663      10     573     576     657      14     573     564     645      16
     570     567     648      17     570     567     651      17     567     564
     645      19     567     570     654      20     564     558     639      10
     564     567     648      22     564     567     651      22     561     558
     639       7     558     555     636      10     558     564     645      10
     558     561     642       8     555     582     663      10     555     558
     639      10     552     549     630      26     552     549     633      26
     552     555     636      16     549     546     627      28     549     546
     624      28     546     549     630      29     546     549     633      29
     546     543     621      28     546     543     618      28     543     546
     627      28     543     546     624      28     543     540     612      29
     543     540     615      29     540     543     621      28     540     543
     618      28     537     540     612      35     537     540     615      35
     534     516     588      36     531     528     606      37     531     687
     762       1     528     525     603      38     528     525     600      38
     528     531     609      39     525     519     594      38     525     528
     606      38     522     519     594      37     519     522     597      39
     519     525     603      38     519     525     600      38     519     516
     534      38     516     519     594      38     513     510     528      38
     513     510     516      38     510     528     606      38     510     516
     534      38     507     510     513      36     813     732     816       4
     795     714     798       4     789     711     792       5     783     708
     786       5     777     705     780       4     774     696     852       1
     765     690     768       6     750     747     828       7     747     750
     831       8     747     741     822       9     747     720     801      10
     744     741     822      11     741     744     825       8     741     747
     828      10     738     741     822      14     738     729     810      16
     735     732     813      17     735     732     816      17     732     729
     810      19     732     735     819      20     729     723     804      10
     729     732     813      22     729     732     816      22     726     723
     804       7     723     720     801      10     723     729     810      10
     723     726     807       8     720     747     828      10     720     723
     804      10     717     714     795      26     717     714     798      26
     717     720     801      16     714     711     792      28     714     711
     789      28     711     714     795      29     711     714     798      29
     711     708     786      28     711     708     783      28     708     711
     792      28     708     711     789      28     708     705     777      29
     708     705     780      29     705     708     786      28     705     708
     783      28     702     705     777      35     702     705     780      35
     699     681     753      36     696     693     771      37     696     852
     927       1     693     690     768      38     693     690     765      38
     693     696     774      39     690     684     759      38     690     693
     771      38     687     684     759      37     684     687     762      39
     684     690     768      38     684     690     765      38     684     681
     699      38     681     684     759      38     678     675     693      38
     678     675     681      38     675     693     771      38     675     681
     699      38     672     675     678      36     978     897     981       4
     960     879     963       4     954     876     957       5     948     873
     951       5     942     870     945       4     939     861    1017       1
     930     855     933       6     915     912     993       7     912     915
     996       8     912     906     987       9     912     885     966      10
     909     906     987      11     906     909     990       8     906     912
     993      10     903     906     987      14     903     894     975      16
     900     897     978      17     900     897     981      17     897     894
     975      19     897     900     984      20     894     888     969      10
     894     897     978      22     894     897     981      22     891     888
     969       7     888     885     966      10     888     894     975      10
     888     891     972       8     885     912     993      10     885     888
     969      10     882     879     960      26     882     879     963      26
     882     885     966      16     879     876     957      28     879     876
     954      28     876     879     960      29     876     879     963      29
     876     873     951      28     876     873     948      28     873     876
     957      28     873     876     954      28     873     870     942      29
     873     870     945      29     870     873     951      28     870     873
     948      28     867     870     942      35     867     870     945      35
     864     846     918      36     861     858     936      37     861    1017
    1092       1     858     855     933      38     858     855     930      38
     858     861     939      39     855     849     924      38     855     858
     936      38     852     849     924      37     849     852     927      39
     849     855     933      38     849     855     930      38     849     846
     864      38     846     849     924      38     843     840     858      38
     843     840     846      38     840     858     936      38     840     846
     864      38     837     840     843      36    1143    1062    1146       4
    1125    1044    1128       4    1119    1041    1122       5    1113    1038
    1116       5    1107    1035    1110       4    1104    1026    1182       1
    1095    1020    1098       6    1080    1077    1158       7    1077    1080
    1161       8    1077    1071    1152       9    1077    1050    1131      10
    1074    1071    1152      11    1071    1074    1155       8    1071    1077
    1158      10    1068    1071    1152      14    1068    1059    1140      16
    1065    1062    1143      17    1065    1062    1146      17    1062    1059
    1140      19    1062    1065    1149      20    1059    1053    1134      10
    1059    1062    1143      22    1059    1062    1146      22    1056    1053
    1134       7    1053    1050    1131      10    1053    1059    1140      10
    1053    1056    1137       8    1050    1077    1158      10    1050    1053
    1134      10    1047    1044    1125      26    1047    1044    1128      26
    1047    1050    1131      16    1044    1041    1122      28    1044    1041
    1119      28    1041    1044    1125      29    1041    1044    1128      29
    1041    1038    1116      28    1041    1038    1113      28    1038    1041
    1122      28    1038    1041    1119      28    1038    1035    1107      29
    1038    1035    1110      29    1035    1038    1116      28    1035    1038
    1113      28    1032    1035    1107      35    1032    1035    1110      35
    1029    1011    1083      36    1026    1023    1101      37    1026    1182
    1257       1    1023    1020    1098      38    1023    1020    1095      38
    1023    1026    1104      39    1020    1014    1089      38    1020    1023
    1101      38    1017    1014    1089      37    1014    1017    1092      39
    1014    1020    1098      38    1014    1020    1095      38    1014    1011
    1029      38    1011    1014    1089      38    1008    1005    1023      38
    1008    1005    1011      38    1005    1023    1101      38    1005    1011
    1029      38    1002    1005    1008      36    1308    1227    1311       4
    1290    1209    1293       4    1284    1206    1287       5    1278    1203
    1281       5    1272    1200    1275       4    1269    1191    1347       1
    1260    1185    1263       6    1245    1242    1323       7    1242    1245
    1326       8    1242    1236    1317       9    1242    1215    1296      10
    1239    1236    1317      11    1236    1239    1320       8    1236    1242
    1323      10    1233    1236    1317      14    1233    1224    1305      16
    1230    1227    1308      17    1230    1227    1311      17    1227    1224
    1305      19    1227    1230    1314      20    1224    1218    1299      10
    1224    1227    1308      22    1224    1227    1311      22    1221    1218
    1299       7    1218    1215    1296      10    1218    1224    1305      10
    1218    1221    1302       8    1215    1242    1323      10    1215    1218
    1299      10    1212    1209    1290      26    1212    1209    1293      26
    1212    1215    1296      16    1209    1206    1287      28    1209    1206
    1284      28    1206    1209    1290      29    1206    1209    1293      29
    1206    1203    1281      28    1206    1203    1278      28    1203    1206
    1287      28    1203    1206    1284      28    1203    1200    1272      29
    1203    1200    1275      29    1200    1203    1281      28    1200    1203
    1278      28    1197    1200    1272      35    1197    1200    1275      35
    1194    1176    1248      36    1191    1188    1266      37    1191    1347
    1422       1    1188    1185    1263      38    1188    1185    1260      38
    1188    1191    1269      39    1185    1179    1254      38    1185    1188
    1266      38    1182    1179    1254      37    1179    1182    1257      39
    1179    1185    1263      38    1179    1185    1260      38    1179    1176
    1194      38    1176    1179    1254      38    1173    1170    1188      38
    1173    1170    1176      38    1170    1188    1266      38    1170    1176
    1194      38    1167    1170    1173      36    1473    1392    1476       4
    1455    1374    1458       4    1449    1371    1452       5    1443    1368
    1446       5    1437    1365    1440       4    1434    1356    1512       1
    1425    1350    1428       6    1410    1407    1488       7    1407    1410
    1491       8    1407    1401    1482       9    1407    1380    1461      10
    1404    1401    1482      11    1401    1404    1485       8    1401    1407
    1488      10    1398    1401    1482      14    1398    1389    1470      16
    1395    1392    1473      17    1395    1392    1476      17    1392    1389
    1470      19    1392    1395    1479      20    1389    1383    1464      10
    1389    1392    1473      22    1389    1392    1476      22    1386    1383
    1464       7    1383    1380    1461      10    1383    1389    1470      10
    1383    1386    1467       8    1380    1407    1488      10    1380    1383
    1464      10    1377    1374    1455      26    1377    1374    1458      26
    1377    1380    1461      16    1374    1371    1452      28    1374    1371
    1449      28    1371    1374    1455      29    1371    1374    1458      29
    1371    1368    1446      28    1371    1368    1443      28    1368    1371
    1452      28    1368    1371    1449      28    1368    1365    1437      29
    1368    1365    1440      29    1365    1368    1446      28    1365    1368
    1443      28    1362    1365    1437      35    1362    1365    1440      35
    1359    1341    1413      36    1356    1353    1431      37    1356    1512
    1587       1    1353    1350    1428      38    1353    1350    1425      38
    1353    1356    1434      39    1350    1344    1419      38    1350    1353
    1431      38    1347    1344    1419      37    1344    1347    1422      39
    1344    1350    1428      38    1344    1350    1425      38    1344    1341
    1359      38    1341    1344    1419      38    1338    1335    1353      38
    1338    1335    1341      38    1335    1353    1431      38    1335    1341
    1359      38    1332    1335    1338      36    1638    1557    1641       4
    1620    1539    1623       4    1614    1536    1617       5    1608    1533
    1611       5    1602    1530    1605       4    1599    1521    1659       1
    1590    1515    1593       6    1575    1572    1653       7    1572    1575
    1656       8    1572    1566    1647       9    1572    1545    1626      10
    1569    1566    1647      11    1566    1569    1650       8    1566    1572
    1653      10    1563    1566    1647      14    1563    1554    1635      16
    1560    1557    1638      17    1560    1557    1641      17    1557    1554
    1635      19    1557    1560    1644      20    1554    1548    1629      10
    1554    1557    1638      22    1554    1557    1641      22    1551    1548
    1629       7    1548    1545    1626      10    1548    1554    1635      10
    1548    1551    1632       8    1545    1572    1653      10    1545    1548
    1629      10    1542    1539    1620      26    1542    1539    1623      26
    1542    1545    1626      16    1539    1536    1617      28    1539    1536
    1614      28    1536    1539    1620      29    1536    1539    1623      29
    1536    1533    1611      28    1536    1533    1608      28    1533    1536
    1617      28    1533    1536    1614      28    1533    1530    1602      29
    1533    1530    1605      29    1530    1533    1611      28    1530    1533
    1608      28    1527    1530    1602      35    1527    1530    1605      35
    1524    1506    1578      36    1521    1518    1596      37    1521    1659
    1662       1    1521    1659    1665       1    1518    1515    1593      38
    1518    1515    1590      38    1518    1521    1599      39    1515    1509
    1584      38    1515    1518    1596      38    1512    1509    1584      37
    1509    1512    1587      39    1509    1515    1593      38    1509    1515
    1590      38    1509    1506    1524      38    1506    1509    1584      38
    1503    1500    1518      38    1503    1500    1506      38    1500    1518
    1596      38    1500    1506    1524      38    1497    1500    1503      36
    1662    1659    1665       2
%FLAG ANGLES_WITHOUT_HYDROGEN                                                   
%FORMAT(10I8)                                                                   
       0      27      24       3      84      81      87      12      81      87
      90      12      78      81      84      13      78      81      87      15
      72      69      78      18      69      78      81      21      69      72
      75      23      66      63      69      12      63      60      87      24
      63      69      78      15      63      69      72      25      60      87
      90      12      60      87      81      24      60      63      69      24
      60      63      66      12      57      60      87      15      57      60
      63      15      54      57      60      27      51      54      57      30
      48      51      54      31      45      48      51      31      45      42
      93      32      42      93      96      33      42      45      48      34
      36     192     189       3      33      36     192       3      30      33
      36      40      27      24      30      40      24      30      33      41
      24      21      93      42      21      24      27      40      21      24
      30      41      21      93      96      43      21      93      42      44
      21      15      33      41      15      33      30      41      15      33
      36      40      15      21      24      41      15      21      93      42
      15      12      42      44      12      15      33      42      12      15
      21      42      12      42      93      45      12      42      45      32
       9      12      15      43       9      12      42      33     249     246
     252      12     246     252     255      12     243     246     249      13
     243     246     252      15     237     234     243      18     234     243
     246      21     234     237     240      23     231     228     234      12
     228     225     252      24     228     234     243      15     228     234
     237      25     225     252     255      12     225     252     246      24
     225     228     234      24     225     228     231      12     222     225
     252      15     222     225     228      15     219     222     225      27
     216     219     222      30     213     216     219      31     210     213
     216      31     210     207     258      32     207     258     261      33
     207     210     213      34     201     357     354       3     198     201
     357       3     195     198     201      40     192     189     195      40
     189     195     198      41     189     186     258      42     186     189
     192      40     186     189     195      41     186     258     261      43
     186     258     207      44     186     180     198      41     180     198
     195      41     180     198     201      40     180     186     189      41
     180     186     258      42     180     177     207      44     177     180
     198      42     177     180     186      42     177     207     258      45
     177     207     210      32     174     177     180      43     174     177
     207      33     414     411     417      12     411     417     420      12
     408     411     414      13     408     411     417      15     402     399
     408      18     399     408     411      21     399     402     405      23
     396     393     399      12     393     390     417      24     393     399
     408      15     393     399     402      25     390     417     420      12
     390     417     411      24     390     393     399      24     390     393
     396      12     387     390     417      15     387     390     393      15
     384     387     390      27     381     384     387      30     378     381
     384      31     375     378     381      31     375     372     423      32
     372     423     426      33     372     375     378      34     366     522
     519       3     363     366     522       3     360     363     366      40
     357     354     360      40     354     360     363      41     354     351
     423      42     351     354     357      40     351     354     360      41
     351     423     426      43     351     423     372      44     351     345
     363      41     345     363     360      41     345     363     366      40
     345     351     354      41     345     351     423      42     345     342
     372      44     342     345     363      42     342     345     351      42
     342     372     423      45     342     372     375      32     339     342
     345      43     339     342     372      33     579     576     582      12
     576     582     585      12     573     576     579      13     573     576
     582      15     567     564     573      18     564     573     576      21
     564     567     570      23     561     558     564      12     558     555
     582      24     558     564     573      15     558     564     567      25
     555     582     585      12     555     582     576      24     555     558
     564      24     555     558     561      12     552     555     582      15
     552     555     558      15     549     552     555      27     546     549
     552      30     543     546     549      31     540     543     546      31
     540     537     588      32     537     588     591      33     537     540
     543      34     531     687     684       3     528     531     687       3
     525     528     531      40     522     519     525      40     519     525
     528      41     519     516     588      42     516     519     522      40
     516     519     525      41     516     588     591      43     516     588
     537      44     516     510     528      41     510     528     525      41
     510     528     531      40     510     516     519      41     510     516
     588      42     510     507     537      44     507     510     528      42
     507     510     516      42     507     537     588      45     507     537
     540      32     504     507     510      43     504     507     537      33
     744     741     747      12     741     747     750      12     738     741
     744      13     738     741     747      15     732     729     738      18
     729     738     741      21     729     732     735      23     726     723
     729      12     723     720     747      24     723     729     738      15
     723     729     732      25     720     747     750      12     720     747
     741      24     720     723     729      24     720     723     726      12
     717     720     747      15     717     720     723      15     714     717
     720      27     711     714     717      30     708     711     714      31
     705     708     711      31     705     702     753      32     702     753
     756      33     702     705     708      34     696     852     849       3
     693     696     852       3     690     693     696      40     687     684
     690      40     684     690     693      41     684     681     753      42
     681     684     687      40     681     684     690      41     681     753
     756      43     681     753     702      44     681     675     693      41
     675     693     690      41     675     693     696      40     675     681
     684      41     675     681     753      42     675     672     702      44
     672     675     693      42     672     675     681      42     672     702
     753      45     672     702     705      32     669     672     675      43
     669     672     702      33     909     906     912      12     906     912
     915      12     903     906     909      13     903     906     912      15
     897     894     903      18     894     903     906      21     894     897
     900      23     891     888     894      12     888     885     912      24
     888     894     903      15     888     894     897      25     885     912
     915      12     885     912     906      24     885     888     894      24
     885     888     891      12     882     885     912      15     882     885
     888      15     879     882     885      27     876     879     882      30
     873     876     879      31     870     873     876      31     870     867
     918      32     867     918     921      33     867     870     873      34
     861    1017    1014       3     858     861    1017       3     855     858
     861      40     852     849     855      40     849     855     858      41
     849     846     918      42     846     849     852      40     846     849
     855      41     846     918     921      43     846     918     867      44
     846     840     858      41     840     858     855      41     840     858
     861      40     840     846     849      41     840     846     918      42
     840     837     867      44     837     840     858      42     837     840
     846      42     837     867     918      45     837     867     870      32
     834     837     840      43     834     837     867      33    1074    1071
    1077      12    1071    1077    1080      12    1068    1071    1074      13
    1068    1071    1077      15    1062    1059    1068      18    1059    1068
    1071      21    1059    1062    1065      23    1056    1053    1059      12
    1053    1050    1077      24    1053    1059    1068      15    1053    1059
    1062      25    1050    1077    1080      12    1050    1077    1071      24
    1050    1053    1059      24    1050    1053    1056      12    1047    1050
    1077      15    1047    1050    1053      15    1044    1047    1050      27
    1041    1044    1047      30    1038    1041    1044      31    1035    1038
    1041      31    1035    1032    1083      32    1032    1083    1086      33
    1032    1035    1038      34    1026    1182    1179       3    1023    1026
    1182       3    1020    1023    1026      40    1017    1014    1020      40
    1014    1020    1023      41    1014    1011    1083      42    1011    1014
    1017      40    1011    1014    1020      41    1011    1083    1086      43
    1011    1083    1032      44    1011    1005    1023      41    1005    1023
    1020      41    1005    1023    1026      40    1005    1011    1014      41
    1005    1011    1083      42    1005    1002    1032      44    1002    1005
    1023      42    1002    1005    1011      42    1002    1032    1083      45
    1002    1032    1035      32     999    1002    1005      43     999    1002
    1032      33    1239    1236    1242      12    1236    1242    1245      12
    1233    1236    1239      13    1233    1236    1242      15    1227    1224
    1233      18    1224    1233    1236      21    1224    1227    1230      23
    1221    1218    1224      12    1218    1215    1242      24    1218    1224
    1233      15    1218    1224    1227      25    1215    1242    1245      12
    1215    1242    1236      24    1215    1218    1224      24    1215    1218
    1221      12    1212    1215    1242      15    1212    1215    1218      15
    1209    1212    1215      27    1206    1209    1212      30    1203    1206
    1209      31    1200    1203    1206      31    1200    1197    1248      32
    1197    1248    1251      33    1197    1200    1203      34    1191    1347
    1344       3    1188    1191    1347       3    1185    1188    1191      40
    1182    1179    1185      40    1179    1185    1188      41    1179    1176
    1248      42    1176    1179    1182      40    1176    1179    1185      41
    1176    1248    1251      43    1176    1248    1197      44    1176    1170
    1188      41    1170    1188    1185      41    1170    1188    1191      40
    1170    1176    1179      41    1170    1176    1248      42    1170    1167
    1197      44    1167    1170    1188      42    1167    1170    1176      42
    1167    1197    1248      45    1167    1197    1200      32    1164    1167
    1170      43    1164    1167    1197      33    1404    1401    1407      12
    1401    1407    1410      12    1398    1401    1404      13    1398    1401
    1407      15    1392    1389    1398      18    1389    1398    1401      21
    1389    1392    1395      23    1386    1383    1389      12    1383    1380
    1407      24    1383    1389    1398      15    1383    1389    1392      25
    1380    1407    1410      12    1380    1407    1401      24    1380    1383
    1389      24    1380    1383    1386      12    1377    1380    1407      15
    1377    1380    1383      15    1374    1377    1380      27    1371    1374
    1377      30    1368    1371    1374      31    1365    1368    1371      31
    1365    1362    1413      32    1362    1413    1416      33    1362    1365
    1368      34    1356    1512    1509       3    1353    1356    1512       3
    1350    1353    1356      40    1347    1344    1350      40    1344    1350
    1353      41    1344    1341    1413      42    1341    1344    1347      40
    1341    1344    1350      41    1341    1413    1416      43    1341    1413
    1362      44    1341    1335    1353      41    1335    1353    1350      41
    1335    1353    1356      40    1335    1341    1344      41    1335    1341
    1413      42    1335    1332    1362      44    1332    1335    1353      42
    1332    1335    1341      42    1332    1362    1413      45    1332    1362
    1365      32    1329    1332    1335      43    1329    1332    1362      33
    1569    1566    1572      12    1566    1572    1575      12    1563    1566
    1569      13    1563    1566    1572      15    1557    1554    1563      18
    1554    1563    1566      21    1554    1557    1560      23    1551    1548
    1554      12    1548    1545    1572      24    1548    1554    1563      15
    1548    1554    1557      25    1545    1572    1575      12    1545    1572
    1566      24    1545    1548    1554      24    1545    1548    1551      12
    1542    1545    1572      15    1542    1545    1548      15    1539    1542
    1545      27    1536    1539    1542      30    1533    1536    1539      31
    1530    1533    1536      31    1530    1527    1578      32    1527    1578
    1581      33    1527    1530    1533      34    1518    1521    1659       3
    1515    1518    1521      40    1512    1509    1515      40    1509    1515
    1518      41    1509    1506    1578      42    1506    1509    1512      40
    1506    1509    1515      41    1506    1578    1581      43    1506    1578
    1527      44    1506    1500    1518      41    1500    1518    1515      41
    1500    1518    1521      40    1500    1506    1509      41    1500    1506
    1578      42    1500    1497    1527      44    1497    1500    1518      42
    1497    1500    1506      42    1497    1527    1578      45    1497    1527
    1530      32    1494    1497    1500      43    1494    1497    1527      33
%FLAG DIHEDRALS_INC_HYDROGEN                                                    
%FORMAT(10I8)                                                                   
       6       0      27     102       1       6       0      27      24       1
       3       0      27     102       1       3       0      27      24       1
       0      27      24      99       3       0      27     -24      99       2
       0      27     -24      99       4     168      87      90     171       5
     162      81      84     165       5     162      81      87     168       6
     156      72      75     159       7     153      72      75     159       7
     150      69      72     153       6     150      69      72     156       6
     144      63      69     150       6     144      63      66     147       5
     141      60      87     168       6     141      60      63     144       6
     132      51      54     135       6     132      51      54     138       6
     129      51      54     135       6     129      51      54     138       6
     126      48      51     132       8     126      48      51     129       8
     123      48      51     132       8     123      48      51     129       8
     120      45      48     126       6     120      45      48     123       6
     117      45      48     126       6     117      45      48     123       6
     114      36     192     267       1     114      36     192     189       1
     111      33      36     114       2     111      33      36     192       3
     111      33     -36     192       2     111      33     -36     192       4
     108      30      33     111       9     105      30      33     111       9
      99      24      27     102       2      99      24      30     108       9
      99      24      30     105       9      93      21      24      99       6
      93      42      45     117      10      93      42      45     120      10
      90      87      81     162       6      90      87      60     141      11
      90      87     -60     141      12      87      81      84     165      11
      87      81     -84     165      13      87      60      63     144       6
      84      81      87     168      11      84      81     -87     168      12
      81      87      90     171      11      81      87     -90     171      13
      81      87      60     141       6      81      78      69     150      16
      78      81      84     165       5      78      81      87     168      11
      78      81     -87     168      12      78      69      63     144      11
      78      69     -63     144      12      78      69      72     153      11
      78      69     -72     153      12      78      69      72     156      11
      78      69     -72     156      12      75      72      69     150      11
      75      72     -69     150      12      72      69      63     144       6
      69      78      81     162      16      69      63      60     141       6
      69      63      66     147      11      69      63     -66     147      13
      69      72      75     159      11      69      72     -75     159      13
      66      63      60     141      11      66      63     -60     141      12
      66      63      69     150      11      66      63     -69     150      12
      63      60      87     168       6      63      69      72     153       6
      63      69      72     156       6      60      87      90     171      11
      60      87     -90     171      13      60      87      81     162       6
      60      57      54     135      16      60      57      54     138      16
      60      63      69     150       6      60      63      66     147      11
      60      63     -66     147      13      57      54      51     132      11
      57      54     -51     132      12      57      54      51     129      11
      57      54     -51     129      12      57      60      87     168      11
      57      60     -87     168      12      57      60      63     144      11
      57      60     -63     144      12      54      57      60     141      16
      54      51      48     126      22      54      51      48     123      22
      51      48      45     117       6      51      48      45     120       6
      48      51      54     135       6      48      51      54     138       6
      45      48      51     132      22      45      48      51     129      22
      42      45      48     126       6      42      45      48     123       6
      39      21      24      99       9      39      21      93      96      29
      39      21     -93      96       2      39      21     -93      96      30
      39      21      93      42      10      36      33      30     108       6
      36      33      30     105       6      36     192     189     264       3
      36     192    -189     264       2      36     192    -189     264       4
      33      30      24      99      13      33      36     192     267       1
      33      15      21      39      13      30      24      27     102       2
      30      24      21      39      13      30      33      36     114       2
      27      24      30     108       6      27      24      30     105       6
      27      24      21      39       6      24      30      33     111      13
      21      24      27     102       2      21      24      30     108      13
      21      24      30     105      13      21      15      33     111      13
      18      15      33     111       9      18      15      33      30      13
      18      15      33      36       6      18      15      21      24      13
      18      15      21      93       6      18      15      21      39       9
      18      15      12      42      10      15      33      30     108      13
      15      33      30     105      13      15      33      36     114       2
      15      21      24      99      13      12      15      33     111       6
      12      15      21      39       6      12      42      45     117      10
      12      42      45     120      10       9      12      15      18      29
       9      12     -15      18       2       9      12     -15      18      30
     333     252     255     336       5     327     246     249     330       5
     327     246     252     333       6     321     237     240     324       7
     318     237     240     324       7     315     234     237     318       6
     315     234     237     321       6     309     228     234     315       6
     309     228     231     312       5     306     225     252     333       6
     306     225     228     309       6     297     216     219     300       6
     297     216     219     303       6     294     216     219     300       6
     294     216     219     303       6     291     213     216     297       8
     291     213     216     294       8     288     213     216     297       8
     288     213     216     294       8     285     210     213     291       6
     285     210     213     288       6     282     210     213     291       6
     282     210     213     288       6     279     201     357     432       1
     279     201     357     354       1     276     198     201     279       2
     276     198     201     357       3     276     198    -201     357       2
     276     198    -201     357       4     273     195     198     276       9
     270     195     198     276       9     264     189     192     267       2
     264     189     195     273       9     264     189     195     270       9
     258     186     189     264       6     258     207     210     282      10
     258     207     210     285      10     255     252     246     327       6
     255     252     225     306      11     255     252    -225     306      12
     252     246     249     330      11     252     246    -249     330      13
     252     225     228     309       6     249     246     252     333      11
     249     246    -252     333      12     246     252     255     336      11
     246     252    -255     336      13     246     252     225     306       6
     246     243     234     315      16     243     246     249     330       5
     243     246     252     333      11     243     246    -252     333      12
     243     234     228     309      11     243     234    -228     309      12
     243     234     237     318      11     243     234    -237     318      12
     243     234     237     321      11     243     234    -237     321      12
     240     237     234     315      11     240     237    -234     315      12
     237     234     228     309       6     234     243     246     327      16
     234     228     225     306       6     234     228     231     312      11
     234     228    -231     312      13     234     237     240     324      11
     234     237    -240     324      13     231     228     225     306      11
     231     228    -225     306      12     231     228     234     315      11
     231     228    -234     315      12     228     225     252     333       6
     228     234     237     318       6     228     234     237     321       6
     225     252     255     336      11     225     252    -255     336      13
     225     252     246     327       6     225     222     219     300      16
     225     222     219     303      16     225     228     234     315       6
     225     228     231     312      11     225     228    -231     312      13
     222     219     216     297      11     222     219    -216     297      12
     222     219     216     294      11     222     219    -216     294      12
     222     225     252     333      11     222     225    -252     333      12
     222     225     228     309      11     222     225    -228     309      12
     219     222     225     306      16     219     216     213     291      22
     219     216     213     288      22     216     213     210     282       6
     216     213     210     285       6     213     216     219     300       6
     213     216     219     303       6     210     213     216     297      22
     210     213     216     294      22     207     210     213     291       6
     207     210     213     288       6     204     186     189     264       9
     204     186     258     261      29     204     186    -258     261       2
     204     186    -258     261      30     204     186     258     207      10
     201     198     195     273       6     201     198     195     270       6
     201     357     354     429       3     201     357    -354     429       2
     201     357    -354     429       4     198     195     189     264      13
     198     201     357     432       1     198     180     186     204      13
     195     189     192     267       2     195     189     186     204      13
     195     198     201     279       2     192     189     195     273       6
     192     189     195     270       6     192     189     186     204       6
     189     195     198     276      13     186     189     192     267       2
     186     189     195     273      13     186     189     195     270      13
     186     180     198     276      13     183     180     198     276       9
     183     180     198     195      13     183     180     198     201       6
     183     180     186     189      13     183     180     186     258       6
     183     180     186     204       9     183     180     177     207      10
     180     198     195     273      13     180     198     195     270      13
     180     198     201     279       2     180     186     189     264      13
     177     180     198     276       6     177     180     186     204       6
     177     207     210     282      10     177     207     210     285      10
     174     177     180     183      29     174     177    -180     183       2
     174     177    -180     183      30     498     417     420     501       5
     492     411     414     495       5     492     411     417     498       6
     486     402     405     489       7     483     402     405     489       7
     480     399     402     483       6     480     399     402     486       6
     474     393     399     480       6     474     393     396     477       5
     471     390     417     498       6     471     390     393     474       6
     462     381     384     465       6     462     381     384     468       6
     459     381     384     465       6     459     381     384     468       6
     456     378     381     462       8     456     378     381     459       8
     453     378     381     462       8     453     378     381     459       8
     450     375     378     456       6     450     375     378     453       6
     447     375     378     456       6     447     375     378     453       6
     444     366     522     597       1     444     366     522     519       1
     441     363     366     444       2     441     363     366     522       3
     441     363    -366     522       2     441     363    -366     522       4
     438     360     363     441       9     435     360     363     441       9
     429     354     357     432       2     429     354     360     438       9
     429     354     360     435       9     423     351     354     429       6
     423     372     375     447      10     423     372     375     450      10
     420     417     411     492       6     420     417     390     471      11
     420     417    -390     471      12     417     411     414     495      11
     417     411    -414     495      13     417     390     393     474       6
     414     411     417     498      11     414     411    -417     498      12
     411     417     420     501      11     411     417    -420     501      13
     411     417     390     471       6     411     408     399     480      16
     408     411     414     495       5     408     411     417     498      11
     408     411    -417     498      12     408     399     393     474      11
     408     399    -393     474      12     408     399     402     483      11
     408     399    -402     483      12     408     399     402     486      11
     408     399    -402     486      12     405     402     399     480      11
     405     402    -399     480      12     402     399     393     474       6
     399     408     411     492      16     399     393     390     471       6
     399     393     396     477      11     399     393    -396     477      13
     399     402     405     489      11     399     402    -405     489      13
     396     393     390     471      11     396     393    -390     471      12
     396     393     399     480      11     396     393    -399     480      12
     393     390     417     498       6     393     399     402     483       6
     393     399     402     486       6     390     417     420     501      11
     390     417    -420     501      13     390     417     411     492       6
     390     387     384     465      16     390     387     384     468      16
     390     393     399     480       6     390     393     396     477      11
     390     393    -396     477      13     387     384     381     462      11
     387     384    -381     462      12     387     384     381     459      11
     387     384    -381     459      12     387     390     417     498      11
     387     390    -417     498      12     387     390     393     474      11
     387     390    -393     474      12     384     387     390     471      16
     384     381     378     456      22     384     381     378     453      22
     381     378     375     447       6     381     378     375     450       6
     378     381     384     465       6     378     381     384     468       6
     375     378     381     462      22     375     378     381     459      22
     372     375     378     456       6     372     375     378     453       6
     369     351     354     429       9     369     351     423     426      29
     369     351    -423     426       2     369     351    -423     426      30
     369     351     423     372      10     366     363     360     438       6
     366     363     360     435       6     366     522     519     594       3
     366     522    -519     594       2     366     522    -519     594       4
     363     360     354     429      13     363     366     522     597       1
     363     345     351     369      13     360     354     357     432       2
     360     354     351     369      13     360     363     366     444       2
     357     354     360     438       6     357     354     360     435       6
     357     354     351     369       6     354     360     363     441      13
     351     354     357     432       2     351     354     360     438      13
     351     354     360     435      13     351     345     363     441      13
     348     345     363     441       9     348     345     363     360      13
     348     345     363     366       6     348     345     351     354      13
     348     345     351     423       6     348     345     351     369       9
     348     345     342     372      10     345     363     360     438      13
     345     363     360     435      13     345     363     366     444       2
     345     351     354     429      13     342     345     363     441       6
     342     345     351     369       6     342     372     375     447      10
     342     372     375     450      10     339     342     345     348      29
     339     342    -345     348       2     339     342    -345     348      30
     663     582     585     666       5     657     576     579     660       5
     657     576     582     663       6     651     567     570     654       7
     648     567     570     654       7     645     564     567     648       6
     645     564     567     651       6     639     558     564     645       6
     639     558     561     642       5     636     555     582     663       6
     636     555     558     639       6     627     546     549     630       6
     627     546     549     633       6     624     546     549     630       6
     624     546     549     633       6     621     543     546     627       8
     621     543     546     624       8     618     543     546     627       8
     618     543     546     624       8     615     540     543     621       6
     615     540     543     618       6     612     540     543     621       6
     612     540     543     618       6     609     531     687     762       1
     609     531     687     684       1     606     528     531     609       2
     606     528     531     687       3     606     528    -531     687       2
     606     528    -531     687       4     603     525     528     606       9
     600     525     528     606       9     594     519     522     597       2
     594     519     525     603       9     594     519     525     600       9
     588     516     519     594       6     588     537     540     612      10
     588     537     540     615      10     585     582     576     657       6
     585     582     555     636      11     585     582    -555     636      12
     582     576     579     660      11     582     576    -579     660      13
     582     555     558     639       6     579     576     582     663      11
     579     576    -582     663      12     576     582     585     666      11
     576     582    -585     666      13     576     582     555     636       6
     576     573     564     645      16     573     576     579     660       5
     573     576     582     663      11     573     576    -582     663      12
     573     564     558     639      11     573     564    -558     639      12
     573     564     567     648      11     573     564    -567     648      12
     573     564     567     651      11     573     564    -567     651      12
     570     567     564     645      11     570     567    -564     645      12
     567     564     558     639       6     564     573     576     657      16
     564     558     555     636       6     564     558     561     642      11
     564     558    -561     642      13     564     567     570     654      11
     564     567    -570     654      13     561     558     555     636      11
     561     558    -555     636      12     561     558     564     645      11
     561     558    -564     645      12     558     555     582     663       6
     558     564     567     648       6     558     564     567     651       6
     555     582     585     666      11     555     582    -585     666      13
     555     582     576     657       6     555     552     549     630      16
     555     552     549     633      16     555     558     564     645       6
     555     558     561     642      11     555     558    -561     642      13
     552     549     546     627      11     552     549    -546     627      12
     552     549     546     624      11     552     549    -546     624      12
     552     555     582     663      11     552     555    -582     663      12
     552     555     558     639      11     552     555    -558     639      12
     549     552     555     636      16     549     546     543     621      22
     549     546     543     618      22     546     543     540     612       6
     546     543     540     615       6     543     546     549     630       6
     543     546     549     633       6     540     543     546     627      22
     540     543     546     624      22     537     540     543     621       6
     537     540     543     618       6     534     516     519     594       9
     534     516     588     591      29     534     516    -588     591       2
     534     516    -588     591      30     534     516     588     537      10
     531     528     525     603       6     531     528     525     600       6
     531     687     684     759       3     531     687    -684     759       2
     531     687    -684     759       4     528     525     519     594      13
     528     531     687     762       1     528     510     516     534      13
     525     519     522     597       2     525     519     516     534      13
     525     528     531     609       2     522     519     525     603       6
     522     519     525     600       6     522     519     516     534       6
     519     525     528     606      13     516     519     522     597       2
     516     519     525     603      13     516     519     525     600      13
     516     510     528     606      13     513     510     528     606       9
     513     510     528     525      13     513     510     528     531       6
     513     510     516     519      13     513     510     516     588       6
     513     510     516     534       9     513     510     507     537      10
     510     528     525     603      13     510     528     525     600      13
     510     528     531     609       2     510     516     519     594      13
     507     510     528     606       6     507     510     516     534       6
     507     537     540     612      10     507     537     540     615      10
     504     507     510     513      29     504     507    -510     513       2
     504     507    -510     513      30     828     747     750     831       5
     822     741     744     825       5     822     741     747     828       6
     816     732     735     819       7     813     732     735     819       7
     810     729     732     813       6     810     729     732     816       6
     804     723     729     810       6     804     723     726     807       5
     801     720     747     828       6     801     720     723     804       6
     792     711     714     795       6     792     711     714     798       6
     789     711     714     795       6     789     711     714     798       6
     786     708     711     792       8     786     708     711     789       8
     783     708     711     792       8     783     708     711     789       8
     780     705     708     786       6     780     705     708     783       6
     777     705     708     786       6     777     705     708     783       6
     774     696     852     927       1     774     696     852     849       1
     771     693     696     774       2     771     693     696     852       3
     771     693    -696     852       2     771     693    -696     852       4
     768     690     693     771       9     765     690     693     771       9
     759     684     687     762       2     759     684     690     768       9
     759     684     690     765       9     753     681     684     759       6
     753     702     705     777      10     753     702     705     780      10
     750     747     741     822       6     750     747     720     801      11
     750     747    -720     801      12     747     741     744     825      11
     747     741    -744     825      13     747     720     723     804       6
     744     741     747     828      11     744     741    -747     828      12
     741     747     750     831      11     741     747    -750     831      13
     741     747     720     801       6     741     738     729     810      16
     738     741     744     825       5     738     741     747     828      11
     738     741    -747     828      12     738     729     723     804      11
     738     729    -723     804      12     738     729     732     813      11
     738     729    -732     813      12     738     729     732     816      11
     738     729    -732     816      12     735     732     729     810      11
     735     732    -729     810      12     732     729     723     804       6
     729     738     741     822      16     729     723     720     801       6
     729     723     726     807      11     729     723    -726     807      13
     729     732     735     819      11     729     732    -735     819      13
     726     723     720     801      11     726     723    -720     801      12
     726     723     729     810      11     726     723    -729     810      12
     723     720     747     828       6     723     729     732     813       6
     723     729     732     816       6     720     747     750     831      11
     720     747    -750     831      13     720     747     741     822       6
     720     717     714     795      16     720     717     714     798      16
     720     723     729     810       6     720     723     726     807      11
     720     723    -726     807      13     717     714     711     792      11
     717     714    -711     792      12     717     714     711     789      11
     717     714    -711     789      12     717     720     747     828      11
     717     720    -747     828      12     717     720     723     804      11
     717     720    -723     804      12     714     717     720     801      16
     714     711     708     786      22     714     711     708     783      22
     711     708     705     777       6     711     708     705     780       6
     708     711     714     795       6     708     711     714     798       6
     705     708     711     792      22     705     708     711     789      22
     702     705     708     786       6     702     705     708     783       6
     699     681     684     759       9     699     681     753     756      29
     699     681    -753     756       2     699     681    -753     756      30
     699     681     753     702      10     696     693     690     768       6
     696     693     690     765       6     696     852     849     924       3
     696     852    -849     924       2     696     852    -849     924       4
     693     690     684     759      13     693     696     852     927       1
     693     675     681     699      13     690     684     687     762       2
     690     684     681     699      13     690     693     696     774       2
     687     684     690     768       6     687     684     690     765       6
     687     684     681     699       6     684     690     693     771      13
     681     684     687     762       2     681     684     690     768      13
     681     684     690     765      13     681     675     693     771      13
     678     675     693     771       9     678     675     693     690      13
     678     675     693     696       6     678     675     681     684      13
     678     675     681     753       6     678     675     681     699       9
     678     675     672     702      10     675     693     690     768      13
     675     693     690     765      13     675     693     696     774       2
     675     681     684     759      13     672     675     693     771       6
     672     675     681     699       6     672     702     705     777      10
     672     702     705     780      10     669     672     675     678      29
     669     672    -675     678       2     669     672    -675     678      30
     993     912     915     996       5     987     906     909     990       5
     987     906     912     993       6     981     897     900     984       7
     978     897     900     984       7     975     894     897     978       6
     975     894     897     981       6     969     888     894     975       6
     969     888     891     972       5     966     885     912     993       6
     966     885     888     969       6     957     876     879     960       6
     957     876     879     963       6     954     876     879     960       6
     954     876     879     963       6     951     873     876     957       8
     951     873     876     954       8     948     873     876     957       8
     948     873     876     954       8     945     870     873     951       6
     945     870     873     948       6     942     870     873     951       6
     942     870     873     948       6     939     861    1017    1092       1
     939     861    1017    1014       1     936     858     861     939       2
     936     858     861    1017       3     936     858    -861    1017       2
     936     858    -861    1017       4     933     855     858     936       9
     930     855     858     936       9     924     849     852     927       2
     924     849     855     933       9     924     849     855     930       9
     918     846     849     924       6     918     867     870     942      10
     918     867     870     945      10     915     912     906     987       6
     915     912     885     966      11     915     912    -885     966      12
     912     906     909     990      11     912     906    -909     990      13
     912     885     888     969       6     909     906     912     993      11
     909     906    -912     993      12     906     912     915     996      11
     906     912    -915     996      13     906     912     885     966       6
     906     903     894     975      16     903     906     909     990       5
     903     906     912     993      11     903     906    -912     993      12
     903     894     888     969      11     903     894    -888     969      12
     903     894     897     978      11     903     894    -897     978      12
     903     894     897     981      11     903     894    -897     981      12
     900     897     894     975      11     900     897    -894     975      12
     897     894     888     969       6     894     903     906     987      16
     894     888     885     966       6     894     888     891     972      11
     894     888    -891     972      13     894     897     900     984      11
     894     897    -900     984      13     891     888     885     966      11
     891     888    -885     966      12     891     888     894     975      11
     891     888    -894     975      12     888     885     912     993       6
     888     894     897     978       6     888     894     897     981       6
     885     912     915     996      11     885     912    -915     996      13
     885     912     906     987       6     885     882     879     960      16
     885     882     879     963      16     885     888     894     975       6
     885     888     891     972      11     885     888    -891     972      13
     882     879     876     957      11     882     879    -876     957      12
     882     879     876     954      11     882     879    -876     954      12
     882     885     912     993      11     882     885    -912     993      12
     882     885     888     969      11     882     885    -888     969      12
     879     882     885     966      16     879     876     873     951      22
     879     876     873     948      22     876     873     870     942       6
     876     873     870     945       6     873     876     879     960       6
     873     876     879     963       6     870     873     876     957      22
     870     873     876     954      22     867     870     873     951       6
     867     870     873     948       6     864     846     849     924       9
     864     846     918     921      29     864     846    -918     921       2
     864     846    -918     921      30     864     846     918     867      10
     861     858     855     933       6     861     858     855     930       6
     861    1017    1014    1089       3     861    1017   -1014    1089       2
     861    1017   -1014    1089       4     858     855     849     924      13
     858     861    1017    1092       1     858     840     846     864      13
     855     849     852     927       2     855     849     846     864      13
     855     858     861     939       2     852     849     855     933       6
     852     849     855     930       6     852     849     846     864       6
     849     855     858     936      13     846     849     852     927       2
     846     849     855     933      13     846     849     855     930      13
     846     840     858     936      13     843     840     858     936       9
     843     840     858     855      13     843     840     858     861       6
     843     840     846     849      13     843     840     846     918       6
     843     840     846     864       9     843     840     837     867      10
     840     858     855     933      13     840     858     855     930      13
     840     858     861     939       2     840     846     849     924      13
     837     840     858     936       6     837     840     846     864       6
     837     867     870     942      10     837     867     870     945      10
     834     837     840     843      29     834     837    -840     843       2
     834     837    -840     843      30    1158    1077    1080    1161       5
    1152    1071    1074    1155       5    1152    1071    1077    1158       6
    1146    1062    1065    1149       7    1143    1062    1065    1149       7
    1140    1059    1062    1143       6    1140    1059    1062    1146       6
    1134    1053    1059    1140       6    1134    1053    1056    1137       5
    1131    1050    1077    1158       6    1131    1050    1053    1134       6
    1122    1041    1044    1125       6    1122    1041    1044    1128       6
    1119    1041    1044    1125       6    1119    1041    1044    1128       6
    1116    1038    1041    1122       8    1116    1038    1041    1119       8
    1113    1038    1041    1122       8    1113    1038    1041    1119       8
    1110    1035    1038    1116       6    1110    1035    1038    1113       6
    1107    1035    1038    1116       6    1107    1035    1038    1113       6
    1104    1026    1182    1257       1    1104    1026    1182    1179       1
    1101    1023    1026    1104       2    1101    1023    1026    1182       3
    1101    1023   -1026    1182       2    1101    1023   -1026    1182       4
    1098    1020    1023    1101       9    1095    1020    1023    1101       9
    1089    1014    1017    1092       2    1089    1014    1020    1098       9
    1089    1014    1020    1095       9    1083    1011    1014    1089       6
    1083    1032    1035    1107      10    1083    1032    1035    1110      10
    1080    1077    1071    1152       6    1080    1077    1050    1131      11
    1080    1077   -1050    1131      12    1077    1071    1074    1155      11
    1077    1071   -1074    1155      13    1077    1050    1053    1134       6
    1074    1071    1077    1158      11    1074    1071   -1077    1158      12
    1071    1077    1080    1161      11    1071    1077   -1080    1161      13
    1071    1077    1050    1131       6    1071    1068    1059    1140      16
    1068    1071    1074    1155       5    1068    1071    1077    1158      11
    1068    1071   -1077    1158      12    1068    1059    1053    1134      11
    1068    1059   -1053    1134      12    1068    1059    1062    1143      11
    1068    1059   -1062    1143      12    1068    1059    1062    1146      11
    1068    1059   -1062    1146      12    1065    1062    1059    1140      11
    1065    1062   -1059    1140      12    1062    1059    1053    1134       6
    1059    1068    1071    1152      16    1059    1053    1050    1131       6
    1059    1053    1056    1137      11    1059    1053   -1056    1137      13
    1059    1062    1065    1149      11    1059    1062   -1065    1149      13
    1056    1053    1050    1131      11    1056    1053   -1050    1131      12
    1056    1053    1059    1140      11    1056    1053   -1059    1140      12
    1053    1050    1077    1158       6    1053    1059    1062    1143       6
    1053    1059    1062    1146       6    1050    1077    1080    1161      11
    1050    1077   -1080    1161      13    1050    1077    1071    1152       6
    1050    1047    1044    1125      16    1050    1047    1044    1128      16
    1050    1053    1059    1140       6    1050    1053    1056    1137      11
    1050    1053   -1056    1137      13    1047    1044    1041    1122      11
    1047    1044   -1041    1122      12    1047    1044    1041    1119      11
    1047    1044   -1041    1119      12    1047    1050    1077    1158      11
    1047    1050   -1077    1158      12    1047    1050    1053    1134      11
    1047    1050   -1053    1134      12    1044    1047    1050    1131      16
    1044    1041    1038    1116      22    1044    1041    1038    1113      22
    1041    1038    1035    1107       6    1041    1038    1035    1110       6
    1038    1041    1044    1125       6    1038    1041    1044    1128       6
    1035    1038    1041    1122      22    1035    1038    1041    1119      22
    1032    1035    1038    1116       6    1032    1035    1038    1113       6
    1029    1011    1014    1089       9    1029    1011    1083    1086      29
    1029    1011   -1083    1086       2    1029    1011   -1083    1086      30
    1029    1011    1083    1032      10    1026    1023    1020    1098       6
    1026    1023    1020    1095       6    1026    1182    1179    1254       3
    1026    1182   -1179    1254       2    1026    1182   -1179    1254       4
    1023    1020    1014    1089      13    1023    1026    1182    1257       1
    1023    1005    1011    1029      13    1020    1014    1017    1092       2
    1020    1014    1011    1029      13    1020    1023    1026    1104       2
    1017    1014    1020    1098       6    1017    1014    1020    1095       6
    1017    1014    1011    1029       6    1014    1020    1023    1101      13
    1011    1014    1017    1092       2    1011    1014    1020    1098      13
    1011    1014    1020    1095      13    1011    1005    1023    1101      13
    1008    1005    1023    1101       9    1008    1005    1023    1020      13
    1008    1005    1023    1026       6    1008    1005    1011    1014      13
    1008    1005    1011    1083       6    1008    1005    1011    1029       9
    1008    1005    1002    1032      10    1005    1023    1020    1098      13
    1005    1023    1020    1095      13    1005    1023    1026    1104       2
    1005    1011    1014    1089      13    1002    1005    1023    1101       6
    1002    1005    1011    1029       6    1002    1032    1035    1107      10
    1002    1032    1035    1110      10     999    1002    1005    1008      29
     999    1002   -1005    1008       2     999    1002   -1005    1008      30
    1323    1242    1245    1326       5    1317    1236    1239    1320       5
    1317    1236    1242    1323       6    1311    1227    1230    1314       7
    1308    1227    1230    1314       7    1305    1224    1227    1308       6
    1305    1224    1227    1311       6    1299    1218    1224    1305       6
    1299    1218    1221    1302       5    1296    1215    1242    1323       6
    1296    1215    1218    1299       6    1287    1206    1209    1290       6
    1287    1206    1209    1293       6    1284    1206    1209    1290       6
    1284    1206    1209    1293       6    1281    1203    1206    1287       8
    1281    1203    1206    1284       8    1278    1203    1206    1287       8
    1278    1203    1206    1284       8    1275    1200    1203    1281       6
    1275    1200    1203    1278       6    1272    1200    1203    1281       6
    1272    1200    1203    1278       6    1269    1191    1347    1422       1
    1269    1191    1347    1344       1    1266    1188    1191    1269       2
    1266    1188    1191    1347       3    1266    1188   -1191    1347       2
    1266    1188   -1191    1347       4    1263    1185    1188    1266       9
    1260    1185    1188    1266       9    1254    1179    1182    1257       2
    1254    1179    1185    1263       9    1254    1179    1185    1260       9
    1248    1176    1179    1254       6    1248    1197    1200    1272      10
    1248    1197    1200    1275      10    1245    1242    1236    1317       6
    1245    1242    1215    1296      11    1245    1242   -1215    1296      12
    1242    1236    1239    1320      11    1242    1236   -1239    1320      13
    1242    1215    1218    1299       6    1239    1236    1242    1323      11
    1239    1236   -1242    1323      12    1236    1242    1245    1326      11
    1236    1242   -1245    1326      13    1236    1242    1215    1296       6
    1236    1233    1224    1305      16    1233    1236    1239    1320       5
    1233    1236    1242    1323      11    1233    1236   -1242    1323      12
    1233    1224    1218    1299      11    1233    1224   -1218    1299      12
    1233    1224    1227    1308      11    1233    1224   -1227    1308      12
    1233    1224    1227    1311      11    1233    1224   -1227    1311      12
    1230    1227    1224    1305      11    1230    1227   -1224    1305      12
    1227    1224    1218    1299       6    1224    1233    1236    1317      16
    1224    1218    1215    1296       6    1224    1218    1221    1302      11
    1224    1218   -1221    1302      13    1224    1227    1230    1314      11
    1224    1227   -1230    1314      13    1221    1218    1215    1296      11
    1221    1218   -1215    1296      12    1221    1218    1224    1305      11
    1221    1218   -1224    1305      12    1218    1215    1242    1323       6
    1218    1224    1227    1308       6    1218    1224    1227    1311       6
    1215    1242    1245    1326      11    1215    1242   -1245    1326      13
    1215    1242    1236    1317       6    1215    1212    1209    1290      16
    1215    1212    1209    1293      16    1215    1218    1224    1305       6
    1215    1218    1221    1302      11    1215    1218   -1221    1302      13
    1212    1209    1206    1287      11    1212    1209   -1206    1287      12
    1212    1209    1206    1284      11    1212    1209   -1206    1284      12
    1212    1215    1242    1323      11    1212    1215   -1242    1323      12
    1212    1215    1218    1299      11    1212    1215   -1218    1299      12
    1209    1212    1215    1296      16    1209    1206    1203    1281      22
    1209    1206    1203    1278      22    1206    1203    1200    1272       6
    1206    1203    1200    1275       6    1203    1206    1209    1290       6
    1203    1206    1209    1293       6    1200    1203    1206    1287      22
    1200    1203    1206    1284      22    1197    1200    1203    1281       6
    1197    1200    1203    1278       6    1194    1176    1179    1254       9
    1194    1176    1248    1251      29    1194    1176   -1248    1251       2
    1194    1176   -1248    1251      30    1194    1176    1248    1197      10
    1191    1188    1185    1263       6    1191    1188    1185    1260       6
    1191    1347    1344    1419       3    1191    1347   -1344    1419       2
    1191    1347   -1344    1419       4    1188    1185    1179    1254      13
    1188    1191    1347    1422       1    1188    1170    1176    1194      13
    1185    1179    1182    1257       2    1185    1179    1176    1194      13
    1185    1188    1191    1269       2    1182    1179    1185    1263       6
    1182    1179    1185    1260       6    1182    1179    1176    1194       6
    1179    1185    1188    1266      13    1176    1179    1182    1257       2
    1176    1179    1185    1263      13    1176    1179    1185    1260      13
    1176    1170    1188    1266      13    1173    1170    1188    1266       9
    1173    1170    1188    1185      13    1173    1170    1188    1191       6
    1173    1170    1176    1179      13    1173    1170    1176    1248       6
    1173    1170    1176    1194       9    1173    1170    1167    1197      10
    1170    1188    1185    1263      13    1170    1188    1185    1260      13
    1170    1188    1191    1269       2    1170    1176    1179    1254      13
    1167    1170    1188    1266       6    1167    1170    1176    1194       6
    1167    1197    1200    1272      10    1167    1197    1200    1275      10
    1164    1167    1170    1173      29    1164    1167   -1170    1173       2
    1164    1167   -1170    1173      30    1488    1407    1410    1491       5
    1482    1401    1404    1485       5    1482    1401    1407    1488       6
    1476    1392    1395    1479       7    1473    1392    1395    1479       7
    1470    1389    1392    1473       6    1470    1389    1392    1476       6
    1464    1383    1389    1470       6    1464    1383    1386    1467       5
    1461    1380    1407    1488       6    1461    1380    1383    1464       6
    1452    1371    1374    1455       6    1452    1371    1374    1458       6
    1449    1371    1374    1455       6    1449    1371    1374    1458       6
    1446    1368    1371    1452       8    1446    1368    1371    1449       8
    1443    1368    1371    1452       8    1443    1368    1371    1449       8
    1440    1365    1368    1446       6    1440    1365    1368    1443       6
    1437    1365    1368    1446       6    1437    1365    1368    1443       6
    1434    1356    1512    1587       1    1434    1356    1512    1509       1
    1431    1353    1356    1434       2    1431    1353    1356    1512       3
    1431    1353   -1356    1512       2    1431    1353   -1356    1512       4
    1428    1350    1353    1431       9    1425    1350    1353    1431       9
    1419    1344    1347    1422       2    1419    1344    1350    1428       9
    1419    1344    1350    1425       9    1413    1341    1344    1419       6
    1413    1362    1365    1437      10    1413    1362    1365    1440      10
    1410    1407    1401    1482       6    1410    1407    1380    1461      11
    1410    1407   -1380    1461      12    1407    1401    1404    1485      11
    1407    1401   -1404    1485      13    1407    1380    1383    1464       6
    1404    1401    1407    1488      11    1404    1401   -1407    1488      12
    1401    1407    1410    1491      11    1401    1407   -1410    1491      13
    1401    1407    1380    1461       6    1401    1398    1389    1470      16
    1398    1401    1404    1485       5    1398    1401    1407    1488      11
    1398    1401   -1407    1488      12    1398    1389    1383    1464      11
    1398    1389   -1383    1464      12    1398    1389    1392    1473      11
    1398    1389   -1392    1473      12    1398    1389    1392    1476      11
    1398    1389   -1392    1476      12    1395    1392    1389    1470      11
    1395    1392   -1389    1470      12    1392    1389    1383    1464       6
    1389    1398    1401    1482      16    1389    1383    1380    1461       6
    1389    1383    1386    1467      11    1389    1383   -1386    1467      13
    1389    1392    1395    1479      11    1389    1392   -1395    1479      13
    1386    1383    1380    1461      11    1386    1383   -1380    1461      12
    1386    1383    1389    1470      11    1386    1383   -1389    1470      12
    1383    1380    1407    1488       6    1383    1389    1392    1473       6
    1383    1389    1392    1476       6    1380    1407    1410    1491      11
    1380    1407   -1410    1491      13    1380    1407    1401    1482       6
    1380    1377    1374    1455      16    1380    1377    1374    1458      16
    1380    1383    1389    1470       6    1380    1383    1386    1467      11
    1380    1383   -1386    1467      13    1377    1374    1371    1452      11
    1377    1374   -1371    1452      12    1377    1374    1371    1449      11
    1377    1374   -1371    1449      12    1377    1380    1407    1488      11
    1377    1380   -1407    1488      12    1377    1380    1383    1464      11
    1377    1380   -1383    1464      12    1374    1377    1380    1461      16
    1374    1371    1368    1446      22    1374    1371    1368    1443      22
    1371    1368    1365    1437       6    1371    1368    1365    1440       6
    1368    1371    1374    1455       6    1368    1371    1374    1458       6
    1365    1368    1371    1452      22    1365    1368    1371    1449      22
    1362    1365    1368    1446       6    1362    1365    1368    1443       6
    1359    1341    1344    1419       9    1359    1341    1413    1416      29
    1359    1341   -1413    1416       2    1359    1341   -1413    1416      30
    1359    1341    1413    1362      10    1356    1353    1350    1428       6
    1356    1353    1350    1425       6    1356    1512    1509    1584       3
    1356    1512   -1509    1584       2    1356    1512   -1509    1584       4
    1353    1350    1344    1419      13    1353    1356    1512    1587       1
    1353    1335    1341    1359      13    1350    1344    1347    1422       2
    1350    1344    1341    1359      13    1350    1353    1356    1434       2
    1347    1344    1350    1428       6    1347    1344    1350    1425       6
    1347    1344    1341    1359       6    1344    1350    1353    1431      13
    1341    1344    1347    1422       2    1341    1344    1350    1428      13
    1341    1344    1350    1425      13    1341    1335    1353    1431      13
    1338    1335    1353    1431       9    1338    1335    1353    1350      13
    1338    1335    1353    1356       6    1338    1335    1341    1344      13
    1338    1335    1341    1413       6    1338    1335    1341    1359       9
    1338    1335    1332    1362      10    1335    1353    1350    1428      13
    1335    1353    1350    1425      13    1335    1353    1356    1434       2
    1335    1341    1344    1419      13    1332    1335    1353    1431       6
    1332    1335    1341    1359       6    1332    1362    1365    1437      10
    1332    1362    1365    1440      10    1329    1332    1335    1338      29
    1329    1332   -1335    1338       2    1329    1332   -1335    1338      30
    1653    1572    1575    1656       5    1647    1566    1569    1650       5
    1647    1566    1572    1653       6    1641    1557    1560    1644       7
    1638    1557    1560    1644       7    1635    1554    1557    1638       6
    1635    1554    1557    1641       6    1629    1548    1554    1635       6
    1629    1548    1551    1632       5    1626    1545    1572    1653       6
    1626    1545    1548    1629       6    1617    1536    1539    1620       6
    1617    1536    1539    1623       6    1614    1536    1539    1620       6
    1614    1536    1539    1623       6    1611    1533    1536    1617       8
    1611    1533    1536    1614       8    1608    1533    1536    1617       8
    1608    1533    1536    1614       8    1605    1530    1533    1611       6
    1605    1530    1533    1608       6    1602    1530    1533    1611       6
    1602    1530    1533    1608       6    1599    1521    1659    1662       1
    1599    1521    1659    1665       1    1596    1518    1521    1599       2
    1596    1518    1521    1659       3    1596    1518   -1521    1659       2
    1596    1518   -1521    1659       4    1593    1515    1518    1596       9
    1590    1515    1518    1596       9    1584    1509    1512    1587       2
    1584    1509    1515    1593       9    1584    1509    1515    1590       9
    1578    1506    1509    1584       6    1578    1527    1530    1602      10
    1578    1527    1530    1605      10    1575    1572    1566    1647       6
    1575    1572    1545    1626      11    1575    1572   -1545    1626      12
    1572    1566    1569    1650      11    1572    1566   -1569    1650      13
    1572    1545    1548    1629       6    1569    1566    1572    1653      11
    1569    1566   -1572    1653      12    1566    1572    1575    1656      11
    1566    1572   -1575    1656      13    1566    1572    1545    1626       6
    1566    1563    1554    1635      16    1563    1566    1569    1650       5
    1563    1566    1572    1653      11    1563    1566   -1572    1653      12
    1563    1554    1548    1629      11    1563    1554   -1548    1629      12
    1563    1554    1557    1638      11    1563    1554   -1557    1638      12
    1563    1554    1557    1641      11    1563    1554   -1557    1641      12
    1560    1557    1554    1635      11    1560    1557   -1554    1635      12
    1557    1554    1548    1629       6    1554    1563    1566    1647      16
    1554    1548    1545    1626       6    1554    1548    1551    1632      11
    1554    1548   -1551    1632      13    1554    1557    1560    1644      11
    1554    1557   -1560    1644      13    1551    1548    1545    1626      11
    1551    1548   -1545    1626      12    1551    1548    1554    1635      11
    1551    1548   -1554    1635      12    1548    1545    1572    1653       6
    1548    1554    1557    1638       6    1548    1554    1557    1641       6
    1545    1572    1575    1656      11    1545    1572   -1575    1656      13
    1545    1572    1566    1647       6    1545    1542    1539    1620      16
    1545    1542    1539    1623      16    1545    1548    1554    1635       6
    1545    1548    1551    1632      11    1545    1548   -1551    1632      13
    1542    1539    1536    1617      11    1542    1539   -1536    1617      12
    1542    1539    1536    1614      11    1542    1539   -1536    1614      12
    1542    1545    1572    1653      11    1542    1545   -1572    1653      12
    1542    1545    1548    1629      11    1542    1545   -1548    1629      12
    1539    1542    1545    1626      16    1539    1536    1533    1611      22
    1539    1536    1533    1608      22    1536    1533    1530    1602       6
    1536    1533    1530    1605       6    1533    1536    1539    1620       6
    1533    1536    1539    1623       6    1530    1533    1536    1617      22
    1530    1533    1536    1614      22    1527    1530    1533    1611       6
    1527    1530    1533    1608       6    1524    1506    1509    1584       9
    1524    1506    1578    1581      29    1524    1506   -1578    1581       2
    1524    1506   -1578    1581      30    1524    1506    1578    1527      10
    1521    1518    1515    1593       6    1521    1518    1515    1590       6
    1518    1515    1509    1584      13    1518    1521    1659    1662       1
    1518    1521    1659    1665       1    1518    1500    1506    1524      13
    1515    1509    1512    1587       2    1515    1509    1506    1524      13
    1515    1518    1521    1599       2    1512    1509    1515    1593       6
    1512    1509    1515    1590       6    1512    1509    1506    1524       6
    1509    1515    1518    1596      13    1506    1509    1512    1587       2
    1506    1509    1515    1593      13    1506    1509    1515    1590      13
    1506    1500    1518    1596      13    1503    1500    1518    1596       9
    1503    1500    1518    1515      13    1503    1500    1518    1521       6
    1503    1500    1506    1509      13    1503    1500    1506    1578       6
    1503    1500    1506    1524       9    1503    1500    1497    1527      10
    1500    1518    1515    1593      13    1500    1518    1515    1590      13
    1500    1518    1521    1599       2    1500    1506    1509    1584      13
    1497    1500    1518    1596       6    1497    1500    1506    1524       6
    1497    1527    1530    1602      10    1497    1527    1530    1605      10
    1494    1497    1500    1503      29    1494    1497   -1500    1503       2
    1494    1497   -1500    1503      30       6       0      -3     -27      34
     192      33     -36    -114      34       0      24     -27    -102      34
     357     198    -201    -279      34      36     189    -192    -267      34
     522     363    -366    -444      34     201     354    -357    -432      34
     687     528    -531    -609      34     366     519    -522    -597      34
     852     693    -696    -774      34     531     684    -687    -762      34
    1017     858    -861    -939      34     696     849    -852    -927      34
    1182    1023   -1026   -1104      34     861    1014   -1017   -1092      34
    1347    1188   -1191   -1269      34    1026    1179   -1182   -1257      34
    1512    1353   -1356   -1434      34    1191    1344   -1347   -1422      34
    1659    1518   -1521   -1599      34    1356    1509   -1512   -1587      34
    1521    1662   -1659   -1665      34
%FLAG DIHEDRALS_WITHOUT_HYDROGEN                                                
%FORMAT(10I8)                                                                   
       0      27      24      30       2       0      27      24      21       2
      84      81      87      90      14      84      81     -87      90      15
      78      81      87      90      14      78      81     -87      90      15
      75      72      69      78      14      75      72     -69      78      15
      72      69      78      81      17      72      69     -78      81      18
      69      78      81      84      16      69      78      81      87      17
      69      78     -81      87      18      69      63     -60      87      19
      69      63     -60      87      20      69      63     -60      87      21
      66      63      60      87       6      66      63      69      78      14
      66      63     -69      78      15      66      63      69      72       6
      63      60      87      90       6      63      60      87      81      19
      63      60     -87      81      20      63      60     -87      81      21
      63      69     -78      81      17      63      69     -78      81      18
      63      69      72      75       6      60      87      81      84       6
      60      87      81      78       6      60      63     -69      78       6
      60      63      69      72      19      60      63     -69      72      20
      60      63     -69      72      21      57      60      87      90      14
      57      60     -87      90      15      57      60      87      81       6
      57      60      63      69       6      57      60      63      66      14
      57      60     -63      66      15      54      57      60      87      17
      54      57     -60      87      18      54      57      60      63      17
      54      57     -60      63      18      51      54      57      60      17
      51      54     -57      60      18      48      51      54      57       6
      48      45      42      93      23      48      45     -42      93      24
      48      45     -42      93      25      45      48      51      54      26
      45      42      93      96      27      42      45      48      51      28
      36     192     189     195       2      36     192     189     186       2
      33      36     192     189       1      33      15      21      93       6
      33      15      12      42      31      33      15     -12      42      32
      30      24      21      93       6      30      33      36     192       2
      27      24      30      33       6      27      24      21      93       6
      24      30      33      36       6      24      21      93      96      10
      24      21      93      42      31      24      21     -93      42      32
      24      21     -15      33      19      24      21     -15      33      20
      24      21     -15      33      21      21      24     -30      33      19
      21      24     -30      33      20      21      24     -30      33      21
      21      93      42      45      33      21      93     -42      45       2
      21      15     -33      30      19      21      15     -33      30      20
      21      15     -33      30      21      21      15      33      36       6
      21      15     -12      42      31      21      15     -12      42      32
      15      33     -30      24      19      15      33     -30      24      20
      15      33     -30      24      21      15      33      36     192       2
      15      21      24      27       6      15      21     -24      30      19
      15      21     -24      30      20      15      21     -24      30      21
      15      21      93      96      10      15      21     -93      42      31
      15      21     -93      42      32      15      12     -42      93      27
      15      12      42      45      33      15      12     -42      45       2
      12      15      33      30       6      12      15      33      36       6
      12      15      21      24       6      12      15     -21      93       6
      12      42     -93      21      27      12      42      93      96      27
      12      42      45      48      23      12      42     -45      48      24
      12      42     -45      48      25       9      12      15      33      10
       9      12      15      21      10       9      12      42      93      27
       9      12      42      45      27     249     246     252     255      14
     249     246    -252     255      15     243     246     252     255      14
     243     246    -252     255      15     240     237     234     243      14
     240     237    -234     243      15     237     234     243     246      17
     237     234    -243     246      18     234     243     246     249      16
     234     243     246     252      17     234     243    -246     252      18
     234     228    -225     252      19     234     228    -225     252      20
     234     228    -225     252      21     231     228     225     252       6
     231     228     234     243      14     231     228    -234     243      15
     231     228     234     237       6     228     225     252     255       6
     228     225     252     246      19     228     225    -252     246      20
     228     225    -252     246      21     228     234    -243     246      17
     228     234    -243     246      18     228     234     237     240       6
     225     252     246     249       6     225     252     246     243       6
     225     228    -234     243       6     225     228     234     237      19
     225     228    -234     237      20     225     228    -234     237      21
     222     225     252     255      14     222     225    -252     255      15
     222     225     252     246       6     222     225     228     234       6
     222     225     228     231      14     222     225    -228     231      15
     219     222     225     252      17     219     222    -225     252      18
     219     222     225     228      17     219     222    -225     228      18
     216     219     222     225      17     216     219    -222     225      18
     213     216     219     222       6     213     210     207     258      23
     213     210    -207     258      24     213     210    -207     258      25
     210     213     216     219      26     210     207     258     261      27
     207     210     213     216      28     201     357     354     360       2
     201     357     354     351       2     198     201     357     354       1
     198     180     186     258       6     198     180     177     207      31
     198     180    -177     207      32     195     189     186     258       6
     195     198     201     357       2     192     189     195     198       6
     192     189     186     258       6     189     195     198     201       6
     189     186     258     261      10     189     186     258     207      31
     189     186    -258     207      32     189     186    -180     198      19
     189     186    -180     198      20     189     186    -180     198      21
     186     189    -195     198      19     186     189    -195     198      20
     186     189    -195     198      21     186     258     207     210      33
     186     258    -207     210       2     186     180    -198     195      19
     186     180    -198     195      20     186     180    -198     195      21
     186     180     198     201       6     186     180    -177     207      31
     186     180    -177     207      32     180     198    -195     189      19
     180     198    -195     189      20     180     198    -195     189      21
     180     198     201     357       2     180     186     189     192       6
     180     186    -189     195      19     180     186    -189     195      20
     180     186    -189     195      21     180     186     258     261      10
     180     186    -258     207      31     180     186    -258     207      32
     180     177    -207     258      27     180     177     207     210      33
     180     177    -207     210       2     177     180     198     195       6
     177     180     198     201       6     177     180     186     189       6
     177     180    -186     258       6     177     207    -258     186      27
     177     207     258     261      27     177     207     210     213      23
     177     207    -210     213      24     177     207    -210     213      25
     174     177     180     198      10     174     177     180     186      10
     174     177     207     258      27     174     177     207     210      27
     414     411     417     420      14     414     411    -417     420      15
     408     411     417     420      14     408     411    -417     420      15
     405     402     399     408      14     405     402    -399     408      15
     402     399     408     411      17     402     399    -408     411      18
     399     408     411     414      16     399     408     411     417      17
     399     408    -411     417      18     399     393    -390     417      19
     399     393    -390     417      20     399     393    -390     417      21
     396     393     390     417       6     396     393     399     408      14
     396     393    -399     408      15     396     393     399     402       6
     393     390     417     420       6     393     390     417     411      19
     393     390    -417     411      20     393     390    -417     411      21
     393     399    -408     411      17     393     399    -408     411      18
     393     399     402     405       6     390     417     411     414       6
     390     417     411     408       6     390     393    -399     408       6
     390     393     399     402      19     390     393    -399     402      20
     390     393    -399     402      21     387     390     417     420      14
     387     390    -417     420      15     387     390     417     411       6
     387     390     393     399       6     387     390     393     396      14
     387     390    -393     396      15     384     387     390     417      17
     384     387    -390     417      18     384     387     390     393      17
     384     387    -390     393      18     381     384     387     390      17
     381     384    -387     390      18     378     381     384     387       6
     378     375     372     423      23     378     375    -372     423      24
     378     375    -372     423      25     375     378     381     384      26
     375     372     423     426      27     372     375     378     381      28
     366     522     519     525       2     366     522     519     516       2
     363     366     522     519       1     363     345     351     423       6
     363     345     342     372      31     363     345    -342     372      32
     360     354     351     423       6     360     363     366     522       2
     357     354     360     363       6     357     354     351     423       6
     354     360     363     366       6     354     351     423     426      10
     354     351     423     372      31     354     351    -423     372      32
     354     351    -345     363      19     354     351    -345     363      20
     354     351    -345     363      21     351     354    -360     363      19
     351     354    -360     363      20     351     354    -360     363      21
     351     423     372     375      33     351     423    -372     375       2
     351     345    -363     360      19     351     345    -363     360      20
     351     345    -363     360      21     351     345     363     366       6
     351     345    -342     372      31     351     345    -342     372      32
     345     363    -360     354      19     345     363    -360     354      20
     345     363    -360     354      21     345     363     366     522       2
     345     351     354     357       6     345     351    -354     360      19
     345     351    -354     360      20     345     351    -354     360      21
     345     351     423     426      10     345     351    -423     372      31
     345     351    -423     372      32     345     342    -372     423      27
     345     342     372     375      33     345     342    -372     375       2
     342     345     363     360       6     342     345     363     366       6
     342     345     351     354       6     342     345    -351     423       6
     342     372    -423     351      27     342     372     423     426      27
     342     372     375     378      23     342     372    -375     378      24
     342     372    -375     378      25     339     342     345     363      10
     339     342     345     351      10     339     342     372     423      27
     339     342     372     375      27     579     576     582     585      14
     579     576    -582     585      15     573     576     582     585      14
     573     576    -582     585      15     570     567     564     573      14
     570     567    -564     573      15     567     564     573     576      17
     567     564    -573     576      18     564     573     576     579      16
     564     573     576     582      17     564     573    -576     582      18
     564     558    -555     582      19     564     558    -555     582      20
     564     558    -555     582      21     561     558     555     582       6
     561     558     564     573      14     561     558    -564     573      15
     561     558     564     567       6     558     555     582     585       6
     558     555     582     576      19     558     555    -582     576      20
     558     555    -582     576      21     558     564    -573     576      17
     558     564    -573     576      18     558     564     567     570       6
     555     582     576     579       6     555     582     576     573       6
     555     558    -564     573       6     555     558     564     567      19
     555     558    -564     567      20     555     558    -564     567      21
     552     555     582     585      14     552     555    -582     585      15
     552     555     582     576       6     552     555     558     564       6
     552     555     558     561      14     552     555    -558     561      15
     549     552     555     582      17     549     552    -555     582      18
     549     552     555     558      17     549     552    -555     558      18
     546     549     552     555      17     546     549    -552     555      18
     543     546     549     552       6     543     540     537     588      23
     543     540    -537     588      24     543     540    -537     588      25
     540     543     546     549      26     540     537     588     591      27
     537     540     543     546      28     531     687     684     690       2
     531     687     684     681       2     528     531     687     684       1
     528     510     516     588       6     528     510     507     537      31
     528     510    -507     537      32     525     519     516     588       6
     525     528     531     687       2     522     519     525     528       6
     522     519     516     588       6     519     525     528     531       6
     519     516     588     591      10     519     516     588     537      31
     519     516    -588     537      32     519     516    -510     528      19
     519     516    -510     528      20     519     516    -510     528      21
     516     519    -525     528      19     516     519    -525     528      20
     516     519    -525     528      21     516     588     537     540      33
     516     588    -537     540       2     516     510    -528     525      19
     516     510    -528     525      20     516     510    -528     525      21
     516     510     528     531       6     516     510    -507     537      31
     516     510    -507     537      32     510     528    -525     519      19
     510     528    -525     519      20     510     528    -525     519      21
     510     528     531     687       2     510     516     519     522       6
     510     516    -519     525      19     510     516    -519     525      20
     510     516    -519     525      21     510     516     588     591      10
     510     516    -588     537      31     510     516    -588     537      32
     510     507    -537     588      27     510     507     537     540      33
     510     507    -537     540       2     507     510     528     525       6
     507     510     528     531       6     507     510     516     519       6
     507     510    -516     588       6     507     537    -588     516      27
     507     537     588     591      27     507     537     540     543      23
     507     537    -540     543      24     507     537    -540     543      25
     504     507     510     528      10     504     507     510     516      10
     504     507     537     588      27     504     507     537     540      27
     744     741     747     750      14     744     741    -747     750      15
     738     741     747     750      14     738     741    -747     750      15
     735     732     729     738      14     735     732    -729     738      15
     732     729     738     741      17     732     729    -738     741      18
     729     738     741     744      16     729     738     741     747      17
     729     738    -741     747      18     729     723    -720     747      19
     729     723    -720     747      20     729     723    -720     747      21
     726     723     720     747       6     726     723     729     738      14
     726     723    -729     738      15     726     723     729     732       6
     723     720     747     750       6     723     720     747     741      19
     723     720    -747     741      20     723     720    -747     741      21
     723     729    -738     741      17     723     729    -738     741      18
     723     729     732     735       6     720     747     741     744       6
     720     747     741     738       6     720     723    -729     738       6
     720     723     729     732      19     720     723    -729     732      20
     720     723    -729     732      21     717     720     747     750      14
     717     720    -747     750      15     717     720     747     741       6
     717     720     723     729       6     717     720     723     726      14
     717     720    -723     726      15     714     717     720     747      17
     714     717    -720     747      18     714     717     720     723      17
     714     717    -720     723      18     711     714     717     720      17
     711     714    -717     720      18     708     711     714     717       6
     708     705     702     753      23     708     705    -702     753      24
     708     705    -702     753      25     705     708     711     714      26
     705     702     753     756      27     702     705     708     711      28
     696     852     849     855       2     696     852     849     846       2
     693     696     852     849       1     693     675     681     753       6
     693     675     672     702      31     693     675    -672     702      32
     690     684     681     753       6     690     693     696     852       2
     687     684     690     693       6     687     684     681     753       6
     684     690     693     696       6     684     681     753     756      10
     684     681     753     702      31     684     681    -753     702      32
     684     681    -675     693      19     684     681    -675     693      20
     684     681    -675     693      21     681     684    -690     693      19
     681     684    -690     693      20     681     684    -690     693      21
     681     753     702     705      33     681     753    -702     705       2
     681     675    -693     690      19     681     675    -693     690      20
     681     675    -693     690      21     681     675     693     696       6
     681     675    -672     702      31     681     675    -672     702      32
     675     693    -690     684      19     675     693    -690     684      20
     675     693    -690     684      21     675     693     696     852       2
     675     681     684     687       6     675     681    -684     690      19
     675     681    -684     690      20     675     681    -684     690      21
     675     681     753     756      10     675     681    -753     702      31
     675     681    -753     702      32     675     672    -702     753      27
     675     672     702     705      33     675     672    -702     705       2
     672     675     693     690       6     672     675     693     696       6
     672     675     681     684       6     672     675    -681     753       6
     672     702    -753     681      27     672     702     753     756      27
     672     702     705     708      23     672     702    -705     708      24
     672     702    -705     708      25     669     672     675     693      10
     669     672     675     681      10     669     672     702     753      27
     669     672     702     705      27     909     906     912     915      14
     909     906    -912     915      15     903     906     912     915      14
     903     906    -912     915      15     900     897     894     903      14
     900     897    -894     903      15     897     894     903     906      17
     897     894    -903     906      18     894     903     906     909      16
     894     903     906     912      17     894     903    -906     912      18
     894     888    -885     912      19     894     888    -885     912      20
     894     888    -885     912      21     891     888     885     912       6
     891     888     894     903      14     891     888    -894     903      15
     891     888     894     897       6     888     885     912     915       6
     888     885     912     906      19     888     885    -912     906      20
     888     885    -912     906      21     888     894    -903     906      17
     888     894    -903     906      18     888     894     897     900       6
     885     912     906     909       6     885     912     906     903       6
     885     888    -894     903       6     885     888     894     897      19
     885     888    -894     897      20     885     888    -894     897      21
     882     885     912     915      14     882     885    -912     915      15
     882     885     912     906       6     882     885     888     894       6
     882     885     888     891      14     882     885    -888     891      15
     879     882     885     912      17     879     882    -885     912      18
     879     882     885     888      17     879     882    -885     888      18
     876     879     882     885      17     876     879    -882     885      18
     873     876     879     882       6     873     870     867     918      23
     873     870    -867     918      24     873     870    -867     918      25
     870     873     876     879      26     870     867     918     921      27
     867     870     873     876      28     861    1017    1014    1020       2
     861    1017    1014    1011       2     858     861    1017    1014       1
     858     840     846     918       6     858     840     837     867      31
     858     840    -837     867      32     855     849     846     918       6
     855     858     861    1017       2     852     849     855     858       6
     852     849     846     918       6     849     855     858     861       6
     849     846     918     921      10     849     846     918     867      31
     849     846    -918     867      32     849     846    -840     858      19
     849     846    -840     858      20     849     846    -840     858      21
     846     849    -855     858      19     846     849    -855     858      20
     846     849    -855     858      21     846     918     867     870      33
     846     918    -867     870       2     846     840    -858     855      19
     846     840    -858     855      20     846     840    -858     855      21
     846     840     858     861       6     846     840    -837     867      31
     846     840    -837     867      32     840     858    -855     849      19
     840     858    -855     849      20     840     858    -855     849      21
     840     858     861    1017       2     840     846     849     852       6
     840     846    -849     855      19     840     846    -849     855      20
     840     846    -849     855      21     840     846     918     921      10
     840     846    -918     867      31     840     846    -918     867      32
     840     837    -867     918      27     840     837     867     870      33
     840     837    -867     870       2     837     840     858     855       6
     837     840     858     861       6     837     840     846     849       6
     837     840    -846     918       6     837     867    -918     846      27
     837     867     918     921      27     837     867     870     873      23
     837     867    -870     873      24     837     867    -870     873      25
     834     837     840     858      10     834     837     840     846      10
     834     837     867     918      27     834     837     867     870      27
    1074    1071    1077    1080      14    1074    1071   -1077    1080      15
    1068    1071    1077    1080      14    1068    1071   -1077    1080      15
    1065    1062    1059    1068      14    1065    1062   -1059    1068      15
    1062    1059    1068    1071      17    1062    1059   -1068    1071      18
    1059    1068    1071    1074      16    1059    1068    1071    1077      17
    1059    1068   -1071    1077      18    1059    1053   -1050    1077      19
    1059    1053   -1050    1077      20    1059    1053   -1050    1077      21
    1056    1053    1050    1077       6    1056    1053    1059    1068      14
    1056    1053   -1059    1068      15    1056    1053    1059    1062       6
    1053    1050    1077    1080       6    1053    1050    1077    1071      19
    1053    1050   -1077    1071      20    1053    1050   -1077    1071      21
    1053    1059   -1068    1071      17    1053    1059   -1068    1071      18
    1053    1059    1062    1065       6    1050    1077    1071    1074       6
    1050    1077    1071    1068       6    1050    1053   -1059    1068       6
    1050    1053    1059    1062      19    1050    1053   -1059    1062      20
    1050    1053   -1059    1062      21    1047    1050    1077    1080      14
    1047    1050   -1077    1080      15    1047    1050    1077    1071       6
    1047    1050    1053    1059       6    1047    1050    1053    1056      14
    1047    1050   -1053    1056      15    1044    1047    1050    1077      17
    1044    1047   -1050    1077      18    1044    1047    1050    1053      17
    1044    1047   -1050    1053      18    1041    1044    1047    1050      17
    1041    1044   -1047    1050      18    1038    1041    1044    1047       6
    1038    1035    1032    1083      23    1038    1035   -1032    1083      24
    1038    1035   -1032    1083      25    1035    1038    1041    1044      26
    1035    1032    1083    1086      27    1032    1035    1038    1041      28
    1026    1182    1179    1185       2    1026    1182    1179    1176       2
    1023    1026    1182    1179       1    1023    1005    1011    1083       6
    1023    1005    1002    1032      31    1023    1005   -1002    1032      32
    1020    1014    1011    1083       6    1020    1023    1026    1182       2
    1017    1014    1020    1023       6    1017    1014    1011    1083       6
    1014    1020    1023    1026       6    1014    1011    1083    1086      10
    1014    1011    1083    1032      31    1014    1011   -1083    1032      32
    1014    1011   -1005    1023      19    1014    1011   -1005    1023      20
    1014    1011   -1005    1023      21    1011    1014   -1020    1023      19
    1011    1014   -1020    1023      20    1011    1014   -1020    1023      21
    1011    1083    1032    1035      33    1011    1083   -1032    1035       2
    1011    1005   -1023    1020      19    1011    1005   -1023    1020      20
    1011    1005   -1023    1020      21    1011    1005    1023    1026       6
    1011    1005   -1002    1032      31    1011    1005   -1002    1032      32
    1005    1023   -1020    1014      19    1005    1023   -1020    1014      20
    1005    1023   -1020    1014      21    1005    1023    1026    1182       2
    1005    1011    1014    1017       6    1005    1011   -1014    1020      19
    1005    1011   -1014    1020      20    1005    1011   -1014    1020      21
    1005    1011    1083    1086      10    1005    1011   -1083    1032      31
    1005    1011   -1083    1032      32    1005    1002   -1032    1083      27
    1005    1002    1032    1035      33    1005    1002   -1032    1035       2
    1002    1005    1023    1020       6    1002    1005    1023    1026       6
    1002    1005    1011    1014       6    1002    1005   -1011    1083       6
    1002    1032   -1083    1011      27    1002    1032    1083    1086      27
    1002    1032    1035    1038      23    1002    1032   -1035    1038      24
    1002    1032   -1035    1038      25     999    1002    1005    1023      10
     999    1002    1005    1011      10     999    1002    1032    1083      27
     999    1002    1032    1035      27    1239    1236    1242    1245      14
    1239    1236   -1242    1245      15    1233    1236    1242    1245      14
    1233    1236   -1242    1245      15    1230    1227    1224    1233      14
    1230    1227   -1224    1233      15    1227    1224    1233    1236      17
    1227    1224   -1233    1236      18    1224    1233    1236    1239      16
    1224    1233    1236    1242      17    1224    1233   -1236    1242      18
    1224    1218   -1215    1242      19    1224    1218   -1215    1242      20
    1224    1218   -1215    1242      21    1221    1218    1215    1242       6
    1221    1218    1224    1233      14    1221    1218   -1224    1233      15
    1221    1218    1224    1227       6    1218    1215    1242    1245       6
    1218    1215    1242    1236      19    1218    1215   -1242    1236      20
    1218    1215   -1242    1236      21    1218    1224   -1233    1236      17
    1218    1224   -1233    1236      18    1218    1224    1227    1230       6
    1215    1242    1236    1239       6    1215    1242    1236    1233       6
    1215    1218   -1224    1233       6    1215    1218    1224    1227      19
    1215    1218   -1224    1227      20    1215    1218   -1224    1227      21
    1212    1215    1242    1245      14    1212    1215   -1242    1245      15
    1212    1215    1242    1236       6    1212    1215    1218    1224       6
    1212    1215    1218    1221      14    1212    1215   -1218    1221      15
    1209    1212    1215    1242      17    1209    1212   -1215    1242      18
    1209    1212    1215    1218      17    1209    1212   -1215    1218      18
    1206    1209    1212    1215      17    1206    1209   -1212    1215      18
    1203    1206    1209    1212       6    1203    1200    1197    1248      23
    1203    1200   -1197    1248      24    1203    1200   -1197    1248      25
    1200    1203    1206    1209      26    1200    1197    1248    1251      27
    1197    1200    1203    1206      28    1191    1347    1344    1350       2
    1191    1347    1344    1341       2    1188    1191    1347    1344       1
    1188    1170    1176    1248       6    1188    1170    1167    1197      31
    1188    1170   -1167    1197      32    1185    1179    1176    1248       6
    1185    1188    1191    1347       2    1182    1179    1185    1188       6
    1182    1179    1176    1248       6    1179    1185    1188    1191       6
    1179    1176    1248    1251      10    1179    1176    1248    1197      31
    1179    1176   -1248    1197      32    1179    1176   -1170    1188      19
    1179    1176   -1170    1188      20    1179    1176   -1170    1188      21
    1176    1179   -1185    1188      19    1176    1179   -1185    1188      20
    1176    1179   -1185    1188      21    1176    1248    1197    1200      33
    1176    1248   -1197    1200       2    1176    1170   -1188    1185      19
    1176    1170   -1188    1185      20    1176    1170   -1188    1185      21
    1176    1170    1188    1191       6    1176    1170   -1167    1197      31
    1176    1170   -1167    1197      32    1170    1188   -1185    1179      19
    1170    1188   -1185    1179      20    1170    1188   -1185    1179      21
    1170    1188    1191    1347       2    1170    1176    1179    1182       6
    1170    1176   -1179    1185      19    1170    1176   -1179    1185      20
    1170    1176   -1179    1185      21    1170    1176    1248    1251      10
    1170    1176   -1248    1197      31    1170    1176   -1248    1197      32
    1170    1167   -1197    1248      27    1170    1167    1197    1200      33
    1170    1167   -1197    1200       2    1167    1170    1188    1185       6
    1167    1170    1188    1191       6    1167    1170    1176    1179       6
    1167    1170   -1176    1248       6    1167    1197   -1248    1176      27
    1167    1197    1248    1251      27    1167    1197    1200    1203      23
    1167    1197   -1200    1203      24    1167    1197   -1200    1203      25
    1164    1167    1170    1188      10    1164    1167    1170    1176      10
    1164    1167    1197    1248      27    1164    1167    1197    1200      27
    1404    1401    1407    1410      14    1404    1401   -1407    1410      15
    1398    1401    1407    1410      14    1398    1401   -1407    1410      15
    1395    1392    1389    1398      14    1395    1392   -1389    1398      15
    1392    1389    1398    1401      17    1392    1389   -1398    1401      18
    1389    1398    1401    1404      16    1389    1398    1401    1407      17
    1389    1398   -1401    1407      18    1389    1383   -1380    1407      19
    1389    1383   -1380    1407      20    1389    1383   -1380    1407      21
    1386    1383    1380    1407       6    1386    1383    1389    1398      14
    1386    1383   -1389    1398      15    1386    1383    1389    1392       6
    1383    1380    1407    1410       6    1383    1380    1407    1401      19
    1383    1380   -1407    1401      20    1383    1380   -1407    1401      21
    1383    1389   -1398    1401      17    1383    1389   -1398    1401      18
    1383    1389    1392    1395       6    1380    1407    1401    1404       6
    1380    1407    1401    1398       6    1380    1383   -1389    1398       6
    1380    1383    1389    1392      19    1380    1383   -1389    1392      20
    1380    1383   -1389    1392      21    1377    1380    1407    1410      14
    1377    1380   -1407    1410      15    1377    1380    1407    1401       6
    1377    1380    1383    1389       6    1377    1380    1383    1386      14
    1377    1380   -1383    1386      15    1374    1377    1380    1407      17
    1374    1377   -1380    1407      18    1374    1377    1380    1383      17
    1374    1377   -1380    1383      18    1371    1374    1377    1380      17
    1371    1374   -1377    1380      18    1368    1371    1374    1377       6
    1368    1365    1362    1413      23    1368    1365   -1362    1413      24
    1368    1365   -1362    1413      25    1365    1368    1371    1374      26
    1365    1362    1413    1416      27    1362    1365    1368    1371      28
    1356    1512    1509    1515       2    1356    1512    1509    1506       2
    1353    1356    1512    1509       1    1353    1335    1341    1413       6
    1353    1335    1332    1362      31    1353    1335   -1332    1362      32
    1350    1344    1341    1413       6    1350    1353    1356    1512       2
    1347    1344    1350    1353       6    1347    1344    1341    1413       6
    1344    1350    1353    1356       6    1344    1341    1413    1416      10
    1344    1341    1413    1362      31    1344    1341   -1413    1362      32
    1344    1341   -1335    1353      19    1344    1341   -1335    1353      20
    1344    1341   -1335    1353      21    1341    1344   -1350    1353      19
    1341    1344   -1350    1353      20    1341    1344   -1350    1353      21
    1341    1413    1362    1365      33    1341    1413   -1362    1365       2
    1341    1335   -1353    1350      19    1341    1335   -1353    1350      20
    1341    1335   -1353    1350      21    1341    1335    1353    1356       6
    1341    1335   -1332    1362      31    1341    1335   -1332    1362      32
    1335    1353   -1350    1344      19    1335    1353   -1350    1344      20
    1335    1353   -1350    1344      21    1335    1353    1356    1512       2
    1335    1341    1344    1347       6    1335    1341   -1344    1350      19
    1335    1341   -1344    1350      20    1335    1341   -1344    1350      21
    1335    1341    1413    1416      10    1335    1341   -1413    1362      31
    1335    1341   -1413    1362      32    1335    1332   -1362    1413      27
    1335    1332    1362    1365      33    1335    1332   -1362    1365       2
    1332    1335    1353    1350       6    1332    1335    1353    1356       6
    1332    1335    1341    1344       6    1332    1335   -1341    1413       6
    1332    1362   -1413    1341      27    1332    1362    1413    1416      27
    1332    1362    1365    1368      23    1332    1362   -1365    1368      24
    1332    1362   -1365    1368      25    1329    1332    1335    1353      10
    1329    1332    1335    1341      10    1329    1332    1362    1413      27
    1329    1332    1362    1365      27    1569    1566    1572    1575      14
    1569    1566   -1572    1575      15    1563    1566    1572    1575      14
    1563    1566   -1572    1575      15    1560    1557    1554    1563      14
    1560    1557   -1554    1563      15    1557    1554    1563    1566      17
    1557    1554   -1563    1566      18    1554    1563    1566    1569      16
    1554    1563    1566    1572      17    1554    1563   -1566    1572      18
    1554    1548   -1545    1572      19    1554    1548   -1545    1572      20
    1554    1548   -1545    1572      21    1551    1548    1545    1572       6
    1551    1548    1554    1563      14    1551    1548   -1554    1563      15
    1551    1548    1554    1557       6    1548    1545    1572    1575       6
    1548    1545    1572    1566      19    1548    1545   -1572    1566      20
    1548    1545   -1572    1566      21    1548    1554   -1563    1566      17
    1548    1554   -1563    1566      18    1548    1554    1557    1560       6
    1545    1572    1566    1569       6    1545    1572    1566    1563       6
    1545    1548   -1554    1563       6    1545    1548    1554    1557      19
    1545    1548   -1554    1557      20    1545    1548   -1554    1557      21
    1542    1545    1572    1575      14    1542    1545   -1572    1575      15
    1542    1545    1572    1566       6    1542    1545    1548    1554       6
    1542    1545    1548    1551      14    1542    1545   -1548    1551      15
    1539    1542    1545    1572      17    1539    1542   -1545    1572      18
    1539    1542    1545    1548      17    1539    1542   -1545    1548      18
    1536    1539    1542    1545      17    1536    1539   -1542    1545      18
    1533    1536    1539    1542       6    1533    1530    1527    1578      23
    1533    1530   -1527    1578      24    1533    1530   -1527    1578      25
    1530    1533    1536    1539      26    1530    1527    1578    1581      27
    1527    1530    1533    1536      28    1518    1500    1506    1578       6
    1518    1500    1497    1527      31    1518    1500   -1497    1527      32
    1515    1509    1506    1578       6    1515    1518    1521    1659       2
    1512    1509    1515    1518       6    1512    1509    1506    1578       6
    1509    1515    1518    1521       6    1509    1506    1578    1581      10
    1509    1506    1578    1527      31    1509    1506   -1578    1527      32
    1509    1506   -1500    1518      19    1509    1506   -1500    1518      20
    1509    1506   -1500    1518      21    1506    1509   -1515    1518      19
    1506    1509   -1515    1518      20    1506    1509   -1515    1518      21
    1506    1578    1527    1530      33    1506    1578   -1527    1530       2
    1506    1500   -1518    1515      19    1506    1500   -1518    1515      20
    1506    1500   -1518    1515      21    1506    1500    1518    1521       6
    1506    1500   -1497    1527      31    1506    1500   -1497    1527      32
    1500    1518   -1515    1509      19    1500    1518   -1515    1509      20
    1500    1518   -1515    1509      21    1500    1518    1521    1659       2
    1500    1506    1509    1512       6    1500    1506   -1509    1515      19
    1500    1506   -1509    1515      20    1500    1506   -1509    1515      21
    1500    1506    1578    1581      10    1500    1506   -1578    1527      31
    1500    1506   -1578    1527      32    1500    1497   -1527    1578      27
    1500    1497    1527    1530      33    1500    1497   -1527    1530       2
    1497    1500    1518    1515       6    1497    1500    1518    1521       6
    1497    1500    1506    1509       6    1497    1500   -1506    1578       6
    1497    1527   -1578    1506      27    1497    1527    1578    1581      27
    1497    1527    1530    1533      23    1497    1527   -1530    1533      24
    1497    1527   -1530    1533      25    1494    1497    1500    1518      10
    1494    1497    1500    1506      10    1494    1497    1527    1578      27
    1494    1497    1527    1530      27      21      42     -93     -96      35
      12      93     -42     -45      34      15      42     -12      -9      35
     186     207    -258    -261      35     177     258    -207    -210      34
     180     207    -177    -174      35     351     372    -423    -426      35
     342     423    -372    -375      34     345     372    -342    -339      35
     516     537    -588    -591      35     507     588    -537    -540      34
     510     537    -507    -504      35     681     702    -753    -756      35
     672     753    -702    -705      34     675     702    -672    -669      35
     846     867    -918    -921      35     837     918    -867    -870      34
     840     867    -837    -834      35    1011    1032   -1083   -1086      35
    1002    1083   -1032   -1035      34    1005    1032   -1002    -999      35
    1176    1197   -1248   -1251      35    1167    1248   -1197   -1200      34
    1170    1197   -1167   -1164      35    1341    1362   -1413   -1416      35
    1332    1413   -1362   -1365      34    1335    1362   -1332   -1329      35
    1506    1527   -1578   -1581      35    1497    1578   -1527   -1530      34
    1500    1527   -1497   -1494      35
%FLAG EXCLUDED_ATOMS_LIST                                                       
%FORMAT(10I8)                                                                   
       2       3       8       9      10      11      34      35       3       9
      10      35       9      10      35       5       6       7       8      12
      15      16      32       6       7       8       9      11      12      13
      14      15      16      17      32      33      38      40      41       7
       8       9      10      11      12      13      14      15      16      32
      33      34      36      37      38      39      65       8       9      11
      12      13      14      15      32      38       9      10      11      12
      13      14      15      16      32      33      34      35      36      37
      38      10      11      12      13      14      15      32      33      34
      35      36      37      38      11      12      14      32      34      35
      36      37      12      13      14      32      34      35      36      37
      38      39      65      13      14      15      32      34      36      37
      38      39      64      65      90      36      37      38      39      63
      64      65      66      89      90      15      32      33      34      16
      17      18      32      33      40      41      42      43      17      18
      19      32      33      40      41      42      43      44      45      18
      19      20      32      40      41      42      43      44      45      46
      47      19      20      21      40      41      42      43      44      45
      46      47      20      21      22      30      42      43      44      45
      46      47      48      21      22      23      24      28      30      31
      44      45      46      47      48      49      57      22      23      24
      25      27      28      29      30      31      46      47      48      49
      50      51      55      57      58      23      24      25      26      27
      28      30      31      48      49      50      51      52      53      57
      24      25      27      30      48      49      50      51      25      26
      27      28      29      30      48      49      50      51      52      53
      54      55      26      27      28      49      51      52      53      54
      27      51      52      53      54      28      29      30      31      49
      51      52      53      55      56      57      29      30      31      48
      51      55      56      57      58      30      31      55      56      57
      31      48      49      55      56      57      58      48      55      57
      58      33      34      40      41       0      35      36      37       0
      37      38      38      39      65      64      65      90      41      42
      43      42      43      43      44      45      44      45      45      46
      47      46      47      47       0      49      57      50      51       0
      52      53      53      54      54       0      56      57       0      58
       0      60      61      62      63      67      70      71      87      61
      62      63      64      66      67      68      69      70      71      72
      87      88      93      95      96      62      63      64      65      66
      67      68      69      70      71      87      88      89      91      92
      93      94     120      63      64      66      67      68      69      70
      87      93      64      65      66      67      68      69      70      71
      87      88      89      90      91      92      93      65      66      67
      68      69      70      87      88      89      90      91      92      93
      66      67      69      87      89      90      91      92      67      68
      69      87      89      90      91      92      93      94     120      68
      69      70      87      89      91      92      93      94     119     120
     145      91      92      93      94     118     119     120     121     144
     145      70      87      88      89      71      72      73      87      88
      95      96      97      98      72      73      74      87      88      95
      96      97      98      99     100      73      74      75      87      95
      96      97      98      99     100     101     102      74      75      76
      95      96      97      98      99     100     101     102      75      76
      77      85      97      98      99     100     101     102     103      76
      77      78      79      83      85      86      99     100     101     102
     103     104     112      77      78      79      80      82      83      84
      85      86     101     102     103     104     105     106     110     112
     113      78      79      80      81      82      83      85      86     103
     104     105     106     107     108     112      79      80      82      85
     103     104     105     106      80      81      82      83      84      85
     103     104     105     106     107     108     109     110      81      82
      83     104     106     107     108     109      82     106     107     108
     109      83      84      85      86     104     106     107     108     110
     111     112      84      85      86     103     106     110     111     112
     113      85      86     110     111     112      86     103     104     110
     111     112     113     103     110     112     113      88      89      95
      96       0      90      91      92       0      92      93      93      94
     120     119     120     145      96      97      98      97      98      98
      99     100      99     100     100     101     102     101     102     102
       0     104     112     105     106       0     107     108     108     109
     109       0     111     112       0     113       0     115     116     117
     118     122     125     126     142     116     117     118     119     121
     122     123     124     125     126     127     142     143     148     150
     151     117     118     119     120     121     122     123     124     125
     126     142     143     144     146     147     148     149     175     118
     119     121     122     123     124     125     142     148     119     120
     121     122     123     124     125     126     142     143     144     145
     146     147     148     120     121     122     123     124     125     142
     143     144     145     146     147     148     121     122     124     142
     144     145     146     147     122     123     124     142     144     145
     146     147     148     149     175     123     124     125     142     144
     146     147     148     149     174     175     200     146     147     148
     149     173     174     175     176     199     200     125     142     143
     144     126     127     128     142     143     150     151     152     153
     127     128     129     142     143     150     151     152     153     154
     155     128     129     130     142     150     151     152     153     154
     155     156     157     129     130     131     150     151     152     153
     154     155     156     157     130     131     132     140     152     153
     154     155     156     157     158     131     132     133     134     138
     140     141     154     155     156     157     158     159     167     132
     133     134     135     137     138     139     140     141     156     157
     158     159     160     161     165     167     168     133     134     135
     136     137     138     140     141     158     159     160     161     162
     163     167     134     135     137     140     158     159     160     161
     135     136     137     138     139     140     158     159     160     161
     162     163     164     165     136     137     138     159     161     162
     163     164     137     161     162     163     164     138     139     140
     141     159     161     162     163     165     166     167     139     140
     141     158     161     165     166     167     168     140     141     165
     166     167     141     158     159     165     166     167     168     158
     165     167     168     143     144     150     151       0     145     146
     147       0     147     148     148     149     175     174     175     200
     151     152     153     152     153     153     154     155     154     155
     155     156     157     156     157     157       0     159     167     160
     161       0     162     163     163     164     164       0     166     167
       0     168       0     170     171     172     173     177     180     181
     197     171     172     173     174     176     177     178     179     180
     181     182     197     198     203     205     206     172     173     174
     175     176     177     178     179     180     181     197     198     199
     201     202     203     204     230     173     174     176     177     178
     179     180     197     203     174     175     176     177     178     179
     180     181     197     198     199     200     201     202     203     175
     176     177     178     179     180     197     198     199     200     201
     202     203     176     177     179     197     199     200     201     202
     177     178     179     197     199     200     201     202     203     204
     230     178     179     180     197     199     201     202     203     204
     229     230     255     201     202     203     204     228     229     230
     231     254     255     180     197     198     199     181     182     183
     197     198     205     206     207     208     182     183     184     197
     198     205     206     207     208     209     210     183     184     185
     197     205     206     207     208     209     210     211     212     184
     185     186     205     206     207     208     209     210     211     212
     185     186     187     195     207     208     209     210     211     212
     213     186     187     188     189     193     195     196     209     210
     211     212     213     214     222     187     188     189     190     192
     193     194     195     196     211     212     213     214     215     216
     220     222     223     188     189     190     191     192     193     195
     196     213     214     215     216     217     218     222     189     190
     192     195     213     214     215     216     190     191     192     193
     194     195     213     214     215     216     217     218     219     220
     191     192     193     214     216     217     218     219     192     216
     217     218     219     193     194     195     196     214     216     217
     218     220     221     222     194     195     196     213     216     220
     221     222     223     195     196     220     221     222     196     213
     214     220     221     222     223     213     220     222     223     198
     199     205     206       0     200     201     202       0     202     203
     203     204     230     229     230     255     206     207     208     207
     208     208     209     210     209     210     210     211     212     211
     212     212       0     214     222     215     216       0     217     218
     218     219     219       0     221     222       0     223       0     225
     226     227     228     232     235     236     252     226     227     228
     229     231     232     233     234     235     236     237     252     253
     258     260     261     227     228     229     230     231     232     233
     234     235     236     252     253     254     256     257     258     259
     285     228     229     231     232     233     234     235     252     258
     229     230     231     232     233     234     235     236     252     253
     254     255     256     257     258     230     231     232     233     234
     235     252     253     254     255     256     257     258     231     232
     234     252     254     255     256     257     232     233     234     252
     254     255     256     257     258     259     285     233     234     235
     252     254     256     257     258     259     284     285     310     256
     257     258     259     283     284     285     286     309     310     235
     252     253     254     236     237     238     252     253     260     261
     262     263     237     238     239     252     253     260     261     262
     263     264     265     238     239     240     252     260     261     262
     263     264     265     266     267     239     240     241     260     261
     262     263     264     265     266     267     240     241     242     250
     262     263     264     265     266     267     268     241     242     243
     244     248     250     251     264     265     266     267     268     269
     277     242     243     244     245     247     248     249     250     251
     266     267     268     269     270     271     275     277     278     243
     244     245     246     247     248     250     251     268     269     270
     271     272     273     277     244     245     247     250     268     269
     270     271     245     246     247     248     249     250     268     269
     270     271     272     273     274     275     246     247     248     269
     271     272     273     274     247     271     272     273     274     248
     249     250     251     269     271     272     273     275     276     277
     249     250     251     268     271     275     276     277     278     250
     251     275     276     277     251     268     269     275     276     277
     278     268     275     277     278     253     254     260     261       0
     255     256     257       0     257     258     258     259     285     284
     285     310     261     262     263     262     263     263     264     265
     264     265     265     266     267     266     267     267       0     269
     277     270     271       0     272     273     273     274     274       0
     276     277       0     278       0     280     281     282     283     287
     290     291     307     281     282     283     284     286     287     288
     289     290     291     292     307     308     313     315     316     282
     283     284     285     286     287     288     289     290     291     307
     308     309     311     312     313     314     340     283     284     286
     287     288     289     290     307     313     284     285     286     287
     288     289     290     291     307     308     309     310     311     312
     313     285     286     287     288     289     290     307     308     309
     310     311     312     313     286     287     289     307     309     310
     311     312     287     288     289     307     309     310     311     312
     313     314     340     288     289     290     307     309     311     312
     313     314     339     340     365     311     312     313     314     338
     339     340     341     364     365     290     307     308     309     291
     292     293     307     308     315     316     317     318     292     293
     294     307     308     315     316     317     318     319     320     293
     294     295     307     315     316     317     318     319     320     321
     322     294     295     296     315     316     317     318     319     320
     321     322     295     296     297     305     317     318     319     320
     321     322     323     296     297     298     299     303     305     306
     319     320     321     322     323     324     332     297     298     299
     300     302     303     304     305     306     321     322     323     324
     325     326     330     332     333     298     299     300     301     302
     303     305     306     323     324     325     326     327     328     332
     299     300     302     305     323     324     325     326     300     301
     302     303     304     305     323     324     325     326     327     328
     329     330     301     302     303     324     326     327     328     329
     302     326     327     328     329     303     304     305     306     324
     326     327     328     330     331     332     304     305     306     323
     326     330     331     332     333     305     306     330     331     332
     306     323     324     330     331     332     333     323     330     332
     333     308     309     315     316       0     310     311     312       0
     312     313     313     314     340     339     340     365     316     317
     318     317     318     318     319     320     319     320     320     321
     322     321     322     322       0     324     332     325     326       0
     327     328     328     329     329       0     331     332       0     333
       0     335     336     337     338     342     345     346     362     336
     337     338     339     341     342     343     344     345     346     347
     362     363     368     370     371     337     338     339     340     341
     342     343     344     345     346     362     363     364     366     367
     368     369     395     338     339     341     342     343     344     345
     362     368     339     340     341     342     343     344     345     346
     362     363     364     365     366     367     368     340     341     342
     343     344     345     362     363     364     365     366     367     368
     341     342     344     362     364     365     366     367     342     343
     344     362     364     365     366     367     368     369     395     343
     344     345     362     364     366     367     368     369     394     395
     420     366     367     368     369     393     394     395     396     419
     420     345     362     363     364     346     347     348     362     363
     370     371     372     373     347     348     349     362     363     370
     371     372     373     374     375     348     349     350     362     370
     371     372     373     374     375     376     377     349     350     351
     370     371     372     373     374     375     376     377     350     351
     352     360     372     373     374     375     376     377     378     351
     352     353     354     358     360     361     374     375     376     377
     378     379     387     352     353     354     355     357     358     359
     360     361     376     377     378     379     380     381     385     387
     388     353     354     355     356     357     358     360     361     378
     379     380     381     382     383     387     354     355     357     360
     378     379     380     381     355     356     357     358     359     360
     378     379     380     381     382     383     384     385     356     357
     358     379     381     382     383     384     357     381     382     383
     384     358     359     360     361     379     381     382     383     385
     386     387     359     360     361     378     381     385     386     387
     388     360     361     385     386     387     361     378     379     385
     386     387     388     378     385     387     388     363     364     370
     371       0     365     366     367       0     367     368     368     369
     395     394     395     420     371     372     373     372     373     373
     374     375     374     375     375     376     377     376     377     377
       0     379     387     380     381       0     382     383     383     384
     384       0     386     387       0     388       0     390     391     392
     393     397     400     401     417     391     392     393     394     396
     397     398     399     400     401     402     417     418     423     425
     426     392     393     394     395     396     397     398     399     400
     401     417     418     419     421     422     423     424     450     393
     394     396     397     398     399     400     417     423     394     395
     396     397     398     399     400     401     417     418     419     420
     421     422     423     395     396     397     398     399     400     417
     418     419     420     421     422     423     396     397     399     417
     419     420     421     422     397     398     399     417     419     420
     421     422     423     424     450     398     399     400     417     419
     421     422     423     424     449     450     475     421     422     423
     424     448     449     450     451     474     475     400     417     418
     419     401     402     403     417     418     425     426     427     428
     402     403     404     417     418     425     426     427     428     429
     430     403     404     405     417     425     426     427     428     429
     430     431     432     404     405     406     425     426     427     428
     429     430     431     432     405     406     407     415     427     428
     429     430     431     432     433     406     407     408     409     413
     415     416     429     430     431     432     433     434     442     407
     408     409     410     412     413     414     415     416     431     432
     433     434     435     436     440     442     443     408     409     410
     411     412     413     415     416     433     434     435     436     437
     438     442     409     410     412     415     433     434     435     436
     410     411     412     413     414     415     433     434     435     436
     437     438     439     440     411     412     413     434     436     437
     438     439     412     436     437     438     439     413     414     415
     416     434     436     437     438     440     441     442     414     415
     416     433     436     440     441     442     443     415     416     440
     441     442     416     433     434     440     441     442     443     433
     440     442     443     418     419     425     426       0     420     421
     422       0     422     423     423     424     450     449     450     475
     426     427     428     427     428     428     429     430     429     430
     430     431     432     431     432     432       0     434     442     435
     436       0     437     438     438     439     439       0     441     442
       0     443       0     445     446     447     448     452     455     456
     472     446     447     448     449     451     452     453     454     455
     456     457     472     473     478     480     481     447     448     449
     450     451     452     453     454     455     456     472     473     474
     476     477     478     479     505     448     449     451     452     453
     454     455     472     478     449     450     451     452     453     454
     455     456     472     473     474     475     476     477     478     450
     451     452     453     454     455     472     473     474     475     476
     477     478     451     452     454     472     474     475     476     477
     452     453     454     472     474     475     476     477     478     479
     505     453     454     455     472     474     476     477     478     479
     504     505     530     476     477     478     479     503     504     505
     506     529     530     455     472     473     474     456     457     458
     472     473     480     481     482     483     457     458     459     472
     473     480     481     482     483     484     485     458     459     460
     472     480     481     482     483     484     485     486     487     459
     460     461     480     481     482     483     484     485     486     487
     460     461     462     470     482     483     484     485     486     487
     488     461     462     463     464     468     470     471     484     485
     486     487     488     489     497     462     463     464     465     467
     468     469     470     471     486     487     488     489     490     491
     495     497     498     463     464     465     466     467     468     470
     471     488     489     490     491     492     493     497     464     465
     467     470     488     489     490     491     465     466     467     468
     469     470     488     489     490     491     492     493     494     495
     466     467     468     489     491     492     493     494     467     491
     492     493     494     468     469     470     471     489     491     492
     493     495     496     497     469     470     471     488     491     495
     496     497     498     470     471     495     496     497     471     488
     489     495     496     497     498     488     495     497     498     473
     474     480     481       0     475     476     477       0     477     478
     478     479     505     504     505     530     481     482     483     482
     483     483     484     485     484     485     485     486     487     486
     487     487       0     489     497     490     491       0     492     493
     493     494     494       0     496     497       0     498       0     500
     501     502     503     507     510     511     527     501     502     503
     504     506     507     508     509     510     511     512     527     528
     533     535     536     502     503     504     505     506     507     508
     509     510     511     527     528     529     531     532     533     534
     554     503     504     506     507     508     509     510     527     533
     504     505     506     507     508     509     510     511     527     528
     529     530     531     532     533     505     506     507     508     509
     510     527     528     529     530     531     532     533     506     507
     509     527     529     530     531     532     507     508     509     527
     529     530     531     532     533     534     554     508     509     510
     527     529     531     532     533     534     554     555     556     531
     532     533     534     554     555     556     510     527     528     529
     511     512     513     527     528     535     536     537     538     512
     513     514     527     528     535     536     537     538     539     540
     513     514     515     527     535     536     537     538     539     540
     541     542     514     515     516     535     536     537     538     539
     540     541     542     515     516     517     525     537     538     539
     540     541     542     543     516     517     518     519     523     525
     526     539     540     541     542     543     544     552     517     518
     519     520     522     523     524     525     526     541     542     543
     544     545     546     550     552     553     518     519     520     521
     522     523     525     526     543     544     545     546     547     548
     552     519     520     522     525     543     544     545     546     520
     521     522     523     524     525     543     544     545     546     547
     548     549     550     521     522     523     544     546     547     548
     549     522     546     547     548     549     523     524     525     526
     544     546     547     548     550     551     552     524     525     526
     543     546     550     551     552     553     525     526     550     551
     552     526     543     544     550     551     552     553     543     550
     552     553     528     529     535     536       0     530     531     532
       0     532     533     533     534     554     554     555     556     536
     537     538     537     538     538     539     540     539     540     540
     541     542     541     542     542       0     544     552     545     546
       0     547     548     548     549     549       0     551     552       0
     553       0     555     556     556       0
%FLAG HBOND_ACOEF                                                               
%FORMAT(5E16.8)                                                                 

%FLAG HBOND_BCOEF                                                               
%FORMAT(5E16.8)                                                                 

%FLAG HBCUT                                                                     
%FORMAT(5E16.8)                                                                 

%FLAG AMBER_ATOM_TYPE                                                           
%FORMAT(20a4)                                                                   
c2  ha  ha  o   c   c5  hc  c5  c5  c2  c5  c5  c2  hc  n   c3  c3  c3  c3  os  
c6  c6  oh  c6  c3  oh  os  c6  oh  c6  oh  c   o   hc  ha  hc  hc  hc  ha  h1  
h1  hc  hc  hc  hc  h1  h1  h1  h1  ho  h1  h1  h1  ho  h2  ho  h1  ho  o   c   
c5  hc  c5  c5  c2  c5  c5  c2  hc  n   c3  c3  c3  c3  os  c6  c6  oh  c6  c3  
oh  os  c6  oh  c6  oh  c   o   hc  ha  hc  hc  hc  ha  h1  h1  hc  hc  hc  hc  
h1  h1  h1  h1  ho  h1  h1  h1  ho  h2  ho  h1  ho  o   c   c5  hc  c5  c5  c2  
c5  c5  c2  hc  n   c3  c3  c3  c3  os  c6  c6  oh  c6  c3  oh  os  c6  oh  c6  
oh  c   o   hc  ha  hc  hc  hc  ha  h1  h1  hc  hc  hc  hc  h1  h1  h1  h1  ho  
h1  h1  h1  ho  h2  ho  h1  ho  o   c   c5  hc  c5  c5  c2  c5  c5  c2  hc  n   
c3  c3  c3  c3  os  c6  c6  oh  c6  c3  oh  os  c6  oh  c6  oh  c   o   hc  ha  
hc  hc  hc  ha  h1  h1  hc  hc  hc  hc  h1  h1  h1  h1  ho  h1  h1  h1  ho  h2  
ho  h1  ho  o   c   c5  hc  c5  c5  c2  c5  c5  c2  hc  n   c3  c3  c3  c3  os  
c6  c6  oh  c6  c3  oh  os  c6  oh  c6  oh  c   o   hc  ha  hc  hc  hc  ha  h1  
h1  hc  hc  hc  hc  h1  h1  h1  h1  ho  h1  h1  h1  ho  h2  ho  h1  ho  o   c   
c5  hc  c5  c5  c2  c5  c5  c2  hc  n   c3  c3  c3  c3  os  c6  c6  oh  c6  c3  
oh  os  c6  oh  c6  oh  c   o   hc  ha  hc  hc  hc  ha  h1  h1  hc  hc  hc  hc  
h1  h1  h1  h1  ho  h1  h1  h1  ho  h2  ho  h1  ho  o   c   c5  hc  c5  c5  c2  
c5  c5  c2  hc  n   c3  c3  c3  c3  os  c6  c6  oh  c6  c3  oh  os  c6  oh  c6  
oh  c   o   hc  ha  hc  hc  hc  ha  h1  h1  hc  hc  hc  hc  h1  h1  h1  h1  ho  
h1  h1  h1  ho  h2  ho  h1  ho  o   c   c5  hc  c5  c5  c2  c5  c5  c2  hc  n   
c3  c3  c3  c3  os  c6  c6  oh  c6  c3  oh  os  c6  oh  c6  oh  c   o   hc  ha  
hc  hc  hc  ha  h1  h1  hc  hc  hc  hc  h1  h1  h1  h1  ho  h1  h1  h1  ho  h2  
ho  h1  ho  o   c   c5  hc  c5  c5  c2  c5  c5  c2  hc  n   c3  c3  c3  c3  os  
c6  c6  oh  c6  c3  oh  os  c6  oh  c6  oh  c   o   hc  ha  hc  hc  hc  ha  h1  
h1  hc  hc  hc  hc  h1  h1  h1  h1  ho  h1  h1  h1  ho  h2  ho  h1  ho  o   c   
c5  hc  c5  c5  c2  c5  c5  c2  hc  n   c3  c3  c3  c3  os  c6  c6  oh  c6  c3  
oh  os  c6  oh  c6  oh  c   o   hc  ha  hc  hc  hc  ha  h1  h1  hc  hc  hc  hc  
h1  h1  h1  h1  ho  h1  h1  h1  ho  h2  ho  h1  ho  c2  ha  ha  
%FLAG TREE_CHAIN_CLASSIFICATION                                                 
%FORMAT(20a4)                                                                   
BLA BLA BLA BLA BLA BLA BLA BLA BLA BLA BLA BLA BLA BLA BLA BLA BLA BLA BLA BLA 
BLA BLA BLA BLA BLA BLA BLA BLA BLA BLA BLA BLA BLA BLA BLA BLA BLA BLA BLA BLA 
BLA BLA BLA BLA BLA BLA BLA BLA BLA BLA BLA BLA BLA BLA BLA BLA BLA BLA BLA BLA 
BLA BLA BLA BLA BLA BLA BLA BLA BLA BLA BLA BLA BLA BLA BLA BLA BLA BLA BLA BLA 
BLA BLA BLA BLA BLA BLA BLA BLA BLA BLA BLA BLA BLA BLA BLA BLA BLA BLA BLA BLA 
BLA BLA BLA BLA BLA BLA BLA BLA BLA BLA BLA BLA BLA BLA BLA BLA BLA BLA BLA BLA 
BLA BLA BLA BLA BLA BLA BLA BLA BLA BLA BLA BLA BLA BLA BLA BLA BLA BLA BLA BLA 
BLA BLA BLA BLA BLA BLA BLA BLA BLA BLA BLA BLA BLA BLA BLA BLA BLA BLA BLA BLA 
BLA BLA BLA BLA BLA BLA BLA BLA BLA BLA BLA BLA BLA BLA BLA BLA BLA BLA BLA BLA 
BLA BLA BLA BLA BLA BLA BLA BLA BLA BLA BLA BLA BLA BLA BLA BLA BLA BLA BLA BLA 
BLA BLA BLA BLA BLA BLA BLA BLA BLA BLA BLA BLA BLA BLA BLA BLA BLA BLA BLA BLA 
BLA BLA BLA BLA BLA BLA BLA BLA BLA BLA BLA BLA BLA BLA BLA BLA BLA BLA BLA BLA 
BLA BLA BLA BLA BLA BLA BLA BLA BLA BLA BLA BLA BLA BLA BLA BLA BLA BLA BLA BLA 
BLA BLA BLA BLA BLA BLA BLA BLA BLA BLA BLA BLA BLA BLA BLA BLA BLA BLA BLA BLA 
BLA BLA BLA BLA BLA BLA BLA BLA BLA BLA BLA BLA BLA BLA BLA BLA BLA BLA BLA BLA 
BLA BLA BLA BLA BLA BLA BLA BLA BLA BLA BLA BLA BLA BLA BLA BLA BLA BLA BLA BLA 
BLA BLA BLA BLA BLA BLA BLA BLA BLA BLA BLA BLA BLA BLA BLA BLA BLA BLA BLA BLA 
BLA BLA BLA BLA BLA BLA BLA BLA BLA BLA BLA BLA BLA BLA BLA BLA BLA BLA BLA BLA 
BLA BLA BLA BLA BLA BLA BLA BLA BLA BLA BLA BLA BLA BLA BLA BLA BLA BLA BLA BLA 
BLA BLA BLA BLA BLA BLA BLA BLA BLA BLA BLA BLA BLA BLA BLA BLA BLA BLA BLA BLA 
BLA BLA BLA BLA BLA BLA BLA BLA BLA BLA BLA BLA BLA BLA BLA BLA BLA BLA BLA BLA 
BLA BLA BLA BLA BLA BLA BLA BLA BLA BLA BLA BLA BLA BLA BLA BLA BLA BLA BLA BLA 
BLA BLA BLA BLA BLA BLA BLA BLA BLA BLA BLA BLA BLA BLA BLA BLA BLA BLA BLA BLA 
BLA BLA BLA BLA BLA BLA BLA BLA BLA BLA BLA BLA BLA BLA BLA BLA BLA BLA BLA BLA 
BLA BLA BLA BLA BLA BLA BLA BLA BLA BLA BLA BLA BLA BLA BLA BLA BLA BLA BLA BLA 
BLA BLA BLA BLA BLA BLA BLA BLA BLA BLA BLA BLA BLA BLA BLA BLA BLA BLA BLA BLA 
BLA BLA BLA BLA BLA BLA BLA BLA BLA BLA BLA BLA BLA BLA BLA BLA BLA BLA BLA BLA 
BLA BLA BLA BLA BLA BLA BLA BLA BLA BLA BLA BLA BLA BLA BLA BLA 
%FLAG JOIN_ARRAY                                                                
%FORMAT(10I8)                                                                   
       0       0       0       0       0       0       0       0       0       0
       0       0       0       0       0       0       0       0       0       0
       0       0       0       0       0       0       0       0       0       0
       0       0       0       0       0       0       0       0       0       0
       0       0       0       0       0       0       0       0       0       0
       0       0       0       0       0       0       0       0       0       0
       0       0       0       0       0       0       0       0       0       0
       0       0       0       0       0       0       0       0       0       0
       0       0       0       0       0       0       0       0       0       0
       0       0       0       0       0       0       0       0       0       0
       0       0       0       0       0       0       0       0       0       0
       0       0       0       0       0       0       0       0       0       0
       0       0       0       0       0       0       0       0       0       0
       0       0       0       0       0       0       0       0       0       0
       0       0       0       0       0       0       0       0       0       0
       0       0       0       0       0       0       0       0       0       0
       0       0       0       0       0       0       0       0       0       0
       0       0       0       0       0       0       0       0       0       0
       0       0       0       0       0       0       0       0       0       0
       0       0       0       0       0       0       0       0       0       0
       0       0       0       0       0       0       0       0       0       0
       0       0       0       0       0       0       0       0       0       0
       0       0       0       0       0       0       0       0       0       0
       0       0       0       0       0       0       0       0       0       0
       0       0       0       0       0       0       0       0       0       0
       0       0       0       0       0       0       0       0       0       0
       0       0       0       0       0       0       0       0       0       0
       0       0       0       0       0       0       0       0       0       0
       0       0       0       0       0       0       0       0       0       0
       0       0       0       0       0       0       0       0       0       0
       0       0       0       0       0       0       0       0       0       0
       0       0       0       0       0       0       0       0       0       0
       0       0       0       0       0       0       0       0       0       0
       0       0       0       0       0       0       0       0       0       0
       0       0       0       0       0       0       0       0       0       0
       0       0       0       0       0       0       0       0       0       0
       0       0       0       0       0       0       0       0       0       0
       0       0       0       0       0       0       0       0       0       0
       0       0       0       0       0       0       0       0       0       0
       0       0       0       0       0       0       0       0       0       0
       0       0       0       0       0       0       0       0       0       0
       0       0       0       0       0       0       0       0       0       0
       0       0       0       0       0       0       0       0       0       0
       0       0       0       0       0       0       0       0       0       0
       0       0       0       0       0       0       0       0       0       0
       0       0       0       0       0       0       0       0       0       0
       0       0       0       0       0       0       0       0       0       0
       0       0       0       0       0       0       0       0       0       0
       0       0       0       0       0       0       0       0       0       0
       0       0       0       0       0       0       0       0       0       0
       0       0       0       0       0       0       0       0       0       0
       0       0       0       0       0       0       0       0       0       0
       0       0       0       0       0       0       0       0       0       0
       0       0       0       0       0       0       0       0       0       0
       0       0       0       0       0       0       0       0       0       0
       0       0       0       0       0       0
%FLAG IROTAT                                                                    
%FORMAT(10I8)                                                                   
       0       0       0       0       0       0       0       0       0       0
       0       0       0       0       0       0       0       0       0       0
       0       0       0       0       0       0       0       0       0       0
       0       0       0       0       0       0       0       0       0       0
       0       0       0       0       0       0       0       0       0       0
       0       0       0       0       0       0       0       0       0       0
       0       0       0       0       0       0       0       0       0       0
       0       0       0       0       0       0       0       0       0       0
       0       0       0       0       0       0       0       0       0       0
       0       0       0       0       0       0       0       0       0       0
       0       0       0       0       0       0       0       0       0       0
       0       0       0       0       0       0       0       0       0       0
       0       0       0       0       0       0       0       0       0       0
       0       0       0       0       0       0       0       0       0       0
       0       0       0       0       0       0       0       0       0       0
       0       0       0       0       0       0       0       0       0       0
       0       0       0       0       0       0       0       0       0       0
       0       0       0       0       0       0       0       0       0       0
       0       0       0       0       0       0       0       0       0       0
       0       0       0       0       0       0       0       0       0       0
       0       0       0       0       0       0       0       0       0       0
       0       0       0       0       0       0       0       0       0       0
       0       0       0       0       0       0       0       0       0       0
       0       0       0       0       0       0       0       0       0       0
       0       0       0       0       0       0       0       0       0       0
       0       0       0       0       0       0       0       0       0       0
       0       0       0       0       0       0       0       0       0       0
       0       0       0       0       0       0       0       0       0       0
       0       0       0       0       0       0       0       0       0       0
       0       0       0       0       0       0       0       0       0       0
       0       0       0       0       0       0       0       0       0       0
       0       0       0       0       0       0       0       0       0       0
       0       0       0       0       0       0       0       0       0       0
       0       0       0       0       0       0       0       0       0       0
       0       0       0       0       0       0       0       0       0       0
       0       0       0       0       0       0       0       0       0       0
       0       0       0       0       0       0       0       0       0       0
       0       0       0       0       0       0       0       0       0       0
       0       0       0       0       0       0       0       0       0       0
       0       0       0       0       0       0       0       0       0       0
       0       0       0       0       0       0       0       0       0       0
       0       0       0       0       0       0       0       0       0       0
       0       0       0       0       0       0       0       0       0       0
       0       0       0       0       0       0       0       0       0       0
       0       0       0       0       0       0       0       0       0       0
       0       0       0       0       0       0       0       0       0       0
       0       0       0       0       0       0       0       0       0       0
       0       0       0       0       0       0       0       0       0       0
       0       0       0       0       0       0       0       0       0       0
       0       0       0       0       0       0       0       0       0       0
       0       0       0       0       0       0       0       0       0       0
       0       0       0       0       0       0       0       0       0       0
       0       0       0       0       0       0       0       0       0       0
       0       0       0       0       0       0       0       0       0       0
       0       0       0       0       0       0       0       0       0       0
       0       0       0       0       0       0
%FLAG RADIUS_SET                                                                
%FORMAT(1a80)                                                                   
modified Bondi radii (mbondi)                                                   
%FLAG RADII                                                                     
%FORMAT(5E16.8)                                                                 
  1.70000000E+00  1.30000000E+00  1.30000000E+00  1.50000000E+00  1.70000000E+00
  1.70000000E+00  1.30000000E+00  1.70000000E+00  1.70000000E+00  1.70000000E+00
  1.70000000E+00  1.70000000E+00  1.70000000E+00  1.30000000E+00  1.55000000E+00
  1.70000000E+00  1.70000000E+00  1.70000000E+00  1.70000000E+00  1.50000000E+00
  1.70000000E+00  1.70000000E+00  1.50000000E+00  1.70000000E+00  1.70000000E+00
  1.50000000E+00  1.50000000E+00  1.70000000E+00  1.50000000E+00  1.70000000E+00
  1.50000000E+00  1.70000000E+00  1.50000000E+00  1.30000000E+00  1.30000000E+00
  1.30000000E+00  1.30000000E+00  1.30000000E+00  1.30000000E+00  1.30000000E+00
  1.30000000E+00  1.30000000E+00  1.30000000E+00  1.30000000E+00  1.30000000E+00
  1.30000000E+00  1.30000000E+00  1.30000000E+00  1.30000000E+00  8.00000000E-01
  1.30000000E+00  1.30000000E+00  1.30000000E+00  8.00000000E-01  1.30000000E+00
  8.00000000E-01  1.30000000E+00  8.00000000E-01  1.50000000E+00  1.70000000E+00
  1.70000000E+00  1.30000000E+00  1.70000000E+00  1.70000000E+00  1.70000000E+00
  1.70000000E+00  1.70000000E+00  1.70000000E+00  1.30000000E+00  1.55000000E+00
  1.70000000E+00  1.70000000E+00  1.70000000E+00  1.70000000E+00  1.50000000E+00
  1.70000000E+00  1.70000000E+00  1.50000000E+00  1.70000000E+00  1.70000000E+00
  1.50000000E+00  1.50000000E+00  1.70000000E+00  1.50000000E+00  1.70000000E+00
  1.50000000E+00  1.70000000E+00  1.50000000E+00  1.30000000E+00  1.30000000E+00
  1.30000000E+00  1.30000000E+00  1.30000000E+00  1.30000000E+00  1.30000000E+00
  1.30000000E+00  1.30000000E+00  1.30000000E+00  1.30000000E+00  1.30000000E+00
  1.30000000E+00  1.30000000E+00  1.30000000E+00  1.30000000E+00  8.00000000E-01
  1.30000000E+00  1.30000000E+00  1.30000000E+00  8.00000000E-01  1.30000000E+00
  8.00000000E-01  1.30000000E+00  8.00000000E-01  1.50000000E+00  1.70000000E+00
  1.70000000E+00  1.30000000E+00  1.70000000E+00  1.70000000E+00  1.70000000E+00
  1.70000000E+00  1.70000000E+00  1.70000000E+00  1.30000000E+00  1.55000000E+00
  1.70000000E+00  1.70000000E+00  1.70000000E+00  1.70000000E+00  1.50000000E+00
  1.70000000E+00  1.70000000E+00  1.50000000E+00  1.70000000E+00  1.70000000E+00
  1.50000000E+00  1.50000000E+00  1.70000000E+00  1.50000000E+00  1.70000000E+00
  1.50000000E+00  1.70000000E+00  1.50000000E+00  1.30000000E+00  1.30000000E+00
  1.30000000E+00  1.30000000E+00  1.30000000E+00  1.30000000E+00  1.30000000E+00
  1.30000000E+00  1.30000000E+00  1.30000000E+00  1.30000000E+00  1.30000000E+00
  1.30000000E+00  1.30000000E+00  1.30000000E+00  1.30000000E+00  8.00000000E-01
  1.30000000E+00  1.30000000E+00  1.30000000E+00  8.00000000E-01  1.30000000E+00
  8.00000000E-01  1.30000000E+00  8.00000000E-01  1.50000000E+00  1.70000000E+00
  1.70000000E+00  1.30000000E+00  1.70000000E+00  1.70000000E+00  1.70000000E+00
  1.70000000E+00  1.70000000E+00  1.70000000E+00  1.30000000E+00  1.55000000E+00
  1.70000000E+00  1.70000000E+00  1.70000000E+00  1.70000000E+00  1.50000000E+00
  1.70000000E+00  1.70000000E+00  1.50000000E+00  1.70000000E+00  1.70000000E+00
  1.50000000E+00  1.50000000E+00  1.70000000E+00  1.50000000E+00  1.70000000E+00
  1.50000000E+00  1.70000000E+00  1.50000000E+00  1.30000000E+00  1.30000000E+00
  1.30000000E+00  1.30000000E+00  1.30000000E+00  1.30000000E+00  1.30000000E+00
  1.30000000E+00  1.30000000E+00  1.30000000E+00  1.30000000E+00  1.30000000E+00
  1.30000000E+00  1.30000000E+00  1.30000000E+00  1.30000000E+00  8.00000000E-01
  1.30000000E+00  1.30000000E+00  1.30000000E+00  8.00000000E-01  1.30000000E+00
  8.00000000E-01  1.30000000E+00  8.00000000E-01  1.50000000E+00  1.70000000E+00
  1.70000000E+00  1.30000000E+00  1.70000000E+00  1.70000000E+00  1.70000000E+00
  1.70000000E+00  1.70000000E+00  1.70000000E+00  1.30000000E+00  1.55000000E+00
  1.70000000E+00  1.70000000E+00  1.70000000E+00  1.70000000E+00  1.50000000E+00
  1.70000000E+00  1.70000000E+00  1.50000000E+00  1.70000000E+00  1.70000000E+00
  1.50000000E+00  1.50000000E+00  1.70000000E+00  1.50000000E+00  1.70000000E+00
  1.50000000E+00  1.70000000E+00  1.50000000E+00  1.30000000E+00  1.30000000E+00
  1.30000000E+00  1.30000000E+00  1.30000000E+00  1.30000000E+00  1.30000000E+00
  1.30000000E+00  1.30000000E+00  1.30000000E+00  1.30000000E+00  1.30000000E+00
  1.30000000E+00  1.30000000E+00  1.30000000E+00  1.30000000E+00  8.00000000E-01
  1.30000000E+00  1.30000000E+00  1.30000000E+00  8.00000000E-01  1.30000000E+00
  8.00000000E-01  1.30000000E+00  8.00000000E-01  1.50000000E+00  1.70000000E+00
  1.70000000E+00  1.30000000E+00  1.70000000E+00  1.70000000E+00  1.70000000E+00
  1.70000000E+00  1.70000000E+00  1.70000000E+00  1.30000000E+00  1.55000000E+00
  1.70000000E+00  1.70000000E+00  1.70000000E+00  1.70000000E+00  1.50000000E+00
  1.70000000E+00  1.70000000E+00  1.50000000E+00  1.70000000E+00  1.70000000E+00
  1.50000000E+00  1.50000000E+00  1.70000000E+00  1.50000000E+00  1.70000000E+00
  1.50000000E+00  1.70000000E+00  1.50000000E+00  1.30000000E+00  1.30000000E+00
  1.30000000E+00  1.30000000E+00  1.30000000E+00  1.30000000E+00  1.30000000E+00
  1.30000000E+00  1.30000000E+00  1.30000000E+00  1.30000000E+00  1.30000000E+00
  1.30000000E+00  1.30000000E+00  1.30000000E+00  1.30000000E+00  8.00000000E-01
  1.30000000E+00  1.30000000E+00  1.30000000E+00  8.00000000E-01  1.30000000E+00
  8.00000000E-01  1.30000000E+00  8.00000000E-01  1.50000000E+00  1.70000000E+00
  1.70000000E+00  1.30000000E+00  1.70000000E+00  1.70000000E+00  1.70000000E+00
  1.70000000E+00  1.70000000E+00  1.70000000E+00  1.30000000E+00  1.55000000E+00
  1.70000000E+00  1.70000000E+00  1.70000000E+00  1.70000000E+00  1.50000000E+00
  1.70000000E+00  1.70000000E+00  1.50000000E+00  1.70000000E+00  1.70000000E+00
  1.50000000E+00  1.50000000E+00  1.70000000E+00  1.50000000E+00  1.70000000E+00
  1.50000000E+00  1.70000000E+00  1.50000000E+00  1.30000000E+00  1.30000000E+00
  1.30000000E+00  1.30000000E+00  1.30000000E+00  1.30000000E+00  1.30000000E+00
  1.30000000E+00  1.30000000E+00  1.30000000E+00  1.30000000E+00  1.30000000E+00
  1.30000000E+00  1.30000000E+00  1.30000000E+00  1.30000000E+00  8.00000000E-01
  1.30000000E+00  1.30000000E+00  1.30000000E+00  8.00000000E-01  1.30000000E+00
  8.00000000E-01  1.30000000E+00  8.00000000E-01  1.50000000E+00  1.70000000E+00
  1.70000000E+00  1.30000000E+00  1.70000000E+00  1.70000000E+00  1.70000000E+00
  1.70000000E+00  1.70000000E+00  1.70000000E+00  1.30000000E+00  1.55000000E+00
  1.70000000E+00  1.70000000E+00  1.70000000E+00  1.70000000E+00  1.50000000E+00
  1.70000000E+00  1.70000000E+00  1.50000000E+00  1.70000000E+00  1.70000000E+00
  1.50000000E+00  1.50000000E+00  1.70000000E+00  1.50000000E+00  1.70000000E+00
  1.50000000E+00  1.70000000E+00  1.50000000E+00  1.30000000E+00  1.30000000E+00
  1.30000000E+00  1.30000000E+00  1.30000000E+00  1.30000000E+00  1.30000000E+00
  1.30000000E+00  1.30000000E+00  1.30000000E+00  1.30000000E+00  1.30000000E+00
  1.30000000E+00  1.30000000E+00  1.30000000E+00  1.30000000E+00  8.00000000E-01
  1.30000000E+00  1.30000000E+00  1.30000000E+00  8.00000000E-01  1.30000000E+00
  8.00000000E-01  1.30000000E+00  8.00000000E-01  1.50000000E+00  1.70000000E+00
  1.70000000E+00  1.30000000E+00  1.70000000E+00  1.70000000E+00  1.70000000E+00
  1.70000000E+00  1.70000000E+00  1.70000000E+00  1.30000000E+00  1.55000000E+00
  1.70000000E+00  1.70000000E+00  1.70000000E+00  1.70000000E+00  1.50000000E+00
  1.70000000E+00  1.70000000E+00  1.50000000E+00  1.70000000E+00  1.70000000E+00
  1.50000000E+00  1.50000000E+00  1.70000000E+00  1.50000000E+00  1.70000000E+00
  1.50000000E+00  1.70000000E+00  1.50000000E+00  1.30000000E+00  1.30000000E+00
  1.30000000E+00  1.30000000E+00  1.30000000E+00  1.30000000E+00  1.30000000E+00
  1.30000000E+00  1.30000000E+00  1.30000000E+00  1.30000000E+00  1.30000000E+00
  1.30000000E+00  1.30000000E+00  1.30000000E+00  1.30000000E+00  8.00000000E-01
  1.30000000E+00  1.30000000E+00  1.30000000E+00  8.00000000E-01  1.30000000E+00
  8.00000000E-01  1.30000000E+00  8.00000000E-01  1.50000000E+00  1.70000000E+00
  1.70000000E+00  1.30000000E+00  1.70000000E+00  1.70000000E+00  1.70000000E+00
  1.70000000E+00  1.70000000E+00  1.70000000E+00  1.30000000E+00  1.55000000E+00
  1.70000000E+00  1.70000000E+00  1.70000000E+00  1.70000000E+00  1.50000000E+00
  1.70000000E+00  1.70000000E+00  1.50000000E+00  1.70000000E+00  1.70000000E+00
  1.50000000E+00  1.50000000E+00  1.70000000E+00  1.50000000E+00  1.70000000E+00
  1.50000000E+00  1.70000000E+00  1.50000000E+00  1.30000000E+00  1.30000000E+00
  1.30000000E+00  1.30000000E+00  1.30000000E+00  1.30000000E+00  1.30000000E+00
  1.30000000E+00  1.30000000E+00  1.30000000E+00  1.30000000E+00  1.30000000E+00
  1.30000000E+00  1.30000000E+00  1.30000000E+00  1.30000000E+00  8.00000000E-01
  1.30000000E+00  1.30000000E+00  1.30000000E+00  8.00000000E-01  1.30000000E+00
  8.00000000E-01  1.30000000E+00  8.00000000E-01  1.70000000E+00  1.30000000E+00
  1.30000000E+00
%FLAG SCREEN                                                                    
%FORMAT(5E16.8)                                                                 
  7.20000000E-01  8.50000000E-01  8.50000000E-01  8.50000000E-01  7.20000000E-01
  7.20000000E-01  8.50000000E-01  7.20000000E-01  7.20000000E-01  7.20000000E-01
  7.20000000E-01  7.20000000E-01  7.20000000E-01  8.50000000E-01  7.90000000E-01
  7.20000000E-01  7.20000000E-01  7.20000000E-01  7.20000000E-01  8.50000000E-01
  7.20000000E-01  7.20000000E-01  8.50000000E-01  7.20000000E-01  7.20000000E-01
  8.50000000E-01  8.50000000E-01  7.20000000E-01  8.50000000E-01  7.20000000E-01
  8.50000000E-01  7.20000000E-01  8.50000000E-01  8.50000000E-01  8.50000000E-01
  8.50000000E-01  8.50000000E-01  8.50000000E-01  8.50000000E-01  8.50000000E-01
  8.50000000E-01  8.50000000E-01  8.50000000E-01  8.50000000E-01  8.50000000E-01
  8.50000000E-01  8.50000000E-01  8.50000000E-01  8.50000000E-01  8.50000000E-01
  8.50000000E-01  8.50000000E-01  8.50000000E-01  8.50000000E-01  8.50000000E-01
  8.50000000E-01  8.50000000E-01  8.50000000E-01  8.50000000E-01  7.20000000E-01
  7.20000000E-01  8.50000000E-01  7.20000000E-01  7.20000000E-01  7.20000000E-01
  7.20000000E-01  7.20000000E-01  7.20000000E-01  8.50000000E-01  7.90000000E-01
  7.20000000E-01  7.20000000E-01  7.20000000E-01  7.20000000E-01  8.50000000E-01
  7.20000000E-01  7.20000000E-01  8.50000000E-01  7.20000000E-01  7.20000000E-01
  8.50000000E-01  8.50000000E-01  7.20000000E-01  8.50000000E-01  7.20000000E-01
  8.50000000E-01  7.20000000E-01  8.50000000E-01  8.50000000E-01  8.50000000E-01
  8.50000000E-01  8.50000000E-01  8.50000000E-01  8.50000000E-01  8.50000000E-01
  8.50000000E-01  8.50000000E-01  8.50000000E-01  8.50000000E-01  8.50000000E-01
  8.50000000E-01  8.50000000E-01  8.50000000E-01  8.50000000E-01  8.50000000E-01
  8.50000000E-01  8.50000000E-01  8.50000000E-01  8.50000000E-01  8.50000000E-01
  8.50000000E-01  8.50000000E-01  8.50000000E-01  8.50000000E-01  7.20000000E-01
  7.20000000E-01  8.50000000E-01  7.20000000E-01  7.20000000E-01  7.20000000E-01
  7.20000000E-01  7.20000000E-01  7.20000000E-01  8.50000000E-01  7.90000000E-01
  7.20000000E-01  7.20000000E-01  7.20000000E-01  7.20000000E-01  8.50000000E-01
  7.20000000E-01  7.20000000E-01  8.50000000E-01  7.20000000E-01  7.20000000E-01
  8.50000000E-01  8.50000000E-01  7.20000000E-01  8.50000000E-01  7.20000000E-01
  8.50000000E-01  7.20000000E-01  8.50000000E-01  8.50000000E-01  8.50000000E-01
  8.50000000E-01  8.50000000E-01  8.50000000E-01  8.50000000E-01  8.50000000E-01
  8.50000000E-01  8.50000000E-01  8.50000000E-01  8.50000000E-01  8.50000000E-01
  8.50000000E-01  8.50000000E-01  8.50000000E-01  8.50000000E-01  8.50000000E-01
  8.50000000E-01  8.50000000E-01  8.50000000E-01  8.50000000E-01  8.50000000E-01
  8.50000000E-01  8.50000000E-01  8.50000000E-01  8.50000000E-01  7.20000000E-01
  7.20000000E-01  8.50000000E-01  7.20000000E-01  7.20000000E-01  7.20000000E-01
  7.20000000E-01  7.20000000E-01  7.20000000E-01  8.50000000E-01  7.90000000E-01
  7.20000000E-01  7.20000000E-01  7.20000000E-01  7.20000000E-01  8.50000000E-01
  7.20000000E-01  7.20000000E-01  8.50000000E-01  7.20000000E-01  7.20000000E-01
  8.50000000E-01  8.50000000E-01  7.20000000E-01  8.50000000E-01  7.20000000E-01
  8.50000000E-01  7.20000000E-01  8.50000000E-01  8.50000000E-01  8.50000000E-01
  8.50000000E-01  8.50000000E-01  8.50000000E-01  8.50000000E-01  8.50000000E-01
  8.50000000E-01  8.50000000E-01  8.50000000E-01  8.50000000E-01  8.50000000E-01
  8.50000000E-01  8.50000000E-01  8.50000000E-01  8.50000000E-01  8.50000000E-01
  8.50000000E-01  8.50000000E-01  8.50000000E-01  8.50000000E-01  8.50000000E-01
  8.50000000E-01  8.50000000E-01  8.50000000E-01  8.50000000E-01  7.20000000E-01
  7.20000000E-01  8.50000000E-01  7.20000000E-01  7.20000000E-01  7.20000000E-01
  7.20000000E-01  7.20000000E-01  7.20000000E-01  8.50000000E-01  7.90000000E-01
  7.20000000E-01  7.20000000E-01  7.20000000E-01  7.20000000E-01  8.50000000E-01
  7.20000000E-01  7.20000000E-01  8.50000000E-01  7.20000000E-01  7.20000000E-01
  8.50000000E-01  8.50000000E-01  7.20000000E-01  8.50000000E-01  7.20000000E-01
  8.50000000E-01  7.20000000E-01  8.50000000E-01  8.50000000E-01  8.50000000E-01
  8.50000000E-01  8.50000000E-01  8.50000000E-01  8.50000000E-01  8.50000000E-01
  8.50000000E-01  8.50000000E-01  8.50000000E-01  8.50000000E-01  8.50000000E-01
  8.50000000E-01  8.50000000E-01  8.50000000E-01  8.50000000E-01  8.50000000E-01
  8.50000000E-01  8.50000000E-01  8.50000000E-01  8.50000000E-01  8.50000000E-01
  8.50000000E-01  8.50000000E-01  8.50000000E-01  8.50000000E-01  7.20000000E-01
  7.20000000E-01  8.50000000E-01  7.20000000E-01  7.20000000E-01  7.20000000E-01
  7.20000000E-01  7.20000000E-01  7.20000000E-01  8.50000000E-01  7.90000000E-01
  7.20000000E-01  7.20000000E-01  7.20000000E-01  7.20000000E-01  8.50000000E-01
  7.20000000E-01  7.20000000E-01  8.50000000E-01  7.20000000E-01  7.20000000E-01
  8.50000000E-01  8.50000000E-01  7.20000000E-01  8.50000000E-01  7.20000000E-01
  8.50000000E-01  7.20000000E-01  8.50000000E-01  8.50000000E-01  8.50000000E-01
  8.50000000E-01  8.50000000E-01  8.50000000E-01  8.50000000E-01  8.50000000E-01
  8.50000000E-01  8.50000000E-01  8.50000000E-01  8.50000000E-01  8.50000000E-01
  8.50000000E-01  8.50000000E-01  8.50000000E-01  8.50000000E-01  8.50000000E-01
  8.50000000E-01  8.50000000E-01  8.50000000E-01  8.50000000E-01  8.50000000E-01
  8.50000000E-01  8.50000000E-01  8.50000000E-01  8.50000000E-01  7.20000000E-01
  7.20000000E-01  8.50000000E-01  7.20000000E-01  7.20000000E-01  7.20000000E-01
  7.20000000E-01  7.20000000E-01  7.20000000E-01  8.50000000E-01  7.90000000E-01
  7.20000000E-01  7.20000000E-01  7.20000000E-01  7.20000000E-01  8.50000000E-01
  7.20000000E-01  7.20000000E-01  8.50000000E-01  7.20000000E-01  7.20000000E-01
  8.50000000E-01  8.50000000E-01  7.20000000E-01  8.50000000E-01  7.20000000E-01
  8.50000000E-01  7.20000000E-01  8.50000000E-01  8.50000000E-01  8.50000000E-01
  8.50000000E-01  8.50000000E-01  8.50000000E-01  8.50000000E-01  8.50000000E-01
  8.50000000E-01  8.50000000E-01  8.50000000E-01  8.50000000E-01  8.50000000E-01
  8.50000000E-01  8.50000000E-01  8.50000000E-01  8.50000000E-01  8.50000000E-01
  8.50000000E-01  8.50000000E-01  8.50000000E-01  8.50000000E-01  8.50000000E-01
  8.50000000E-01  8.50000000E-01  8.50000000E-01  8.50000000E-01  7.20000000E-01
  7.20000000E-01  8.50000000E-01  7.20000000E-01  7.20000000E-01  7.20000000E-01
  7.20000000E-01  7.20000000E-01  7.20000000E-01  8.50000000E-01  7.90000000E-01
  7.20000000E-01  7.20000000E-01  7.20000000E-01  7.20000000E-01  8.50000000E-01
  7.20000000E-01  7.20000000E-01  8.50000000E-01  7.20000000E-01  7.20000000E-01
  8.50000000E-01  8.50000000E-01  7.20000000E-01  8.50000000E-01  7.20000000E-01
  8.50000000E-01  7.20000000E-01  8.50000000E-01  8.50000000E-01  8.50000000E-01
  8.50000000E-01  8.50000000E-01  8.50000000E-01  8.50000000E-01  8.50000000E-01
  8.50000000E-01  8.50000000E-01  8.50000000E-01  8.50000000E-01  8.50000000E-01
  8.50000000E-01  8.50000000E-01  8.50000000E-01  8.50000000E-01  8.50000000E-01
  8.50000000E-01  8.50000000E-01  8.50000000E-01  8.50000000E-01  8.50000000E-01
  8.50000000E-01  8.50000000E-01  8.50000000E-01  8.50000000E-01  7.20000000E-01
  7.20000000E-01  8.50000000E-01  7.20000000E-01  7.20000000E-01  7.20000000E-01
  7.20000000E-01  7.20000000E-01  7.20000000E-01  8.50000000E-01  7.90000000E-01
  7.20000000E-01  7.20000000E-01  7.20000000E-01  7.20000000E-01  8.50000000E-01
  7.20000000E-01  7.20000000E-01  8.50000000E-01  7.20000000E-01  7.20000000E-01
  8.50000000E-01  8.50000000E-01  7.20000000E-01  8.50000000E-01  7.20000000E-01
  8.50000000E-01  7.20000000E-01  8.50000000E-01  8.50000000E-01  8.50000000E-01
  8.50000000E-01  8.50000000E-01  8.50000000E-01  8.50000000E-01  8.50000000E-01
  8.50000000E-01  8.50000000E-01  8.50000000E-01  8.50000000E-01  8.50000000E-01
  8.50000000E-01  8.50000000E-01  8.50000000E-01  8.50000000E-01  8.50000000E-01
  8.50000000E-01  8.50000000E-01  8.50000000E-01  8.50000000E-01  8.50000000E-01
  8.50000000E-01  8.50000000E-01  8.50000000E-01  8.50000000E-01  7.20000000E-01
  7.20000000E-01  8.50000000E-01  7.20000000E-01  7.20000000E-01  7.20000000E-01
  7.20000000E-01  7.20000000E-01  7.20000000E-01  8.50000000E-01  7.90000000E-01
  7.20000000E-01  7.20000000E-01  7.20000000E-01  7.20000000E-01  8.50000000E-01
  7.20000000E-01  7.20000000E-01  8.50000000E-01  7.20000000E-01  7.20000000E-01
  8.50000000E-01  8.50000000E-01  7.20000000E-01  8.50000000E-01  7.20000000E-01
  8.50000000E-01  7.20000000E-01  8.50000000E-01  8.50000000E-01  8.50000000E-01
  8.50000000E-01  8.50000000E-01  8.50000000E-01  8.50000000E-01  8.50000000E-01
  8.50000000E-01  8.50000000E-01  8.50000000E-01  8.50000000E-01  8.50000000E-01
  8.50000000E-01  8.50000000E-01  8.50000000E-01  8.50000000E-01  8.50000000E-01
  8.50000000E-01  8.50000000E-01  8.50000000E-01  8.50000000E-01  8.50000000E-01
  8.50000000E-01  8.50000000E-01  8.50000000E-01  7.20000000E-01  8.50000000E-01
  8.50000000E-01
%FLAG IPOL                                                                      
%FORMAT(1I8)                                                                    
       0
