GROningen MAchine for Chemical Simulation
22030
    1CPH     CC    1   3.460   2.909   3.459
    1CPH    HC1    2   3.527   2.863   3.385
    1CPH    HC2    3   3.504   2.933   3.556
    2MNF      O    4   3.027   3.305   3.243
    2MNF      C    5   3.110   3.258   3.320
    2MNF     C1    6   3.080   3.171   3.442
    2MNF      H    7   3.013   3.225   3.510
    2MNF     C2    8   3.217   3.150   3.512
    2MNF     C3    9   3.234   2.996   3.530
    2MNF     C4   10   3.332   2.934   3.431
    2MNF     C6   11   3.093   2.938   3.508
    2MNF     C7   12   3.025   3.031   3.406
    2MNF     C8   13   2.872   3.034   3.400
    2MNF     H1   14   3.217   3.200   3.609
    2MNF      N   15   3.247   3.274   3.314
    2MNF    C10   16   3.311   3.362   3.213
    2MNF    C11   17   3.318   3.303   3.069
    2MNF    C12   18   3.345   3.151   3.054
    2MNF    C13   19   3.465   3.094   3.132
    2MNF     O1   20   3.577   3.182   3.120
    2MNF    C14   21   3.685   3.157   3.213
    2MNF    C15   22   3.747   3.293   3.252
    2MNF     O2   23   3.654   3.368   3.331
    2MNF    C16   24   3.881   3.276   3.330
    2MNF    C17   25   3.957   3.409   3.351
    2MNF     O3   26   3.884   3.495   3.439
    2MNF     O4   27   3.968   3.189   3.254
    2MNF    C18   28   3.917   3.057   3.233
    2MNF     O5   29   4.014   2.981   3.162
    2MNF    C19   30   3.791   3.067   3.145
    2MNF     O6   31   3.740   2.935   3.122
    2MNF    C20   32   3.318   3.220   3.421
    2MNF     O7   33   3.438   3.230   3.440
    2MNF     H2   34   3.268   2.975   3.632
    2MNF     H3   35   3.291   2.909   3.333
    2MNF     H6   36   3.037   2.939   3.603
    2MNF     H7   37   3.100   2.835   3.474
    2MNF     H8   38   3.062   3.005   3.305
    2MNF     H9   39   2.833   3.134   3.378
    2MNF    H12   40   3.413   3.383   3.245
    2MNF    H13   41   3.258   3.458   3.211
    2MNF    H14   42   3.222   3.325   3.019
    2MNF    H15   43   3.394   3.359   3.013
    2MNF    H16   44   3.255   3.096   3.085
    2MNF    H17   45   3.359   3.129   2.948
    2MNF    H18   46   3.488   2.994   3.093
    2MNF    H19   47   3.437   3.082   3.237
    2MNF    H20   48   3.649   3.107   3.305
    2MNF    H21   49   3.769   3.348   3.160
    2MNF    H22   50   3.587   3.306   3.369
    2MNF    H23   51   3.861   3.232   3.428
    2MNF    H24   52   4.056   3.387   3.393
    2MNF    H25   53   3.972   3.457   3.253
    2MNF    H26   54   3.790   3.485   3.414
    2MNF    H27   55   3.894   3.009   3.329
    2MNF    H28   56   3.960   2.908   3.125
    2MNF    H29   57   3.821   3.115   3.050
    2MNF    H30   58   3.663   2.946   3.062
    3MON      O   59   2.349   2.765   3.513
    3MON      C   60   2.467   2.771   3.543
    3MON     C1   61   2.579   2.684   3.486
    3MON      H   62   2.562   2.579   3.516
    3MON     C2   63   2.708   2.736   3.555
    3MON     C3   64   2.800   2.788   3.442
    3MON     C4   65   2.781   2.936   3.415
    3MON     C6   66   2.754   2.707   3.320
    3MON     C7   67   2.600   2.697   3.333
    3MON     C8   68   2.534   2.584   3.254
    3MON     H1   69   2.756   2.656   3.611
    3MON      N   70   2.523   2.859   3.635
    3MON    C10   71   2.442   2.942   3.726
    3MON    C11   72   2.376   3.067   3.662
    3MON    C12   73   2.459   3.147   3.558
    3MON    C13   74   2.600   3.192   3.600
    3MON     O1   75   2.597   3.246   3.733
    3MON    C14   76   2.718   3.313   3.776
    3MON    C15   77   2.824   3.213   3.829
    3MON     O2   78   2.877   3.134   3.722
    3MON    C16   79   2.941   3.288   3.899
    3MON    C17   80   3.044   3.195   3.965
    3MON     O3   81   3.118   3.124   3.865
    3MON     O4   82   2.886   3.373   4.002
    3MON    C18   83   2.798   3.476   3.955
    3MON     O5   84   2.752   3.552   4.064
    3MON    C19   85   2.675   3.409   3.890
    3MON     O6   86   2.588   3.509   3.836
    3MON    C20   87   2.661   2.844   3.652
    3MON     O7   88   2.731   2.905   3.732
    3MON     H2   89   2.903   2.762   3.466
    3MON     H3   90   2.677   2.965   3.403
    3MON     H6   91   2.799   2.607   3.325
    3MON     H7   92   2.789   2.754   3.228
    3MON     H8   93   2.556   2.792   3.301
    3MON     H9   94   2.467   2.522   3.313
    3MON    H12   95   2.505   2.976   3.809
    3MON    H13   96   2.363   2.879   3.770
    3MON    H14   97   2.284   3.035   3.612
    3MON    H15   98   2.345   3.134   3.743
    3MON    H16   99   2.467   3.087   3.466
    3MON    H17  100   2.401   3.236   3.530
    3MON    H18  101   2.636   3.267   3.528
    3MON    H19  102   2.667   3.106   3.595
    3MON    H20  103   2.761   3.373   3.695
    3MON    H21  104   2.776   3.148   3.904
    3MON    H22  105   2.820   3.053   3.717
    3MON    H23  106   2.993   3.350   3.825
    3MON    H24  107   3.113   3.255   4.026
    3MON    H25  108   2.993   3.125   4.032
    3MON    H26  109   3.051   3.094   3.800
    3MON    H27  110   2.850   3.540   3.883
    3MON    H28  111   2.671   3.593   4.029
    3MON    H29  112   2.624   3.350   3.967
    3MON    H30  113   2.520   3.460   3.785
    4MON      O  114   2.746   2.285   2.733
    4MON      C  115   2.759   2.358   2.830
    4MON     C1  116   2.745   2.510   2.833
    4MON      H  117   2.824   2.554   2.772
    4MON     C2  118   2.760   2.551   2.981
    4MON     C3  119   2.632   2.630   3.021
    4MON     C4  120   2.546   2.556   3.123
    4MON     C6  121   2.553   2.657   2.890
    4MON     C7  122   2.604   2.554   2.787
    4MON     C8  123   2.603   2.597   2.642
    4MON     H1  124   2.849   2.614   2.994
    4MON      N  125   2.780   2.316   2.961
    4MON    C10  126   2.808   2.175   2.994
    4MON    C11  127   2.688   2.079   2.978
    4MON    C12  128   2.549   2.131   3.024
    4MON    C13  129   2.540   2.181   3.170
    4MON     O1  130   2.601   2.083   3.255
    4MON    C14  131   2.588   2.106   3.397
    4MON    C15  132   2.702   2.199   3.448
    4MON     O2  133   2.678   2.334   3.407
    4MON    C16  134   2.712   2.195   3.604
    4MON    C17  135   2.838   2.267   3.659
    4MON     O3  136   2.832   2.406   3.628
    4MON     O4  137   2.719   2.058   3.649
    4MON    C18  138   2.604   1.979   3.616
    4MON     O5  139   2.621   1.848   3.668
    4MON    C19  140   2.597   1.967   3.463
    4MON     O6  141   2.483   1.889   3.425
    4MON    C20  142   2.785   2.418   3.055
    4MON     O7  143   2.807   2.403   3.174
    4MON     H2  144   2.660   2.728   3.061
    4MON     H3  145   2.490   2.473   3.082
    4MON     H6  146   2.572   2.759   2.856
    4MON     H7  147   2.445   2.648   2.905
    4MON     H8  148   2.538   2.467   2.797
    4MON     H9  149   2.548   2.529   2.578
    4MON    H12  150   2.843   2.170   3.098
    4MON    H13  151   2.891   2.140   2.931
    4MON    H14  152   2.680   2.053   2.872
    4MON    H15  153   2.711   1.985   3.030
    4MON    H16  154   2.518   2.213   2.957
    4MON    H17  155   2.476   2.051   3.010
    4MON    H18  156   2.434   2.195   3.196
    4MON    H19  157   2.590   2.277   3.179
    4MON    H20  158   2.491   2.151   3.422
    4MON    H21  159   2.798   2.162   3.408
    4MON    H22  160   2.718   2.347   3.317
    4MON    H23  161   2.623   2.243   3.647
    4MON    H24  162   2.843   2.252   3.768
    4MON    H25  163   2.927   2.221   3.615
    4MON    H26  164   2.790   2.411   3.540
    4MON    H27  165   2.513   2.024   3.656
    4MON    H28  166   2.561   1.796   3.612
    4MON    H29  167   2.690   1.919   3.429
    4MON    H30  168   2.477   1.897   3.327
    5MON      O  169   2.851   2.874   2.223
    5MON      C  170   2.876   2.843   2.338
    5MON     C1  171   2.856   2.931   2.462
    5MON      H  172   2.929   3.013   2.461
    5MON     C2  173   2.884   2.836   2.581
    5MON     C3  174   2.748   2.812   2.651
    5MON     C4  175   2.664   2.703   2.585
    5MON     C6  176   2.677   2.947   2.628
    5MON     C7  177   2.711   2.983   2.481
    5MON     C8  178   2.695   3.129   2.443
    5MON     H1  179   2.956   2.882   2.650
    5MON      N  180   2.930   2.722   2.381
    5MON    C10  181   2.989   2.623   2.288
    5MON    C11  182   2.887   2.530   2.217
    5MON    C12  183   2.778   2.463   2.305
    5MON    C13  184   2.826   2.384   2.429
    5MON     O1  185   2.944   2.310   2.396
    5MON    C14  186   2.985   2.213   2.495
    5MON    C15  187   3.096   2.271   2.588
    5MON     O2  188   3.041   2.371   2.675
    5MON    C16  189   3.159   2.158   2.674
    5MON    C17  190   3.280   2.205   2.758
    5MON     O3  191   3.236   2.294   2.862
    5MON     O4  192   3.206   2.053   2.588
    5MON    C18  193   3.103   1.989   2.511
    5MON     O5  194   3.160   1.887   2.432
    5MON    C19  195   3.041   2.093   2.416
    5MON     O6  196   2.935   2.033   2.341
    5MON    C20  197   2.946   2.711   2.519
    5MON     O7  198   3.003   2.622   2.579
    5MON     H2  199   2.764   2.792   2.757
    5MON     H3  200   2.653   2.713   2.477
    5MON     H6  201   2.720   3.023   2.695
    5MON     H7  202   2.570   2.942   2.647
    5MON     H8  203   2.646   2.925   2.414
    5MON     H9  204   2.736   3.155   2.346
    5MON    H12  205   3.060   2.561   2.343
    5MON    H13  206   3.046   2.678   2.212
    5MON    H14  207   2.836   2.589   2.139
    5MON    H15  208   2.943   2.453   2.164
    5MON    H16  209   2.706   2.539   2.337
    5MON    H17  210   2.722   2.395   2.240
    5MON    H18  211   2.745   2.316   2.459
    5MON    H19  212   2.843   2.452   2.513
    5MON    H20  213   2.900   2.179   2.556
    5MON    H21  214   3.175   2.314   2.525
    5MON    H22  215   3.022   2.451   2.621
    5MON    H23  216   3.083   2.118   2.743
    5MON    H24  217   3.330   2.117   2.802
    5MON    H25  218   3.353   2.255   2.693
    5MON    H26  219   3.166   2.349   2.821
    5MON    H27  220   3.026   1.946   2.578
    5MON    H28  221   3.093   1.875   2.362
    5MON    H29  222   3.120   2.129   2.350
    5MON    H30  223   2.888   2.107   2.298
    6MON      O  224   2.197   3.381   2.664
    6MON      C  225   2.278   3.366   2.574
    6MON     C1  226   2.393   3.460   2.540
    6MON      H  227   2.352   3.557   2.509
    6MON     C2  228   2.465   3.392   2.420
    6MON     C3  229   2.610   3.364   2.466
    6MON     C4  230   2.630   3.222   2.514
    6MON     C6  231   2.634   3.464   2.580
    6MON     C7  232   2.498   3.477   2.653
    6MON     C8  233   2.479   3.606   2.731
    6MON     H1  234   2.464   3.459   2.334
    6MON      N  235   2.278   3.262   2.482
    6MON    C10  236   2.158   3.178   2.459
    6MON    C11  237   2.137   3.061   2.557
    6MON    C12  238   2.262   2.975   2.593
    6MON    C13  239   2.348   2.925   2.476
    6MON     O1  240   2.265   2.882   2.367
    6MON    C14  241   2.338   2.850   2.246
    6MON    C15  242   2.255   2.897   2.124
    6MON     O2  243   2.246   3.040   2.122
    6MON    C16  244   2.316   2.846   1.990
    6MON    C17  245   2.226   2.871   1.868
    6MON     O3  246   2.214   3.011   1.842
    6MON     O4  247   2.337   2.703   1.998
    6MON    C18  248   2.424   2.660   2.104
    6MON     O5  249   2.436   2.519   2.100
    6MON    C19  250   2.356   2.697   2.238
    6MON     O6  251   2.435   2.648   2.347
    6MON    C20  252   2.381   3.269   2.388
    6MON     O7  253   2.398   3.195   2.292
    6MON     H2  254   2.680   3.385   2.383
    6MON     H3  255   2.584   3.199   2.611
    6MON     H6  256   2.663   3.561   2.536
    6MON     H7  257   2.713   3.432   2.647
    6MON     H8  258   2.487   3.393   2.722
    6MON     H9  259   2.376   3.624   2.763
    6MON    H12  260   2.163   3.137   2.357
    6MON    H13  261   2.070   3.243   2.462
    6MON    H14  262   2.097   3.101   2.650
    6MON    H15  263   2.060   2.995   2.516
    6MON    H16  264   2.326   3.033   2.661
    6MON    H17  265   2.227   2.888   2.651
    6MON    H18  266   2.412   2.843   2.512
    6MON    H19  267   2.415   3.006   2.444
    6MON    H20  268   2.436   2.899   2.243
    6MON    H21  269   2.154   2.854   2.133
    6MON    H22  270   2.309   3.078   2.188
    6MON    H23  271   2.413   2.895   1.973
    6MON    H24  272   2.268   2.820   1.780
    6MON    H25  273   2.127   2.827   1.886
    6MON    H26  274   2.208   3.055   1.929
    6MON    H27  275   2.522   2.707   2.095
    6MON    H28  276   2.458   2.498   2.193
    6MON    H29  277   2.257   2.650   2.238
    6MON    H30  278   2.385   2.673   2.427
    7MON      O  279   2.955   3.934   3.053
    7MON      C  280   2.850   3.878   3.029
    7MON     C1  281   2.723   3.942   2.972
    7MON      H  282   2.693   4.028   3.033
    7MON     C2  283   2.616   3.830   2.977
    7MON     C3  284   2.548   3.824   2.837
    7MON     C4  285   2.575   3.696   2.761
    7MON     C6  286   2.604   3.945   2.758
    7MON     C7  287   2.738   3.981   2.823
    7MON     C8  288   2.781   4.125   2.799
    7MON     H1  289   2.542   3.853   3.055
    7MON      N  290   2.824   3.742   3.046
    7MON    C10  291   2.922   3.651   3.108
    7MON    C11  292   3.042   3.612   3.019
    7MON    C12  293   3.012   3.576   2.871
    7MON    C13  294   2.911   3.461   2.848
    7MON     O1  295   2.950   3.348   2.927
    7MON    C14  296   2.866   3.231   2.918
    7MON    C15  297   2.744   3.243   3.014
    7MON     O2  298   2.644   3.328   2.955
    7MON    C16  299   2.678   3.105   3.044
    7MON    C17  300   2.577   3.111   3.161
    7MON     O3  301   2.457   3.175   3.120
    7MON     O4  302   2.777   3.007   3.077
    7MON    C18  303   2.874   2.984   2.974
    7MON     O5  304   2.961   2.879   3.013
    7MON    C19  305   2.956   3.113   2.957
    7MON     O6  306   3.055   3.093   2.856
    7MON    C20  307   2.693   3.704   3.020
    7MON     O7  308   2.647   3.592   3.035
    7MON     H2  309   2.440   3.836   2.849
    7MON     H3  310   2.678   3.680   2.731
    7MON     H6  311   2.533   4.028   2.766
    7MON     H7  312   2.617   3.921   2.652
    7MON     H8  313   2.814   3.915   2.779
    7MON     H9  314   2.883   4.135   2.760
    7MON    H12  315   2.871   3.558   3.138
    7MON    H13  316   2.960   3.697   3.200
    7MON    H14  317   3.113   3.696   3.018
    7MON    H15  318   3.095   3.529   3.066
    7MON    H16  319   2.975   3.665   2.819
    7MON    H17  320   3.106   3.549   2.822
    7MON    H18  321   2.913   3.435   2.741
    7MON    H19  322   2.811   3.496   2.873
    7MON    H20  323   2.830   3.216   2.815
    7MON    H21  324   2.780   3.285   3.109
    7MON    H22  325   2.658   3.421   2.985
    7MON    H23  326   2.623   3.072   2.954
    7MON    H24  327   2.556   3.009   3.194
    7MON    H25  328   2.623   3.164   3.246
    7MON    H26  329   2.482   3.252   3.065
    7MON    H27  330   2.824   2.959   2.880
    7MON    H28  331   3.042   2.902   2.964
    7MON    H29  332   3.003   3.136   3.054
    7MON    H30  333   3.095   3.182   2.841
    8MON      O  334   2.348   4.483   2.598
    8MON      C  335   2.464   4.445   2.593
    8MON     C1  336   2.583   4.511   2.660
    8MON      H  337   2.601   4.607   2.609
    8MON     C2  338   2.702   4.417   2.635
    8MON     C3  339   2.754   4.374   2.775
    8MON     C4  340   2.706   4.235   2.814
    8MON     C6  341   2.702   4.485   2.871
    8MON     C7  342   2.567   4.531   2.812
    8MON     C8  343   2.524   4.674   2.839
    8MON     H1  344   2.781   4.470   2.581
    8MON      N  345   2.510   4.337   2.519
    8MON    C10  346   2.454   4.313   2.384
    8MON    C11  347   2.321   4.233   2.378
    8MON    C12  348   2.316   4.101   2.457
    8MON    C13  349   2.443   4.013   2.449
    8MON     O1  350   2.486   4.002   2.312
    8MON    C14  351   2.613   3.935   2.294
    8MON    C15  352   2.694   4.007   2.184
    8MON     O2  353   2.733   4.138   2.227
    8MON    C16  354   2.820   3.925   2.143
    8MON    C17  355   2.891   3.981   2.018
    8MON     O3  356   2.953   4.106   2.049
    8MON     O4  357   2.781   3.789   2.112
    8MON    C18  358   2.717   3.718   2.219
    8MON     O5  359   2.686   3.587   2.175
    8MON    C19  360   2.584   3.790   2.249
    8MON     O6  361   2.511   3.719   2.350
    8MON    C20  362   2.646   4.308   2.543
    8MON     O7  363   2.710   4.218   2.491
    8MON     H2  364   2.864   4.375   2.775
    8MON     H3  365   2.603   4.229   2.850
    8MON     H6  366   2.773   4.568   2.869
    8MON     H7  367   2.693   4.450   2.974
    8MON     H8  368   2.489   4.462   2.847
    8MON     H9  369   2.448   4.710   2.769
    8MON    H12  370   2.528   4.261   2.323
    8MON    H13  371   2.437   4.410   2.337
    8MON    H14  372   2.239   4.297   2.413
    8MON    H15  373   2.300   4.212   2.272
    8MON    H16  374   2.297   4.123   2.562
    8MON    H17  375   2.230   4.042   2.422
    8MON    H18  376   2.422   3.915   2.493
    8MON    H19  377   2.521   4.061   2.509
    8MON    H20  378   2.672   3.934   2.387
    8MON    H21  379   2.630   4.016   2.095
    8MON    H22  380   2.720   4.146   2.325
    8MON    H23  381   2.891   3.924   2.227
    8MON    H24  382   2.968   3.909   1.986
    8MON    H25  383   2.819   3.992   1.937
    8MON    H26  384   2.888   4.157   2.102
    8MON    H27  385   2.781   3.714   2.308
    8MON    H28  386   2.599   3.572   2.217
    8MON    H29  387   2.527   3.794   2.155
    8MON    H30  388   2.435   3.777   2.371
    9MON      O  389   2.347   4.953   3.356
    9MON      C  390   2.350   4.929   3.237
    9MON     C1  391   2.417   5.013   3.129
    9MON      H  392   2.369   5.112   3.126
    9MON     C2  393   2.390   4.937   2.996
    9MON     C3  394   2.528   4.907   2.932
    9MON     C4  395   2.571   4.760   2.932
    9MON     C6  396   2.629   4.997   3.006
    9MON     C7  397   2.570   5.024   3.146
    9MON     C8  398   2.613   5.158   3.203
    9MON     H1  399   2.331   5.001   2.929
    9MON      N  400   2.290   4.820   3.175
    9MON    C10  401   2.192   4.735   3.246
    9MON    C11  402   2.253   4.628   3.341
    9MON    C12  403   2.381   4.555   3.293
    9MON    C13  404   2.378   4.496   3.151
    9MON     O1  405   2.250   4.434   3.126
    9MON    C14  406   2.228   4.394   2.990
    9MON    C15  407   2.078   4.414   2.954
    9MON     O2  408   2.045   4.554   2.956
    9MON    C16  409   2.046   4.354   2.813
    9MON    C17  410   1.895   4.351   2.782
    9MON     O3  411   1.845   4.484   2.768
    9MON     O4  412   2.092   4.217   2.808
    9MON    C18  413   2.233   4.200   2.831
    9MON     O5  414   2.267   4.063   2.824
    9MON    C19  415   2.263   4.245   2.975
    9MON     O6  416   2.399   4.217   3.008
    9MON    C20  417   2.304   4.817   3.036
    9MON     O7  418   2.251   4.738   2.960
    9MON     H2  419   2.525   4.939   2.827
    9MON     H3  420   2.646   4.730   3.004
    9MON     H6  421   2.637   5.092   2.951
    9MON     H7  422   2.730   4.954   3.012
    9MON     H8  423   2.604   4.944   3.212
    9MON     H9  424   2.666   5.152   3.298
    9MON    H12  425   2.131   4.683   3.171
    9MON    H13  426   2.124   4.799   3.303
    9MON    H14  427   2.276   4.677   3.436
    9MON    H15  428   2.175   4.554   3.363
    9MON    H16  429   2.466   4.624   3.300
    9MON    H17  430   2.402   4.474   3.364
    9MON    H18  431   2.461   4.425   3.140
    9MON    H19  432   2.396   4.577   3.079
    9MON    H20  433   2.287   4.454   2.920
    9MON    H21  434   2.018   4.361   3.028
    9MON    H22  435   2.128   4.607   2.951
    9MON    H23  436   2.097   4.413   2.736
    9MON    H24  437   1.879   4.295   2.689
    9MON    H25  438   1.842   4.298   2.862
    9MON    H26  439   1.889   4.538   2.837
    9MON    H27  440   2.291   4.258   2.758
    9MON    H28  441   2.337   4.060   2.892
    9MON    H29  442   2.195   4.188   3.041
    9MON    H30  443   2.411   4.254   3.098
   10MON      O  444   2.691   5.720   2.850
   10MON      C  445   2.711   5.625   2.923
   10MON     C1  446   2.670   5.614   3.069
   10MON      H  447   2.704   5.701   3.124
   10MON     C2  448   2.740   5.487   3.123
   10MON     C3  449   2.635   5.410   3.207
   10MON     C4  450   2.591   5.278   3.146
   10MON     C6  451   2.516   5.508   3.220
   10MON     C7  452   2.519   5.593   3.092
   10MON     C8  453   2.443   5.726   3.086
   10MON     H1  454   2.826   5.516   3.185
   10MON      N  455   2.780   5.509   2.890
   10MON    C10  456   2.870   5.505   2.772
   10MON    C11  457   2.799   5.492   2.635
   10MON    C12  458   2.677   5.397   2.628
   10MON    C13  459   2.696   5.258   2.691
   10MON     O1  460   2.823   5.204   2.651
   10MON    C14  461   2.861   5.082   2.718
   10MON    C15  462   3.014   5.084   2.744
   10MON     O2  463   3.048   5.186   2.838
   10MON    C16  464   3.062   4.945   2.797
   10MON    C17  465   3.216   4.934   2.805
   10MON     O3  466   3.266   5.014   2.913
   10MON     O4  467   3.016   4.840   2.709
   10MON    C18  468   2.874   4.832   2.694
   10MON     O5  469   2.841   4.728   2.605
   10MON    C19  470   2.826   4.962   2.628
   10MON     O6  471   2.685   4.954   2.602
   10MON    C20  472   2.795   5.419   2.996
   10MON     O7  473   2.849   5.309   2.989
   10MON     H2  474   2.676   5.391   3.307
   10MON     H3  475   2.538   5.285   3.051
   10MON     H6  476   2.535   5.571   3.307
   10MON     H7  477   2.420   5.455   3.234
   10MON     H8  478   2.481   5.530   3.010
   10MON     H9  479   2.456   5.775   2.989
   10MON    H12  480   2.938   5.421   2.783
   10MON    H13  481   2.931   5.596   2.772
   10MON    H14  482   2.766   5.592   2.604
   10MON    H15  483   2.874   5.461   2.561
   10MON    H16  484   2.591   5.445   2.677
   10MON    H17  485   2.649   5.385   2.523
   10MON    H18  486   2.613   5.193   2.659
   10MON    H19  487   2.690   5.267   2.800
   10MON    H20  488   2.810   5.072   2.815
   10MON    H21  489   3.065   5.103   2.649
   10MON    H22  490   2.967   5.217   2.885
   10MON    H23  491   3.022   4.928   2.898
   10MON    H24  492   3.244   4.829   2.822
   10MON    H25  493   3.260   4.965   2.710
   10MON    H26  494   3.222   5.102   2.905
   10MON    H27  495   2.825   4.817   2.791
   10MON    H28  496   2.762   4.766   2.562
   10MON    H29  497   2.882   4.974   2.533
   10MON    H30  498   2.662   5.037   2.556
   11MNL      O  499   2.392   6.184   3.466
   11MNL      C  500   2.420   6.067   3.445
   11MNL     C1  501   2.332   5.946   3.476
   11MNL      H  502   2.315   5.940   3.584
   11MNL     C2  503   2.413   5.823   3.426
   11MNL     C3  504   2.326   5.754   3.317
   11MNL     C4  505   2.367   5.792   3.176
   11MNL     C6  506   2.183   5.802   3.348
   11MNL     C7  507   2.198   5.947   3.398
   11MNL     C8  508   2.083   6.001   3.482
   11MNL     H1  509   2.431   5.755   3.510
   11MNL      N  510   2.538   6.020   3.388
   11MNL    C10  511   2.653   6.109   3.361
   11MNL    C11  512   2.638   6.196   3.233
   11MNL    C12  513   2.595   6.122   3.104
   11MNL    C13  514   2.685   6.006   3.059
   11MNL     O1  515   2.822   6.050   3.057
   11MNL    C14  516   2.916   5.954   3.008
   11MNL    C15  517   2.997   5.894   3.125
   11MNL     O2  518   2.913   5.812   3.207
   11MNL    C16  519   3.116   5.808   3.072
   11MNL    C17  520   3.210   5.756   3.183
   11MNL     O3  521   3.143   5.659   3.262
   11MNL     O4  522   3.195   5.890   2.983
   11MNL    C18  523   3.126   5.937   2.866
   11MNL     O5  524   3.214   6.014   2.787
   11MNL    C19  525   3.011   6.028   2.911
   11MNL     O6  526   2.937   6.073   2.797
   11MNL    C20  527   2.546   5.881   3.379
   11MNL     O7  528   2.645   5.818   3.345
   11MNL     H2  529   2.327   5.645   3.331
   11MNL     H3  530   2.325   5.887   3.143
   11MNL     H6  531   2.141   5.739   3.427
   11MNL     H7  532   2.116   5.796   3.261
   11MNL     H8  533   2.210   6.013   3.311
   11MNL     H9  534   2.102   6.099   3.526
   11MNL    H12  535   2.743   6.048   3.352
   11MNL    H13  536   2.667   6.175   3.447
   11MNL    H14  537   2.564   6.274   3.254
   11MNL    H15  538   2.733   6.248   3.216
   11MNL    H16  539   2.493   6.084   3.116
   11MNL    H17  540   2.590   6.196   3.023
   11MNL    H18  541   2.654   5.973   2.959
   11MNL    H19  542   2.673   5.921   3.127
   11MNL    H20  543   2.867   5.873   2.952
   11MNL    H21  544   3.039   5.976   3.184
   11MNL    H22  545   2.837   5.866   3.238
   11MNL    H23  546   3.077   5.722   3.017
   11MNL    H24  547   3.299   5.712   3.136
   11MNL    H25  548   3.243   5.841   3.245
   11MNL    H26  549   3.053   5.694   3.278
   11MNL    H27  550   3.088   5.852   2.808
   11MNL    H28  551   3.153   6.067   2.733
   11MNL    H29  552   3.055   6.114   2.965
   11MNL    H30  553   2.855   6.114   2.832
   12CPT     CC  554   1.966   5.941   3.506
   12CPT    HC1  555   1.940   5.843   3.464
   12CPT    HC2  556   1.890   5.988   3.568
   13WAT      O  557   5.080   7.718   4.662
   13WAT     H1  558   5.072   7.627   4.635
   13WAT     H2  559   5.038   7.768   4.592
   14WAT      O  560   4.893   7.896   4.850
   14WAT     H1  561   4.815   7.848   4.879
   14WAT     H2  562   4.958   7.828   4.833
   15WAT      O  563   4.135   7.423   4.316
   15WAT     H1  564   4.047   7.457   4.306
   15WAT     H2  565   4.164   7.403   4.227
   16WAT      O  566   3.932   7.683   4.905
   16WAT     H1  567   3.989   7.607   4.905
   16WAT     H2  568   3.932   7.713   4.814
   17WAT      O  569   4.056   7.224   5.084
   17WAT     H1  570   4.038   7.134   5.112
   17WAT     H2  571   4.016   7.279   5.151
   18WAT      O  572   4.940   7.444   4.874
   18WAT     H1  573   4.978   7.357   4.862
   18WAT     H2  574   4.930   7.478   4.785
   19WAT      O  575   4.353   7.282   4.420
   19WAT     H1  576   4.364   7.372   4.451
   19WAT     H2  577   4.262   7.277   4.391
   20WAT      O  578   5.318   7.194   4.567
   20WAT     H1  579   5.400   7.145   4.571
   20WAT     H2  580   5.322   7.253   4.642
   21WAT      O  581   4.118   7.474   4.944
   21WAT     H1  582   4.186   7.500   5.006
   21WAT     H2  583   4.086   7.390   4.978
   22WAT      O  584   4.537   7.578   4.853
   22WAT     H1  585   4.588   7.628   4.917
   22WAT     H2  586   4.590   7.501   4.836
   23WAT      O  587   4.365   7.042   5.280
   23WAT     H1  588   4.366   7.094   5.199
   23WAT     H2  589   4.282   6.995   5.277
   24WAT      O  590   5.342   7.388   4.844
   24WAT     H1  591   5.271   7.417   4.902
   24WAT     H2  592   5.378   7.469   4.808
   25WAT      O  593   4.334   7.214   5.080
   25WAT     H1  594   4.368   7.298   5.051
   25WAT     H2  595   4.240   7.228   5.092
   26WAT      O  596   5.649   7.332   4.883
   26WAT     H1  597   5.554   7.336   4.897
   26WAT     H2  598   5.681   7.414   4.922
   27WAT      O  599   4.702   6.962   4.713
   27WAT     H1  600   4.733   6.907   4.641
   27WAT     H2  601   4.609   6.976   4.695
   28WAT      O  602   4.941   7.769   4.387
   28WAT     H1  603   4.848   7.762   4.409
   28WAT     H2  604   4.956   7.863   4.375
   29WAT      O  605   4.939   7.396   4.086
   29WAT     H1  606   4.845   7.412   4.095
   29WAT     H2  607   4.971   7.468   4.032
   30WAT      O  608   5.288   7.543   5.179
   30WAT     H1  609   5.247   7.625   5.204
   30WAT     H2  610   5.215   7.484   5.159
   31WAT      O  611   4.501   7.822   4.665
   31WAT     H1  612   4.461   7.750   4.615
   31WAT     H2  613   4.510   7.787   4.754
   32WAT      O  614   4.373   7.499   5.043
   32WAT     H1  615   4.428   7.510   4.965
   32WAT     H2  616   4.424   7.536   5.114
   33WAT      O  617   5.161   7.849   4.138
   33WAT     H1  618   5.205   7.765   4.123
   33WAT     H2  619   5.233   7.912   4.146
   34WAT      O  620   5.519   6.974   3.969
   34WAT     H1  621   5.488   6.984   4.059
   34WAT     H2  622   5.596   7.032   3.964
   35WAT      O  623   4.171   7.711   4.415
   35WAT     H1  624   4.159   7.784   4.354
   35WAT     H2  625   4.140   7.634   4.367
   36WAT      O  626   5.640   7.448   5.567
   36WAT     H1  627   5.579   7.499   5.514
   36WAT     H2  628   5.608   7.358   5.561
   37WAT      O  629   4.418   7.045   4.753
   37WAT     H1  630   4.374   7.123   4.720
   37WAT     H2  631   4.474   7.078   4.824
   38WAT      O  632   4.847   7.332   5.313
   38WAT     H1  633   4.800   7.353   5.395
   38WAT     H2  634   4.806   7.251   5.283
   39WAT      O  635   5.347   7.454   5.426
   39WAT     H1  636   5.262   7.424   5.458
   39WAT     H2  637   5.331   7.478   5.335
   40WAT      O  638   5.056   7.604   5.636
   40WAT     H1  639   5.089   7.521   5.602
   40WAT     H2  640   5.135   7.656   5.651
   41WAT      O  641   4.729   7.007   4.241
   41WAT     H1  642   4.667   7.007   4.314
   41WAT     H2  643   4.721   6.921   4.201
   42WAT      O  644   4.622   7.100   4.939
   42WAT     H1  645   4.651   7.190   4.931
   42WAT     H2  646   4.677   7.051   4.878
   43WAT      O  647   4.397   7.558   4.526
   43WAT     H1  648   4.374   7.536   4.616
   43WAT     H2  649   4.319   7.601   4.491
   44WAT      O  650   5.120   7.558   4.386
   44WAT     H1  651   5.060   7.631   4.367
   44WAT     H2  652   5.175   7.552   4.307
   45WAT      O  653   4.641   7.647   5.592
   45WAT     H1  654   4.631   7.553   5.577
   45WAT     H2  655   4.725   7.670   5.553
   46WAT      O  656   4.981   7.422   4.589
   46WAT     H1  657   5.020   7.454   4.507
   46WAT     H2  658   5.017   7.334   4.600
   47WAT      O  659   4.154   7.289   5.408
   47WAT     H1  660   4.115   7.373   5.428
   47WAT     H2  661   4.085   7.225   5.427
   48WAT      O  662   3.884   7.081   4.811
   48WAT     H1  663   3.855   7.138   4.882
   48WAT     H2  664   3.959   7.033   4.847
   49WAT      O  665   3.903   7.475   3.932
   49WAT     H1  666   3.895   7.569   3.946
   49WAT     H2  667   3.868   7.461   3.844
   50WAT      O  668   5.039   7.681   4.998
   50WAT     H1  669   4.966   7.732   5.033
   50WAT     H2  670   4.999   7.599   4.968
   51WAT      O  671   4.683   7.349   4.839
   51WAT     H1  672   4.683   7.304   4.754
   51WAT     H2  673   4.773   7.381   4.850
   52WAT      O  674   4.268   7.337   4.735
   52WAT     H1  675   4.234   7.385   4.810
   52WAT     H2  676   4.192   7.291   4.699
   53WAT      O  677   4.689   7.449   4.138
   53WAT     H1  678   4.701   7.444   4.233
   53WAT     H2  679   4.651   7.535   4.122
   54WAT      O  680   5.085   7.226   4.940
   54WAT     H1  681   5.087   7.271   5.024
   54WAT     H2  682   5.061   7.136   4.961
   55WAT      O  683   4.590   7.680   4.078
   55WAT     H1  684   4.534   7.635   4.015
   55WAT     H2  685   4.661   7.716   4.024
   56WAT      O  686   5.428   6.968   5.523
   56WAT     H1  687   5.461   6.895   5.576
   56WAT     H2  688   5.432   6.936   5.433
   57WAT      O  689   4.713   7.755   5.013
   57WAT     H1  690   4.750   7.707   5.088
   57WAT     H2  691   4.694   7.842   5.048
   58WAT      O  692   3.999   7.229   4.626
   58WAT     H1  693   3.971   7.193   4.710
   58WAT     H2  694   3.993   7.156   4.565
   59WAT      O  695   4.492   7.659   5.245
   59WAT     H1  696   4.462   7.747   5.268
   59WAT     H2  697   4.588   7.665   5.249
   60WAT      O  698   4.967   7.118   4.299
   60WAT     H1  699   4.886   7.068   4.291
   60WAT     H2  700   4.947   7.202   4.257
   61WAT      O  701   5.238   7.555   4.128
   61WAT     H1  702   5.327   7.587   4.111
   61WAT     H2  703   5.235   7.468   4.089
   62WAT      O  704   4.098   7.743   5.360
   62WAT     H1  705   4.062   7.809   5.419
   62WAT     H2  706   4.068   7.659   5.397
   63WAT      O  707   4.418   7.788   5.648
   63WAT     H1  708   4.388   7.803   5.559
   63WAT     H2  709   4.495   7.733   5.639
   64WAT      O  710   5.466   7.687   4.075
   64WAT     H1  711   5.457   7.730   3.990
   64WAT     H2  712   5.537   7.733   4.118
   65WAT      O  713   3.949   7.743   4.022
   65WAT     H1  714   4.036   7.771   4.051
   65WAT     H2  715   3.900   7.824   4.011
   66WAT      O  716   4.255   6.916   4.482
   66WAT     H1  717   4.242   6.915   4.577
   66WAT     H2  718   4.173   6.949   4.447
   67WAT      O  719   3.955   7.092   5.428
   67WAT     H1  720   3.884   7.112   5.488
   67WAT     H2  721   3.997   7.014   5.465
   68WAT      O  722   5.105   7.341   5.203
   68WAT     H1  723   5.141   7.259   5.236
   68WAT     H2  724   5.019   7.347   5.244
   69WAT      O  725   5.441   7.236   4.284
   69WAT     H1  726   5.378   7.247   4.212
   69WAT     H2  727   5.392   7.258   4.363
   70WAT      O  728   4.638   7.464   4.425
   70WAT     H1  729   4.567   7.511   4.469
   70WAT     H2  730   4.666   7.398   4.489
   71WAT      O  731   4.801   7.606   5.225
   71WAT     H1  732   4.850   7.654   5.292
   71WAT     H2  733   4.815   7.514   5.246
   72WAT      O  734   5.041   7.137   4.569
   72WAT     H1  735   5.029   7.139   4.474
   72WAT     H2  736   5.136   7.142   4.581
   73WAT      O  737   4.458   7.295   4.163
   73WAT     H1  738   4.543   7.339   4.156
   73WAT     H2  739   4.422   7.326   4.245
   74WAT      O  740   5.521   7.228   5.309
   74WAT     H1  741   5.471   7.302   5.343
   74WAT     H2  742   5.603   7.267   5.278
   75WAT      O  743   5.350   7.752   4.654
   75WAT     H1  744   5.256   7.754   4.671
   75WAT     H2  745   5.382   7.674   4.699
   76WAT      O  746   4.218   7.664   4.078
   76WAT     H1  747   4.226   7.569   4.090
   76WAT     H2  748   4.307   7.697   4.089
   77WAT      O  749   3.970   7.846   5.602
   77WAT     H1  750   4.021   7.788   5.659
   77WAT     H2  751   3.897   7.874   5.656
   78WAT      O  752   4.368   7.518   5.488
   78WAT     H1  753   4.315   7.469   5.425
   78WAT     H2  754   4.435   7.561   5.435
   79WAT      O  755   4.803   7.822   3.932
   79WAT     H1  756   4.855   7.751   3.896
   79WAT     H2  757   4.867   7.886   3.962
   80WAT      O  758   5.305   7.699   5.665
   80WAT     H1  759   5.363   7.623   5.656
   80WAT     H2  760   5.322   7.752   5.587
   81WAT      O  761   4.417   7.215   5.496
   81WAT     H1  762   4.407   7.153   5.424
   81WAT     H2  763   4.358   7.287   5.473
   82WAT      O  764   4.693   7.070   5.199
   82WAT     H1  765   4.648   7.073   5.115
   82WAT     H2  766   4.630   7.031   5.259
   83WAT      O  767   4.967   7.733   5.400
   83WAT     H1  768   4.979   7.673   5.474
   83WAT     H2  769   5.053   7.737   5.358
   84WAT      O  770   5.201   7.788   5.258
   84WAT     H1  771   5.149   7.841   5.197
   84WAT     H2  772   5.236   7.852   5.321
   85WAT      O  773   4.441   7.527   3.902
   85WAT     H1  774   4.421   7.441   3.938
   85WAT     H2  775   4.424   7.519   3.808
   86WAT      O  776   4.644   7.387   5.526
   86WAT     H1  777   4.703   7.356   5.594
   86WAT     H2  778   4.562   7.340   5.541
   87WAT      O  779   5.126   7.349   5.549
   87WAT     H1  780   5.057   7.283   5.543
   87WAT     H2  781   5.198   7.304   5.594
   88WAT      O  782   5.189   7.008   4.155
   88WAT     H1  783   5.217   6.924   4.191
   88WAT     H2  784   5.112   7.032   4.206
   89WAT      O  785   4.321   7.237   3.901
   89WAT     H1  786   4.351   7.238   3.810
   89WAT     H2  787   4.395   7.202   3.951
   90WAT      O  788   4.643   7.132   3.999
   90WAT     H1  789   4.608   7.064   3.941
   90WAT     H2  790   4.663   7.086   4.081
   91WAT      O  791   3.977   7.785   4.639
   91WAT     H1  792   3.911   7.758   4.575
   91WAT     H2  793   4.061   7.774   4.594
   92WAT      O  794   5.272   7.264   4.061
   92WAT     H1  795   5.314   7.245   3.977
   92WAT     H2  796   5.241   7.179   4.092
   93WAT      O  797   5.622   7.755   4.431
   93WAT     H1  798   5.584   7.679   4.388
   93WAT     H2  799   5.549   7.793   4.480
   94WAT      O  800   4.081   7.823   5.093
   94WAT     H1  801   4.117   7.814   5.181
   94WAT     H2  802   4.024   7.747   5.083
   95WAT      O  803   5.561   7.670   5.394
   95WAT     H1  804   5.537   7.647   5.304
   95WAT     H2  805   5.587   7.762   5.390
   96WAT      O  806   4.036   7.514   5.484
   96WAT     H1  807   3.946   7.511   5.518
   96WAT     H2  808   4.090   7.534   5.560
   97WAT      O  809   5.405   7.193   5.672
   97WAT     H1  810   5.492   7.193   5.711
   97WAT     H2  811   5.406   7.119   5.611
   98WAT      O  812   3.898   7.506   4.233
   98WAT     H1  813   3.808   7.532   4.216
   98WAT     H2  814   3.947   7.533   4.155
   99WAT      O  815   5.549   7.578   4.761
   99WAT     H1  816   5.602   7.528   4.698
   99WAT     H2  817   5.608   7.591   4.836
  100WAT      O  818   5.567   7.586   5.113
  100WAT     H1  819   5.472   7.583   5.125
  100WAT     H2  820   5.585   7.677   5.090
  101WAT      O  821   4.152   7.411   4.024
  101WAT     H1  822   4.223   7.369   3.976
  101WAT     H2  823   4.081   7.418   3.961
  102WAT      O  824   4.117   7.017   3.928
  102WAT     H1  825   4.190   7.071   3.960
  102WAT     H2  826   4.144   6.989   3.841
  103WAT      O  827   5.498   7.504   4.355
  103WAT     H1  828   5.548   7.480   4.433
  103WAT     H2  829   5.478   7.420   4.313
  104WAT      O  830   4.086   6.942   4.919
  104WAT     H1  831   4.151   6.887   4.874
  104WAT     H2  832   4.128   6.967   5.001
  105WAT      O  833   5.476   6.961   5.254
  105WAT     H1  834   5.539   7.022   5.291
  105WAT     H2  835   5.490   6.965   5.160
  106WAT      O  836   4.061   6.957   5.193
  106WAT     H1  837   4.027   7.003   5.269
  106WAT     H2  838   4.028   6.868   5.201
  107WAT      O  839   4.813   7.076   5.545
  107WAT     H1  840   4.807   7.136   5.620
  107WAT     H2  841   4.907   7.066   5.530
  108WAT      O  842   5.076   7.042   5.509
  108WAT     H1  843   5.138   7.074   5.443
  108WAT     H2  844   5.131   6.994   5.571
  109WAT      O  845   4.129   6.910   5.520
  109WAT     H1  846   4.183   6.892   5.444
  109WAT     H2  847   4.135   6.831   5.574
  110WAT      O  848   5.151   6.898   5.142
  110WAT     H1  849   5.063   6.932   5.121
  110WAT     H2  850   5.140   6.851   5.224
  111WAT      O  851   5.241   7.119   5.280
  111WAT     H1  852   5.208   7.038   5.242
  111WAT     H2  853   5.336   7.115   5.268
  112WAT      O  854   4.925   6.990   5.035
  112WAT     H1  855   4.847   7.038   5.063
  112WAT     H2  856   4.896   6.900   5.025
  113WAT      O  857   5.380   7.060   4.840
  113WAT     H1  858   5.425   7.055   4.755
  113WAT     H2  859   5.354   7.152   4.847
  114WAT      O  860   5.567   7.023   4.641
  114WAT     H1  861   5.561   6.929   4.626
  114WAT     H2  862   5.645   7.034   4.696
  115WAT      O  863   4.060   7.021   4.288
  115WAT     H1  864   4.135   7.032   4.230
  115WAT     H2  865   4.013   7.104   4.283
  116WAT      O  866   4.714   7.232   4.587
  116WAT     H1  867   4.633   7.195   4.553
  116WAT     H2  868   4.764   7.156   4.617
  117WAT      O  869   5.164   6.898   4.710
  117WAT     H1  870   5.224   6.956   4.758
  117WAT     H2  871   5.090   6.955   4.688
  118WAT      O  872   5.478   6.939   4.238
  118WAT     H1  873   5.498   7.028   4.265
  118WAT     H2  874   5.400   6.915   4.287
  119WAT      O  875   4.297   7.073   4.142
  119WAT     H1  876   4.350   6.995   4.129
  119WAT     H2  877   4.360   7.141   4.165
  120WAT      O  878   4.516   7.047   4.447
  120WAT     H1  879   4.453   6.977   4.464
  120WAT     H2  880   4.462   7.123   4.425
  121WAT      O  881   4.529   6.975   5.691
  121WAT     H1  882   4.501   7.025   5.614
  121WAT     H2  883   4.567   6.895   5.654
  122WAT      O  884   5.080   7.718   2.785
  122WAT     H1  885   5.072   7.627   2.758
  122WAT     H2  886   5.038   7.768   2.714
  123WAT      O  887   4.893   7.896   2.973
  123WAT     H1  888   4.815   7.848   3.002
  123WAT     H2  889   4.958   7.828   2.955
  124WAT      O  890   4.135   7.423   2.439
  124WAT     H1  891   4.047   7.457   2.429
  124WAT     H2  892   4.164   7.403   2.350
  125WAT      O  893   3.932   7.683   3.027
  125WAT     H1  894   3.989   7.607   3.027
  125WAT     H2  895   3.932   7.713   2.937
  126WAT      O  896   4.056   7.224   3.206
  126WAT     H1  897   4.038   7.134   3.234
  126WAT     H2  898   4.016   7.279   3.274
  127WAT      O  899   4.940   7.444   2.996
  127WAT     H1  900   4.978   7.357   2.985
  127WAT     H2  901   4.930   7.478   2.907
  128WAT      O  902   4.353   7.282   2.542
  128WAT     H1  903   4.364   7.372   2.573
  128WAT     H2  904   4.262   7.277   2.513
  129WAT      O  905   5.318   7.194   2.690
  129WAT     H1  906   5.400   7.145   2.694
  129WAT     H2  907   5.322   7.253   2.765
  130WAT      O  908   4.118   7.474   3.067
  130WAT     H1  909   4.186   7.500   3.129
  130WAT     H2  910   4.086   7.390   3.100
  131WAT      O  911   4.537   7.578   2.976
  131WAT     H1  912   4.588   7.628   3.040
  131WAT     H2  913   4.590   7.501   2.958
  132WAT      O  914   4.365   7.042   3.402
  132WAT     H1  915   4.366   7.094   3.322
  132WAT     H2  916   4.282   6.995   3.400
  133WAT      O  917   5.342   7.388   2.967
  133WAT     H1  918   5.271   7.417   3.025
  133WAT     H2  919   5.378   7.469   2.931
  134WAT      O  920   4.334   7.214   3.203
  134WAT     H1  921   4.368   7.298   3.174
  134WAT     H2  922   4.240   7.228   3.215
  135WAT      O  923   5.649   7.332   3.006
  135WAT     H1  924   5.554   7.336   3.019
  135WAT     H2  925   5.681   7.414   3.044
  136WAT      O  926   4.702   6.962   2.835
  136WAT     H1  927   4.733   6.907   2.764
  136WAT     H2  928   4.609   6.976   2.817
  137WAT      O  929   4.941   7.769   2.509
  137WAT     H1  930   4.848   7.762   2.532
  137WAT     H2  931   4.956   7.863   2.498
  138WAT      O  932   4.939   7.396   2.209
  138WAT     H1  933   4.845   7.412   2.217
  138WAT     H2  934   4.971   7.468   2.154
  139WAT      O  935   5.288   7.543   3.301
  139WAT     H1  936   5.247   7.625   3.326
  139WAT     H2  937   5.215   7.484   3.282
  140WAT      O  938   4.501   7.822   2.787
  140WAT     H1  939   4.461   7.750   2.738
  140WAT     H2  940   4.510   7.787   2.876
  141WAT      O  941   4.373   7.499   3.165
  141WAT     H1  942   4.428   7.510   3.088
  141WAT     H2  943   4.424   7.536   3.237
  142WAT      O  944   5.161   7.849   2.260
  142WAT     H1  945   5.205   7.765   2.246
  142WAT     H2  946   5.233   7.912   2.269
  143WAT      O  947   5.519   6.974   2.092
  143WAT     H1  948   5.488   6.984   2.182
  143WAT     H2  949   5.596   7.032   2.087
  144WAT      O  950   4.171   7.711   2.537
  144WAT     H1  951   4.159   7.784   2.476
  144WAT     H2  952   4.140   7.634   2.490
  145WAT      O  953   5.640   7.448   3.689
  145WAT     H1  954   5.579   7.499   3.636
  145WAT     H2  955   5.608   7.358   3.684
  146WAT      O  956   4.418   7.045   2.876
  146WAT     H1  957   4.374   7.123   2.842
  146WAT     H2  958   4.474   7.078   2.946
  147WAT      O  959   4.847   7.332   3.436
  147WAT     H1  960   4.800   7.353   3.517
  147WAT     H2  961   4.806   7.251   3.406
  148WAT      O  962   5.347   7.454   3.549
  148WAT     H1  963   5.262   7.424   3.581
  148WAT     H2  964   5.331   7.478   3.458
  149WAT      O  965   5.056   7.604   3.759
  149WAT     H1  966   5.089   7.521   3.725
  149WAT     H2  967   5.135   7.656   3.774
  150WAT      O  968   4.729   7.007   2.364
  150WAT     H1  969   4.667   7.007   2.436
  150WAT     H2  970   4.721   6.921   2.324
  151WAT      O  971   4.622   7.100   3.061
  151WAT     H1  972   4.651   7.190   3.053
  151WAT     H2  973   4.677   7.051   3.000
  152WAT      O  974   4.397   7.558   2.648
  152WAT     H1  975   4.374   7.536   2.739
  152WAT     H2  976   4.319   7.601   2.614
  153WAT      O  977   5.120   7.558   2.508
  153WAT     H1  978   5.060   7.631   2.490
  153WAT     H2  979   5.175   7.552   2.430
  154WAT      O  980   4.641   7.647   3.715
  154WAT     H1  981   4.631   7.553   3.700
  154WAT     H2  982   4.725   7.670   3.675
  155WAT      O  983   4.981   7.422   2.711
  155WAT     H1  984   5.020   7.454   2.630
  155WAT     H2  985   5.017   7.334   2.723
  156WAT      O  986   4.154   7.289   3.530
  156WAT     H1  987   4.115   7.373   3.551
  156WAT     H2  988   4.085   7.225   3.549
  157WAT      O  989   4.812   7.297   3.837
  157WAT     H1  990   4.743   7.278   3.901
  157WAT     H2  991   4.886   7.325   3.891
  158WAT      O  992   3.884   7.081   2.934
  158WAT     H1  993   3.855   7.138   3.005
  158WAT     H2  994   3.959   7.033   2.970
  159WAT      O  995   3.903   7.475   2.055
  159WAT     H1  996   3.895   7.569   2.069
  159WAT     H2  997   3.868   7.461   1.967
  160WAT      O  998   5.039   7.681   3.121
  160WAT     H1  999   4.966   7.732   3.156
  160WAT     H2 1000   4.999   7.599   3.091
  161WAT      O 1001   4.683   7.349   2.961
  161WAT     H1 1002   4.683   7.304   2.876
  161WAT     H2 1003   4.773   7.381   2.972
  162WAT      O 1004   4.268   7.337   2.857
  162WAT     H1 1005   4.234   7.385   2.933
  162WAT     H2 1006   4.192   7.291   2.821
  163WAT      O 1007   4.689   7.449   2.260
  163WAT     H1 1008   4.701   7.444   2.355
  163WAT     H2 1009   4.651   7.535   2.245
  164WAT      O 1010   5.085   7.226   3.062
  164WAT     H1 1011   5.087   7.271   3.146
  164WAT     H2 1012   5.061   7.136   3.083
  165WAT      O 1013   4.590   7.680   2.200
  165WAT     H1 1014   4.534   7.635   2.138
  165WAT     H2 1015   4.661   7.716   2.147
  166WAT      O 1016   5.428   6.968   3.646
  166WAT     H1 1017   5.461   6.895   3.699
  166WAT     H2 1018   5.432   6.936   3.556
  167WAT      O 1019   4.713   7.755   3.136
  167WAT     H1 1020   4.750   7.707   3.211
  167WAT     H2 1021   4.694   7.842   3.170
  168WAT      O 1022   3.999   7.229   2.749
  168WAT     H1 1023   3.971   7.193   2.833
  168WAT     H2 1024   3.993   7.156   2.688
  169WAT      O 1025   4.492   7.659   3.368
  169WAT     H1 1026   4.462   7.747   3.390
  169WAT     H2 1027   4.588   7.665   3.371
  170WAT      O 1028   4.967   7.118   2.421
  170WAT     H1 1029   4.886   7.068   2.414
  170WAT     H2 1030   4.947   7.202   2.379
  171WAT      O 1031   5.238   7.555   2.251
  171WAT     H1 1032   5.327   7.587   2.233
  171WAT     H2 1033   5.235   7.468   2.212
  172WAT      O 1034   4.098   7.743   3.483
  172WAT     H1 1035   4.062   7.809   3.541
  172WAT     H2 1036   4.068   7.659   3.520
  173WAT      O 1037   4.418   7.788   3.771
  173WAT     H1 1038   4.388   7.803   3.681
  173WAT     H2 1039   4.495   7.733   3.762
  174WAT      O 1040   5.466   7.687   2.198
  174WAT     H1 1041   5.457   7.730   2.112
  174WAT     H2 1042   5.537   7.733   2.241
  175WAT      O 1043   3.949   7.743   2.145
  175WAT     H1 1044   4.036   7.771   2.173
  175WAT     H2 1045   3.900   7.824   2.133
  176WAT      O 1046   4.255   6.916   2.604
  176WAT     H1 1047   4.242   6.915   2.699
  176WAT     H2 1048   4.173   6.949   2.569
  177WAT      O 1049   3.955   7.092   3.550
  177WAT     H1 1050   3.884   7.112   3.611
  177WAT     H2 1051   3.997   7.014   3.587
  178WAT      O 1052   5.105   7.341   3.325
  178WAT     H1 1053   5.141   7.259   3.358
  178WAT     H2 1054   5.019   7.347   3.367
  179WAT      O 1055   5.441   7.236   2.406
  179WAT     H1 1056   5.378   7.247   2.335
  179WAT     H2 1057   5.392   7.258   2.485
  180WAT      O 1058   4.638   7.464   2.548
  180WAT     H1 1059   4.567   7.511   2.592
  180WAT     H2 1060   4.666   7.398   2.611
  181WAT      O 1061   4.801   7.606   3.348
  181WAT     H1 1062   4.850   7.654   3.414
  181WAT     H2 1063   4.815   7.514   3.368
  182WAT      O 1064   5.041   7.137   2.692
  182WAT     H1 1065   5.029   7.139   2.597
  182WAT     H2 1066   5.136   7.142   2.704
  183WAT      O 1067   4.458   7.295   2.285
  183WAT     H1 1068   4.543   7.339   2.279
  183WAT     H2 1069   4.422   7.326   2.368
  184WAT      O 1070   5.521   7.228   3.432
  184WAT     H1 1071   5.471   7.302   3.466
  184WAT     H2 1072   5.603   7.267   3.400
  185WAT      O 1073   5.350   7.752   2.777
  185WAT     H1 1074   5.256   7.754   2.794
  185WAT     H2 1075   5.382   7.674   2.821
  186WAT      O 1076   4.218   7.664   2.201
  186WAT     H1 1077   4.226   7.569   2.212
  186WAT     H2 1078   4.307   7.697   2.212
  187WAT      O 1079   3.970   7.846   3.725
  187WAT     H1 1080   4.021   7.788   3.782
  187WAT     H2 1081   3.897   7.874   3.778
  188WAT      O 1082   4.174   7.660   3.814
  188WAT     H1 1083   4.178   7.630   3.905
  188WAT     H2 1084   4.259   7.700   3.798
  189WAT      O 1085   4.368   7.518   3.611
  189WAT     H1 1086   4.315   7.469   3.548
  189WAT     H2 1087   4.435   7.561   3.557
  190WAT      O 1088   4.803   7.822   2.055
  190WAT     H1 1089   4.855   7.751   2.018
  190WAT     H2 1090   4.867   7.886   2.085
  191WAT      O 1091   5.305   7.699   3.788
  191WAT     H1 1092   5.363   7.623   3.779
  191WAT     H2 1093   5.322   7.752   3.710
  192WAT      O 1094   4.417   7.215   3.619
  192WAT     H1 1095   4.407   7.153   3.546
  192WAT     H2 1096   4.358   7.287   3.596
  193WAT      O 1097   4.693   7.070   3.322
  193WAT     H1 1098   4.648   7.073   3.237
  193WAT     H2 1099   4.630   7.031   3.382
  194WAT      O 1100   4.967   7.733   3.523
  194WAT     H1 1101   4.979   7.673   3.596
  194WAT     H2 1102   5.053   7.737   3.481
  195WAT      O 1103   5.201   7.788   3.380
  195WAT     H1 1104   5.149   7.841   3.320
  195WAT     H2 1105   5.236   7.852   3.443
  196WAT      O 1106   4.441   7.527   2.025
  196WAT     H1 1107   4.421   7.441   2.061
  196WAT     H2 1108   4.424   7.519   1.931
  197WAT      O 1109   4.644   7.387   3.648
  197WAT     H1 1110   4.703   7.356   3.717
  197WAT     H2 1111   4.562   7.340   3.664
  198WAT      O 1112   5.126   7.349   3.672
  198WAT     H1 1113   5.057   7.283   3.665
  198WAT     H2 1114   5.198   7.304   3.716
  199WAT      O 1115   5.189   7.008   2.278
  199WAT     H1 1116   5.217   6.924   2.313
  199WAT     H2 1117   5.112   7.032   2.329
  200WAT      O 1118   4.321   7.237   2.023
  200WAT     H1 1119   4.351   7.238   1.933
  200WAT     H2 1120   4.395   7.202   2.073
  201WAT      O 1121   4.643   7.132   2.122
  201WAT     H1 1122   4.608   7.064   2.064
  201WAT     H2 1123   4.663   7.086   2.203
  202WAT      O 1124   3.977   7.785   2.762
  202WAT     H1 1125   3.911   7.758   2.697
  202WAT     H2 1126   4.061   7.774   2.717
  203WAT      O 1127   5.272   7.264   2.184
  203WAT     H1 1128   5.314   7.245   2.100
  203WAT     H2 1129   5.241   7.179   2.215
  204WAT      O 1130   5.622   7.755   2.554
  204WAT     H1 1131   5.584   7.679   2.510
  204WAT     H2 1132   5.549   7.793   2.602
  205WAT      O 1133   4.081   7.823   3.216
  205WAT     H1 1134   4.117   7.814   3.304
  205WAT     H2 1135   4.024   7.747   3.206
  206WAT      O 1136   5.561   7.670   3.517
  206WAT     H1 1137   5.537   7.647   3.427
  206WAT     H2 1138   5.587   7.762   3.512
  207WAT      O 1139   4.036   7.514   3.606
  207WAT     H1 1140   3.946   7.511   3.640
  207WAT     H2 1141   4.090   7.534   3.683
  208WAT      O 1142   5.405   7.193   3.795
  208WAT     H1 1143   5.492   7.193   3.833
  208WAT     H2 1144   5.406   7.119   3.734
  209WAT      O 1145   3.898   7.506   2.356
  209WAT     H1 1146   3.808   7.532   2.338
  209WAT     H2 1147   3.947   7.533   2.278
  210WAT      O 1148   5.549   7.578   2.884
  210WAT     H1 1149   5.602   7.528   2.821
  210WAT     H2 1150   5.608   7.591   2.958
  211WAT      O 1151   5.567   7.586   3.236
  211WAT     H1 1152   5.472   7.583   3.247
  211WAT     H2 1153   5.585   7.677   3.212
  212WAT      O 1154   4.152   7.411   2.147
  212WAT     H1 1155   4.223   7.369   2.098
  212WAT     H2 1156   4.081   7.418   2.084
  213WAT      O 1157   4.117   7.017   2.051
  213WAT     H1 1158   4.190   7.071   2.083
  213WAT     H2 1159   4.144   6.989   1.963
  214WAT      O 1160   5.498   7.504   2.478
  214WAT     H1 1161   5.548   7.480   2.556
  214WAT     H2 1162   5.478   7.420   2.436
  215WAT      O 1163   4.086   6.942   3.041
  215WAT     H1 1164   4.151   6.887   2.997
  215WAT     H2 1165   4.128   6.967   3.123
  216WAT      O 1166   5.476   6.961   3.377
  216WAT     H1 1167   5.539   7.022   3.413
  216WAT     H2 1168   5.490   6.965   3.282
  217WAT      O 1169   4.061   6.957   3.315
  217WAT     H1 1170   4.027   7.003   3.392
  217WAT     H2 1171   4.028   6.868   3.324
  218WAT      O 1172   4.813   7.076   3.668
  218WAT     H1 1173   4.807   7.136   3.742
  218WAT     H2 1174   4.907   7.066   3.653
  219WAT      O 1175   5.076   7.042   3.631
  219WAT     H1 1176   5.138   7.074   3.565
  219WAT     H2 1177   5.131   6.994   3.693
  220WAT      O 1178   4.129   6.910   3.643
  220WAT     H1 1179   4.183   6.892   3.566
  220WAT     H2 1180   4.135   6.831   3.696
  221WAT      O 1181   5.151   6.898   3.264
  221WAT     H1 1182   5.063   6.932   3.244
  221WAT     H2 1183   5.140   6.851   3.347
  222WAT      O 1184   5.241   7.119   3.403
  222WAT     H1 1185   5.208   7.038   3.365
  222WAT     H2 1186   5.336   7.115   3.390
  223WAT      O 1187   4.925   6.990   3.158
  223WAT     H1 1188   4.847   7.038   3.186
  223WAT     H2 1189   4.896   6.900   3.147
  224WAT      O 1190   5.380   7.060   2.963
  224WAT     H1 1191   5.425   7.055   2.878
  224WAT     H2 1192   5.354   7.152   2.970
  225WAT      O 1193   5.567   7.023   2.764
  225WAT     H1 1194   5.561   6.929   2.749
  225WAT     H2 1195   5.645   7.034   2.818
  226WAT      O 1196   4.060   7.021   2.410
  226WAT     H1 1197   4.135   7.032   2.353
  226WAT     H2 1198   4.013   7.104   2.406
  227WAT      O 1199   4.714   7.232   2.709
  227WAT     H1 1200   4.633   7.195   2.675
  227WAT     H2 1201   4.764   7.156   2.739
  228WAT      O 1202   5.164   6.898   2.833
  228WAT     H1 1203   5.224   6.956   2.881
  228WAT     H2 1204   5.090   6.955   2.811
  229WAT      O 1205   5.478   6.939   2.360
  229WAT     H1 1206   5.498   7.028   2.387
  229WAT     H2 1207   5.400   6.915   2.410
  230WAT      O 1208   4.297   7.073   2.264
  230WAT     H1 1209   4.350   6.995   2.251
  230WAT     H2 1210   4.360   7.141   2.288
  231WAT      O 1211   4.516   7.047   2.570
  231WAT     H1 1212   4.453   6.977   2.586
  231WAT     H2 1213   4.462   7.123   2.548
  232WAT      O 1214   4.529   6.975   3.813
  232WAT     H1 1215   4.501   7.025   3.737
  232WAT     H2 1216   4.567   6.895   3.777
  233WAT      O 1217   5.189   6.916   3.871
  233WAT     H1 1218   5.178   6.948   3.961
  233WAT     H2 1219   5.271   6.956   3.841
  234WAT      O 1220   5.080   7.718   0.907
  234WAT     H1 1221   5.072   7.627   0.880
  234WAT     H2 1222   5.038   7.768   0.837
  235WAT      O 1223   4.893   7.896   1.095
  235WAT     H1 1224   4.815   7.848   1.124
  235WAT     H2 1225   4.958   7.828   1.078
  236WAT      O 1226   4.135   7.423   0.562
  236WAT     H1 1227   4.047   7.457   0.551
  236WAT     H2 1228   4.164   7.403   0.472
  237WAT      O 1229   3.932   7.683   1.150
  237WAT     H1 1230   3.989   7.607   1.150
  237WAT     H2 1231   3.932   7.713   1.059
  238WAT      O 1232   4.056   7.224   1.329
  238WAT     H1 1233   4.038   7.134   1.357
  238WAT     H2 1234   4.016   7.279   1.396
  239WAT      O 1235   4.940   7.444   1.119
  239WAT     H1 1236   4.978   7.357   1.108
  239WAT     H2 1237   4.930   7.478   1.030
  240WAT      O 1238   4.353   7.282   0.665
  240WAT     H1 1239   4.364   7.372   0.696
  240WAT     H2 1240   4.262   7.277   0.636
  241WAT      O 1241   5.318   7.194   0.812
  241WAT     H1 1242   5.400   7.145   0.816
  241WAT     H2 1243   5.322   7.253   0.887
  242WAT      O 1244   4.118   7.474   1.190
  242WAT     H1 1245   4.186   7.500   1.251
  242WAT     H2 1246   4.086   7.390   1.223
  243WAT      O 1247   4.537   7.578   1.098
  243WAT     H1 1248   4.588   7.628   1.162
  243WAT     H2 1249   4.590   7.501   1.081
  244WAT      O 1250   4.365   7.042   1.525
  244WAT     H1 1251   4.366   7.094   1.444
  244WAT     H2 1252   4.282   6.995   1.523
  245WAT      O 1253   5.342   7.388   1.089
  245WAT     H1 1254   5.271   7.417   1.147
  245WAT     H2 1255   5.378   7.469   1.053
  246WAT      O 1256   4.334   7.214   1.326
  246WAT     H1 1257   4.368   7.298   1.296
  246WAT     H2 1258   4.240   7.228   1.337
  247WAT      O 1259   5.649   7.332   1.128
  247WAT     H1 1260   5.554   7.336   1.142
  247WAT     H2 1261   5.681   7.414   1.167
  248WAT      O 1262   4.702   6.962   0.958
  248WAT     H1 1263   4.733   6.907   0.886
  248WAT     H2 1264   4.609   6.976   0.940
  249WAT      O 1265   4.941   7.769   0.632
  249WAT     H1 1266   4.848   7.762   0.655
  249WAT     H2 1267   4.956   7.863   0.620
  250WAT      O 1268   4.939   7.396   0.331
  250WAT     H1 1269   4.845   7.412   0.340
  250WAT     H2 1270   4.971   7.468   0.277
  251WAT      O 1271   5.288   7.543   1.424
  251WAT     H1 1272   5.247   7.625   1.449
  251WAT     H2 1273   5.215   7.484   1.404
  252WAT      O 1274   4.501   7.822   0.910
  252WAT     H1 1275   4.461   7.750   0.860
  252WAT     H2 1276   4.510   7.787   0.999
  253WAT      O 1277   4.373   7.499   1.288
  253WAT     H1 1278   4.428   7.510   1.210
  253WAT     H2 1279   4.424   7.536   1.359
  254WAT      O 1280   5.161   7.849   0.383
  254WAT     H1 1281   5.205   7.765   0.368
  254WAT     H2 1282   5.233   7.912   0.391
  255WAT      O 1283   5.519   6.974   0.214
  255WAT     H1 1284   5.488   6.984   0.304
  255WAT     H2 1285   5.596   7.032   0.209
  256WAT      O 1286   4.171   7.711   0.660
  256WAT     H1 1287   4.159   7.784   0.599
  256WAT     H2 1288   4.140   7.634   0.612
  257WAT      O 1289   5.640   7.448   1.812
  257WAT     H1 1290   5.579   7.499   1.759
  257WAT     H2 1291   5.608   7.358   1.806
  258WAT      O 1292   4.418   7.045   0.998
  258WAT     H1 1293   4.374   7.123   0.965
  258WAT     H2 1294   4.474   7.078   1.069
  259WAT      O 1295   4.847   7.332   1.558
  259WAT     H1 1296   4.800   7.353   1.640
  259WAT     H2 1297   4.806   7.251   1.528
  260WAT      O 1298   5.347   7.454   1.671
  260WAT     H1 1299   5.262   7.424   1.704
  260WAT     H2 1300   5.331   7.478   1.580
  261WAT      O 1301   5.056   7.604   1.881
  261WAT     H1 1302   5.089   7.521   1.847
  261WAT     H2 1303   5.135   7.656   1.896
  262WAT      O 1304   4.729   7.007   0.486
  262WAT     H1 1305   4.667   7.007   0.559
  262WAT     H2 1306   4.721   6.921   0.447
  263WAT      O 1307   4.622   7.100   1.184
  263WAT     H1 1308   4.651   7.190   1.176
  263WAT     H2 1309   4.677   7.051   1.123
  264WAT      O 1310   4.397   7.558   0.771
  264WAT     H1 1311   4.374   7.536   0.861
  264WAT     H2 1312   4.319   7.601   0.736
  265WAT      O 1313   5.120   7.558   0.631
  265WAT     H1 1314   5.060   7.631   0.612
  265WAT     H2 1315   5.175   7.552   0.553
  266WAT      O 1316   4.641   7.647   1.838
  266WAT     H1 1317   4.631   7.553   1.823
  266WAT     H2 1318   4.725   7.670   1.798
  267WAT      O 1319   4.981   7.422   0.834
  267WAT     H1 1320   5.020   7.454   0.753
  267WAT     H2 1321   5.017   7.334   0.845
  268WAT      O 1322   4.154   7.289   1.653
  268WAT     H1 1323   4.115   7.373   1.674
  268WAT     H2 1324   4.085   7.225   1.672
  269WAT      O 1325   4.812   7.297   1.960
  269WAT     H1 1326   4.743   7.278   2.023
  269WAT     H2 1327   4.886   7.325   2.013
  270WAT      O 1328   3.884   7.081   1.056
  270WAT     H1 1329   3.855   7.138   1.127
  270WAT     H2 1330   3.959   7.033   1.093
  271WAT      O 1331   5.039   7.681   1.243
  271WAT     H1 1332   4.966   7.732   1.278
  271WAT     H2 1333   4.999   7.599   1.213
  272WAT      O 1334   4.683   7.349   1.084
  272WAT     H1 1335   4.683   7.304   0.999
  272WAT     H2 1336   4.773   7.381   1.095
  273WAT      O 1337   4.268   7.337   0.980
  273WAT     H1 1338   4.234   7.385   1.056
  273WAT     H2 1339   4.192   7.291   0.944
  274WAT      O 1340   4.689   7.449   0.383
  274WAT     H1 1341   4.701   7.444   0.478
  274WAT     H2 1342   4.651   7.535   0.367
  275WAT      O 1343   5.085   7.226   1.185
  275WAT     H1 1344   5.087   7.271   1.269
  275WAT     H2 1345   5.061   7.136   1.206
  276WAT      O 1346   4.590   7.680   0.323
  276WAT     H1 1347   4.534   7.635   0.260
  276WAT     H2 1348   4.661   7.716   0.269
  277WAT      O 1349   5.428   6.968   1.768
  277WAT     H1 1350   5.461   6.895   1.821
  277WAT     H2 1351   5.432   6.936   1.678
  278WAT      O 1352   4.713   7.755   1.259
  278WAT     H1 1353   4.750   7.707   1.333
  278WAT     H2 1354   4.694   7.842   1.293
  279WAT      O 1355   3.999   7.229   0.872
  279WAT     H1 1356   3.971   7.193   0.955
  279WAT     H2 1357   3.993   7.156   0.810
  280WAT      O 1358   4.492   7.659   1.490
  280WAT     H1 1359   4.462   7.747   1.513
  280WAT     H2 1360   4.588   7.665   1.494
  281WAT      O 1361   4.967   7.118   0.544
  281WAT     H1 1362   4.886   7.068   0.536
  281WAT     H2 1363   4.947   7.202   0.502
  282WAT      O 1364   5.238   7.555   0.373
  282WAT     H1 1365   5.327   7.587   0.356
  282WAT     H2 1366   5.235   7.468   0.334
  283WAT      O 1367   4.098   7.743   1.605
  283WAT     H1 1368   4.062   7.809   1.664
  283WAT     H2 1369   4.068   7.659   1.642
  284WAT      O 1370   4.418   7.788   1.894
  284WAT     H1 1371   4.388   7.803   1.804
  284WAT     H2 1372   4.495   7.733   1.884
  285WAT      O 1373   5.466   7.687   0.320
  285WAT     H1 1374   5.457   7.730   0.235
  285WAT     H2 1375   5.537   7.733   0.363
  286WAT      O 1376   3.949   7.743   0.267
  286WAT     H1 1377   4.036   7.771   0.296
  286WAT     H2 1378   3.900   7.824   0.256
  287WAT      O 1379   4.255   6.916   0.727
  287WAT     H1 1380   4.242   6.915   0.822
  287WAT     H2 1381   4.173   6.949   0.692
  288WAT      O 1382   3.955   7.092   1.673
  288WAT     H1 1383   3.884   7.112   1.733
  288WAT     H2 1384   3.997   7.014   1.710
  289WAT      O 1385   5.105   7.341   1.448
  289WAT     H1 1386   5.141   7.259   1.481
  289WAT     H2 1387   5.019   7.347   1.489
  290WAT      O 1388   5.441   7.236   0.529
  290WAT     H1 1389   5.378   7.247   0.457
  290WAT     H2 1390   5.392   7.258   0.608
  291WAT      O 1391   4.638   7.464   0.670
  291WAT     H1 1392   4.567   7.511   0.714
  291WAT     H2 1393   4.666   7.398   0.734
  292WAT      O 1394   4.801   7.606   1.470
  292WAT     H1 1395   4.850   7.654   1.537
  292WAT     H2 1396   4.815   7.514   1.491
  293WAT      O 1397   5.041   7.137   0.814
  293WAT     H1 1398   5.029   7.139   0.719
  293WAT     H2 1399   5.136   7.142   0.826
  294WAT      O 1400   4.458   7.295   0.408
  294WAT     H1 1401   4.543   7.339   0.401
  294WAT     H2 1402   4.422   7.326   0.491
  295WAT      O 1403   5.521   7.228   1.555
  295WAT     H1 1404   5.471   7.302   1.588
  295WAT     H2 1405   5.603   7.267   1.523
  296WAT      O 1406   5.350   7.752   0.899
  296WAT     H1 1407   5.256   7.754   0.917
  296WAT     H2 1408   5.382   7.674   0.944
  297WAT      O 1409   4.218   7.664   0.324
  297WAT     H1 1410   4.226   7.569   0.335
  297WAT     H2 1411   4.307   7.697   0.334
  298WAT      O 1412   3.970   7.846   1.847
  298WAT     H1 1413   4.021   7.788   1.904
  298WAT     H2 1414   3.897   7.874   1.901
  299WAT      O 1415   4.174   7.660   1.937
  299WAT     H1 1416   4.178   7.630   2.027
  299WAT     H2 1417   4.259   7.700   1.921
  300WAT      O 1418   4.368   7.518   1.733
  300WAT     H1 1419   4.315   7.469   1.671
  300WAT     H2 1420   4.435   7.561   1.680
  301WAT      O 1421   5.305   7.699   1.910
  301WAT     H1 1422   5.363   7.623   1.901
  301WAT     H2 1423   5.322   7.752   1.832
  302WAT      O 1424   4.417   7.215   1.741
  302WAT     H1 1425   4.407   7.153   1.669
  302WAT     H2 1426   4.358   7.287   1.719
  303WAT      O 1427   4.693   7.070   1.445
  303WAT     H1 1428   4.648   7.073   1.360
  303WAT     H2 1429   4.630   7.031   1.504
  304WAT      O 1430   4.967   7.733   1.645
  304WAT     H1 1431   4.979   7.673   1.719
  304WAT     H2 1432   5.053   7.737   1.603
  305WAT      O 1433   5.201   7.788   1.503
  305WAT     H1 1434   5.149   7.841   1.442
  305WAT     H2 1435   5.236   7.852   1.566
  306WAT      O 1436   4.644   7.387   1.771
  306WAT     H1 1437   4.703   7.356   1.840
  306WAT     H2 1438   4.562   7.340   1.786
  307WAT      O 1439   5.126   7.349   1.794
  307WAT     H1 1440   5.057   7.283   1.788
  307WAT     H2 1441   5.198   7.304   1.839
  308WAT      O 1442   5.189   7.008   0.400
  308WAT     H1 1443   5.217   6.924   0.436
  308WAT     H2 1444   5.112   7.032   0.451
  309WAT      O 1445   4.643   7.132   0.245
  309WAT     H1 1446   4.608   7.064   0.187
  309WAT     H2 1447   4.663   7.086   0.326
  310WAT      O 1448   3.977   7.785   0.884
  310WAT     H1 1449   3.911   7.758   0.820
  310WAT     H2 1450   4.061   7.774   0.839
  311WAT      O 1451   5.272   7.264   0.306
  311WAT     H1 1452   5.314   7.245   0.222
  311WAT     H2 1453   5.241   7.179   0.337
  312WAT      O 1454   5.622   7.755   0.676
  312WAT     H1 1455   5.584   7.679   0.633
  312WAT     H2 1456   5.549   7.793   0.725
  313WAT      O 1457   4.081   7.823   1.338
  313WAT     H1 1458   4.117   7.814   1.426
  313WAT     H2 1459   4.024   7.747   1.328
  314WAT      O 1460   5.561   7.670   1.640
  314WAT     H1 1461   5.537   7.647   1.549
  314WAT     H2 1462   5.587   7.762   1.635
  315WAT      O 1463   4.036   7.514   1.729
  315WAT     H1 1464   3.946   7.511   1.763
  315WAT     H2 1465   4.090   7.534   1.805
  316WAT      O 1466   5.405   7.193   1.917
  316WAT     H1 1467   5.492   7.193   1.956
  316WAT     H2 1468   5.406   7.119   1.856
  317WAT      O 1469   3.898   7.506   0.478
  317WAT     H1 1470   3.808   7.532   0.461
  317WAT     H2 1471   3.947   7.533   0.400
  318WAT      O 1472   5.549   7.578   1.006
  318WAT     H1 1473   5.602   7.528   0.943
  318WAT     H2 1474   5.608   7.591   1.081
  319WAT      O 1475   5.567   7.586   1.358
  319WAT     H1 1476   5.472   7.583   1.370
  319WAT     H2 1477   5.585   7.677   1.335
  320WAT      O 1478   4.152   7.411   0.269
  320WAT     H1 1479   4.223   7.369   0.221
  320WAT     H2 1480   4.081   7.418   0.206
  321WAT      O 1481   5.498   7.504   0.600
  321WAT     H1 1482   5.548   7.480   0.679
  321WAT     H2 1483   5.478   7.420   0.558
  322WAT      O 1484   4.086   6.942   1.164
  322WAT     H1 1485   4.151   6.887   1.120
  322WAT     H2 1486   4.128   6.967   1.246
  323WAT      O 1487   5.476   6.961   1.499
  323WAT     H1 1488   5.539   7.022   1.536
  323WAT     H2 1489   5.490   6.965   1.405
  324WAT      O 1490   4.061   6.957   1.438
  324WAT     H1 1491   4.027   7.003   1.514
  324WAT     H2 1492   4.028   6.868   1.446
  325WAT      O 1493   4.813   7.076   1.790
  325WAT     H1 1494   4.807   7.136   1.865
  325WAT     H2 1495   4.907   7.066   1.776
  326WAT      O 1496   5.076   7.042   1.754
  326WAT     H1 1497   5.138   7.074   1.688
  326WAT     H2 1498   5.131   6.994   1.816
  327WAT      O 1499   4.129   6.910   1.765
  327WAT     H1 1500   4.183   6.892   1.689
  327WAT     H2 1501   4.135   6.831   1.819
  328WAT      O 1502   5.151   6.898   1.387
  328WAT     H1 1503   5.063   6.932   1.366
  328WAT     H2 1504   5.140   6.851   1.469
  329WAT      O 1505   5.241   7.119   1.525
  329WAT     H1 1506   5.208   7.038   1.487
  329WAT     H2 1507   5.336   7.115   1.513
  330WAT      O 1508   4.925   6.990   1.281
  330WAT     H1 1509   4.847   7.038   1.309
  330WAT     H2 1510   4.896   6.900   1.270
  331WAT      O 1511   5.380   7.060   1.085
  331WAT     H1 1512   5.425   7.055   1.000
  331WAT     H2 1513   5.354   7.152   1.092
  332WAT      O 1514   5.567   7.023   0.886
  332WAT     H1 1515   5.561   6.929   0.872
  332WAT     H2 1516   5.645   7.034   0.941
  333WAT      O 1517   4.060   7.021   0.533
  333WAT     H1 1518   4.135   7.032   0.475
  333WAT     H2 1519   4.013   7.104   0.528
  334WAT      O 1520   4.714   7.232   0.832
  334WAT     H1 1521   4.633   7.195   0.798
  334WAT     H2 1522   4.764   7.156   0.862
  335WAT      O 1523   5.164   6.898   0.956
  335WAT     H1 1524   5.224   6.956   1.003
  335WAT     H2 1525   5.090   6.955   0.933
  336WAT      O 1526   5.478   6.939   0.483
  336WAT     H1 1527   5.498   7.028   0.510
  336WAT     H2 1528   5.400   6.915   0.532
  337WAT      O 1529   4.297   7.073   0.387
  337WAT     H1 1530   4.350   6.995   0.374
  337WAT     H2 1531   4.360   7.141   0.410
  338WAT      O 1532   4.516   7.047   0.692
  338WAT     H1 1533   4.453   6.977   0.709
  338WAT     H2 1534   4.462   7.123   0.671
  339WAT      O 1535   4.529   6.975   1.936
  339WAT     H1 1536   4.501   7.025   1.859
  339WAT     H2 1537   4.567   6.895   1.899
  340WAT      O 1538   5.189   6.916   1.994
  340WAT     H1 1539   5.178   6.948   2.083
  340WAT     H2 1540   5.271   6.956   1.964
  341WAT      O 1541   5.080   5.841   4.662
  341WAT     H1 1542   5.072   5.749   4.635
  341WAT     H2 1543   5.038   5.891   4.592
  342WAT      O 1544   4.893   6.019   4.850
  342WAT     H1 1545   4.815   5.971   4.879
  342WAT     H2 1546   4.958   5.951   4.833
  343WAT      O 1547   4.294   6.050   4.938
  343WAT     H1 1548   4.211   6.024   4.978
  343WAT     H2 1549   4.355   6.057   5.012
  344WAT      O 1550   5.295   6.459   4.728
  344WAT     H1 1551   5.249   6.382   4.761
  344WAT     H2 1552   5.376   6.462   4.779
  345WAT      O 1553   4.292   6.453   4.958
  345WAT     H1 1554   4.323   6.364   4.940
  345WAT     H2 1555   4.367   6.509   4.935
  346WAT      O 1556   4.135   5.546   4.316
  346WAT     H1 1557   4.047   5.580   4.306
  346WAT     H2 1558   4.164   5.526   4.227
  347WAT      O 1559   3.932   5.806   4.905
  347WAT     H1 1560   3.989   5.729   4.905
  347WAT     H2 1561   3.932   5.836   4.814
  348WAT      O 1562   4.917   6.688   4.690
  348WAT     H1 1563   4.856   6.733   4.633
  348WAT     H2 1564   5.003   6.703   4.650
  349WAT      O 1565   4.837   6.286   4.851
  349WAT     H1 1566   4.830   6.192   4.835
  349WAT     H2 1567   4.913   6.295   4.908
  350WAT      O 1568   4.056   5.347   5.084
  350WAT     H1 1569   4.038   5.257   5.112
  350WAT     H2 1570   4.016   5.401   5.151
  351WAT      O 1571   4.940   5.567   4.874
  351WAT     H1 1572   4.978   5.480   4.862
  351WAT     H2 1573   4.930   5.600   4.785
  352WAT      O 1574   4.353   5.404   4.420
  352WAT     H1 1575   4.364   5.494   4.451
  352WAT     H2 1576   4.262   5.399   4.391
  353WAT      O 1577   5.318   5.316   4.567
  353WAT     H1 1578   5.400   5.267   4.571
  353WAT     H2 1579   5.322   5.375   4.642
  354WAT      O 1580   4.118   5.596   4.944
  354WAT     H1 1581   4.186   5.623   5.006
  354WAT     H2 1582   4.086   5.512   4.978
  355WAT      O 1583   4.537   5.701   4.853
  355WAT     H1 1584   4.588   5.751   4.917
  355WAT     H2 1585   4.590   5.623   4.836
  356WAT      O 1586   4.365   5.165   5.280
  356WAT     H1 1587   4.366   5.217   5.199
  356WAT     H2 1588   4.282   5.117   5.277
  357WAT      O 1589   5.004   6.176   4.430
  357WAT     H1 1590   4.942   6.223   4.373
  357WAT     H2 1591   5.055   6.245   4.471
  358WAT      O 1592   4.490   6.129   5.097
  358WAT     H1 1593   4.457   6.192   5.162
  358WAT     H2 1594   4.508   6.182   5.020
  359WAT      O 1595   5.342   5.510   4.844
  359WAT     H1 1596   5.271   5.539   4.902
  359WAT     H2 1597   5.378   5.591   4.808
  360WAT      O 1598   4.334   5.336   5.080
  360WAT     H1 1599   4.368   5.421   5.051
  360WAT     H2 1600   4.240   5.351   5.092
  361WAT      O 1601   4.412   6.326   5.279
  361WAT     H1 1602   4.473   6.393   5.251
  361WAT     H2 1603   4.326   6.367   5.270
  362WAT      O 1604   3.941   6.245   4.167
  362WAT     H1 1605   3.903   6.294   4.094
  362WAT     H2 1606   3.967   6.312   4.230
  363WAT      O 1607   5.503   6.472   5.071
  363WAT     H1 1608   5.435   6.539   5.070
  363WAT     H2 1609   5.557   6.492   4.994
  364WAT      O 1610   5.649   5.455   4.883
  364WAT     H1 1611   5.554   5.458   4.897
  364WAT     H2 1612   5.681   5.536   4.922
  365WAT      O 1613   4.702   5.085   4.713
  365WAT     H1 1614   4.733   5.029   4.641
  365WAT     H2 1615   4.609   5.098   4.695
  366WAT      O 1616   5.257   6.657   4.942
  366WAT     H1 1617   5.258   6.616   4.855
  366WAT     H2 1618   5.202   6.734   4.932
  367WAT      O 1619   5.386   6.329   4.451
  367WAT     H1 1620   5.375   6.235   4.463
  367WAT     H2 1621   5.386   6.365   4.540
  368WAT      O 1622   5.197   6.147   5.075
  368WAT     H1 1623   5.239   6.126   4.991
  368WAT     H2 1624   5.269   6.173   5.132
  369WAT      O 1625   4.941   5.891   4.387
  369WAT     H1 1626   4.848   5.885   4.409
  369WAT     H2 1627   4.956   5.985   4.375
  370WAT      O 1628   4.939   5.519   4.086
  370WAT     H1 1629   4.845   5.535   4.095
  370WAT     H2 1630   4.971   5.590   4.032
  371WAT      O 1631   5.591   5.987   5.084
  371WAT     H1 1632   5.509   5.994   5.036
  371WAT     H2 1633   5.651   6.045   5.037
  372WAT      O 1634   5.344   6.048   4.437
  372WAT     H1 1635   5.282   6.014   4.372
  372WAT     H2 1636   5.342   5.983   4.508
  373WAT      O 1637   5.288   5.665   5.179
  373WAT     H1 1638   5.247   5.748   5.204
  373WAT     H2 1639   5.215   5.607   5.159
  374WAT      O 1640   4.501   5.944   4.665
  374WAT     H1 1641   4.461   5.873   4.615
  374WAT     H2 1642   4.510   5.910   4.754
  375WAT      O 1643   4.548   6.313   4.881
  375WAT     H1 1644   4.518   6.252   4.813
  375WAT     H2 1645   4.643   6.317   4.870
  376WAT      O 1646   4.373   5.621   5.043
  376WAT     H1 1647   4.428   5.632   4.965
  376WAT     H2 1648   4.424   5.659   5.114
  377WAT      O 1649   5.357   6.670   5.247
  377WAT     H1 1650   5.309   6.751   5.228
  377WAT     H2 1651   5.289   6.605   5.263
  378WAT      O 1652   4.457   6.287   5.546
  378WAT     H1 1653   4.368   6.309   5.571
  378WAT     H2 1654   4.460   6.299   5.451
  379WAT      O 1655   5.161   5.971   4.138
  379WAT     H1 1656   5.205   5.888   4.123
  379WAT     H2 1657   5.233   6.035   4.146
  380WAT      O 1658   4.340   5.974   5.404
  380WAT     H1 1659   4.326   6.061   5.441
  380WAT     H2 1660   4.252   5.939   5.389
  381WAT      O 1661   4.972   6.465   4.534
  381WAT     H1 1662   5.016   6.540   4.493
  381WAT     H2 1663   4.966   6.490   4.627
  382WAT      O 1664   4.520   6.568   5.625
  382WAT     H1 1665   4.517   6.608   5.538
  382WAT     H2 1666   4.503   6.475   5.608
  383WAT      O 1667   5.519   5.097   3.969
  383WAT     H1 1668   5.488   5.106   4.059
  383WAT     H2 1669   5.596   5.155   3.964
  384WAT      O 1670   4.171   5.834   4.415
  384WAT     H1 1671   4.159   5.906   4.354
  384WAT     H2 1672   4.140   5.757   4.367
  385WAT      O 1673   3.935   6.151   4.995
  385WAT     H1 1674   3.943   6.164   4.901
  385WAT     H2 1675   3.997   6.080   5.015
  386WAT      O 1676   4.060   6.321   4.637
  386WAT     H1 1677   4.019   6.335   4.551
  386WAT     H2 1678   4.149   6.292   4.616
  387WAT      O 1679   5.655   6.365   5.470
  387WAT     H1 1680   5.668   6.341   5.378
  387WAT     H2 1681   5.659   6.282   5.517
  388WAT      O 1682   5.041   6.736   5.327
  388WAT     H1 1683   5.093   6.727   5.407
  388WAT     H2 1684   4.957   6.770   5.356
  389WAT      O 1685   5.239   6.764   4.270
  389WAT     H1 1686   5.223   6.735   4.360
  389WAT     H2 1687   5.222   6.687   4.216
  390WAT      O 1688   4.487   6.742   4.448
  390WAT     H1 1689   4.469   6.650   4.426
  390WAT     H2 1690   4.401   6.778   4.472
  391WAT      O 1691   5.209   6.515   4.126
  391WAT     H1 1692   5.140   6.515   4.060
  391WAT     H2 1693   5.283   6.473   4.083
  392WAT      O 1694   5.166   6.678   4.533
  392WAT     H1 1695   5.211   6.600   4.565
  392WAT     H2 1696   5.200   6.749   4.588
  393WAT      O 1697   5.640   5.571   5.567
  393WAT     H1 1698   5.579   5.621   5.514
  393WAT     H2 1699   5.608   5.481   5.561
  394WAT      O 1700   3.941   6.255   5.249
  394WAT     H1 1701   3.957   6.208   5.168
  394WAT     H2 1702   3.987   6.204   5.316
  395WAT      O 1703   4.418   5.168   4.753
  395WAT     H1 1704   4.374   5.246   4.720
  395WAT     H2 1705   4.474   5.200   4.824
  396WAT      O 1706   4.847   5.455   5.313
  396WAT     H1 1707   4.800   5.475   5.395
  396WAT     H2 1708   4.806   5.373   5.283
  397WAT      O 1709   5.347   5.577   5.426
  397WAT     H1 1710   5.262   5.547   5.458
  397WAT     H2 1711   5.331   5.601   5.335
  398WAT      O 1712   5.056   5.727   5.636
  398WAT     H1 1713   5.089   5.643   5.602
  398WAT     H2 1714   5.135   5.779   5.651
  399WAT      O 1715   4.729   5.130   4.241
  399WAT     H1 1716   4.667   5.130   4.314
  399WAT     H2 1717   4.721   5.043   4.201
  400WAT      O 1718   4.622   5.222   4.939
  400WAT     H1 1719   4.651   5.313   4.931
  400WAT     H2 1720   4.677   5.174   4.878
  401WAT      O 1721   4.397   5.680   4.526
  401WAT     H1 1722   4.374   5.659   4.616
  401WAT     H2 1723   4.319   5.723   4.491
  402WAT      O 1724   5.120   5.681   4.386
  402WAT     H1 1725   5.060   5.753   4.367
  402WAT     H2 1726   5.175   5.675   4.307
  403WAT      O 1727   4.641   5.770   5.592
  403WAT     H1 1728   4.631   5.676   5.577
  403WAT     H2 1729   4.725   5.792   5.553
  404WAT      O 1730   4.981   5.544   4.589
  404WAT     H1 1731   5.020   5.576   4.507
  404WAT     H2 1732   5.017   5.457   4.600
  405WAT      O 1733   4.154   5.411   5.408
  405WAT     H1 1734   4.115   5.496   5.428
  405WAT     H2 1735   4.085   5.347   5.427
  406WAT      O 1736   3.884   5.203   4.811
  406WAT     H1 1737   3.855   5.261   4.882
  406WAT     H2 1738   3.959   5.156   4.847
  407WAT      O 1739   3.903   5.598   3.932
  407WAT     H1 1740   3.895   5.692   3.946
  407WAT     H2 1741   3.868   5.583   3.844
  408WAT      O 1742   5.039   5.804   4.998
  408WAT     H1 1743   4.966   5.854   5.033
  408WAT     H2 1744   4.999   5.722   4.968
  409WAT      O 1745   4.683   5.471   4.839
  409WAT     H1 1746   4.683   5.427   4.754
  409WAT     H2 1747   4.773   5.503   4.850
  410WAT      O 1748   4.268   5.459   4.735
  410WAT     H1 1749   4.234   5.507   4.810
  410WAT     H2 1750   4.192   5.414   4.699
  411WAT      O 1751   4.689   5.571   4.138
  411WAT     H1 1752   4.701   5.567   4.233
  411WAT     H2 1753   4.651   5.657   4.122
  412WAT      O 1754   5.085   5.349   4.940
  412WAT     H1 1755   5.087   5.394   5.024
  412WAT     H2 1756   5.061   5.259   4.961
  413WAT      O 1757   4.590   5.802   4.078
  413WAT     H1 1758   4.534   5.757   4.015
  413WAT     H2 1759   4.661   5.838   4.024
  414WAT      O 1760   5.428   5.090   5.523
  414WAT     H1 1761   5.461   5.017   5.576
  414WAT     H2 1762   5.432   5.058   5.433
  415WAT      O 1763   4.098   6.192   5.465
  415WAT     H1 1764   4.060   6.128   5.525
  415WAT     H2 1765   4.129   6.263   5.522
  416WAT      O 1766   4.713   5.877   5.013
  416WAT     H1 1767   4.750   5.830   5.088
  416WAT     H2 1768   4.694   5.965   5.048
  417WAT      O 1769   3.999   5.352   4.626
  417WAT     H1 1770   3.971   5.315   4.710
  417WAT     H2 1771   3.993   5.278   4.565
  418WAT      O 1772   4.492   5.781   5.245
  418WAT     H1 1773   4.462   5.869   5.268
  418WAT     H2 1774   4.588   5.787   5.249
  419WAT      O 1775   4.345   6.202   4.305
  419WAT     H1 1776   4.268   6.148   4.289
  419WAT     H2 1777   4.418   6.150   4.271
  420WAT      O 1778   5.421   6.101   4.884
  420WAT     H1 1779   5.493   6.151   4.845
  420WAT     H2 1780   5.401   6.034   4.820
  421WAT      O 1781   4.967   5.241   4.299
  421WAT     H1 1782   4.886   5.191   4.291
  421WAT     H2 1783   4.947   5.325   4.257
  422WAT      O 1784   4.959   6.109   5.473
  422WAT     H1 1785   4.952   6.016   5.447
  422WAT     H2 1786   4.896   6.118   5.544
  423WAT      O 1787   5.238   5.678   4.128
  423WAT     H1 1788   5.327   5.709   4.111
  423WAT     H2 1789   5.235   5.591   4.089
  424WAT      O 1790   4.349   6.169   4.669
  424WAT     H1 1791   4.401   6.088   4.663
  424WAT     H2 1792   4.304   6.162   4.753
  425WAT      O 1793   4.838   6.295   4.196
  425WAT     H1 1794   4.872   6.370   4.146
  425WAT     H2 1795   4.755   6.327   4.232
  426WAT      O 1796   4.098   5.865   5.360
  426WAT     H1 1797   4.062   5.932   5.419
  426WAT     H2 1798   4.068   5.782   5.397
  427WAT      O 1799   4.418   5.911   5.648
  427WAT     H1 1800   4.388   5.926   5.559
  427WAT     H2 1801   4.495   5.855   5.639
  428WAT      O 1802   4.952   6.391   5.448
  428WAT     H1 1803   4.954   6.298   5.426
  428WAT     H2 1804   4.881   6.399   5.512
  429WAT      O 1805   5.466   5.809   4.075
  429WAT     H1 1806   5.457   5.852   3.990
  429WAT     H2 1807   5.537   5.855   4.118
  430WAT      O 1808   5.573   6.055   5.383
  430WAT     H1 1809   5.501   6.114   5.363
  430WAT     H2 1810   5.626   6.054   5.303
  431WAT      O 1811   5.568   6.495   4.348
  431WAT     H1 1812   5.504   6.429   4.375
  431WAT     H2 1813   5.530   6.535   4.270
  432WAT      O 1814   5.126   6.227   4.732
  432WAT     H1 1815   5.161   6.168   4.666
  432WAT     H2 1816   5.038   6.195   4.750
  433WAT      O 1817   4.735   6.303   4.473
  433WAT     H1 1818   4.804   6.358   4.511
  433WAT     H2 1819   4.656   6.358   4.477
  434WAT      O 1820   3.949   5.865   4.022
  434WAT     H1 1821   4.036   5.893   4.051
  434WAT     H2 1822   3.900   5.946   4.011
  435WAT      O 1823   4.665   6.004   4.434
  435WAT     H1 1824   4.711   6.085   4.457
  435WAT     H2 1825   4.630   5.972   4.518
  436WAT      O 1826   4.895   6.555   5.157
  436WAT     H1 1827   4.960   6.576   5.225
  436WAT     H2 1828   4.932   6.479   5.112
  437WAT      O 1829   4.255   5.038   4.482
  437WAT     H1 1830   4.242   5.037   4.577
  437WAT     H2 1831   4.173   5.072   4.447
  438WAT      O 1832   5.023   6.355   5.029
  438WAT     H1 1833   5.087   6.285   5.040
  438WAT     H2 1834   5.075   6.433   5.011
  439WAT      O 1835   5.407   6.384   4.002
  439WAT     H1 1836   5.385   6.312   4.061
  439WAT     H2 1837   5.368   6.359   3.918
  440WAT      O 1838   5.200   6.435   5.349
  440WAT     H1 1839   5.234   6.494   5.417
  440WAT     H2 1840   5.108   6.422   5.372
  441WAT      O 1841   3.986   6.786   4.079
  441WAT     H1 1842   4.021   6.846   4.014
  441WAT     H2 1843   3.971   6.841   4.156
  442WAT      O 1844   3.955   5.214   5.428
  442WAT     H1 1845   3.884   5.234   5.488
  442WAT     H2 1846   3.997   5.137   5.465
  443WAT      O 1847   5.366   6.175   4.168
  443WAT     H1 1848   5.337   6.222   4.246
  443WAT     H2 1849   5.445   6.129   4.195
  444WAT      O 1850   3.984   6.613   5.526
  444WAT     H1 1851   3.995   6.519   5.512
  444WAT     H2 1852   3.919   6.639   5.462
  445WAT      O 1853   4.783   6.440   5.666
  445WAT     H1 1854   4.751   6.368   5.721
  445WAT     H2 1855   4.716   6.508   5.674
  446WAT      O 1856   4.587   6.525   4.161
  446WAT     H1 1857   4.586   6.598   4.099
  446WAT     H2 1858   4.495   6.500   4.170
  447WAT      O 1859   4.147   6.047   4.235
  447WAT     H1 1860   4.087   6.121   4.236
  447WAT     H2 1861   4.195   6.056   4.153
  448WAT      O 1862   5.105   5.463   5.203
  448WAT     H1 1863   5.141   5.381   5.236
  448WAT     H2 1864   5.019   5.469   5.244
  449WAT      O 1865   5.441   5.359   4.284
  449WAT     H1 1866   5.378   5.369   4.212
  449WAT     H2 1867   5.392   5.381   4.363
  450WAT      O 1868   4.886   6.531   4.027
  450WAT     H1 1869   4.896   6.511   3.934
  450WAT     H2 1870   4.796   6.506   4.047
  451WAT      O 1871   4.638   5.587   4.425
  451WAT     H1 1872   4.567   5.634   4.469
  451WAT     H2 1873   4.666   5.521   4.489
  452WAT      O 1874   4.801   5.729   5.225
  452WAT     H1 1875   4.850   5.776   5.292
  452WAT     H2 1876   4.815   5.636   5.246
  453WAT      O 1877   5.041   5.259   4.569
  453WAT     H1 1878   5.029   5.261   4.474
  453WAT     H2 1879   5.136   5.264   4.581
  454WAT      O 1880   4.750   6.783   4.496
  454WAT     H1 1881   4.775   6.779   4.404
  454WAT     H2 1882   4.655   6.770   4.496
  455WAT      O 1883   4.458   5.418   4.163
  455WAT     H1 1884   4.543   5.461   4.156
  455WAT     H2 1885   4.422   5.449   4.245
  456WAT      O 1886   5.521   5.350   5.309
  456WAT     H1 1887   5.471   5.424   5.343
  456WAT     H2 1888   5.603   5.389   5.278
  457WAT      O 1889   5.350   5.875   4.654
  457WAT     H1 1890   5.256   5.876   4.671
  457WAT     H2 1891   5.382   5.796   4.699
  458WAT      O 1892   4.348   6.043   4.010
  458WAT     H1 1893   4.425   6.032   4.066
  458WAT     H2 1894   4.356   5.973   3.945
  459WAT      O 1895   4.218   5.786   4.078
  459WAT     H1 1896   4.226   5.691   4.090
  459WAT     H2 1897   4.307   5.819   4.089
  460WAT      O 1898   5.551   6.592   4.822
  460WAT     H1 1899   5.563   6.674   4.869
  460WAT     H2 1900   5.637   6.571   4.787
  461WAT      O 1901   4.298   6.801   4.789
  461WAT     H1 1902   4.372   6.746   4.816
  461WAT     H2 1903   4.336   6.888   4.775
  462WAT      O 1904   3.986   6.408   4.376
  462WAT     H1 1905   3.894   6.432   4.375
  462WAT     H2 1906   4.033   6.491   4.364
  463WAT      O 1907   4.609   6.718   3.971
  463WAT     H1 1908   4.688   6.747   3.926
  463WAT     H2 1909   4.557   6.675   3.903
  464WAT      O 1910   5.225   6.703   5.563
  464WAT     H1 1911   5.320   6.695   5.558
  464WAT     H2 1912   5.210   6.770   5.631
  465WAT      O 1913   5.514   6.641   4.113
  465WAT     H1 1914   5.486   6.600   4.032
  465WAT     H2 1915   5.494   6.734   4.101
  466WAT      O 1916   3.970   5.968   5.602
  466WAT     H1 1917   4.021   5.910   5.659
  466WAT     H2 1918   3.897   5.997   5.656
  467WAT      O 1919   4.661   6.241   3.957
  467WAT     H1 1920   4.650   6.179   4.030
  467WAT     H2 1921   4.644   6.188   3.879
  468WAT      O 1922   4.676   6.109   5.555
  468WAT     H1 1923   4.599   6.166   5.547
  468WAT     H2 1924   4.694   6.080   5.466
  469WAT      O 1925   4.985   6.147   4.018
  469WAT     H1 1926   4.930   6.191   4.082
  469WAT     H2 1927   5.047   6.096   4.070
  470WAT      O 1928   5.390   6.282   5.611
  470WAT     H1 1929   5.464   6.316   5.561
  470WAT     H2 1930   5.314   6.299   5.556
  471WAT      O 1931   4.552   6.043   4.207
  471WAT     H1 1932   4.594   6.026   4.292
  471WAT     H2 1933   4.564   5.962   4.158
  472WAT      O 1934   4.368   5.641   5.488
  472WAT     H1 1935   4.315   5.591   5.425
  472WAT     H2 1936   4.435   5.683   5.435
  473WAT      O 1937   4.803   5.945   3.932
  473WAT     H1 1938   4.855   5.873   3.896
  473WAT     H2 1939   4.867   6.009   3.962
  474WAT      O 1940   5.258   6.087   5.465
  474WAT     H1 1941   5.299   6.103   5.550
  474WAT     H2 1942   5.164   6.100   5.481
  475WAT      O 1943   5.305   5.821   5.665
  475WAT     H1 1944   5.363   5.746   5.656
  475WAT     H2 1945   5.322   5.874   5.587
  476WAT      O 1946   4.417   5.337   5.496
  476WAT     H1 1947   4.407   5.275   5.424
  476WAT     H2 1948   4.358   5.410   5.473
  477WAT      O 1949   4.693   5.193   5.199
  477WAT     H1 1950   4.648   5.195   5.115
  477WAT     H2 1951   4.630   5.153   5.259
  478WAT      O 1952   4.734   6.082   5.262
  478WAT     H1 1953   4.776   6.167   5.244
  478WAT     H2 1954   4.642   6.096   5.239
  479WAT      O 1955   4.967   5.856   5.400
  479WAT     H1 1956   4.979   5.796   5.474
  479WAT     H2 1957   5.053   5.859   5.358
  480WAT      O 1958   5.201   5.911   5.258
  480WAT     H1 1959   5.149   5.963   5.197
  480WAT     H2 1960   5.236   5.974   5.321
  481WAT      O 1961   4.441   5.650   3.902
  481WAT     H1 1962   4.421   5.564   3.938
  481WAT     H2 1963   4.424   5.641   3.808
  482WAT      O 1964   4.519   6.713   5.373
  482WAT     H1 1965   4.465   6.785   5.341
  482WAT     H2 1966   4.544   6.665   5.294
  483WAT      O 1967   4.644   5.510   5.526
  483WAT     H1 1968   4.703   5.479   5.594
  483WAT     H2 1969   4.562   5.463   5.541
  484WAT      O 1970   5.126   5.472   5.549
  484WAT     H1 1971   5.057   5.405   5.543
  484WAT     H2 1972   5.198   5.427   5.594
  485WAT      O 1973   5.189   5.131   4.155
  485WAT     H1 1974   5.217   5.047   4.191
  485WAT     H2 1975   5.112   5.154   4.206
  486WAT      O 1976   4.321   5.360   3.901
  486WAT     H1 1977   4.351   5.361   3.810
  486WAT     H2 1978   4.395   5.325   3.951
  487WAT      O 1979   4.804   6.837   5.399
  487WAT     H1 1980   4.797   6.927   5.430
  487WAT     H2 1981   4.714   6.805   5.396
  488WAT      O 1982   4.643   5.254   3.999
  488WAT     H1 1983   4.608   5.187   3.941
  488WAT     H2 1984   4.663   5.208   4.081
  489WAT      O 1985   4.859   6.753   4.161
  489WAT     H1 1986   4.949   6.787   4.163
  489WAT     H2 1987   4.862   6.681   4.099
  490WAT      O 1988   4.223   6.290   3.984
  490WAT     H1 1989   4.267   6.345   4.050
  490WAT     H2 1990   4.272   6.208   3.985
  491WAT      O 1991   3.945   6.569   4.729
  491WAT     H1 1992   3.978   6.482   4.706
  491WAT     H2 1993   3.988   6.590   4.812
  492WAT      O 1994   4.404   6.402   4.495
  492WAT     H1 1995   4.374   6.390   4.585
  492WAT     H2 1996   4.394   6.316   4.455
  493WAT      O 1997   3.994   6.656   5.003
  493WAT     H1 1998   3.950   6.674   5.086
  493WAT     H2 1999   4.050   6.732   4.989
  494WAT      O 2000   5.557   6.606   5.432
  494WAT     H1 2001   5.497   6.612   5.358
  494WAT     H2 2002   5.570   6.512   5.445
  495WAT      O 2003   3.977   5.907   4.639
  495WAT     H1 2004   3.911   5.880   4.575
  495WAT     H2 2005   4.061   5.896   4.594
  496WAT      O 2006   5.426   6.279   5.242
  496WAT     H1 2007   5.344   6.322   5.268
  496WAT     H2 2008   5.466   6.340   5.180
  497WAT      O 2009   5.632   6.084   3.932
  497WAT     H1 2010   5.659   6.175   3.919
  497WAT     H2 2011   5.613   6.078   4.025
  498WAT      O 2012   5.272   5.387   4.061
  498WAT     H1 2013   5.314   5.368   3.977
  498WAT     H2 2014   5.241   5.301   4.092
  499WAT      O 2015   5.622   5.878   4.431
  499WAT     H1 2016   5.584   5.801   4.388
  499WAT     H2 2017   5.549   5.916   4.480
  500WAT      O 2018   4.081   5.946   5.093
  500WAT     H1 2019   4.117   5.937   5.181
  500WAT     H2 2020   4.024   5.869   5.083
  501WAT      O 2021   5.561   5.793   5.394
  501WAT     H1 2022   5.537   5.770   5.304
  501WAT     H2 2023   5.587   5.885   5.390
  502WAT      O 2024   4.036   5.637   5.484
  502WAT     H1 2025   3.946   5.633   5.518
  502WAT     H2 2026   4.090   5.657   5.560
  503WAT      O 2027   5.405   5.315   5.672
  503WAT     H1 2028   5.492   5.316   5.711
  503WAT     H2 2029   5.406   5.241   5.611
  504WAT      O 2030   3.898   5.628   4.233
  504WAT     H1 2031   3.808   5.654   4.216
  504WAT     H2 2032   3.947   5.655   4.155
  505WAT      O 2033   5.549   5.700   4.761
  505WAT     H1 2034   5.602   5.651   4.698
  505WAT     H2 2035   5.608   5.714   4.836
  506WAT      O 2036   5.567   5.709   5.113
  506WAT     H1 2037   5.472   5.705   5.125
  506WAT     H2 2038   5.585   5.800   5.090
  507WAT      O 2039   4.152   5.534   4.024
  507WAT     H1 2040   4.223   5.492   3.976
  507WAT     H2 2041   4.081   5.541   3.961
  508WAT      O 2042   4.117   5.139   3.928
  508WAT     H1 2043   4.190   5.193   3.960
  508WAT     H2 2044   4.144   5.112   3.841
  509WAT      O 2045   5.498   5.626   4.355
  509WAT     H1 2046   5.548   5.603   4.433
  509WAT     H2 2047   5.478   5.542   4.313
  510WAT      O 2048   4.086   5.064   4.919
  510WAT     H1 2049   4.151   5.009   4.874
  510WAT     H2 2050   4.128   5.090   5.001
  511WAT      O 2051   5.476   5.084   5.254
  511WAT     H1 2052   5.539   5.145   5.291
  511WAT     H2 2053   5.490   5.087   5.160
  512WAT      O 2054   5.431   6.754   4.594
  512WAT     H1 2055   5.491   6.722   4.527
  512WAT     H2 2056   5.457   6.707   4.674
  513WAT      O 2057   4.061   5.080   5.193
  513WAT     H1 2058   4.027   5.125   5.269
  513WAT     H2 2059   4.028   4.990   5.201
  514WAT      O 2060   4.222   6.397   5.609
  514WAT     H1 2061   4.218   6.360   5.697
  514WAT     H2 2062   4.235   6.491   5.623
  515WAT      O 2063   4.592   6.553   5.169
  515WAT     H1 2064   4.568   6.579   5.081
  515WAT     H2 2065   4.686   6.570   5.175
  516WAT      O 2066   4.813   5.199   5.545
  516WAT     H1 2067   4.807   5.258   5.620
  516WAT     H2 2068   4.907   5.188   5.530
  517WAT      O 2069   5.076   5.165   5.509
  517WAT     H1 2070   5.138   5.196   5.443
  517WAT     H2 2071   5.131   5.116   5.571
  518WAT      O 2072   4.129   5.033   5.520
  518WAT     H1 2073   4.183   5.014   5.444
  518WAT     H2 2074   4.135   4.954   5.574
  519WAT      O 2075   4.206   6.692   5.321
  519WAT     H1 2076   4.147   6.678   5.395
  519WAT     H2 2077   4.205   6.608   5.275
  520WAT      O 2078   5.151   5.021   5.142
  520WAT     H1 2079   5.063   5.054   5.121
  520WAT     H2 2080   5.140   4.974   5.224
  521WAT      O 2081   5.241   5.242   5.280
  521WAT     H1 2082   5.208   5.160   5.242
  521WAT     H2 2083   5.336   5.237   5.268
  522WAT      O 2084   5.487   6.819   4.977
  522WAT     H1 2085   5.441   6.894   4.940
  522WAT     H2 2086   5.424   6.747   4.972
  523WAT      O 2087   4.169   6.428   5.216
  523WAT     H1 2088   4.096   6.366   5.210
  523WAT     H2 2089   4.175   6.468   5.129
  524WAT      O 2090   4.530   6.650   4.895
  524WAT     H1 2091   4.581   6.589   4.842
  524WAT     H2 2092   4.595   6.700   4.944
  525WAT      O 2093   4.804   6.739   4.978
  525WAT     H1 2094   4.832   6.713   4.890
  525WAT     H2 2095   4.855   6.684   5.037
  526WAT      O 2096   4.925   5.113   5.035
  526WAT     H1 2097   4.847   5.160   5.063
  526WAT     H2 2098   4.896   5.022   5.025
  527WAT      O 2099   5.380   5.183   4.840
  527WAT     H1 2100   5.425   5.177   4.755
  527WAT     H2 2101   5.354   5.274   4.847
  528WAT      O 2102   5.567   5.146   4.641
  528WAT     H1 2103   5.561   5.052   4.626
  528WAT     H2 2104   5.645   5.157   4.696
  529WAT      O 2105   3.997   6.760   4.537
  529WAT     H1 2106   3.981   6.697   4.607
  529WAT     H2 2107   3.911   6.781   4.502
  530WAT      O 2108   4.060   5.143   4.288
  530WAT     H1 2109   4.135   5.154   4.230
  530WAT     H2 2110   4.013   5.227   4.283
  531WAT      O 2111   4.714   5.355   4.587
  531WAT     H1 2112   4.633   5.317   4.553
  531WAT     H2 2113   4.764   5.279   4.617
  532WAT      O 2114   5.164   5.021   4.710
  532WAT     H1 2115   5.224   5.078   4.758
  532WAT     H2 2116   5.090   5.077   4.688
  533WAT      O 2117   5.478   5.061   4.238
  533WAT     H1 2118   5.498   5.151   4.265
  533WAT     H2 2119   5.400   5.038   4.287
  534WAT      O 2120   4.158   6.629   4.282
  534WAT     H1 2121   4.106   6.667   4.211
  534WAT     H2 2122   4.150   6.692   4.354
  535WAT      O 2123   4.297   5.196   4.142
  535WAT     H1 2124   4.350   5.117   4.129
  535WAT     H2 2125   4.360   5.264   4.165
  536WAT      O 2126   4.516   5.170   4.447
  536WAT     H1 2127   4.453   5.099   4.464
  536WAT     H2 2128   4.462   5.246   4.425
  537WAT      O 2129   4.810   6.831   5.714
  537WAT     H1 2130   4.903   6.807   5.719
  537WAT     H2 2131   4.809   6.914   5.666
  538WAT      O 2132   5.634   6.785   4.414
  538WAT     H1 2133   5.651   6.717   4.350
  538WAT     H2 2134   5.564   6.838   4.375
  539WAT      O 2135   4.529   5.097   5.691
  539WAT     H1 2136   4.501   5.148   5.614
  539WAT     H2 2137   4.567   5.018   5.654
  540WAT      O 2138   4.418   6.824   4.169
  540WAT     H1 2139   4.491   6.796   4.115
  540WAT     H2 2140   4.444   6.800   4.258
  541WAT      O 2141   4.334   6.436   4.170
  541WAT     H1 2142   4.271   6.483   4.225
  541WAT     H2 2143   4.346   6.351   4.213
  542WAT      O 2144   5.080   5.841   2.785
  542WAT     H1 2145   5.072   5.749   2.758
  542WAT     H2 2146   5.038   5.891   2.714
  543WAT      O 2147   4.893   6.019   2.973
  543WAT     H1 2148   4.815   5.971   3.002
  543WAT     H2 2149   4.958   5.951   2.955
  544WAT      O 2150   4.294   6.050   3.061
  544WAT     H1 2151   4.211   6.024   3.101
  544WAT     H2 2152   4.355   6.057   3.134
  545WAT      O 2153   5.295   6.459   2.851
  545WAT     H1 2154   5.249   6.382   2.884
  545WAT     H2 2155   5.376   6.462   2.901
  546WAT      O 2156   4.292   6.453   3.080
  546WAT     H1 2157   4.323   6.364   3.062
  546WAT     H2 2158   4.367   6.509   3.057
  547WAT      O 2159   4.135   5.546   2.439
  547WAT     H1 2160   4.047   5.580   2.429
  547WAT     H2 2161   4.164   5.526   2.350
  548WAT      O 2162   3.932   5.806   3.027
  548WAT     H1 2163   3.989   5.729   3.027
  548WAT     H2 2164   3.932   5.836   2.937
  549WAT      O 2165   4.917   6.688   2.813
  549WAT     H1 2166   4.856   6.733   2.756
  549WAT     H2 2167   5.003   6.703   2.773
  550WAT      O 2168   4.837   6.286   2.974
  550WAT     H1 2169   4.830   6.192   2.957
  550WAT     H2 2170   4.913   6.295   3.031
  551WAT      O 2171   4.056   5.347   3.206
  551WAT     H1 2172   4.038   5.257   3.234
  551WAT     H2 2173   4.016   5.401   3.274
  552WAT      O 2174   4.940   5.567   2.996
  552WAT     H1 2175   4.978   5.480   2.985
  552WAT     H2 2176   4.930   5.600   2.907
  553WAT      O 2177   4.353   5.404   2.542
  553WAT     H1 2178   4.364   5.494   2.573
  553WAT     H2 2179   4.262   5.399   2.513
  554WAT      O 2180   5.318   5.316   2.690
  554WAT     H1 2181   5.400   5.267   2.694
  554WAT     H2 2182   5.322   5.375   2.765
  555WAT      O 2183   4.118   5.596   3.067
  555WAT     H1 2184   4.186   5.623   3.129
  555WAT     H2 2185   4.086   5.512   3.100
  556WAT      O 2186   4.537   5.701   2.976
  556WAT     H1 2187   4.588   5.751   3.040
  556WAT     H2 2188   4.590   5.623   2.958
  557WAT      O 2189   4.365   5.165   3.402
  557WAT     H1 2190   4.366   5.217   3.322
  557WAT     H2 2191   4.282   5.117   3.400
  558WAT      O 2192   5.004   6.176   2.552
  558WAT     H1 2193   4.942   6.223   2.496
  558WAT     H2 2194   5.055   6.245   2.594
  559WAT      O 2195   4.490   6.129   3.220
  559WAT     H1 2196   4.457   6.192   3.284
  559WAT     H2 2197   4.508   6.182   3.142
  560WAT      O 2198   5.342   5.510   2.967
  560WAT     H1 2199   5.271   5.539   3.025
  560WAT     H2 2200   5.378   5.591   2.931
  561WAT      O 2201   4.334   5.336   3.203
  561WAT     H1 2202   4.368   5.421   3.174
  561WAT     H2 2203   4.240   5.351   3.215
  562WAT      O 2204   4.412   6.326   3.402
  562WAT     H1 2205   4.473   6.393   3.373
  562WAT     H2 2206   4.326   6.367   3.392
  563WAT      O 2207   3.941   6.245   2.290
  563WAT     H1 2208   3.903   6.294   2.216
  563WAT     H2 2209   3.967   6.312   2.353
  564WAT      O 2210   5.503   6.472   3.193
  564WAT     H1 2211   5.435   6.539   3.192
  564WAT     H2 2212   5.557   6.492   3.117
  565WAT      O 2213   5.649   5.455   3.006
  565WAT     H1 2214   5.554   5.458   3.019
  565WAT     H2 2215   5.681   5.536   3.044
  566WAT      O 2216   4.702   5.085   2.835
  566WAT     H1 2217   4.733   5.029   2.764
  566WAT     H2 2218   4.609   5.098   2.817
  567WAT      O 2219   5.257   6.657   3.065
  567WAT     H1 2220   5.258   6.616   2.978
  567WAT     H2 2221   5.202   6.734   3.054
  568WAT      O 2222   5.386   6.329   2.573
  568WAT     H1 2223   5.375   6.235   2.586
  568WAT     H2 2224   5.386   6.365   2.662
  569WAT      O 2225   5.197   6.147   3.197
  569WAT     H1 2226   5.239   6.126   3.114
  569WAT     H2 2227   5.269   6.173   3.254
  570WAT      O 2228   4.941   5.891   2.509
  570WAT     H1 2229   4.848   5.885   2.532
  570WAT     H2 2230   4.956   5.985   2.498
  571WAT      O 2231   4.939   5.519   2.209
  571WAT     H1 2232   4.845   5.535   2.217
  571WAT     H2 2233   4.971   5.590   2.154
  572WAT      O 2234   5.591   5.987   3.207
  572WAT     H1 2235   5.509   5.994   3.159
  572WAT     H2 2236   5.651   6.045   3.160
  573WAT      O 2237   5.344   6.048   2.559
  573WAT     H1 2238   5.282   6.014   2.495
  573WAT     H2 2239   5.342   5.983   2.630
  574WAT      O 2240   5.288   5.665   3.301
  574WAT     H1 2241   5.247   5.748   3.326
  574WAT     H2 2242   5.215   5.607   3.282
  575WAT      O 2243   4.501   5.944   2.787
  575WAT     H1 2244   4.461   5.873   2.738
  575WAT     H2 2245   4.510   5.910   2.876
  576WAT      O 2246   4.548   6.313   3.004
  576WAT     H1 2247   4.518   6.252   2.936
  576WAT     H2 2248   4.643   6.317   2.993
  577WAT      O 2249   4.373   5.621   3.165
  577WAT     H1 2250   4.428   5.632   3.088
  577WAT     H2 2251   4.424   5.659   3.237
  578WAT      O 2252   5.357   6.670   3.370
  578WAT     H1 2253   5.309   6.751   3.351
  578WAT     H2 2254   5.289   6.605   3.385
  579WAT      O 2255   4.457   6.287   3.669
  579WAT     H1 2256   4.368   6.309   3.693
  579WAT     H2 2257   4.460   6.299   3.574
  580WAT      O 2258   5.161   5.971   2.260
  580WAT     H1 2259   5.205   5.888   2.246
  580WAT     H2 2260   5.233   6.035   2.269
  581WAT      O 2261   4.340   5.974   3.526
  581WAT     H1 2262   4.326   6.061   3.563
  581WAT     H2 2263   4.252   5.939   3.512
  582WAT      O 2264   4.972   6.465   2.657
  582WAT     H1 2265   5.016   6.540   2.616
  582WAT     H2 2266   4.966   6.490   2.749
  583WAT      O 2267   4.520   6.568   3.747
  583WAT     H1 2268   4.517   6.608   3.660
  583WAT     H2 2269   4.503   6.475   3.731
  584WAT      O 2270   5.519   5.097   2.092
  584WAT     H1 2271   5.488   5.106   2.182
  584WAT     H2 2272   5.596   5.155   2.087
  585WAT      O 2273   4.171   5.834   2.537
  585WAT     H1 2274   4.159   5.906   2.476
  585WAT     H2 2275   4.140   5.757   2.490
  586WAT      O 2276   3.935   6.151   3.118
  586WAT     H1 2277   3.943   6.164   3.024
  586WAT     H2 2278   3.997   6.080   3.137
  587WAT      O 2279   4.060   6.321   2.759
  587WAT     H1 2280   4.019   6.335   2.674
  587WAT     H2 2281   4.149   6.292   2.739
  588WAT      O 2282   5.655   6.365   3.593
  588WAT     H1 2283   5.668   6.341   3.501
  588WAT     H2 2284   5.659   6.282   3.640
  589WAT      O 2285   5.041   6.736   3.450
  589WAT     H1 2286   5.093   6.727   3.530
  589WAT     H2 2287   4.957   6.770   3.479
  590WAT      O 2288   5.239   6.764   2.393
  590WAT     H1 2289   5.223   6.735   2.482
  590WAT     H2 2290   5.222   6.687   2.339
  591WAT      O 2291   4.487   6.742   2.570
  591WAT     H1 2292   4.469   6.650   2.549
  591WAT     H2 2293   4.401   6.778   2.594
  592WAT      O 2294   5.209   6.515   2.249
  592WAT     H1 2295   5.140   6.515   2.183
  592WAT     H2 2296   5.283   6.473   2.206
  593WAT      O 2297   5.166   6.678   2.656
  593WAT     H1 2298   5.211   6.600   2.687
  593WAT     H2 2299   5.200   6.749   2.710
  594WAT      O 2300   5.640   5.571   3.689
  594WAT     H1 2301   5.579   5.621   3.636
  594WAT     H2 2302   5.608   5.481   3.684
  595WAT      O 2303   3.941   6.255   3.372
  595WAT     H1 2304   3.957   6.208   3.290
  595WAT     H2 2305   3.987   6.204   3.438
  596WAT      O 2306   4.418   5.168   2.876
  596WAT     H1 2307   4.374   5.246   2.842
  596WAT     H2 2308   4.474   5.200   2.946
  597WAT      O 2309   4.847   5.455   3.436
  597WAT     H1 2310   4.800   5.475   3.517
  597WAT     H2 2311   4.806   5.373   3.406
  598WAT      O 2312   5.347   5.577   3.549
  598WAT     H1 2313   5.262   5.547   3.581
  598WAT     H2 2314   5.331   5.601   3.458
  599WAT      O 2315   5.056   5.727   3.759
  599WAT     H1 2316   5.089   5.643   3.725
  599WAT     H2 2317   5.135   5.779   3.774
  600WAT      O 2318   4.729   5.130   2.364
  600WAT     H1 2319   4.667   5.130   2.436
  600WAT     H2 2320   4.721   5.043   2.324
  601WAT      O 2321   4.622   5.222   3.061
  601WAT     H1 2322   4.651   5.313   3.053
  601WAT     H2 2323   4.677   5.174   3.000
  602WAT      O 2324   4.397   5.680   2.648
  602WAT     H1 2325   4.374   5.659   2.739
  602WAT     H2 2326   4.319   5.723   2.614
  603WAT      O 2327   5.120   5.681   2.508
  603WAT     H1 2328   5.060   5.753   2.490
  603WAT     H2 2329   5.175   5.675   2.430
  604WAT      O 2330   4.641   5.770   3.715
  604WAT     H1 2331   4.631   5.676   3.700
  604WAT     H2 2332   4.725   5.792   3.675
  605WAT      O 2333   4.981   5.544   2.711
  605WAT     H1 2334   5.020   5.576   2.630
  605WAT     H2 2335   5.017   5.457   2.723
  606WAT      O 2336   4.154   5.411   3.530
  606WAT     H1 2337   4.115   5.496   3.551
  606WAT     H2 2338   4.085   5.347   3.549
  607WAT      O 2339   4.812   5.420   3.837
  607WAT     H1 2340   4.743   5.400   3.901
  607WAT     H2 2341   4.886   5.448   3.891
  608WAT      O 2342   3.884   5.203   2.934
  608WAT     H1 2343   3.855   5.261   3.005
  608WAT     H2 2344   3.959   5.156   2.970
  609WAT      O 2345   3.903   5.598   2.055
  609WAT     H1 2346   3.895   5.692   2.069
  609WAT     H2 2347   3.868   5.583   1.967
  610WAT      O 2348   5.039   5.804   3.121
  610WAT     H1 2349   4.966   5.854   3.156
  610WAT     H2 2350   4.999   5.722   3.091
  611WAT      O 2351   4.683   5.471   2.961
  611WAT     H1 2352   4.683   5.427   2.876
  611WAT     H2 2353   4.773   5.503   2.972
  612WAT      O 2354   4.268   5.459   2.857
  612WAT     H1 2355   4.234   5.507   2.933
  612WAT     H2 2356   4.192   5.414   2.821
  613WAT      O 2357   4.689   5.571   2.260
  613WAT     H1 2358   4.701   5.567   2.355
  613WAT     H2 2359   4.651   5.657   2.245
  614WAT      O 2360   5.085   5.349   3.062
  614WAT     H1 2361   5.087   5.394   3.146
  614WAT     H2 2362   5.061   5.259   3.083
  615WAT      O 2363   4.590   5.802   2.200
  615WAT     H1 2364   4.534   5.757   2.138
  615WAT     H2 2365   4.661   5.838   2.147
  616WAT      O 2366   5.428   5.090   3.646
  616WAT     H1 2367   5.461   5.017   3.699
  616WAT     H2 2368   5.432   5.058   3.556
  617WAT      O 2369   4.098   6.192   3.588
  617WAT     H1 2370   4.060   6.128   3.648
  617WAT     H2 2371   4.129   6.263   3.645
  618WAT      O 2372   4.713   5.877   3.136
  618WAT     H1 2373   4.750   5.830   3.211
  618WAT     H2 2374   4.694   5.965   3.170
  619WAT      O 2375   3.999   5.352   2.749
  619WAT     H1 2376   3.971   5.315   2.833
  619WAT     H2 2377   3.993   5.278   2.688
  620WAT      O 2378   4.492   5.781   3.368
  620WAT     H1 2379   4.462   5.869   3.390
  620WAT     H2 2380   4.588   5.787   3.371
  621WAT      O 2381   4.345   6.202   2.428
  621WAT     H1 2382   4.268   6.148   2.412
  621WAT     H2 2383   4.418   6.150   2.394
  622WAT      O 2384   5.421   6.101   3.007
  622WAT     H1 2385   5.493   6.151   2.968
  622WAT     H2 2386   5.401   6.034   2.942
  623WAT      O 2387   4.967   5.241   2.421
  623WAT     H1 2388   4.886   5.191   2.414
  623WAT     H2 2389   4.947   5.325   2.379
  624WAT      O 2390   4.959   6.109   3.595
  624WAT     H1 2391   4.952   6.016   3.570
  624WAT     H2 2392   4.896   6.118   3.667
  625WAT      O 2393   5.238   5.678   2.251
  625WAT     H1 2394   5.327   5.709   2.233
  625WAT     H2 2395   5.235   5.591   2.212
  626WAT      O 2396   4.349   6.169   2.791
  626WAT     H1 2397   4.401   6.088   2.786
  626WAT     H2 2398   4.304   6.162   2.875
  627WAT      O 2399   4.838   6.295   2.319
  627WAT     H1 2400   4.872   6.370   2.269
  627WAT     H2 2401   4.755   6.327   2.355
  628WAT      O 2402   4.098   5.865   3.483
  628WAT     H1 2403   4.062   5.932   3.541
  628WAT     H2 2404   4.068   5.782   3.520
  629WAT      O 2405   4.418   5.911   3.771
  629WAT     H1 2406   4.388   5.926   3.681
  629WAT     H2 2407   4.495   5.855   3.762
  630WAT      O 2408   4.952   6.391   3.571
  630WAT     H1 2409   4.954   6.298   3.549
  630WAT     H2 2410   4.881   6.399   3.634
  631WAT      O 2411   5.466   5.809   2.198
  631WAT     H1 2412   5.457   5.852   2.112
  631WAT     H2 2413   5.537   5.855   2.241
  632WAT      O 2414   5.573   6.055   3.505
  632WAT     H1 2415   5.501   6.114   3.485
  632WAT     H2 2416   5.626   6.054   3.425
  633WAT      O 2417   5.568   6.495   2.470
  633WAT     H1 2418   5.504   6.429   2.498
  633WAT     H2 2419   5.530   6.535   2.393
  634WAT      O 2420   5.126   6.227   2.855
  634WAT     H1 2421   5.161   6.168   2.789
  634WAT     H2 2422   5.038   6.195   2.872
  635WAT      O 2423   4.735   6.303   2.596
  635WAT     H1 2424   4.804   6.358   2.634
  635WAT     H2 2425   4.656   6.358   2.599
  636WAT      O 2426   3.949   5.865   2.145
  636WAT     H1 2427   4.036   5.893   2.173
  636WAT     H2 2428   3.900   5.946   2.133
  637WAT      O 2429   4.665   6.004   2.557
  637WAT     H1 2430   4.711   6.085   2.580
  637WAT     H2 2431   4.630   5.972   2.640
  638WAT      O 2432   4.895   6.555   3.280
  638WAT     H1 2433   4.960   6.576   3.348
  638WAT     H2 2434   4.932   6.479   3.235
  639WAT      O 2435   4.255   5.038   2.604
  639WAT     H1 2436   4.242   5.037   2.699
  639WAT     H2 2437   4.173   5.072   2.569
  640WAT      O 2438   5.023   6.355   3.152
  640WAT     H1 2439   5.087   6.285   3.163
  640WAT     H2 2440   5.075   6.433   3.134
  641WAT      O 2441   5.407   6.384   2.124
  641WAT     H1 2442   5.385   6.312   2.183
  641WAT     H2 2443   5.368   6.359   2.040
  642WAT      O 2444   5.200   6.435   3.472
  642WAT     H1 2445   5.234   6.494   3.540
  642WAT     H2 2446   5.108   6.422   3.495
  643WAT      O 2447   3.986   6.786   2.202
  643WAT     H1 2448   4.021   6.846   2.136
  643WAT     H2 2449   3.971   6.841   2.279
  644WAT      O 2450   3.955   5.214   3.550
  644WAT     H1 2451   3.884   5.234   3.611
  644WAT     H2 2452   3.997   5.137   3.587
  645WAT      O 2453   5.366   6.175   2.290
  645WAT     H1 2454   5.337   6.222   2.369
  645WAT     H2 2455   5.445   6.129   2.317
  646WAT      O 2456   3.984   6.613   3.649
  646WAT     H1 2457   3.995   6.519   3.635
  646WAT     H2 2458   3.919   6.639   3.584
  647WAT      O 2459   4.783   6.440   3.789
  647WAT     H1 2460   4.751   6.368   3.843
  647WAT     H2 2461   4.716   6.508   3.796
  648WAT      O 2462   4.587   6.525   2.283
  648WAT     H1 2463   4.586   6.598   2.222
  648WAT     H2 2464   4.495   6.500   2.293
  649WAT      O 2465   4.147   6.047   2.358
  649WAT     H1 2466   4.087   6.121   2.359
  649WAT     H2 2467   4.195   6.056   2.275
  650WAT      O 2468   5.105   5.463   3.325
  650WAT     H1 2469   5.141   5.381   3.358
  650WAT     H2 2470   5.019   5.469   3.367
  651WAT      O 2471   5.441   5.359   2.406
  651WAT     H1 2472   5.378   5.369   2.335
  651WAT     H2 2473   5.392   5.381   2.485
  652WAT      O 2474   4.886   6.531   2.150
  652WAT     H1 2475   4.896   6.511   2.057
  652WAT     H2 2476   4.796   6.506   2.170
  653WAT      O 2477   4.638   5.587   2.548
  653WAT     H1 2478   4.567   5.634   2.592
  653WAT     H2 2479   4.666   5.521   2.611
  654WAT      O 2480   4.801   5.729   3.348
  654WAT     H1 2481   4.850   5.776   3.414
  654WAT     H2 2482   4.815   5.636   3.368
  655WAT      O 2483   5.041   5.259   2.692
  655WAT     H1 2484   5.029   5.261   2.597
  655WAT     H2 2485   5.136   5.264   2.704
  656WAT      O 2486   4.750   6.783   2.619
  656WAT     H1 2487   4.775   6.779   2.527
  656WAT     H2 2488   4.655   6.770   2.618
  657WAT      O 2489   4.458   5.418   2.285
  657WAT     H1 2490   4.543   5.461   2.279
  657WAT     H2 2491   4.422   5.449   2.368
  658WAT      O 2492   5.521   5.350   3.432
  658WAT     H1 2493   5.471   5.424   3.466
  658WAT     H2 2494   5.603   5.389   3.400
  659WAT      O 2495   5.350   5.875   2.777
  659WAT     H1 2496   5.256   5.876   2.794
  659WAT     H2 2497   5.382   5.796   2.821
  660WAT      O 2498   4.348   6.043   2.133
  660WAT     H1 2499   4.425   6.032   2.189
  660WAT     H2 2500   4.356   5.973   2.067
  661WAT      O 2501   4.218   5.786   2.201
  661WAT     H1 2502   4.226   5.691   2.212
  661WAT     H2 2503   4.307   5.819   2.212
  662WAT      O 2504   5.551   6.592   2.944
  662WAT     H1 2505   5.563   6.674   2.991
  662WAT     H2 2506   5.637   6.571   2.909
  663WAT      O 2507   4.298   6.801   2.911
  663WAT     H1 2508   4.372   6.746   2.938
  663WAT     H2 2509   4.336   6.888   2.897
  664WAT      O 2510   3.986   6.408   2.499
  664WAT     H1 2511   3.894   6.432   2.498
  664WAT     H2 2512   4.033   6.491   2.487
  665WAT      O 2513   4.199   6.720   3.830
  665WAT     H1 2514   4.279   6.752   3.872
  665WAT     H2 2515   4.147   6.684   3.902
  666WAT      O 2516   4.609   6.718   2.094
  666WAT     H1 2517   4.688   6.747   2.048
  666WAT     H2 2518   4.557   6.675   2.026
  667WAT      O 2519   5.082   6.330   3.825
  667WAT     H1 2520   5.022   6.333   3.751
  667WAT     H2 2521   5.052   6.257   3.879
  668WAT      O 2522   5.225   6.703   3.686
  668WAT     H1 2523   5.320   6.695   3.681
  668WAT     H2 2524   5.210   6.770   3.753
  669WAT      O 2525   5.514   6.641   2.236
  669WAT     H1 2526   5.486   6.600   2.154
  669WAT     H2 2527   5.494   6.734   2.224
  670WAT      O 2528   3.970   5.968   3.725
  670WAT     H1 2529   4.021   5.910   3.782
  670WAT     H2 2530   3.897   5.997   3.778
  671WAT      O 2531   4.661   6.241   2.080
  671WAT     H1 2532   4.650   6.179   2.153
  671WAT     H2 2533   4.644   6.188   2.002
  672WAT      O 2534   4.676   6.109   3.678
  672WAT     H1 2535   4.599   6.166   3.669
  672WAT     H2 2536   4.694   6.080   3.589
  673WAT      O 2537   4.985   6.147   2.140
  673WAT     H1 2538   4.930   6.191   2.205
  673WAT     H2 2539   5.047   6.096   2.193
  674WAT      O 2540   5.390   6.282   3.734
  674WAT     H1 2541   5.464   6.316   3.683
  674WAT     H2 2542   5.314   6.299   3.678
  675WAT      O 2543   4.174   5.783   3.814
  675WAT     H1 2544   4.178   5.753   3.905
  675WAT     H2 2545   4.259   5.823   3.798
  676WAT      O 2546   4.552   6.043   2.330
  676WAT     H1 2547   4.594   6.026   2.414
  676WAT     H2 2548   4.564   5.962   2.281
  677WAT      O 2549   4.368   5.641   3.611
  677WAT     H1 2550   4.315   5.591   3.548
  677WAT     H2 2551   4.435   5.683   3.557
  678WAT      O 2552   4.803   5.945   2.055
  678WAT     H1 2553   4.855   5.873   2.018
  678WAT     H2 2554   4.867   6.009   2.085
  679WAT      O 2555   5.258   6.087   3.587
  679WAT     H1 2556   5.299   6.103   3.672
  679WAT     H2 2557   5.164   6.100   3.603
  680WAT      O 2558   5.305   5.821   3.788
  680WAT     H1 2559   5.363   5.746   3.779
  680WAT     H2 2560   5.322   5.874   3.710
  681WAT      O 2561   4.417   5.337   3.619
  681WAT     H1 2562   4.407   5.275   3.546
  681WAT     H2 2563   4.358   5.410   3.596
  682WAT      O 2564   4.693   5.193   3.322
  682WAT     H1 2565   4.648   5.195   3.237
  682WAT     H2 2566   4.630   5.153   3.382
  683WAT      O 2567   4.734   6.082   3.384
  683WAT     H1 2568   4.776   6.167   3.367
  683WAT     H2 2569   4.642   6.096   3.361
  684WAT      O 2570   4.967   5.856   3.523
  684WAT     H1 2571   4.979   5.796   3.596
  684WAT     H2 2572   5.053   5.859   3.481
  685WAT      O 2573   5.201   5.911   3.380
  685WAT     H1 2574   5.149   5.963   3.320
  685WAT     H2 2575   5.236   5.974   3.443
  686WAT      O 2576   4.441   5.650   2.025
  686WAT     H1 2577   4.421   5.564   2.061
  686WAT     H2 2578   4.424   5.641   1.931
  687WAT      O 2579   4.519   6.713   3.496
  687WAT     H1 2580   4.465   6.785   3.464
  687WAT     H2 2581   4.544   6.665   3.417
  688WAT      O 2582   4.644   5.510   3.648
  688WAT     H1 2583   4.703   5.479   3.717
  688WAT     H2 2584   4.562   5.463   3.664
  689WAT      O 2585   5.126   5.472   3.672
  689WAT     H1 2586   5.057   5.405   3.665
  689WAT     H2 2587   5.198   5.427   3.716
  690WAT      O 2588   5.189   5.131   2.278
  690WAT     H1 2589   5.217   5.047   2.313
  690WAT     H2 2590   5.112   5.154   2.329
  691WAT      O 2591   4.321   5.360   2.023
  691WAT     H1 2592   4.351   5.361   1.933
  691WAT     H2 2593   4.395   5.325   2.073
  692WAT      O 2594   4.804   6.837   3.522
  692WAT     H1 2595   4.797   6.927   3.552
  692WAT     H2 2596   4.714   6.805   3.519
  693WAT      O 2597   4.643   5.254   2.122
  693WAT     H1 2598   4.608   5.187   2.064
  693WAT     H2 2599   4.663   5.208   2.203
  694WAT      O 2600   4.859   6.753   2.284
  694WAT     H1 2601   4.949   6.787   2.286
  694WAT     H2 2602   4.862   6.681   2.221
  695WAT      O 2603   4.223   6.290   2.107
  695WAT     H1 2604   4.267   6.345   2.172
  695WAT     H2 2605   4.272   6.208   2.108
  696WAT      O 2606   3.945   6.569   2.852
  696WAT     H1 2607   3.978   6.482   2.829
  696WAT     H2 2608   3.988   6.590   2.935
  697WAT      O 2609   4.404   6.402   2.618
  697WAT     H1 2610   4.374   6.390   2.708
  697WAT     H2 2611   4.394   6.316   2.577
  698WAT      O 2612   3.994   6.656   3.126
  698WAT     H1 2613   3.950   6.674   3.209
  698WAT     H2 2614   4.050   6.732   3.112
  699WAT      O 2615   5.557   6.606   3.555
  699WAT     H1 2616   5.497   6.612   3.480
  699WAT     H2 2617   5.570   6.512   3.567
  700WAT      O 2618   3.977   5.907   2.762
  700WAT     H1 2619   3.911   5.880   2.697
  700WAT     H2 2620   4.061   5.896   2.717
  701WAT      O 2621   5.426   6.279   3.364
  701WAT     H1 2622   5.344   6.322   3.391
  701WAT     H2 2623   5.466   6.340   3.303
  702WAT      O 2624   5.632   6.084   2.054
  702WAT     H1 2625   5.659   6.175   2.041
  702WAT     H2 2626   5.613   6.078   2.148
  703WAT      O 2627   5.272   5.387   2.184
  703WAT     H1 2628   5.314   5.368   2.100
  703WAT     H2 2629   5.241   5.301   2.215
  704WAT      O 2630   5.622   5.878   2.554
  704WAT     H1 2631   5.584   5.801   2.510
  704WAT     H2 2632   5.549   5.916   2.602
  705WAT      O 2633   4.081   5.946   3.216
  705WAT     H1 2634   4.117   5.937   3.304
  705WAT     H2 2635   4.024   5.869   3.206
  706WAT      O 2636   5.561   5.793   3.517
  706WAT     H1 2637   5.537   5.770   3.427
  706WAT     H2 2638   5.587   5.885   3.512
  707WAT      O 2639   4.036   5.637   3.606
  707WAT     H1 2640   3.946   5.633   3.640
  707WAT     H2 2641   4.090   5.657   3.683
  708WAT      O 2642   5.405   5.315   3.795
  708WAT     H1 2643   5.492   5.316   3.833
  708WAT     H2 2644   5.406   5.241   3.734
  709WAT      O 2645   3.898   5.628   2.356
  709WAT     H1 2646   3.808   5.654   2.338
  709WAT     H2 2647   3.947   5.655   2.278
  710WAT      O 2648   5.549   5.700   2.884
  710WAT     H1 2649   5.602   5.651   2.821
  710WAT     H2 2650   5.608   5.714   2.958
  711WAT      O 2651   5.567   5.709   3.236
  711WAT     H1 2652   5.472   5.705   3.247
  711WAT     H2 2653   5.585   5.800   3.212
  712WAT      O 2654   4.152   5.534   2.147
  712WAT     H1 2655   4.223   5.492   2.098
  712WAT     H2 2656   4.081   5.541   2.084
  713WAT      O 2657   4.117   5.139   2.051
  713WAT     H1 2658   4.190   5.193   2.083
  713WAT     H2 2659   4.144   5.112   1.963
  714WAT      O 2660   5.498   5.626   2.478
  714WAT     H1 2661   5.548   5.603   2.556
  714WAT     H2 2662   5.478   5.542   2.436
  715WAT      O 2663   4.086   5.064   3.041
  715WAT     H1 2664   4.151   5.009   2.997
  715WAT     H2 2665   4.128   5.090   3.123
  716WAT      O 2666   5.476   5.084   3.377
  716WAT     H1 2667   5.539   5.145   3.413
  716WAT     H2 2668   5.490   5.087   3.282
  717WAT      O 2669   5.431   6.754   2.717
  717WAT     H1 2670   5.491   6.722   2.649
  717WAT     H2 2671   5.457   6.707   2.796
  718WAT      O 2672   4.061   5.080   3.315
  718WAT     H1 2673   4.027   5.125   3.392
  718WAT     H2 2674   4.028   4.990   3.324
  719WAT      O 2675   4.222   6.397   3.732
  719WAT     H1 2676   4.218   6.360   3.820
  719WAT     H2 2677   4.235   6.491   3.746
  720WAT      O 2678   4.592   6.553   3.292
  720WAT     H1 2679   4.568   6.579   3.203
  720WAT     H2 2680   4.686   6.570   3.297
  721WAT      O 2681   4.813   5.199   3.668
  721WAT     H1 2682   4.807   5.258   3.742
  721WAT     H2 2683   4.907   5.188   3.653
  722WAT      O 2684   5.076   5.165   3.631
  722WAT     H1 2685   5.138   5.196   3.565
  722WAT     H2 2686   5.131   5.116   3.693
  723WAT      O 2687   4.129   5.033   3.643
  723WAT     H1 2688   4.183   5.014   3.566
  723WAT     H2 2689   4.135   4.954   3.696
  724WAT      O 2690   4.206   6.692   3.444
  724WAT     H1 2691   4.147   6.678   3.518
  724WAT     H2 2692   4.205   6.608   3.397
  725WAT      O 2693   5.151   5.021   3.264
  725WAT     H1 2694   5.063   5.054   3.244
  725WAT     H2 2695   5.140   4.974   3.347
  726WAT      O 2696   5.241   5.242   3.403
  726WAT     H1 2697   5.208   5.160   3.365
  726WAT     H2 2698   5.336   5.237   3.390
  727WAT      O 2699   5.487   6.819   3.100
  727WAT     H1 2700   5.441   6.894   3.063
  727WAT     H2 2701   5.424   6.747   3.094
  728WAT      O 2702   4.169   6.428   3.339
  728WAT     H1 2703   4.096   6.366   3.332
  728WAT     H2 2704   4.175   6.468   3.252
  729WAT      O 2705   4.530   6.650   3.017
  729WAT     H1 2706   4.581   6.589   2.965
  729WAT     H2 2707   4.595   6.700   3.067
  730WAT      O 2708   4.804   6.739   3.100
  730WAT     H1 2709   4.832   6.713   3.012
  730WAT     H2 2710   4.855   6.684   3.159
  731WAT      O 2711   4.925   5.113   3.158
  731WAT     H1 2712   4.847   5.160   3.186
  731WAT     H2 2713   4.896   5.022   3.147
  732WAT      O 2714   5.380   5.183   2.963
  732WAT     H1 2715   5.425   5.177   2.878
  732WAT     H2 2716   5.354   5.274   2.970
  733WAT      O 2717   5.567   5.146   2.764
  733WAT     H1 2718   5.561   5.052   2.749
  733WAT     H2 2719   5.645   5.157   2.818
  734WAT      O 2720   3.997   6.760   2.660
  734WAT     H1 2721   3.981   6.697   2.730
  734WAT     H2 2722   3.911   6.781   2.625
  735WAT      O 2723   4.060   5.143   2.410
  735WAT     H1 2724   4.135   5.154   2.353
  735WAT     H2 2725   4.013   5.227   2.406
  736WAT      O 2726   4.714   5.355   2.709
  736WAT     H1 2727   4.633   5.317   2.675
  736WAT     H2 2728   4.764   5.279   2.739
  737WAT      O 2729   5.164   5.021   2.833
  737WAT     H1 2730   5.224   5.078   2.881
  737WAT     H2 2731   5.090   5.077   2.811
  738WAT      O 2732   5.478   5.061   2.360
  738WAT     H1 2733   5.498   5.151   2.387
  738WAT     H2 2734   5.400   5.038   2.410
  739WAT      O 2735   4.158   6.629   2.404
  739WAT     H1 2736   4.106   6.667   2.334
  739WAT     H2 2737   4.150   6.692   2.476
  740WAT      O 2738   4.297   5.196   2.264
  740WAT     H1 2739   4.350   5.117   2.251
  740WAT     H2 2740   4.360   5.264   2.288
  741WAT      O 2741   4.516   5.170   2.570
  741WAT     H1 2742   4.453   5.099   2.586
  741WAT     H2 2743   4.462   5.246   2.548
  742WAT      O 2744   4.810   6.831   3.837
  742WAT     H1 2745   4.903   6.807   3.841
  742WAT     H2 2746   4.809   6.914   3.789
  743WAT      O 2747   5.634   6.785   2.537
  743WAT     H1 2748   5.651   6.717   2.472
  743WAT     H2 2749   5.564   6.838   2.497
  744WAT      O 2750   4.529   5.097   3.813
  744WAT     H1 2751   4.501   5.148   3.737
  744WAT     H2 2752   4.567   5.018   3.777
  745WAT      O 2753   4.418   6.824   2.292
  745WAT     H1 2754   4.491   6.796   2.237
  745WAT     H2 2755   4.444   6.800   2.381
  746WAT      O 2756   4.334   6.436   2.292
  746WAT     H1 2757   4.271   6.483   2.347
  746WAT     H2 2758   4.346   6.351   2.336
  747WAT      O 2759   5.189   5.039   3.871
  747WAT     H1 2760   5.178   5.071   3.961
  747WAT     H2 2761   5.271   5.079   3.841
  748WAT      O 2762   5.467   6.754   3.819
  748WAT     H1 2763   5.546   6.704   3.798
  748WAT     H2 2764   5.496   6.822   3.880
  749WAT      O 2765   5.080   5.841   0.907
  749WAT     H1 2766   5.072   5.749   0.880
  749WAT     H2 2767   5.038   5.891   0.837
  750WAT      O 2768   4.893   6.019   1.095
  750WAT     H1 2769   4.815   5.971   1.124
  750WAT     H2 2770   4.958   5.951   1.078
  751WAT      O 2771   4.294   6.050   1.183
  751WAT     H1 2772   4.211   6.024   1.223
  751WAT     H2 2773   4.355   6.057   1.257
  752WAT      O 2774   5.295   6.459   0.973
  752WAT     H1 2775   5.249   6.382   1.006
  752WAT     H2 2776   5.376   6.462   1.024
  753WAT      O 2777   4.292   6.453   1.203
  753WAT     H1 2778   4.323   6.364   1.185
  753WAT     H2 2779   4.367   6.509   1.180
  754WAT      O 2780   4.135   5.546   0.562
  754WAT     H1 2781   4.047   5.580   0.551
  754WAT     H2 2782   4.164   5.526   0.472
  755WAT      O 2783   3.932   5.806   1.150
  755WAT     H1 2784   3.989   5.729   1.150
  755WAT     H2 2785   3.932   5.836   1.059
  756WAT      O 2786   4.917   6.688   0.935
  756WAT     H1 2787   4.856   6.733   0.878
  756WAT     H2 2788   5.003   6.703   0.895
  757WAT      O 2789   4.837   6.286   1.096
  757WAT     H1 2790   4.830   6.192   1.080
  757WAT     H2 2791   4.913   6.295   1.153
  758WAT      O 2792   4.056   5.347   1.329
  758WAT     H1 2793   4.038   5.257   1.357
  758WAT     H2 2794   4.016   5.401   1.396
  759WAT      O 2795   4.940   5.567   1.119
  759WAT     H1 2796   4.978   5.480   1.108
  759WAT     H2 2797   4.930   5.600   1.030
  760WAT      O 2798   4.353   5.404   0.665
  760WAT     H1 2799   4.364   5.494   0.696
  760WAT     H2 2800   4.262   5.399   0.636
  761WAT      O 2801   5.318   5.316   0.812
  761WAT     H1 2802   5.400   5.267   0.816
  761WAT     H2 2803   5.322   5.375   0.887
  762WAT      O 2804   4.118   5.596   1.190
  762WAT     H1 2805   4.186   5.623   1.251
  762WAT     H2 2806   4.086   5.512   1.223
  763WAT      O 2807   4.537   5.701   1.098
  763WAT     H1 2808   4.588   5.751   1.162
  763WAT     H2 2809   4.590   5.623   1.081
  764WAT      O 2810   4.365   5.165   1.525
  764WAT     H1 2811   4.366   5.217   1.444
  764WAT     H2 2812   4.282   5.117   1.523
  765WAT      O 2813   5.004   6.176   0.675
  765WAT     H1 2814   4.942   6.223   0.618
  765WAT     H2 2815   5.055   6.245   0.716
  766WAT      O 2816   4.490   6.129   1.343
  766WAT     H1 2817   4.457   6.192   1.407
  766WAT     H2 2818   4.508   6.182   1.265
  767WAT      O 2819   5.342   5.510   1.089
  767WAT     H1 2820   5.271   5.539   1.147
  767WAT     H2 2821   5.378   5.591   1.053
  768WAT      O 2822   4.334   5.336   1.326
  768WAT     H1 2823   4.368   5.421   1.296
  768WAT     H2 2824   4.240   5.351   1.337
  769WAT      O 2825   4.412   6.326   1.524
  769WAT     H1 2826   4.473   6.393   1.496
  769WAT     H2 2827   4.326   6.367   1.515
  770WAT      O 2828   3.941   6.245   0.412
  770WAT     H1 2829   3.903   6.294   0.339
  770WAT     H2 2830   3.967   6.312   0.475
  771WAT      O 2831   5.503   6.472   1.316
  771WAT     H1 2832   5.435   6.539   1.315
  771WAT     H2 2833   5.557   6.492   1.239
  772WAT      O 2834   5.649   5.455   1.128
  772WAT     H1 2835   5.554   5.458   1.142
  772WAT     H2 2836   5.681   5.536   1.167
  773WAT      O 2837   4.702   5.085   0.958
  773WAT     H1 2838   4.733   5.029   0.886
  773WAT     H2 2839   4.609   5.098   0.940
  774WAT      O 2840   5.257   6.657   1.187
  774WAT     H1 2841   5.258   6.616   1.100
  774WAT     H2 2842   5.202   6.734   1.177
  775WAT      O 2843   5.386   6.329   0.696
  775WAT     H1 2844   5.375   6.235   0.709
  775WAT     H2 2845   5.386   6.365   0.785
  776WAT      O 2846   5.197   6.147   1.320
  776WAT     H1 2847   5.239   6.126   1.236
  776WAT     H2 2848   5.269   6.173   1.377
  777WAT      O 2849   4.941   5.891   0.632
  777WAT     H1 2850   4.848   5.885   0.655
  777WAT     H2 2851   4.956   5.985   0.620
  778WAT      O 2852   4.939   5.519   0.331
  778WAT     H1 2853   4.845   5.535   0.340
  778WAT     H2 2854   4.971   5.590   0.277
  779WAT      O 2855   5.591   5.987   1.329
  779WAT     H1 2856   5.509   5.994   1.282
  779WAT     H2 2857   5.651   6.045   1.282
  780WAT      O 2858   5.344   6.048   0.682
  780WAT     H1 2859   5.282   6.014   0.617
  780WAT     H2 2860   5.342   5.983   0.753
  781WAT      O 2861   5.288   5.665   1.424
  781WAT     H1 2862   5.247   5.748   1.449
  781WAT     H2 2863   5.215   5.607   1.404
  782WAT      O 2864   4.501   5.944   0.910
  782WAT     H1 2865   4.461   5.873   0.860
  782WAT     H2 2866   4.510   5.910   0.999
  783WAT      O 2867   4.548   6.313   1.126
  783WAT     H1 2868   4.518   6.252   1.058
  783WAT     H2 2869   4.643   6.317   1.115
  784WAT      O 2870   4.373   5.621   1.288
  784WAT     H1 2871   4.428   5.632   1.210
  784WAT     H2 2872   4.424   5.659   1.359
  785WAT      O 2873   5.357   6.670   1.492
  785WAT     H1 2874   5.309   6.751   1.473
  785WAT     H2 2875   5.289   6.605   1.508
  786WAT      O 2876   4.457   6.287   1.791
  786WAT     H1 2877   4.368   6.309   1.816
  786WAT     H2 2878   4.460   6.299   1.696
  787WAT      O 2879   5.161   5.971   0.383
  787WAT     H1 2880   5.205   5.888   0.368
  787WAT     H2 2881   5.233   6.035   0.391
  788WAT      O 2882   4.340   5.974   1.649
  788WAT     H1 2883   4.326   6.061   1.686
  788WAT     H2 2884   4.252   5.939   1.634
  789WAT      O 2885   4.972   6.465   0.780
  789WAT     H1 2886   5.016   6.540   0.738
  789WAT     H2 2887   4.966   6.490   0.872
  790WAT      O 2888   4.520   6.568   1.870
  790WAT     H1 2889   4.517   6.608   1.783
  790WAT     H2 2890   4.503   6.475   1.853
  791WAT      O 2891   5.519   5.097   0.214
  791WAT     H1 2892   5.488   5.106   0.304
  791WAT     H2 2893   5.596   5.155   0.209
  792WAT      O 2894   4.171   5.834   0.660
  792WAT     H1 2895   4.159   5.906   0.599
  792WAT     H2 2896   4.140   5.757   0.612
  793WAT      O 2897   3.935   6.151   1.241
  793WAT     H1 2898   3.943   6.164   1.146
  793WAT     H2 2899   3.997   6.080   1.260
  794WAT      O 2900   4.060   6.321   0.882
  794WAT     H1 2901   4.019   6.335   0.796
  794WAT     H2 2902   4.149   6.292   0.861
  795WAT      O 2903   5.655   6.365   1.715
  795WAT     H1 2904   5.668   6.341   1.624
  795WAT     H2 2905   5.659   6.282   1.763
  796WAT      O 2906   5.041   6.736   1.572
  796WAT     H1 2907   5.093   6.727   1.653
  796WAT     H2 2908   4.957   6.770   1.602
  797WAT      O 2909   5.239   6.764   0.515
  797WAT     H1 2910   5.223   6.735   0.605
  797WAT     H2 2911   5.222   6.687   0.462
  798WAT      O 2912   4.487   6.742   0.693
  798WAT     H1 2913   4.469   6.650   0.672
  798WAT     H2 2914   4.401   6.778   0.717
  799WAT      O 2915   5.209   6.515   0.371
  799WAT     H1 2916   5.140   6.515   0.305
  799WAT     H2 2917   5.283   6.473   0.328
  800WAT      O 2918   5.166   6.678   0.779
  800WAT     H1 2919   5.211   6.600   0.810
  800WAT     H2 2920   5.200   6.749   0.833
  801WAT      O 2921   5.640   5.571   1.812
  801WAT     H1 2922   5.579   5.621   1.759
  801WAT     H2 2923   5.608   5.481   1.806
  802WAT      O 2924   3.941   6.255   1.495
  802WAT     H1 2925   3.957   6.208   1.413
  802WAT     H2 2926   3.987   6.204   1.561
  803WAT      O 2927   4.418   5.168   0.998
  803WAT     H1 2928   4.374   5.246   0.965
  803WAT     H2 2929   4.474   5.200   1.069
  804WAT      O 2930   4.847   5.455   1.558
  804WAT     H1 2931   4.800   5.475   1.640
  804WAT     H2 2932   4.806   5.373   1.528
  805WAT      O 2933   5.347   5.577   1.671
  805WAT     H1 2934   5.262   5.547   1.704
  805WAT     H2 2935   5.331   5.601   1.580
  806WAT      O 2936   5.056   5.727   1.881
  806WAT     H1 2937   5.089   5.643   1.847
  806WAT     H2 2938   5.135   5.779   1.896
  807WAT      O 2939   4.729   5.130   0.486
  807WAT     H1 2940   4.667   5.130   0.559
  807WAT     H2 2941   4.721   5.043   0.447
  808WAT      O 2942   4.622   5.222   1.184
  808WAT     H1 2943   4.651   5.313   1.176
  808WAT     H2 2944   4.677   5.174   1.123
  809WAT      O 2945   4.397   5.680   0.771
  809WAT     H1 2946   4.374   5.659   0.861
  809WAT     H2 2947   4.319   5.723   0.736
  810WAT      O 2948   5.120   5.681   0.631
  810WAT     H1 2949   5.060   5.753   0.612
  810WAT     H2 2950   5.175   5.675   0.553
  811WAT      O 2951   4.641   5.770   1.838
  811WAT     H1 2952   4.631   5.676   1.823
  811WAT     H2 2953   4.725   5.792   1.798
  812WAT      O 2954   4.981   5.544   0.834
  812WAT     H1 2955   5.020   5.576   0.753
  812WAT     H2 2956   5.017   5.457   0.845
  813WAT      O 2957   4.154   5.411   1.653
  813WAT     H1 2958   4.115   5.496   1.674
  813WAT     H2 2959   4.085   5.347   1.672
  814WAT      O 2960   4.812   5.420   1.960
  814WAT     H1 2961   4.743   5.400   2.023
  814WAT     H2 2962   4.886   5.448   2.013
  815WAT      O 2963   3.884   5.203   1.056
  815WAT     H1 2964   3.855   5.261   1.127
  815WAT     H2 2965   3.959   5.156   1.093
  816WAT      O 2966   5.039   5.804   1.243
  816WAT     H1 2967   4.966   5.854   1.278
  816WAT     H2 2968   4.999   5.722   1.213
  817WAT      O 2969   4.683   5.471   1.084
  817WAT     H1 2970   4.683   5.427   0.999
  817WAT     H2 2971   4.773   5.503   1.095
  818WAT      O 2972   4.268   5.459   0.980
  818WAT     H1 2973   4.234   5.507   1.056
  818WAT     H2 2974   4.192   5.414   0.944
  819WAT      O 2975   4.689   5.571   0.383
  819WAT     H1 2976   4.701   5.567   0.478
  819WAT     H2 2977   4.651   5.657   0.367
  820WAT      O 2978   5.085   5.349   1.185
  820WAT     H1 2979   5.087   5.394   1.269
  820WAT     H2 2980   5.061   5.259   1.206
  821WAT      O 2981   4.590   5.802   0.323
  821WAT     H1 2982   4.534   5.757   0.260
  821WAT     H2 2983   4.661   5.838   0.269
  822WAT      O 2984   5.428   5.090   1.768
  822WAT     H1 2985   5.461   5.017   1.821
  822WAT     H2 2986   5.432   5.058   1.678
  823WAT      O 2987   4.098   6.192   1.710
  823WAT     H1 2988   4.060   6.128   1.770
  823WAT     H2 2989   4.129   6.263   1.767
  824WAT      O 2990   4.713   5.877   1.259
  824WAT     H1 2991   4.750   5.830   1.333
  824WAT     H2 2992   4.694   5.965   1.293
  825WAT      O 2993   3.999   5.352   0.872
  825WAT     H1 2994   3.971   5.315   0.955
  825WAT     H2 2995   3.993   5.278   0.810
  826WAT      O 2996   4.492   5.781   1.490
  826WAT     H1 2997   4.462   5.869   1.513
  826WAT     H2 2998   4.588   5.787   1.494
  827WAT      O 2999   4.345   6.202   0.550
  827WAT     H1 3000   4.268   6.148   0.534
  827WAT     H2 3001   4.418   6.150   0.516
  828WAT      O 3002   5.421   6.101   1.129
  828WAT     H1 3003   5.493   6.151   1.090
  828WAT     H2 3004   5.401   6.034   1.065
  829WAT      O 3005   4.967   5.241   0.544
  829WAT     H1 3006   4.886   5.191   0.536
  829WAT     H2 3007   4.947   5.325   0.502
  830WAT      O 3008   4.959   6.109   1.718
  830WAT     H1 3009   4.952   6.016   1.693
  830WAT     H2 3010   4.896   6.118   1.789
  831WAT      O 3011   5.238   5.678   0.373
  831WAT     H1 3012   5.327   5.709   0.356
  831WAT     H2 3013   5.235   5.591   0.334
  832WAT      O 3014   4.349   6.169   0.914
  832WAT     H1 3015   4.401   6.088   0.908
  832WAT     H2 3016   4.304   6.162   0.998
  833WAT      O 3017   4.838   6.295   0.441
  833WAT     H1 3018   4.872   6.370   0.392
  833WAT     H2 3019   4.755   6.327   0.477
  834WAT      O 3020   4.098   5.865   1.605
  834WAT     H1 3021   4.062   5.932   1.664
  834WAT     H2 3022   4.068   5.782   1.642
  835WAT      O 3023   4.418   5.911   1.894
  835WAT     H1 3024   4.388   5.926   1.804
  835WAT     H2 3025   4.495   5.855   1.884
  836WAT      O 3026   4.952   6.391   1.693
  836WAT     H1 3027   4.954   6.298   1.671
  836WAT     H2 3028   4.881   6.399   1.757
  837WAT      O 3029   5.466   5.809   0.320
  837WAT     H1 3030   5.457   5.852   0.235
  837WAT     H2 3031   5.537   5.855   0.363
  838WAT      O 3032   5.573   6.055   1.628
  838WAT     H1 3033   5.501   6.114   1.608
  838WAT     H2 3034   5.626   6.054   1.548
  839WAT      O 3035   5.568   6.495   0.593
  839WAT     H1 3036   5.504   6.429   0.620
  839WAT     H2 3037   5.530   6.535   0.515
  840WAT      O 3038   5.126   6.227   0.978
  840WAT     H1 3039   5.161   6.168   0.912
  840WAT     H2 3040   5.038   6.195   0.995
  841WAT      O 3041   4.735   6.303   0.718
  841WAT     H1 3042   4.804   6.358   0.756
  841WAT     H2 3043   4.656   6.358   0.722
  842WAT      O 3044   3.949   5.865   0.267
  842WAT     H1 3045   4.036   5.893   0.296
  842WAT     H2 3046   3.900   5.946   0.256
  843WAT      O 3047   4.665   6.004   0.680
  843WAT     H1 3048   4.711   6.085   0.702
  843WAT     H2 3049   4.630   5.972   0.763
  844WAT      O 3050   4.895   6.555   1.402
  844WAT     H1 3051   4.960   6.576   1.470
  844WAT     H2 3052   4.932   6.479   1.357
  845WAT      O 3053   4.255   5.038   0.727
  845WAT     H1 3054   4.242   5.037   0.822
  845WAT     H2 3055   4.173   5.072   0.692
  846WAT      O 3056   5.023   6.355   1.274
  846WAT     H1 3057   5.087   6.285   1.286
  846WAT     H2 3058   5.075   6.433   1.256
  847WAT      O 3059   5.407   6.384   0.247
  847WAT     H1 3060   5.385   6.312   0.306
  847WAT     H2 3061   5.368   6.359   0.163
  848WAT      O 3062   5.200   6.435   1.595
  848WAT     H1 3063   5.234   6.494   1.662
  848WAT     H2 3064   5.108   6.422   1.618
  849WAT      O 3065   3.986   6.786   0.324
  849WAT     H1 3066   4.021   6.846   0.259
  849WAT     H2 3067   3.971   6.841   0.401
  850WAT      O 3068   3.955   5.214   1.673
  850WAT     H1 3069   3.884   5.234   1.733
  850WAT     H2 3070   3.997   5.137   1.710
  851WAT      O 3071   5.366   6.175   0.413
  851WAT     H1 3072   5.337   6.222   0.492
  851WAT     H2 3073   5.445   6.129   0.440
  852WAT      O 3074   3.984   6.613   1.772
  852WAT     H1 3075   3.995   6.519   1.757
  852WAT     H2 3076   3.919   6.639   1.707
  853WAT      O 3077   4.783   6.440   1.912
  853WAT     H1 3078   4.751   6.368   1.966
  853WAT     H2 3079   4.716   6.508   1.919
  854WAT      O 3080   4.587   6.525   0.406
  854WAT     H1 3081   4.586   6.598   0.344
  854WAT     H2 3082   4.495   6.500   0.415
  855WAT      O 3083   4.147   6.047   0.480
  855WAT     H1 3084   4.087   6.121   0.481
  855WAT     H2 3085   4.195   6.056   0.398
  856WAT      O 3086   5.105   5.463   1.448
  856WAT     H1 3087   5.141   5.381   1.481
  856WAT     H2 3088   5.019   5.469   1.489
  857WAT      O 3089   5.441   5.359   0.529
  857WAT     H1 3090   5.378   5.369   0.457
  857WAT     H2 3091   5.392   5.381   0.608
  858WAT      O 3092   4.886   6.531   0.272
  858WAT     H1 3093   4.896   6.511   0.179
  858WAT     H2 3094   4.796   6.506   0.293
  859WAT      O 3095   4.638   5.587   0.670
  859WAT     H1 3096   4.567   5.634   0.714
  859WAT     H2 3097   4.666   5.521   0.734
  860WAT      O 3098   4.801   5.729   1.470
  860WAT     H1 3099   4.850   5.776   1.537
  860WAT     H2 3100   4.815   5.636   1.491
  861WAT      O 3101   5.041   5.259   0.814
  861WAT     H1 3102   5.029   5.261   0.719
  861WAT     H2 3103   5.136   5.264   0.826
  862WAT      O 3104   4.750   6.783   0.742
  862WAT     H1 3105   4.775   6.779   0.649
  862WAT     H2 3106   4.655   6.770   0.741
  863WAT      O 3107   4.458   5.418   0.408
  863WAT     H1 3108   4.543   5.461   0.401
  863WAT     H2 3109   4.422   5.449   0.491
  864WAT      O 3110   5.521   5.350   1.555
  864WAT     H1 3111   5.471   5.424   1.588
  864WAT     H2 3112   5.603   5.389   1.523
  865WAT      O 3113   5.350   5.875   0.899
  865WAT     H1 3114   5.256   5.876   0.917
  865WAT     H2 3115   5.382   5.796   0.944
  866WAT      O 3116   4.348   6.043   0.255
  866WAT     H1 3117   4.425   6.032   0.311
  866WAT     H2 3118   4.356   5.973   0.190
  867WAT      O 3119   4.218   5.786   0.324
  867WAT     H1 3120   4.226   5.691   0.335
  867WAT     H2 3121   4.307   5.819   0.334
  868WAT      O 3122   5.551   6.592   1.067
  868WAT     H1 3123   5.563   6.674   1.114
  868WAT     H2 3124   5.637   6.571   1.032
  869WAT      O 3125   4.298   6.801   1.034
  869WAT     H1 3126   4.372   6.746   1.061
  869WAT     H2 3127   4.336   6.888   1.020
  870WAT      O 3128   3.986   6.408   0.621
  870WAT     H1 3129   3.894   6.432   0.620
  870WAT     H2 3130   4.033   6.491   0.609
  871WAT      O 3131   4.199   6.720   1.953
  871WAT     H1 3132   4.279   6.752   1.994
  871WAT     H2 3133   4.147   6.684   2.025
  872WAT      O 3134   4.609   6.718   0.216
  872WAT     H1 3135   4.688   6.747   0.171
  872WAT     H2 3136   4.557   6.675   0.148
  873WAT      O 3137   5.082   6.330   1.947
  873WAT     H1 3138   5.022   6.333   1.873
  873WAT     H2 3139   5.052   6.257   2.001
  874WAT      O 3140   5.225   6.703   1.809
  874WAT     H1 3141   5.320   6.695   1.804
  874WAT     H2 3142   5.210   6.770   1.876
  875WAT      O 3143   5.514   6.641   0.358
  875WAT     H1 3144   5.486   6.600   0.277
  875WAT     H2 3145   5.494   6.734   0.346
  876WAT      O 3146   3.970   5.968   1.847
  876WAT     H1 3147   4.021   5.910   1.904
  876WAT     H2 3148   3.897   5.997   1.901
  877WAT      O 3149   4.676   6.109   1.800
  877WAT     H1 3150   4.599   6.166   1.792
  877WAT     H2 3151   4.694   6.080   1.711
  878WAT      O 3152   4.985   6.147   0.263
  878WAT     H1 3153   4.930   6.191   0.327
  878WAT     H2 3154   5.047   6.096   0.315
  879WAT      O 3155   5.390   6.282   1.856
  879WAT     H1 3156   5.464   6.316   1.806
  879WAT     H2 3157   5.314   6.299   1.801
  880WAT      O 3158   4.174   5.783   1.937
  880WAT     H1 3159   4.178   5.753   2.027
  880WAT     H2 3160   4.259   5.823   1.921
  881WAT      O 3161   4.552   6.043   0.453
  881WAT     H1 3162   4.594   6.026   0.537
  881WAT     H2 3163   4.564   5.962   0.403
  882WAT      O 3164   4.368   5.641   1.733
  882WAT     H1 3165   4.315   5.591   1.671
  882WAT     H2 3166   4.435   5.683   1.680
  883WAT      O 3167   5.258   6.087   1.710
  883WAT     H1 3168   5.299   6.103   1.795
  883WAT     H2 3169   5.164   6.100   1.726
  884WAT      O 3170   5.305   5.821   1.910
  884WAT     H1 3171   5.363   5.746   1.901
  884WAT     H2 3172   5.322   5.874   1.832
  885WAT      O 3173   4.417   5.337   1.741
  885WAT     H1 3174   4.407   5.275   1.669
  885WAT     H2 3175   4.358   5.410   1.719
  886WAT      O 3176   4.693   5.193   1.445
  886WAT     H1 3177   4.648   5.195   1.360
  886WAT     H2 3178   4.630   5.153   1.504
  887WAT      O 3179   4.734   6.082   1.507
  887WAT     H1 3180   4.776   6.167   1.489
  887WAT     H2 3181   4.642   6.096   1.484
  888WAT      O 3182   4.967   5.856   1.645
  888WAT     H1 3183   4.979   5.796   1.719
  888WAT     H2 3184   5.053   5.859   1.603
  889WAT      O 3185   5.201   5.911   1.503
  889WAT     H1 3186   5.149   5.963   1.442
  889WAT     H2 3187   5.236   5.974   1.566
  890WAT      O 3188   4.519   6.713   1.618
  890WAT     H1 3189   4.465   6.785   1.586
  890WAT     H2 3190   4.544   6.665   1.539
  891WAT      O 3191   4.644   5.510   1.771
  891WAT     H1 3192   4.703   5.479   1.840
  891WAT     H2 3193   4.562   5.463   1.786
  892WAT      O 3194   5.126   5.472   1.794
  892WAT     H1 3195   5.057   5.405   1.788
  892WAT     H2 3196   5.198   5.427   1.839
  893WAT      O 3197   5.189   5.131   0.400
  893WAT     H1 3198   5.217   5.047   0.436
  893WAT     H2 3199   5.112   5.154   0.451
  894WAT      O 3200   4.804   6.837   1.644
  894WAT     H1 3201   4.797   6.927   1.675
  894WAT     H2 3202   4.714   6.805   1.641
  895WAT      O 3203   4.643   5.254   0.245
  895WAT     H1 3204   4.608   5.187   0.187
  895WAT     H2 3205   4.663   5.208   0.326
  896WAT      O 3206   4.859   6.753   0.406
  896WAT     H1 3207   4.949   6.787   0.409
  896WAT     H2 3208   4.862   6.681   0.344
  897WAT      O 3209   4.223   6.290   0.229
  897WAT     H1 3210   4.267   6.345   0.295
  897WAT     H2 3211   4.272   6.208   0.230
  898WAT      O 3212   3.945   6.569   0.974
  898WAT     H1 3213   3.978   6.482   0.951
  898WAT     H2 3214   3.988   6.590   1.058
  899WAT      O 3215   4.404   6.402   0.740
  899WAT     H1 3216   4.374   6.390   0.831
  899WAT     H2 3217   4.394   6.316   0.700
  900WAT      O 3218   3.994   6.656   1.248
  900WAT     H1 3219   3.950   6.674   1.332
  900WAT     H2 3220   4.050   6.732   1.234
  901WAT      O 3221   5.557   6.606   1.677
  901WAT     H1 3222   5.497   6.612   1.603
  901WAT     H2 3223   5.570   6.512   1.690
  902WAT      O 3224   3.977   5.907   0.884
  902WAT     H1 3225   3.911   5.880   0.820
  902WAT     H2 3226   4.061   5.896   0.839
  903WAT      O 3227   5.426   6.279   1.487
  903WAT     H1 3228   5.344   6.322   1.513
  903WAT     H2 3229   5.466   6.340   1.426
  904WAT      O 3230   5.632   6.084   0.177
  904WAT     H1 3231   5.659   6.175   0.164
  904WAT     H2 3232   5.613   6.078   0.270
  905WAT      O 3233   5.272   5.387   0.306
  905WAT     H1 3234   5.314   5.368   0.222
  905WAT     H2 3235   5.241   5.301   0.337
  906WAT      O 3236   5.622   5.878   0.676
  906WAT     H1 3237   5.584   5.801   0.633
  906WAT     H2 3238   5.549   5.916   0.725
  907WAT      O 3239   4.081   5.946   1.338
  907WAT     H1 3240   4.117   5.937   1.426
  907WAT     H2 3241   4.024   5.869   1.328
  908WAT      O 3242   5.561   5.793   1.640
  908WAT     H1 3243   5.537   5.770   1.549
  908WAT     H2 3244   5.587   5.885   1.635
  909WAT      O 3245   4.036   5.637   1.729
  909WAT     H1 3246   3.946   5.633   1.763
  909WAT     H2 3247   4.090   5.657   1.805
  910WAT      O 3248   5.405   5.315   1.917
  910WAT     H1 3249   5.492   5.316   1.956
  910WAT     H2 3250   5.406   5.241   1.856
  911WAT      O 3251   3.898   5.628   0.478
  911WAT     H1 3252   3.808   5.654   0.461
  911WAT     H2 3253   3.947   5.655   0.400
  912WAT      O 3254   5.549   5.700   1.006
  912WAT     H1 3255   5.602   5.651   0.943
  912WAT     H2 3256   5.608   5.714   1.081
  913WAT      O 3257   5.567   5.709   1.358
  913WAT     H1 3258   5.472   5.705   1.370
  913WAT     H2 3259   5.585   5.800   1.335
  914WAT      O 3260   4.152   5.534   0.269
  914WAT     H1 3261   4.223   5.492   0.221
  914WAT     H2 3262   4.081   5.541   0.206
  915WAT      O 3263   5.498   5.626   0.600
  915WAT     H1 3264   5.548   5.603   0.679
  915WAT     H2 3265   5.478   5.542   0.558
  916WAT      O 3266   4.086   5.064   1.164
  916WAT     H1 3267   4.151   5.009   1.120
  916WAT     H2 3268   4.128   5.090   1.246
  917WAT      O 3269   5.476   5.084   1.499
  917WAT     H1 3270   5.539   5.145   1.536
  917WAT     H2 3271   5.490   5.087   1.405
  918WAT      O 3272   5.431   6.754   0.840
  918WAT     H1 3273   5.491   6.722   0.772
  918WAT     H2 3274   5.457   6.707   0.919
  919WAT      O 3275   4.061   5.080   1.438
  919WAT     H1 3276   4.027   5.125   1.514
  919WAT     H2 3277   4.028   4.990   1.446
  920WAT      O 3278   4.222   6.397   1.854
  920WAT     H1 3279   4.218   6.360   1.943
  920WAT     H2 3280   4.235   6.491   1.868
  921WAT      O 3281   4.592   6.553   1.415
  921WAT     H1 3282   4.568   6.579   1.326
  921WAT     H2 3283   4.686   6.570   1.420
  922WAT      O 3284   4.813   5.199   1.790
  922WAT     H1 3285   4.807   5.258   1.865
  922WAT     H2 3286   4.907   5.188   1.776
  923WAT      O 3287   5.076   5.165   1.754
  923WAT     H1 3288   5.138   5.196   1.688
  923WAT     H2 3289   5.131   5.116   1.816
  924WAT      O 3290   4.129   5.033   1.765
  924WAT     H1 3291   4.183   5.014   1.689
  924WAT     H2 3292   4.135   4.954   1.819
  925WAT      O 3293   4.206   6.692   1.566
  925WAT     H1 3294   4.147   6.678   1.640
  925WAT     H2 3295   4.205   6.608   1.520
  926WAT      O 3296   5.151   5.021   1.387
  926WAT     H1 3297   5.063   5.054   1.366
  926WAT     H2 3298   5.140   4.974   1.469
  927WAT      O 3299   5.241   5.242   1.525
  927WAT     H1 3300   5.208   5.160   1.487
  927WAT     H2 3301   5.336   5.237   1.513
  928WAT      O 3302   5.487   6.819   1.222
  928WAT     H1 3303   5.441   6.894   1.185
  928WAT     H2 3304   5.424   6.747   1.217
  929WAT      O 3305   4.169   6.428   1.461
  929WAT     H1 3306   4.096   6.366   1.455
  929WAT     H2 3307   4.175   6.468   1.374
  930WAT      O 3308   4.530   6.650   1.140
  930WAT     H1 3309   4.581   6.589   1.087
  930WAT     H2 3310   4.595   6.700   1.189
  931WAT      O 3311   4.804   6.739   1.223
  931WAT     H1 3312   4.832   6.713   1.135
  931WAT     H2 3313   4.855   6.684   1.282
  932WAT      O 3314   4.925   5.113   1.281
  932WAT     H1 3315   4.847   5.160   1.309
  932WAT     H2 3316   4.896   5.022   1.270
  933WAT      O 3317   5.380   5.183   1.085
  933WAT     H1 3318   5.425   5.177   1.000
  933WAT     H2 3319   5.354   5.274   1.092
  934WAT      O 3320   5.567   5.146   0.886
  934WAT     H1 3321   5.561   5.052   0.872
  934WAT     H2 3322   5.645   5.157   0.941
  935WAT      O 3323   3.997   6.760   0.782
  935WAT     H1 3324   3.981   6.697   0.852
  935WAT     H2 3325   3.911   6.781   0.747
  936WAT      O 3326   4.060   5.143   0.533
  936WAT     H1 3327   4.135   5.154   0.475
  936WAT     H2 3328   4.013   5.227   0.528
  937WAT      O 3329   4.714   5.355   0.832
  937WAT     H1 3330   4.633   5.317   0.798
  937WAT     H2 3331   4.764   5.279   0.862
  938WAT      O 3332   5.164   5.021   0.956
  938WAT     H1 3333   5.224   5.078   1.003
  938WAT     H2 3334   5.090   5.077   0.933
  939WAT      O 3335   5.478   5.061   0.483
  939WAT     H1 3336   5.498   5.151   0.510
  939WAT     H2 3337   5.400   5.038   0.532
  940WAT      O 3338   4.158   6.629   0.527
  940WAT     H1 3339   4.106   6.667   0.457
  940WAT     H2 3340   4.150   6.692   0.599
  941WAT      O 3341   4.297   5.196   0.387
  941WAT     H1 3342   4.350   5.117   0.374
  941WAT     H2 3343   4.360   5.264   0.410
  942WAT      O 3344   4.516   5.170   0.692
  942WAT     H1 3345   4.453   5.099   0.709
  942WAT     H2 3346   4.462   5.246   0.671
  943WAT      O 3347   4.810   6.831   1.959
  943WAT     H1 3348   4.903   6.807   1.964
  943WAT     H2 3349   4.809   6.914   1.911
  944WAT      O 3350   5.634   6.785   0.659
  944WAT     H1 3351   5.651   6.717   0.595
  944WAT     H2 3352   5.564   6.838   0.620
  945WAT      O 3353   4.529   5.097   1.936
  945WAT     H1 3354   4.501   5.148   1.859
  945WAT     H2 3355   4.567   5.018   1.899
  946WAT      O 3356   4.418   6.824   0.414
  946WAT     H1 3357   4.491   6.796   0.360
  946WAT     H2 3358   4.444   6.800   0.503
  947WAT      O 3359   4.334   6.436   0.415
  947WAT     H1 3360   4.271   6.483   0.470
  947WAT     H2 3361   4.346   6.351   0.458
  948WAT      O 3362   5.189   5.039   1.994
  948WAT     H1 3363   5.178   5.071   2.083
  948WAT     H2 3364   5.271   5.079   1.964
  949WAT      O 3365   5.467   6.754   1.942
  949WAT     H1 3366   5.546   6.704   1.921
  949WAT     H2 3367   5.496   6.822   2.003
  950WAT      O 3368   5.080   3.963   4.662
  950WAT     H1 3369   5.072   3.872   4.635
  950WAT     H2 3370   5.038   4.013   4.592
  951WAT      O 3371   4.893   4.141   4.850
  951WAT     H1 3372   4.815   4.093   4.879
  951WAT     H2 3373   4.958   4.073   4.833
  952WAT      O 3374   4.294   4.172   4.938
  952WAT     H1 3375   4.211   4.147   4.978
  952WAT     H2 3376   4.355   4.179   5.012
  953WAT      O 3377   5.295   4.582   4.728
  953WAT     H1 3378   5.249   4.505   4.761
  953WAT     H2 3379   5.376   4.584   4.779
  954WAT      O 3380   4.292   4.576   4.958
  954WAT     H1 3381   4.323   4.487   4.940
  954WAT     H2 3382   4.367   4.631   4.935
  955WAT      O 3383   4.135   3.668   4.316
  955WAT     H1 3384   4.047   3.703   4.306
  955WAT     H2 3385   4.164   3.648   4.227
  956WAT      O 3386   3.932   3.928   4.905
  956WAT     H1 3387   3.989   3.852   4.905
  956WAT     H2 3388   3.932   3.958   4.814
  957WAT      O 3389   4.917   4.810   4.690
  957WAT     H1 3390   4.856   4.856   4.633
  957WAT     H2 3391   5.003   4.826   4.650
  958WAT      O 3392   4.837   4.409   4.851
  958WAT     H1 3393   4.830   4.315   4.835
  958WAT     H2 3394   4.913   4.418   4.908
  959WAT      O 3395   4.056   3.469   5.084
  959WAT     H1 3396   4.038   3.380   5.112
  959WAT     H2 3397   4.016   3.524   5.151
  960WAT      O 3398   4.940   3.689   4.874
  960WAT     H1 3399   4.978   3.602   4.862
  960WAT     H2 3400   4.930   3.723   4.785
  961WAT      O 3401   4.353   3.527   4.420
  961WAT     H1 3402   4.364   3.617   4.451
  961WAT     H2 3403   4.262   3.522   4.391
  962WAT      O 3404   5.318   3.439   4.567
  962WAT     H1 3405   5.400   3.390   4.571
  962WAT     H2 3406   5.322   3.498   4.642
  963WAT      O 3407   4.118   3.719   4.944
  963WAT     H1 3408   4.186   3.745   5.006
  963WAT     H2 3409   4.086   3.635   4.978
  964WAT      O 3410   4.537   3.824   4.853
  964WAT     H1 3411   4.588   3.873   4.917
  964WAT     H2 3412   4.590   3.746   4.836
  965WAT      O 3413   4.365   3.288   5.280
  965WAT     H1 3414   4.366   3.339   5.199
  965WAT     H2 3415   4.282   3.240   5.277
  966WAT      O 3416   5.004   4.299   4.430
  966WAT     H1 3417   4.942   4.345   4.373
  966WAT     H2 3418   5.055   4.368   4.471
  967WAT      O 3419   4.490   4.252   5.097
  967WAT     H1 3420   4.457   4.314   5.162
  967WAT     H2 3421   4.508   4.304   5.020
  968WAT      O 3422   5.342   3.633   4.844
  968WAT     H1 3423   5.271   3.662   4.902
  968WAT     H2 3424   5.378   3.714   4.808
  969WAT      O 3425   4.334   3.459   5.080
  969WAT     H1 3426   4.368   3.543   5.051
  969WAT     H2 3427   4.240   3.474   5.092
  970WAT      O 3428   4.412   4.448   5.279
  970WAT     H1 3429   4.473   4.516   5.251
  970WAT     H2 3430   4.326   4.489   5.270
  971WAT      O 3431   3.941   4.367   4.167
  971WAT     H1 3432   3.903   4.416   4.094
  971WAT     H2 3433   3.967   4.435   4.230
  972WAT      O 3434   5.503   4.595   5.071
  972WAT     H1 3435   5.435   4.662   5.070
  972WAT     H2 3436   5.557   4.615   4.994
  973WAT      O 3437   5.649   3.578   4.883
  973WAT     H1 3438   5.554   3.581   4.897
  973WAT     H2 3439   5.681   3.659   4.922
  974WAT      O 3440   4.702   3.207   4.713
  974WAT     H1 3441   4.733   3.152   4.641
  974WAT     H2 3442   4.609   3.221   4.695
  975WAT      O 3443   5.257   4.779   4.942
  975WAT     H1 3444   5.258   4.739   4.855
  975WAT     H2 3445   5.202   4.857   4.932
  976WAT      O 3446   5.386   4.451   4.451
  976WAT     H1 3447   5.375   4.357   4.463
  976WAT     H2 3448   5.386   4.487   4.540
  977WAT      O 3449   5.197   4.269   5.075
  977WAT     H1 3450   5.239   4.248   4.991
  977WAT     H2 3451   5.269   4.295   5.132
  978WAT      O 3452   4.941   4.014   4.387
  978WAT     H1 3453   4.848   4.007   4.409
  978WAT     H2 3454   4.956   4.108   4.375
  979WAT      O 3455   4.939   3.641   4.086
  979WAT     H1 3456   4.845   3.657   4.095
  979WAT     H2 3457   4.971   3.713   4.032
  980WAT      O 3458   5.591   4.109   5.084
  980WAT     H1 3459   5.509   4.116   5.036
  980WAT     H2 3460   5.651   4.168   5.037
  981WAT      O 3461   5.344   4.170   4.437
  981WAT     H1 3462   5.282   4.136   4.372
  981WAT     H2 3463   5.342   4.106   4.508
  982WAT      O 3464   5.288   3.788   5.179
  982WAT     H1 3465   5.247   3.871   5.204
  982WAT     H2 3466   5.215   3.729   5.159
  983WAT      O 3467   4.501   4.067   4.665
  983WAT     H1 3468   4.461   3.995   4.615
  983WAT     H2 3469   4.510   4.032   4.754
  984WAT      O 3470   4.548   4.435   4.881
  984WAT     H1 3471   4.518   4.375   4.813
  984WAT     H2 3472   4.643   4.439   4.870
  985WAT      O 3473   4.373   3.744   5.043
  985WAT     H1 3474   4.428   3.755   4.965
  985WAT     H2 3475   4.424   3.781   5.114
  986WAT      O 3476   5.357   4.793   5.247
  986WAT     H1 3477   5.309   4.873   5.228
  986WAT     H2 3478   5.289   4.727   5.263
  987WAT      O 3479   4.457   4.409   5.546
  987WAT     H1 3480   4.368   4.432   5.571
  987WAT     H2 3481   4.460   4.421   5.451
  988WAT      O 3482   5.161   4.094   4.138
  988WAT     H1 3483   5.205   4.010   4.123
  988WAT     H2 3484   5.233   4.157   4.146
  989WAT      O 3485   4.340   4.096   5.404
  989WAT     H1 3486   4.326   4.183   5.441
  989WAT     H2 3487   4.252   4.062   5.389
  990WAT      O 3488   4.972   4.588   4.534
  990WAT     H1 3489   5.016   4.662   4.493
  990WAT     H2 3490   4.966   4.612   4.627
  991WAT      O 3491   4.520   4.690   5.625
  991WAT     H1 3492   4.517   4.731   5.538
  991WAT     H2 3493   4.503   4.598   5.608
  992WAT      O 3494   5.519   3.219   3.969
  992WAT     H1 3495   5.488   3.229   4.059
  992WAT     H2 3496   5.596   3.277   3.964
  993WAT      O 3497   4.171   3.956   4.415
  993WAT     H1 3498   4.159   4.029   4.354
  993WAT     H2 3499   4.140   3.879   4.367
  994WAT      O 3500   3.935   4.273   4.995
  994WAT     H1 3501   3.943   4.287   4.901
  994WAT     H2 3502   3.997   4.202   5.015
  995WAT      O 3503   4.060   4.443   4.637
  995WAT     H1 3504   4.019   4.457   4.551
  995WAT     H2 3505   4.149   4.415   4.616
  996WAT      O 3506   5.655   4.488   5.470
  996WAT     H1 3507   5.668   4.464   5.378
  996WAT     H2 3508   5.659   4.405   5.517
  997WAT      O 3509   5.041   4.858   5.327
  997WAT     H1 3510   5.093   4.849   5.407
  997WAT     H2 3511   4.957   4.893   5.356
  998WAT      O 3512   5.239   4.887   4.270
  998WAT     H1 3513   5.223   4.858   4.360
  998WAT     H2 3514   5.222   4.809   4.216
  999WAT      O 3515   4.487   4.865   4.448
  999WAT     H1 3516   4.469   4.773   4.426
  999WAT     H2 3517   4.401   4.901   4.472
 1000WAT      O 3518   5.209   4.638   4.126
 1000WAT     H1 3519   5.140   4.637   4.060
 1000WAT     H2 3520   5.283   4.595   4.083
 1001WAT      O 3521   5.166   4.800   4.533
 1001WAT     H1 3522   5.211   4.722   4.565
 1001WAT     H2 3523   5.200   4.871   4.588
 1002WAT      O 3524   5.640   3.693   5.567
 1002WAT     H1 3525   5.579   3.744   5.514
 1002WAT     H2 3526   5.608   3.603   5.561
 1003WAT      O 3527   3.941   4.377   5.249
 1003WAT     H1 3528   3.957   4.330   5.168
 1003WAT     H2 3529   3.987   4.327   5.316
 1004WAT      O 3530   4.418   3.290   4.753
 1004WAT     H1 3531   4.374   3.369   4.720
 1004WAT     H2 3532   4.474   3.323   4.824
 1005WAT      O 3533   4.847   3.577   5.313
 1005WAT     H1 3534   4.800   3.598   5.395
 1005WAT     H2 3535   4.806   3.496   5.283
 1006WAT      O 3536   5.347   3.699   5.426
 1006WAT     H1 3537   5.262   3.669   5.458
 1006WAT     H2 3538   5.331   3.724   5.335
 1007WAT      O 3539   5.056   3.849   5.636
 1007WAT     H1 3540   5.089   3.766   5.602
 1007WAT     H2 3541   5.135   3.902   5.651
 1008WAT      O 3542   4.729   3.253   4.241
 1008WAT     H1 3543   4.667   3.252   4.314
 1008WAT     H2 3544   4.721   3.166   4.201
 1009WAT      O 3545   4.622   3.345   4.939
 1009WAT     H1 3546   4.651   3.436   4.931
 1009WAT     H2 3547   4.677   3.296   4.878
 1010WAT      O 3548   4.397   3.803   4.526
 1010WAT     H1 3549   4.374   3.781   4.616
 1010WAT     H2 3550   4.319   3.846   4.491
 1011WAT      O 3551   5.120   3.803   4.386
 1011WAT     H1 3552   5.060   3.876   4.367
 1011WAT     H2 3553   5.175   3.797   4.307
 1012WAT      O 3554   4.641   3.893   5.592
 1012WAT     H1 3555   4.631   3.799   5.577
 1012WAT     H2 3556   4.725   3.915   5.553
 1013WAT      O 3557   4.981   3.667   4.589
 1013WAT     H1 3558   5.020   3.699   4.507
 1013WAT     H2 3559   5.017   3.579   4.600
 1014WAT      O 3560   4.154   3.534   5.408
 1014WAT     H1 3561   4.115   3.619   5.428
 1014WAT     H2 3562   4.085   3.470   5.427
 1015WAT      O 3563   3.884   3.326   4.811
 1015WAT     H1 3564   3.855   3.383   4.882
 1015WAT     H2 3565   3.959   3.278   4.847
 1016WAT      O 3566   3.903   3.720   3.932
 1016WAT     H1 3567   3.895   3.815   3.946
 1016WAT     H2 3568   3.868   3.706   3.844
 1017WAT      O 3569   5.039   3.926   4.998
 1017WAT     H1 3570   4.966   3.977   5.033
 1017WAT     H2 3571   4.999   3.844   4.968
 1018WAT      O 3572   4.683   3.594   4.839
 1018WAT     H1 3573   4.683   3.550   4.754
 1018WAT     H2 3574   4.773   3.626   4.850
 1019WAT      O 3575   4.268   3.582   4.735
 1019WAT     H1 3576   4.234   3.630   4.810
 1019WAT     H2 3577   4.192   3.537   4.699
 1020WAT      O 3578   4.689   3.694   4.138
 1020WAT     H1 3579   4.701   3.690   4.233
 1020WAT     H2 3580   4.651   3.780   4.122
 1021WAT      O 3581   5.085   3.471   4.940
 1021WAT     H1 3582   5.087   3.517   5.024
 1021WAT     H2 3583   5.061   3.381   4.961
 1022WAT      O 3584   4.590   3.925   4.078
 1022WAT     H1 3585   4.534   3.880   4.015
 1022WAT     H2 3586   4.661   3.961   4.024
 1023WAT      O 3587   5.428   3.213   5.523
 1023WAT     H1 3588   5.461   3.140   5.576
 1023WAT     H2 3589   5.432   3.181   5.433
 1024WAT      O 3590   4.098   4.315   5.465
 1024WAT     H1 3591   4.060   4.251   5.525
 1024WAT     H2 3592   4.129   4.385   5.522
 1025WAT      O 3593   4.713   4.000   5.013
 1025WAT     H1 3594   4.750   3.952   5.088
 1025WAT     H2 3595   4.694   4.087   5.048
 1026WAT      O 3596   3.999   3.474   4.626
 1026WAT     H1 3597   3.971   3.438   4.710
 1026WAT     H2 3598   3.993   3.401   4.565
 1027WAT      O 3599   4.492   3.904   5.245
 1027WAT     H1 3600   4.462   3.992   5.268
 1027WAT     H2 3601   4.588   3.910   5.249
 1028WAT      O 3602   4.345   4.324   4.305
 1028WAT     H1 3603   4.268   4.270   4.289
 1028WAT     H2 3604   4.418   4.272   4.271
 1029WAT      O 3605   5.421   4.224   4.884
 1029WAT     H1 3606   5.493   4.274   4.845
 1029WAT     H2 3607   5.401   4.156   4.820
 1030WAT      O 3608   4.967   3.363   4.299
 1030WAT     H1 3609   4.886   3.314   4.291
 1030WAT     H2 3610   4.947   3.447   4.257
 1031WAT      O 3611   4.959   4.231   5.473
 1031WAT     H1 3612   4.952   4.139   5.447
 1031WAT     H2 3613   4.896   4.241   5.544
 1032WAT      O 3614   5.238   3.801   4.128
 1032WAT     H1 3615   5.327   3.832   4.111
 1032WAT     H2 3616   5.235   3.713   4.089
 1033WAT      O 3617   4.349   4.291   4.669
 1033WAT     H1 3618   4.401   4.211   4.663
 1033WAT     H2 3619   4.304   4.285   4.753
 1034WAT      O 3620   4.838   4.418   4.196
 1034WAT     H1 3621   4.872   4.492   4.146
 1034WAT     H2 3622   4.755   4.449   4.232
 1035WAT      O 3623   4.098   3.988   5.360
 1035WAT     H1 3624   4.062   4.054   5.419
 1035WAT     H2 3625   4.068   3.905   5.397
 1036WAT      O 3626   4.418   4.034   5.648
 1036WAT     H1 3627   4.388   4.048   5.559
 1036WAT     H2 3628   4.495   3.978   5.639
 1037WAT      O 3629   4.952   4.513   5.448
 1037WAT     H1 3630   4.954   4.420   5.426
 1037WAT     H2 3631   4.881   4.522   5.512
 1038WAT      O 3632   5.466   3.932   4.075
 1038WAT     H1 3633   5.457   3.975   3.990
 1038WAT     H2 3634   5.537   3.978   4.118
 1039WAT      O 3635   5.573   4.177   5.383
 1039WAT     H1 3636   5.501   4.237   5.363
 1039WAT     H2 3637   5.626   4.177   5.303
 1040WAT      O 3638   5.568   4.617   4.348
 1040WAT     H1 3639   5.504   4.552   4.375
 1040WAT     H2 3640   5.530   4.658   4.270
 1041WAT      O 3641   5.126   4.350   4.732
 1041WAT     H1 3642   5.161   4.290   4.666
 1041WAT     H2 3643   5.038   4.317   4.750
 1042WAT      O 3644   4.735   4.426   4.473
 1042WAT     H1 3645   4.804   4.481   4.511
 1042WAT     H2 3646   4.656   4.480   4.477
 1043WAT      O 3647   3.949   3.988   4.022
 1043WAT     H1 3648   4.036   4.016   4.051
 1043WAT     H2 3649   3.900   4.069   4.011
 1044WAT      O 3650   4.665   4.126   4.434
 1044WAT     H1 3651   4.711   4.207   4.457
 1044WAT     H2 3652   4.630   4.095   4.518
 1045WAT      O 3653   4.895   4.677   5.157
 1045WAT     H1 3654   4.960   4.698   5.225
 1045WAT     H2 3655   4.932   4.601   5.112
 1046WAT      O 3656   4.255   3.161   4.482
 1046WAT     H1 3657   4.242   3.160   4.577
 1046WAT     H2 3658   4.173   3.195   4.447
 1047WAT      O 3659   5.023   4.478   5.029
 1047WAT     H1 3660   5.087   4.408   5.040
 1047WAT     H2 3661   5.075   4.556   5.011
 1048WAT      O 3662   5.407   4.506   4.002
 1048WAT     H1 3663   5.385   4.435   4.061
 1048WAT     H2 3664   5.368   4.481   3.918
 1049WAT      O 3665   5.200   4.558   5.349
 1049WAT     H1 3666   5.234   4.616   5.417
 1049WAT     H2 3667   5.108   4.545   5.372
 1050WAT      O 3668   3.986   4.909   4.079
 1050WAT     H1 3669   4.021   4.969   4.014
 1050WAT     H2 3670   3.971   4.964   4.156
 1051WAT      O 3671   3.955   3.337   5.428
 1051WAT     H1 3672   3.884   3.357   5.488
 1051WAT     H2 3673   3.997   3.259   5.465
 1052WAT      O 3674   5.366   4.298   4.168
 1052WAT     H1 3675   5.337   4.344   4.246
 1052WAT     H2 3676   5.445   4.252   4.195
 1053WAT      O 3677   3.984   4.736   5.526
 1053WAT     H1 3678   3.995   4.641   5.512
 1053WAT     H2 3679   3.919   4.762   5.462
 1054WAT      O 3680   4.783   4.563   5.666
 1054WAT     H1 3681   4.751   4.491   5.721
 1054WAT     H2 3682   4.716   4.630   5.674
 1055WAT      O 3683   4.587   4.647   4.161
 1055WAT     H1 3684   4.586   4.721   4.099
 1055WAT     H2 3685   4.495   4.623   4.170
 1056WAT      O 3686   4.147   4.169   4.235
 1056WAT     H1 3687   4.087   4.243   4.236
 1056WAT     H2 3688   4.195   4.178   4.153
 1057WAT      O 3689   5.105   3.586   5.203
 1057WAT     H1 3690   5.141   3.504   5.236
 1057WAT     H2 3691   5.019   3.592   5.244
 1058WAT      O 3692   5.441   3.481   4.284
 1058WAT     H1 3693   5.378   3.492   4.212
 1058WAT     H2 3694   5.392   3.503   4.363
 1059WAT      O 3695   4.886   4.654   4.027
 1059WAT     H1 3696   4.896   4.633   3.934
 1059WAT     H2 3697   4.796   4.628   4.047
 1060WAT      O 3698   4.638   3.709   4.425
 1060WAT     H1 3699   4.567   3.756   4.469
 1060WAT     H2 3700   4.666   3.644   4.489
 1061WAT      O 3701   4.801   3.851   5.225
 1061WAT     H1 3702   4.850   3.899   5.292
 1061WAT     H2 3703   4.815   3.759   5.246
 1062WAT      O 3704   5.041   3.382   4.569
 1062WAT     H1 3705   5.029   3.384   4.474
 1062WAT     H2 3706   5.136   3.387   4.581
 1063WAT      O 3707   4.750   4.905   4.496
 1063WAT     H1 3708   4.775   4.902   4.404
 1063WAT     H2 3709   4.655   4.893   4.496
 1064WAT      O 3710   4.458   3.540   4.163
 1064WAT     H1 3711   4.543   3.584   4.156
 1064WAT     H2 3712   4.422   3.571   4.245
 1065WAT      O 3713   5.521   3.473   5.309
 1065WAT     H1 3714   5.471   3.547   5.343
 1065WAT     H2 3715   5.603   3.512   5.278
 1066WAT      O 3716   5.350   3.997   4.654
 1066WAT     H1 3717   5.256   3.999   4.671
 1066WAT     H2 3718   5.382   3.919   4.699
 1067WAT      O 3719   4.348   4.166   4.010
 1067WAT     H1 3720   4.425   4.154   4.066
 1067WAT     H2 3721   4.356   4.096   3.945
 1068WAT      O 3722   4.218   3.909   4.078
 1068WAT     H1 3723   4.226   3.814   4.090
 1068WAT     H2 3724   4.307   3.942   4.089
 1069WAT      O 3725   5.551   4.714   4.822
 1069WAT     H1 3726   5.563   4.797   4.869
 1069WAT     H2 3727   5.637   4.693   4.787
 1070WAT      O 3728   4.298   4.924   4.789
 1070WAT     H1 3729   4.372   4.869   4.816
 1070WAT     H2 3730   4.336   5.010   4.775
 1071WAT      O 3731   3.986   4.530   4.376
 1071WAT     H1 3732   3.894   4.555   4.375
 1071WAT     H2 3733   4.033   4.613   4.364
 1072WAT      O 3734   4.609   4.841   3.971
 1072WAT     H1 3735   4.688   4.870   3.926
 1072WAT     H2 3736   4.557   4.798   3.903
 1073WAT      O 3737   5.225   4.826   5.563
 1073WAT     H1 3738   5.320   4.817   5.558
 1073WAT     H2 3739   5.210   4.892   5.631
 1074WAT      O 3740   5.514   4.764   4.113
 1074WAT     H1 3741   5.486   4.722   4.032
 1074WAT     H2 3742   5.494   4.857   4.101
 1075WAT      O 3743   3.970   4.091   5.602
 1075WAT     H1 3744   4.021   4.033   5.659
 1075WAT     H2 3745   3.897   4.119   5.656
 1076WAT      O 3746   4.661   4.363   3.957
 1076WAT     H1 3747   4.650   4.302   4.030
 1076WAT     H2 3748   4.644   4.311   3.879
 1077WAT      O 3749   4.676   4.232   5.555
 1077WAT     H1 3750   4.599   4.288   5.547
 1077WAT     H2 3751   4.694   4.202   5.466
 1078WAT      O 3752   4.985   4.269   4.018
 1078WAT     H1 3753   4.930   4.314   4.082
 1078WAT     H2 3754   5.047   4.219   4.070
 1079WAT      O 3755   5.390   4.405   5.611
 1079WAT     H1 3756   5.464   4.438   5.561
 1079WAT     H2 3757   5.314   4.422   5.556
 1080WAT      O 3758   4.552   4.165   4.207
 1080WAT     H1 3759   4.594   4.149   4.292
 1080WAT     H2 3760   4.564   4.084   4.158
 1081WAT      O 3761   4.368   3.763   5.488
 1081WAT     H1 3762   4.315   3.714   5.425
 1081WAT     H2 3763   4.435   3.806   5.435
 1082WAT      O 3764   4.803   4.068   3.932
 1082WAT     H1 3765   4.855   3.996   3.896
 1082WAT     H2 3766   4.867   4.131   3.962
 1083WAT      O 3767   5.258   4.210   5.465
 1083WAT     H1 3768   5.299   4.225   5.550
 1083WAT     H2 3769   5.164   4.222   5.481
 1084WAT      O 3770   5.305   3.944   5.665
 1084WAT     H1 3771   5.363   3.868   5.656
 1084WAT     H2 3772   5.322   3.997   5.587
 1085WAT      O 3773   4.417   3.460   5.496
 1085WAT     H1 3774   4.407   3.398   5.424
 1085WAT     H2 3775   4.358   3.532   5.473
 1086WAT      O 3776   4.693   3.316   5.199
 1086WAT     H1 3777   4.648   3.318   5.115
 1086WAT     H2 3778   4.630   3.276   5.259
 1087WAT      O 3779   4.734   4.205   5.262
 1087WAT     H1 3780   4.776   4.289   5.244
 1087WAT     H2 3781   4.642   4.219   5.239
 1088WAT      O 3782   4.967   3.978   5.400
 1088WAT     H1 3783   4.979   3.919   5.474
 1088WAT     H2 3784   5.053   3.982   5.358
 1089WAT      O 3785   5.201   4.034   5.258
 1089WAT     H1 3786   5.149   4.086   5.197
 1089WAT     H2 3787   5.236   4.097   5.321
 1090WAT      O 3788   4.441   3.773   3.902
 1090WAT     H1 3789   4.421   3.686   3.938
 1090WAT     H2 3790   4.424   3.764   3.808
 1091WAT      O 3791   4.519   4.836   5.373
 1091WAT     H1 3792   4.465   4.908   5.341
 1091WAT     H2 3793   4.544   4.788   5.294
 1092WAT      O 3794   4.644   3.632   5.526
 1092WAT     H1 3795   4.703   3.602   5.594
 1092WAT     H2 3796   4.562   3.585   5.541
 1093WAT      O 3797   5.126   3.594   5.549
 1093WAT     H1 3798   5.057   3.528   5.543
 1093WAT     H2 3799   5.198   3.549   5.594
 1094WAT      O 3800   5.189   3.254   4.155
 1094WAT     H1 3801   5.217   3.169   4.191
 1094WAT     H2 3802   5.112   3.277   4.206
 1095WAT      O 3803   4.321   3.483   3.901
 1095WAT     H1 3804   4.351   3.483   3.810
 1095WAT     H2 3805   4.395   3.447   3.951
 1096WAT      O 3806   4.804   4.959   5.399
 1096WAT     H1 3807   4.797   5.049   5.430
 1096WAT     H2 3808   4.714   4.927   5.396
 1097WAT      O 3809   4.643   3.377   3.999
 1097WAT     H1 3810   4.608   3.309   3.941
 1097WAT     H2 3811   4.663   3.331   4.081
 1098WAT      O 3812   4.859   4.876   4.161
 1098WAT     H1 3813   4.949   4.910   4.163
 1098WAT     H2 3814   4.862   4.803   4.099
 1099WAT      O 3815   4.223   4.413   3.984
 1099WAT     H1 3816   4.267   4.467   4.050
 1099WAT     H2 3817   4.272   4.330   3.985
 1100WAT      O 3818   3.945   4.692   4.729
 1100WAT     H1 3819   3.978   4.605   4.706
 1100WAT     H2 3820   3.988   4.712   4.812
 1101WAT      O 3821   4.404   4.525   4.495
 1101WAT     H1 3822   4.374   4.513   4.585
 1101WAT     H2 3823   4.394   4.439   4.455
 1102WAT      O 3824   3.994   4.779   5.003
 1102WAT     H1 3825   3.950   4.797   5.086
 1102WAT     H2 3826   4.050   4.854   4.989
 1103WAT      O 3827   5.557   4.729   5.432
 1103WAT     H1 3828   5.497   4.735   5.358
 1103WAT     H2 3829   5.570   4.635   5.445
 1104WAT      O 3830   3.977   4.030   4.639
 1104WAT     H1 3831   3.911   4.003   4.575
 1104WAT     H2 3832   4.061   4.019   4.594
 1105WAT      O 3833   5.426   4.401   5.242
 1105WAT     H1 3834   5.344   4.444   5.268
 1105WAT     H2 3835   5.466   4.462   5.180
 1106WAT      O 3836   5.632   4.207   3.932
 1106WAT     H1 3837   5.659   4.297   3.919
 1106WAT     H2 3838   5.613   4.200   4.025
 1107WAT      O 3839   5.272   3.509   4.061
 1107WAT     H1 3840   5.314   3.490   3.977
 1107WAT     H2 3841   5.241   3.424   4.092
 1108WAT      O 3842   5.622   4.000   4.431
 1108WAT     H1 3843   5.584   3.924   4.388
 1108WAT     H2 3844   5.549   4.039   4.480
 1109WAT      O 3845   4.081   4.068   5.093
 1109WAT     H1 3846   4.117   4.060   5.181
 1109WAT     H2 3847   4.024   3.992   5.083
 1110WAT      O 3848   5.561   3.915   5.394
 1110WAT     H1 3849   5.537   3.892   5.304
 1110WAT     H2 3850   5.587   4.007   5.390
 1111WAT      O 3851   4.036   3.759   5.484
 1111WAT     H1 3852   3.946   3.756   5.518
 1111WAT     H2 3853   4.090   3.779   5.560
 1112WAT      O 3854   5.405   3.438   5.672
 1112WAT     H1 3855   5.492   3.439   5.711
 1112WAT     H2 3856   5.406   3.364   5.611
 1113WAT      O 3857   3.898   3.751   4.233
 1113WAT     H1 3858   3.808   3.777   4.216
 1113WAT     H2 3859   3.947   3.778   4.155
 1114WAT      O 3860   5.549   3.823   4.761
 1114WAT     H1 3861   5.602   3.774   4.698
 1114WAT     H2 3862   5.608   3.836   4.836
 1115WAT      O 3863   5.567   3.831   5.113
 1115WAT     H1 3864   5.472   3.828   5.125
 1115WAT     H2 3865   5.585   3.922   5.090
 1116WAT      O 3866   4.152   3.656   4.024
 1116WAT     H1 3867   4.223   3.614   3.976
 1116WAT     H2 3868   4.081   3.663   3.961
 1117WAT      O 3869   4.117   3.262   3.928
 1117WAT     H1 3870   4.190   3.316   3.960
 1117WAT     H2 3871   4.144   3.234   3.841
 1118WAT      O 3872   5.498   3.749   4.355
 1118WAT     H1 3873   5.548   3.725   4.433
 1118WAT     H2 3874   5.478   3.665   4.313
 1119WAT      O 3875   4.086   3.187   4.919
 1119WAT     H1 3876   4.151   3.132   4.874
 1119WAT     H2 3877   4.128   3.212   5.001
 1120WAT      O 3878   5.476   3.206   5.254
 1120WAT     H1 3879   5.539   3.268   5.291
 1120WAT     H2 3880   5.490   3.210   5.160
 1121WAT      O 3881   5.431   4.876   4.594
 1121WAT     H1 3882   5.491   4.844   4.527
 1121WAT     H2 3883   5.457   4.829   4.674
 1122WAT      O 3884   4.061   3.202   5.193
 1122WAT     H1 3885   4.027   3.248   5.269
 1122WAT     H2 3886   4.028   3.113   5.201
 1123WAT      O 3887   4.222   4.520   5.609
 1123WAT     H1 3888   4.218   4.483   5.697
 1123WAT     H2 3889   4.235   4.613   5.623
 1124WAT      O 3890   4.592   4.675   5.169
 1124WAT     H1 3891   4.568   4.702   5.081
 1124WAT     H2 3892   4.686   4.692   5.175
 1125WAT      O 3893   4.813   3.322   5.545
 1125WAT     H1 3894   4.807   3.381   5.620
 1125WAT     H2 3895   4.907   3.311   5.530
 1126WAT      O 3896   5.076   3.287   5.509
 1126WAT     H1 3897   5.138   3.319   5.443
 1126WAT     H2 3898   5.131   3.239   5.571
 1127WAT      O 3899   4.129   3.155   5.520
 1127WAT     H1 3900   4.183   3.137   5.444
 1127WAT     H2 3901   4.135   3.076   5.574
 1128WAT      O 3902   4.206   4.814   5.321
 1128WAT     H1 3903   4.147   4.801   5.395
 1128WAT     H2 3904   4.205   4.731   5.275
 1129WAT      O 3905   5.151   3.144   5.142
 1129WAT     H1 3906   5.063   3.177   5.121
 1129WAT     H2 3907   5.140   3.096   5.224
 1130WAT      O 3908   5.241   3.364   5.280
 1130WAT     H1 3909   5.208   3.283   5.242
 1130WAT     H2 3910   5.336   3.360   5.268
 1131WAT      O 3911   5.487   4.941   4.977
 1131WAT     H1 3912   5.441   5.017   4.940
 1131WAT     H2 3913   5.424   4.869   4.972
 1132WAT      O 3914   4.169   4.551   5.216
 1132WAT     H1 3915   4.096   4.489   5.210
 1132WAT     H2 3916   4.175   4.590   5.129
 1133WAT      O 3917   4.530   4.772   4.895
 1133WAT     H1 3918   4.581   4.711   4.842
 1133WAT     H2 3919   4.595   4.823   4.944
 1134WAT      O 3920   4.804   4.861   4.978
 1134WAT     H1 3921   4.832   4.836   4.890
 1134WAT     H2 3922   4.855   4.806   5.037
 1135WAT      O 3923   4.925   3.235   5.035
 1135WAT     H1 3924   4.847   3.283   5.063
 1135WAT     H2 3925   4.896   3.145   5.025
 1136WAT      O 3926   5.380   3.305   4.840
 1136WAT     H1 3927   5.425   3.300   4.755
 1136WAT     H2 3928   5.354   3.397   4.847
 1137WAT      O 3929   5.567   3.269   4.641
 1137WAT     H1 3930   5.561   3.174   4.626
 1137WAT     H2 3931   5.645   3.279   4.696
 1138WAT      O 3932   3.997   4.883   4.537
 1138WAT     H1 3933   3.981   4.819   4.607
 1138WAT     H2 3934   3.911   4.903   4.502
 1139WAT      O 3935   4.060   3.266   4.288
 1139WAT     H1 3936   4.135   3.277   4.230
 1139WAT     H2 3937   4.013   3.349   4.283
 1140WAT      O 3938   4.714   3.477   4.587
 1140WAT     H1 3939   4.633   3.440   4.553
 1140WAT     H2 3940   4.764   3.402   4.617
 1141WAT      O 3941   5.164   3.144   4.710
 1141WAT     H1 3942   5.224   3.201   4.758
 1141WAT     H2 3943   5.090   3.200   4.688
 1142WAT      O 3944   5.478   3.184   4.238
 1142WAT     H1 3945   5.498   3.274   4.265
 1142WAT     H2 3946   5.400   3.161   4.287
 1143WAT      O 3947   4.158   4.752   4.282
 1143WAT     H1 3948   4.106   4.790   4.211
 1143WAT     H2 3949   4.150   4.814   4.354
 1144WAT      O 3950   4.297   3.318   4.142
 1144WAT     H1 3951   4.350   3.240   4.129
 1144WAT     H2 3952   4.360   3.386   4.165
 1145WAT      O 3953   4.516   3.292   4.447
 1145WAT     H1 3954   4.453   3.222   4.464
 1145WAT     H2 3955   4.462   3.368   4.425
 1146WAT      O 3956   4.810   4.953   5.714
 1146WAT     H1 3957   4.903   4.930   5.719
 1146WAT     H2 3958   4.809   5.036   5.666
 1147WAT      O 3959   5.634   4.908   4.414
 1147WAT     H1 3960   5.651   4.839   4.350
 1147WAT     H2 3961   5.564   4.960   4.375
 1148WAT      O 3962   4.529   3.220   5.691
 1148WAT     H1 3963   4.501   3.270   5.614
 1148WAT     H2 3964   4.567   3.140   5.654
 1149WAT      O 3965   4.418   4.947   4.169
 1149WAT     H1 3966   4.491   4.918   4.115
 1149WAT     H2 3967   4.444   4.923   4.258
 1150WAT      O 3968   4.334   4.558   4.170
 1150WAT     H1 3969   4.271   4.605   4.225
 1150WAT     H2 3970   4.346   4.474   4.213
 1151WAT      O 3971   5.080   3.963   2.785
 1151WAT     H1 3972   5.072   3.872   2.758
 1151WAT     H2 3973   5.038   4.013   2.714
 1152WAT      O 3974   4.893   4.141   2.973
 1152WAT     H1 3975   4.815   4.093   3.002
 1152WAT     H2 3976   4.958   4.073   2.955
 1153WAT      O 3977   4.294   4.172   3.061
 1153WAT     H1 3978   4.211   4.147   3.101
 1153WAT     H2 3979   4.355   4.179   3.134
 1154WAT      O 3980   5.295   4.582   2.851
 1154WAT     H1 3981   5.249   4.505   2.884
 1154WAT     H2 3982   5.376   4.584   2.901
 1155WAT      O 3983   4.292   4.576   3.080
 1155WAT     H1 3984   4.323   4.487   3.062
 1155WAT     H2 3985   4.367   4.631   3.057
 1156WAT      O 3986   4.135   3.668   2.439
 1156WAT     H1 3987   4.047   3.703   2.429
 1156WAT     H2 3988   4.164   3.648   2.350
 1157WAT      O 3989   3.932   3.928   3.027
 1157WAT     H1 3990   3.989   3.852   3.027
 1157WAT     H2 3991   3.932   3.958   2.937
 1158WAT      O 3992   4.917   4.810   2.813
 1158WAT     H1 3993   4.856   4.856   2.756
 1158WAT     H2 3994   5.003   4.826   2.773
 1159WAT      O 3995   4.837   4.409   2.974
 1159WAT     H1 3996   4.830   4.315   2.957
 1159WAT     H2 3997   4.913   4.418   3.031
 1160WAT      O 3998   4.940   3.689   2.996
 1160WAT     H1 3999   4.978   3.602   2.985
 1160WAT     H2 4000   4.930   3.723   2.907
 1161WAT      O 4001   4.353   3.527   2.542
 1161WAT     H1 4002   4.364   3.617   2.573
 1161WAT     H2 4003   4.262   3.522   2.513
 1162WAT      O 4004   5.318   3.439   2.690
 1162WAT     H1 4005   5.400   3.390   2.694
 1162WAT     H2 4006   5.322   3.498   2.765
 1163WAT      O 4007   4.118   3.719   3.067
 1163WAT     H1 4008   4.186   3.745   3.129
 1163WAT     H2 4009   4.086   3.635   3.100
 1164WAT      O 4010   4.537   3.824   2.976
 1164WAT     H1 4011   4.588   3.873   3.040
 1164WAT     H2 4012   4.590   3.746   2.958
 1165WAT      O 4013   4.365   3.288   3.402
 1165WAT     H1 4014   4.366   3.339   3.322
 1165WAT     H2 4015   4.282   3.240   3.400
 1166WAT      O 4016   5.004   4.299   2.552
 1166WAT     H1 4017   4.942   4.345   2.496
 1166WAT     H2 4018   5.055   4.368   2.594
 1167WAT      O 4019   4.490   4.252   3.220
 1167WAT     H1 4020   4.457   4.314   3.284
 1167WAT     H2 4021   4.508   4.304   3.142
 1168WAT      O 4022   5.342   3.633   2.967
 1168WAT     H1 4023   5.271   3.662   3.025
 1168WAT     H2 4024   5.378   3.714   2.931
 1169WAT      O 4025   4.334   3.459   3.203
 1169WAT     H1 4026   4.368   3.543   3.174
 1169WAT     H2 4027   4.240   3.474   3.215
 1170WAT      O 4028   4.412   4.448   3.402
 1170WAT     H1 4029   4.473   4.516   3.373
 1170WAT     H2 4030   4.326   4.489   3.392
 1171WAT      O 4031   3.941   4.367   2.290
 1171WAT     H1 4032   3.903   4.416   2.216
 1171WAT     H2 4033   3.967   4.435   2.353
 1172WAT      O 4034   5.503   4.595   3.193
 1172WAT     H1 4035   5.435   4.662   3.192
 1172WAT     H2 4036   5.557   4.615   3.117
 1173WAT      O 4037   5.649   3.578   3.006
 1173WAT     H1 4038   5.554   3.581   3.019
 1173WAT     H2 4039   5.681   3.659   3.044
 1174WAT      O 4040   4.702   3.207   2.835
 1174WAT     H1 4041   4.733   3.152   2.764
 1174WAT     H2 4042   4.609   3.221   2.817
 1175WAT      O 4043   5.257   4.779   3.065
 1175WAT     H1 4044   5.258   4.739   2.978
 1175WAT     H2 4045   5.202   4.857   3.054
 1176WAT      O 4046   5.386   4.451   2.573
 1176WAT     H1 4047   5.375   4.357   2.586
 1176WAT     H2 4048   5.386   4.487   2.662
 1177WAT      O 4049   5.197   4.269   3.197
 1177WAT     H1 4050   5.239   4.248   3.114
 1177WAT     H2 4051   5.269   4.295   3.254
 1178WAT      O 4052   4.941   4.014   2.509
 1178WAT     H1 4053   4.848   4.007   2.532
 1178WAT     H2 4054   4.956   4.108   2.498
 1179WAT      O 4055   4.939   3.641   2.209
 1179WAT     H1 4056   4.845   3.657   2.217
 1179WAT     H2 4057   4.971   3.713   2.154
 1180WAT      O 4058   5.591   4.109   3.207
 1180WAT     H1 4059   5.509   4.116   3.159
 1180WAT     H2 4060   5.651   4.168   3.160
 1181WAT      O 4061   5.344   4.170   2.559
 1181WAT     H1 4062   5.282   4.136   2.495
 1181WAT     H2 4063   5.342   4.106   2.630
 1182WAT      O 4064   5.288   3.788   3.301
 1182WAT     H1 4065   5.247   3.871   3.326
 1182WAT     H2 4066   5.215   3.729   3.282
 1183WAT      O 4067   4.501   4.067   2.787
 1183WAT     H1 4068   4.461   3.995   2.738
 1183WAT     H2 4069   4.510   4.032   2.876
 1184WAT      O 4070   4.548   4.435   3.004
 1184WAT     H1 4071   4.518   4.375   2.936
 1184WAT     H2 4072   4.643   4.439   2.993
 1185WAT      O 4073   4.373   3.744   3.165
 1185WAT     H1 4074   4.428   3.755   3.088
 1185WAT     H2 4075   4.424   3.781   3.237
 1186WAT      O 4076   5.357   4.793   3.370
 1186WAT     H1 4077   5.309   4.873   3.351
 1186WAT     H2 4078   5.289   4.727   3.385
 1187WAT      O 4079   4.457   4.409   3.669
 1187WAT     H1 4080   4.368   4.432   3.693
 1187WAT     H2 4081   4.460   4.421   3.574
 1188WAT      O 4082   5.161   4.094   2.260
 1188WAT     H1 4083   5.205   4.010   2.246
 1188WAT     H2 4084   5.233   4.157   2.269
 1189WAT      O 4085   4.340   4.096   3.526
 1189WAT     H1 4086   4.326   4.183   3.563
 1189WAT     H2 4087   4.252   4.062   3.512
 1190WAT      O 4088   4.972   4.588   2.657
 1190WAT     H1 4089   5.016   4.662   2.616
 1190WAT     H2 4090   4.966   4.612   2.749
 1191WAT      O 4091   4.520   4.690   3.747
 1191WAT     H1 4092   4.517   4.731   3.660
 1191WAT     H2 4093   4.503   4.598   3.731
 1192WAT      O 4094   5.519   3.219   2.092
 1192WAT     H1 4095   5.488   3.229   2.182
 1192WAT     H2 4096   5.596   3.277   2.087
 1193WAT      O 4097   4.171   3.956   2.537
 1193WAT     H1 4098   4.159   4.029   2.476
 1193WAT     H2 4099   4.140   3.879   2.490
 1194WAT      O 4100   3.935   4.273   3.118
 1194WAT     H1 4101   3.943   4.287   3.024
 1194WAT     H2 4102   3.997   4.202   3.137
 1195WAT      O 4103   4.060   4.443   2.759
 1195WAT     H1 4104   4.019   4.457   2.674
 1195WAT     H2 4105   4.149   4.415   2.739
 1196WAT      O 4106   5.655   4.488   3.593
 1196WAT     H1 4107   5.668   4.464   3.501
 1196WAT     H2 4108   5.659   4.405   3.640
 1197WAT      O 4109   5.041   4.858   3.450
 1197WAT     H1 4110   5.093   4.849   3.530
 1197WAT     H2 4111   4.957   4.893   3.479
 1198WAT      O 4112   5.239   4.887   2.393
 1198WAT     H1 4113   5.223   4.858   2.482
 1198WAT     H2 4114   5.222   4.809   2.339
 1199WAT      O 4115   4.487   4.865   2.570
 1199WAT     H1 4116   4.469   4.773   2.549
 1199WAT     H2 4117   4.401   4.901   2.594
 1200WAT      O 4118   5.209   4.638   2.249
 1200WAT     H1 4119   5.140   4.637   2.183
 1200WAT     H2 4120   5.283   4.595   2.206
 1201WAT      O 4121   5.166   4.800   2.656
 1201WAT     H1 4122   5.211   4.722   2.687
 1201WAT     H2 4123   5.200   4.871   2.710
 1202WAT      O 4124   5.640   3.693   3.689
 1202WAT     H1 4125   5.579   3.744   3.636
 1202WAT     H2 4126   5.608   3.603   3.684
 1203WAT      O 4127   3.941   4.377   3.372
 1203WAT     H1 4128   3.957   4.330   3.290
 1203WAT     H2 4129   3.987   4.327   3.438
 1204WAT      O 4130   4.418   3.290   2.876
 1204WAT     H1 4131   4.374   3.369   2.842
 1204WAT     H2 4132   4.474   3.323   2.946
 1205WAT      O 4133   4.847   3.577   3.436
 1205WAT     H1 4134   4.800   3.598   3.517
 1205WAT     H2 4135   4.806   3.496   3.406
 1206WAT      O 4136   5.347   3.699   3.549
 1206WAT     H1 4137   5.262   3.669   3.581
 1206WAT     H2 4138   5.331   3.724   3.458
 1207WAT      O 4139   5.056   3.849   3.759
 1207WAT     H1 4140   5.089   3.766   3.725
 1207WAT     H2 4141   5.135   3.902   3.774
 1208WAT      O 4142   4.729   3.253   2.364
 1208WAT     H1 4143   4.667   3.252   2.436
 1208WAT     H2 4144   4.721   3.166   2.324
 1209WAT      O 4145   4.622   3.345   3.061
 1209WAT     H1 4146   4.651   3.436   3.053
 1209WAT     H2 4147   4.677   3.296   3.000
 1210WAT      O 4148   4.397   3.803   2.648
 1210WAT     H1 4149   4.374   3.781   2.739
 1210WAT     H2 4150   4.319   3.846   2.614
 1211WAT      O 4151   5.120   3.803   2.508
 1211WAT     H1 4152   5.060   3.876   2.490
 1211WAT     H2 4153   5.175   3.797   2.430
 1212WAT      O 4154   4.641   3.893   3.715
 1212WAT     H1 4155   4.631   3.799   3.700
 1212WAT     H2 4156   4.725   3.915   3.675
 1213WAT      O 4157   4.981   3.667   2.711
 1213WAT     H1 4158   5.020   3.699   2.630
 1213WAT     H2 4159   5.017   3.579   2.723
 1214WAT      O 4160   4.812   3.542   3.837
 1214WAT     H1 4161   4.743   3.523   3.901
 1214WAT     H2 4162   4.886   3.570   3.891
 1215WAT      O 4163   3.903   3.720   2.055
 1215WAT     H1 4164   3.895   3.815   2.069
 1215WAT     H2 4165   3.868   3.706   1.967
 1216WAT      O 4166   5.039   3.926   3.121
 1216WAT     H1 4167   4.966   3.977   3.156
 1216WAT     H2 4168   4.999   3.844   3.091
 1217WAT      O 4169   4.683   3.594   2.961
 1217WAT     H1 4170   4.683   3.550   2.876
 1217WAT     H2 4171   4.773   3.626   2.972
 1218WAT      O 4172   4.268   3.582   2.857
 1218WAT     H1 4173   4.234   3.630   2.933
 1218WAT     H2 4174   4.192   3.537   2.821
 1219WAT      O 4175   4.689   3.694   2.260
 1219WAT     H1 4176   4.701   3.690   2.355
 1219WAT     H2 4177   4.651   3.780   2.245
 1220WAT      O 4178   5.085   3.471   3.062
 1220WAT     H1 4179   5.087   3.517   3.146
 1220WAT     H2 4180   5.061   3.381   3.083
 1221WAT      O 4181   4.590   3.925   2.200
 1221WAT     H1 4182   4.534   3.880   2.138
 1221WAT     H2 4183   4.661   3.961   2.147
 1222WAT      O 4184   5.428   3.213   3.646
 1222WAT     H1 4185   5.461   3.140   3.699
 1222WAT     H2 4186   5.432   3.181   3.556
 1223WAT      O 4187   4.098   4.315   3.588
 1223WAT     H1 4188   4.060   4.251   3.648
 1223WAT     H2 4189   4.129   4.385   3.645
 1224WAT      O 4190   4.713   4.000   3.136
 1224WAT     H1 4191   4.750   3.952   3.211
 1224WAT     H2 4192   4.694   4.087   3.170
 1225WAT      O 4193   3.999   3.474   2.749
 1225WAT     H1 4194   3.971   3.438   2.833
 1225WAT     H2 4195   3.993   3.401   2.688
 1226WAT      O 4196   4.492   3.904   3.368
 1226WAT     H1 4197   4.462   3.992   3.390
 1226WAT     H2 4198   4.588   3.910   3.371
 1227WAT      O 4199   4.345   4.324   2.428
 1227WAT     H1 4200   4.268   4.270   2.412
 1227WAT     H2 4201   4.418   4.272   2.394
 1228WAT      O 4202   5.421   4.224   3.007
 1228WAT     H1 4203   5.493   4.274   2.968
 1228WAT     H2 4204   5.401   4.156   2.942
 1229WAT      O 4205   4.967   3.363   2.421
 1229WAT     H1 4206   4.886   3.314   2.414
 1229WAT     H2 4207   4.947   3.447   2.379
 1230WAT      O 4208   4.959   4.231   3.595
 1230WAT     H1 4209   4.952   4.139   3.570
 1230WAT     H2 4210   4.896   4.241   3.667
 1231WAT      O 4211   5.238   3.801   2.251
 1231WAT     H1 4212   5.327   3.832   2.233
 1231WAT     H2 4213   5.235   3.713   2.212
 1232WAT      O 4214   4.349   4.291   2.791
 1232WAT     H1 4215   4.401   4.211   2.786
 1232WAT     H2 4216   4.304   4.285   2.875
 1233WAT      O 4217   4.838   4.418   2.319
 1233WAT     H1 4218   4.872   4.492   2.269
 1233WAT     H2 4219   4.755   4.449   2.355
 1234WAT      O 4220   4.098   3.988   3.483
 1234WAT     H1 4221   4.062   4.054   3.541
 1234WAT     H2 4222   4.068   3.905   3.520
 1235WAT      O 4223   4.418   4.034   3.771
 1235WAT     H1 4224   4.388   4.048   3.681
 1235WAT     H2 4225   4.495   3.978   3.762
 1236WAT      O 4226   4.952   4.513   3.571
 1236WAT     H1 4227   4.954   4.420   3.549
 1236WAT     H2 4228   4.881   4.522   3.634
 1237WAT      O 4229   5.466   3.932   2.198
 1237WAT     H1 4230   5.457   3.975   2.112
 1237WAT     H2 4231   5.537   3.978   2.241
 1238WAT      O 4232   5.573   4.177   3.505
 1238WAT     H1 4233   5.501   4.237   3.485
 1238WAT     H2 4234   5.626   4.177   3.425
 1239WAT      O 4235   5.568   4.617   2.470
 1239WAT     H1 4236   5.504   4.552   2.498
 1239WAT     H2 4237   5.530   4.658   2.393
 1240WAT      O 4238   5.126   4.350   2.855
 1240WAT     H1 4239   5.161   4.290   2.789
 1240WAT     H2 4240   5.038   4.317   2.872
 1241WAT      O 4241   4.735   4.426   2.596
 1241WAT     H1 4242   4.804   4.481   2.634
 1241WAT     H2 4243   4.656   4.480   2.599
 1242WAT      O 4244   3.949   3.988   2.145
 1242WAT     H1 4245   4.036   4.016   2.173
 1242WAT     H2 4246   3.900   4.069   2.133
 1243WAT      O 4247   4.665   4.126   2.557
 1243WAT     H1 4248   4.711   4.207   2.580
 1243WAT     H2 4249   4.630   4.095   2.640
 1244WAT      O 4250   4.895   4.677   3.280
 1244WAT     H1 4251   4.960   4.698   3.348
 1244WAT     H2 4252   4.932   4.601   3.235
 1245WAT      O 4253   4.255   3.161   2.604
 1245WAT     H1 4254   4.242   3.160   2.699
 1245WAT     H2 4255   4.173   3.195   2.569
 1246WAT      O 4256   5.023   4.478   3.152
 1246WAT     H1 4257   5.087   4.408   3.163
 1246WAT     H2 4258   5.075   4.556   3.134
 1247WAT      O 4259   5.407   4.506   2.124
 1247WAT     H1 4260   5.385   4.435   2.183
 1247WAT     H2 4261   5.368   4.481   2.040
 1248WAT      O 4262   5.200   4.558   3.472
 1248WAT     H1 4263   5.234   4.616   3.540
 1248WAT     H2 4264   5.108   4.545   3.495
 1249WAT      O 4265   3.986   4.909   2.202
 1249WAT     H1 4266   4.021   4.969   2.136
 1249WAT     H2 4267   3.971   4.964   2.279
 1250WAT      O 4268   5.366   4.298   2.290
 1250WAT     H1 4269   5.337   4.344   2.369
 1250WAT     H2 4270   5.445   4.252   2.317
 1251WAT      O 4271   3.984   4.736   3.649
 1251WAT     H1 4272   3.995   4.641   3.635
 1251WAT     H2 4273   3.919   4.762   3.584
 1252WAT      O 4274   4.783   4.563   3.789
 1252WAT     H1 4275   4.751   4.491   3.843
 1252WAT     H2 4276   4.716   4.630   3.796
 1253WAT      O 4277   4.587   4.647   2.283
 1253WAT     H1 4278   4.586   4.721   2.222
 1253WAT     H2 4279   4.495   4.623   2.293
 1254WAT      O 4280   4.147   4.169   2.358
 1254WAT     H1 4281   4.087   4.243   2.359
 1254WAT     H2 4282   4.195   4.178   2.275
 1255WAT      O 4283   5.105   3.586   3.325
 1255WAT     H1 4284   5.141   3.504   3.358
 1255WAT     H2 4285   5.019   3.592   3.367
 1256WAT      O 4286   5.441   3.481   2.406
 1256WAT     H1 4287   5.378   3.492   2.335
 1256WAT     H2 4288   5.392   3.503   2.485
 1257WAT      O 4289   4.886   4.654   2.150
 1257WAT     H1 4290   4.896   4.633   2.057
 1257WAT     H2 4291   4.796   4.628   2.170
 1258WAT      O 4292   4.638   3.709   2.548
 1258WAT     H1 4293   4.567   3.756   2.592
 1258WAT     H2 4294   4.666   3.644   2.611
 1259WAT      O 4295   4.801   3.851   3.348
 1259WAT     H1 4296   4.850   3.899   3.414
 1259WAT     H2 4297   4.815   3.759   3.368
 1260WAT      O 4298   5.041   3.382   2.692
 1260WAT     H1 4299   5.029   3.384   2.597
 1260WAT     H2 4300   5.136   3.387   2.704
 1261WAT      O 4301   4.750   4.905   2.619
 1261WAT     H1 4302   4.775   4.902   2.527
 1261WAT     H2 4303   4.655   4.893   2.618
 1262WAT      O 4304   4.458   3.540   2.285
 1262WAT     H1 4305   4.543   3.584   2.279
 1262WAT     H2 4306   4.422   3.571   2.368
 1263WAT      O 4307   5.521   3.473   3.432
 1263WAT     H1 4308   5.471   3.547   3.466
 1263WAT     H2 4309   5.603   3.512   3.400
 1264WAT      O 4310   5.350   3.997   2.777
 1264WAT     H1 4311   5.256   3.999   2.794
 1264WAT     H2 4312   5.382   3.919   2.821
 1265WAT      O 4313   4.348   4.166   2.133
 1265WAT     H1 4314   4.425   4.154   2.189
 1265WAT     H2 4315   4.356   4.096   2.067
 1266WAT      O 4316   4.218   3.909   2.201
 1266WAT     H1 4317   4.226   3.814   2.212
 1266WAT     H2 4318   4.307   3.942   2.212
 1267WAT      O 4319   5.551   4.714   2.944
 1267WAT     H1 4320   5.563   4.797   2.991
 1267WAT     H2 4321   5.637   4.693   2.909
 1268WAT      O 4322   4.298   4.924   2.911
 1268WAT     H1 4323   4.372   4.869   2.938
 1268WAT     H2 4324   4.336   5.010   2.897
 1269WAT      O 4325   3.986   4.530   2.499
 1269WAT     H1 4326   3.894   4.555   2.498
 1269WAT     H2 4327   4.033   4.613   2.487
 1270WAT      O 4328   4.199   4.842   3.830
 1270WAT     H1 4329   4.279   4.874   3.872
 1270WAT     H2 4330   4.147   4.806   3.902
 1271WAT      O 4331   4.609   4.841   2.094
 1271WAT     H1 4332   4.688   4.870   2.048
 1271WAT     H2 4333   4.557   4.798   2.026
 1272WAT      O 4334   5.082   4.453   3.825
 1272WAT     H1 4335   5.022   4.455   3.751
 1272WAT     H2 4336   5.052   4.380   3.879
 1273WAT      O 4337   5.225   4.826   3.686
 1273WAT     H1 4338   5.320   4.817   3.681
 1273WAT     H2 4339   5.210   4.892   3.753
 1274WAT      O 4340   5.514   4.764   2.236
 1274WAT     H1 4341   5.486   4.722   2.154
 1274WAT     H2 4342   5.494   4.857   2.224
 1275WAT      O 4343   3.970   4.091   3.725
 1275WAT     H1 4344   4.021   4.033   3.782
 1275WAT     H2 4345   3.897   4.119   3.778
 1276WAT      O 4346   4.661   4.363   2.080
 1276WAT     H1 4347   4.650   4.302   2.153
 1276WAT     H2 4348   4.644   4.311   2.002
 1277WAT      O 4349   4.676   4.232   3.678
 1277WAT     H1 4350   4.599   4.288   3.669
 1277WAT     H2 4351   4.694   4.202   3.589
 1278WAT      O 4352   4.985   4.269   2.140
 1278WAT     H1 4353   4.930   4.314   2.205
 1278WAT     H2 4354   5.047   4.219   2.193
 1279WAT      O 4355   5.390   4.405   3.734
 1279WAT     H1 4356   5.464   4.438   3.683
 1279WAT     H2 4357   5.314   4.422   3.678
 1280WAT      O 4358   4.174   3.905   3.814
 1280WAT     H1 4359   4.178   3.875   3.905
 1280WAT     H2 4360   4.259   3.945   3.798
 1281WAT      O 4361   4.552   4.165   2.330
 1281WAT     H1 4362   4.594   4.149   2.414
 1281WAT     H2 4363   4.564   4.084   2.281
 1282WAT      O 4364   4.368   3.763   3.611
 1282WAT     H1 4365   4.315   3.714   3.548
 1282WAT     H2 4366   4.435   3.806   3.557
 1283WAT      O 4367   4.803   4.068   2.055
 1283WAT     H1 4368   4.855   3.996   2.018
 1283WAT     H2 4369   4.867   4.131   2.085
 1284WAT      O 4370   5.258   4.210   3.587
 1284WAT     H1 4371   5.299   4.225   3.672
 1284WAT     H2 4372   5.164   4.222   3.603
 1285WAT      O 4373   5.305   3.944   3.788
 1285WAT     H1 4374   5.363   3.868   3.779
 1285WAT     H2 4375   5.322   3.997   3.710
 1286WAT      O 4376   4.417   3.460   3.619
 1286WAT     H1 4377   4.407   3.398   3.546
 1286WAT     H2 4378   4.358   3.532   3.596
 1287WAT      O 4379   4.693   3.316   3.322
 1287WAT     H1 4380   4.648   3.318   3.237
 1287WAT     H2 4381   4.630   3.276   3.382
 1288WAT      O 4382   4.734   4.205   3.384
 1288WAT     H1 4383   4.776   4.289   3.367
 1288WAT     H2 4384   4.642   4.219   3.361
 1289WAT      O 4385   4.967   3.978   3.523
 1289WAT     H1 4386   4.979   3.919   3.596
 1289WAT     H2 4387   5.053   3.982   3.481
 1290WAT      O 4388   5.201   4.034   3.380
 1290WAT     H1 4389   5.149   4.086   3.320
 1290WAT     H2 4390   5.236   4.097   3.443
 1291WAT      O 4391   4.441   3.773   2.025
 1291WAT     H1 4392   4.421   3.686   2.061
 1291WAT     H2 4393   4.424   3.764   1.931
 1292WAT      O 4394   4.519   4.836   3.496
 1292WAT     H1 4395   4.465   4.908   3.464
 1292WAT     H2 4396   4.544   4.788   3.417
 1293WAT      O 4397   4.644   3.632   3.648
 1293WAT     H1 4398   4.703   3.602   3.717
 1293WAT     H2 4399   4.562   3.585   3.664
 1294WAT      O 4400   5.126   3.594   3.672
 1294WAT     H1 4401   5.057   3.528   3.665
 1294WAT     H2 4402   5.198   3.549   3.716
 1295WAT      O 4403   5.189   3.254   2.278
 1295WAT     H1 4404   5.217   3.169   2.313
 1295WAT     H2 4405   5.112   3.277   2.329
 1296WAT      O 4406   4.321   3.483   2.023
 1296WAT     H1 4407   4.351   3.483   1.933
 1296WAT     H2 4408   4.395   3.447   2.073
 1297WAT      O 4409   4.804   4.959   3.522
 1297WAT     H1 4410   4.797   5.049   3.552
 1297WAT     H2 4411   4.714   4.927   3.519
 1298WAT      O 4412   4.643   3.377   2.122
 1298WAT     H1 4413   4.608   3.309   2.064
 1298WAT     H2 4414   4.663   3.331   2.203
 1299WAT      O 4415   4.859   4.876   2.284
 1299WAT     H1 4416   4.949   4.910   2.286
 1299WAT     H2 4417   4.862   4.803   2.221
 1300WAT      O 4418   4.223   4.413   2.107
 1300WAT     H1 4419   4.267   4.467   2.172
 1300WAT     H2 4420   4.272   4.330   2.108
 1301WAT      O 4421   3.945   4.692   2.852
 1301WAT     H1 4422   3.978   4.605   2.829
 1301WAT     H2 4423   3.988   4.712   2.935
 1302WAT      O 4424   4.404   4.525   2.618
 1302WAT     H1 4425   4.374   4.513   2.708
 1302WAT     H2 4426   4.394   4.439   2.577
 1303WAT      O 4427   3.994   4.779   3.126
 1303WAT     H1 4428   3.950   4.797   3.209
 1303WAT     H2 4429   4.050   4.854   3.112
 1304WAT      O 4430   5.557   4.729   3.555
 1304WAT     H1 4431   5.497   4.735   3.480
 1304WAT     H2 4432   5.570   4.635   3.567
 1305WAT      O 4433   3.977   4.030   2.762
 1305WAT     H1 4434   3.911   4.003   2.697
 1305WAT     H2 4435   4.061   4.019   2.717
 1306WAT      O 4436   5.426   4.401   3.364
 1306WAT     H1 4437   5.344   4.444   3.391
 1306WAT     H2 4438   5.466   4.462   3.303
 1307WAT      O 4439   5.632   4.207   2.054
 1307WAT     H1 4440   5.659   4.297   2.041
 1307WAT     H2 4441   5.613   4.200   2.148
 1308WAT      O 4442   5.272   3.509   2.184
 1308WAT     H1 4443   5.314   3.490   2.100
 1308WAT     H2 4444   5.241   3.424   2.215
 1309WAT      O 4445   5.622   4.000   2.554
 1309WAT     H1 4446   5.584   3.924   2.510
 1309WAT     H2 4447   5.549   4.039   2.602
 1310WAT      O 4448   4.081   4.068   3.216
 1310WAT     H1 4449   4.117   4.060   3.304
 1310WAT     H2 4450   4.024   3.992   3.206
 1311WAT      O 4451   5.561   3.915   3.517
 1311WAT     H1 4452   5.537   3.892   3.427
 1311WAT     H2 4453   5.587   4.007   3.512
 1312WAT      O 4454   5.405   3.438   3.795
 1312WAT     H1 4455   5.492   3.439   3.833
 1312WAT     H2 4456   5.406   3.364   3.734
 1313WAT      O 4457   3.898   3.751   2.356
 1313WAT     H1 4458   3.808   3.777   2.338
 1313WAT     H2 4459   3.947   3.778   2.278
 1314WAT      O 4460   5.549   3.823   2.884
 1314WAT     H1 4461   5.602   3.774   2.821
 1314WAT     H2 4462   5.608   3.836   2.958
 1315WAT      O 4463   5.567   3.831   3.236
 1315WAT     H1 4464   5.472   3.828   3.247
 1315WAT     H2 4465   5.585   3.922   3.212
 1316WAT      O 4466   4.152   3.656   2.147
 1316WAT     H1 4467   4.223   3.614   2.098
 1316WAT     H2 4468   4.081   3.663   2.084
 1317WAT      O 4469   4.117   3.262   2.051
 1317WAT     H1 4470   4.190   3.316   2.083
 1317WAT     H2 4471   4.144   3.234   1.963
 1318WAT      O 4472   5.498   3.749   2.478
 1318WAT     H1 4473   5.548   3.725   2.556
 1318WAT     H2 4474   5.478   3.665   2.436
 1319WAT      O 4475   5.476   3.206   3.377
 1319WAT     H1 4476   5.539   3.268   3.413
 1319WAT     H2 4477   5.490   3.210   3.282
 1320WAT      O 4478   5.431   4.876   2.717
 1320WAT     H1 4479   5.491   4.844   2.649
 1320WAT     H2 4480   5.457   4.829   2.796
 1321WAT      O 4481   4.222   4.520   3.732
 1321WAT     H1 4482   4.218   4.483   3.820
 1321WAT     H2 4483   4.235   4.613   3.746
 1322WAT      O 4484   4.592   4.675   3.292
 1322WAT     H1 4485   4.568   4.702   3.203
 1322WAT     H2 4486   4.686   4.692   3.297
 1323WAT      O 4487   4.813   3.322   3.668
 1323WAT     H1 4488   4.807   3.381   3.742
 1323WAT     H2 4489   4.907   3.311   3.653
 1324WAT      O 4490   5.076   3.287   3.631
 1324WAT     H1 4491   5.138   3.319   3.565
 1324WAT     H2 4492   5.131   3.239   3.693
 1325WAT      O 4493   4.129   3.155   3.643
 1325WAT     H1 4494   4.183   3.137   3.566
 1325WAT     H2 4495   4.135   3.076   3.696
 1326WAT      O 4496   4.206   4.814   3.444
 1326WAT     H1 4497   4.147   4.801   3.518
 1326WAT     H2 4498   4.205   4.731   3.397
 1327WAT      O 4499   5.151   3.144   3.264
 1327WAT     H1 4500   5.063   3.177   3.244
 1327WAT     H2 4501   5.140   3.096   3.347
 1328WAT      O 4502   5.241   3.364   3.403
 1328WAT     H1 4503   5.208   3.283   3.365
 1328WAT     H2 4504   5.336   3.360   3.390
 1329WAT      O 4505   5.487   4.941   3.100
 1329WAT     H1 4506   5.441   5.017   3.063
 1329WAT     H2 4507   5.424   4.869   3.094
 1330WAT      O 4508   4.169   4.551   3.339
 1330WAT     H1 4509   4.096   4.489   3.332
 1330WAT     H2 4510   4.175   4.590   3.252
 1331WAT      O 4511   4.530   4.772   3.017
 1331WAT     H1 4512   4.581   4.711   2.965
 1331WAT     H2 4513   4.595   4.823   3.067
 1332WAT      O 4514   4.804   4.861   3.100
 1332WAT     H1 4515   4.832   4.836   3.012
 1332WAT     H2 4516   4.855   4.806   3.159
 1333WAT      O 4517   4.925   3.235   3.158
 1333WAT     H1 4518   4.847   3.283   3.186
 1333WAT     H2 4519   4.896   3.145   3.147
 1334WAT      O 4520   5.380   3.305   2.963
 1334WAT     H1 4521   5.425   3.300   2.878
 1334WAT     H2 4522   5.354   3.397   2.970
 1335WAT      O 4523   5.567   3.269   2.764
 1335WAT     H1 4524   5.561   3.174   2.749
 1335WAT     H2 4525   5.645   3.279   2.818
 1336WAT      O 4526   3.997   4.883   2.660
 1336WAT     H1 4527   3.981   4.819   2.730
 1336WAT     H2 4528   3.911   4.903   2.625
 1337WAT      O 4529   4.060   3.266   2.410
 1337WAT     H1 4530   4.135   3.277   2.353
 1337WAT     H2 4531   4.013   3.349   2.406
 1338WAT      O 4532   4.714   3.477   2.709
 1338WAT     H1 4533   4.633   3.440   2.675
 1338WAT     H2 4534   4.764   3.402   2.739
 1339WAT      O 4535   5.164   3.144   2.833
 1339WAT     H1 4536   5.224   3.201   2.881
 1339WAT     H2 4537   5.090   3.200   2.811
 1340WAT      O 4538   5.478   3.184   2.360
 1340WAT     H1 4539   5.498   3.274   2.387
 1340WAT     H2 4540   5.400   3.161   2.410
 1341WAT      O 4541   4.158   4.752   2.404
 1341WAT     H1 4542   4.106   4.790   2.334
 1341WAT     H2 4543   4.150   4.814   2.476
 1342WAT      O 4544   4.297   3.318   2.264
 1342WAT     H1 4545   4.350   3.240   2.251
 1342WAT     H2 4546   4.360   3.386   2.288
 1343WAT      O 4547   4.516   3.292   2.570
 1343WAT     H1 4548   4.453   3.222   2.586
 1343WAT     H2 4549   4.462   3.368   2.548
 1344WAT      O 4550   4.810   4.953   3.837
 1344WAT     H1 4551   4.903   4.930   3.841
 1344WAT     H2 4552   4.809   5.036   3.789
 1345WAT      O 4553   5.634   4.908   2.537
 1345WAT     H1 4554   5.651   4.839   2.472
 1345WAT     H2 4555   5.564   4.960   2.497
 1346WAT      O 4556   4.529   3.220   3.813
 1346WAT     H1 4557   4.501   3.270   3.737
 1346WAT     H2 4558   4.567   3.140   3.777
 1347WAT      O 4559   4.418   4.947   2.292
 1347WAT     H1 4560   4.491   4.918   2.237
 1347WAT     H2 4561   4.444   4.923   2.381
 1348WAT      O 4562   4.334   4.558   2.292
 1348WAT     H1 4563   4.271   4.605   2.347
 1348WAT     H2 4564   4.346   4.474   2.336
 1349WAT      O 4565   5.189   3.161   3.871
 1349WAT     H1 4566   5.178   3.193   3.961
 1349WAT     H2 4567   5.271   3.202   3.841
 1350WAT      O 4568   5.467   4.876   3.819
 1350WAT     H1 4569   5.546   4.827   3.798
 1350WAT     H2 4570   5.496   4.944   3.880
 1351WAT      O 4571   5.080   3.963   0.907
 1351WAT     H1 4572   5.072   3.872   0.880
 1351WAT     H2 4573   5.038   4.013   0.837
 1352WAT      O 4574   4.893   4.141   1.095
 1352WAT     H1 4575   4.815   4.093   1.124
 1352WAT     H2 4576   4.958   4.073   1.078
 1353WAT      O 4577   4.294   4.172   1.183
 1353WAT     H1 4578   4.211   4.147   1.223
 1353WAT     H2 4579   4.355   4.179   1.257
 1354WAT      O 4580   5.295   4.582   0.973
 1354WAT     H1 4581   5.249   4.505   1.006
 1354WAT     H2 4582   5.376   4.584   1.024
 1355WAT      O 4583   4.292   4.576   1.203
 1355WAT     H1 4584   4.323   4.487   1.185
 1355WAT     H2 4585   4.367   4.631   1.180
 1356WAT      O 4586   4.135   3.668   0.562
 1356WAT     H1 4587   4.047   3.703   0.551
 1356WAT     H2 4588   4.164   3.648   0.472
 1357WAT      O 4589   3.932   3.928   1.150
 1357WAT     H1 4590   3.989   3.852   1.150
 1357WAT     H2 4591   3.932   3.958   1.059
 1358WAT      O 4592   4.917   4.810   0.935
 1358WAT     H1 4593   4.856   4.856   0.878
 1358WAT     H2 4594   5.003   4.826   0.895
 1359WAT      O 4595   4.837   4.409   1.096
 1359WAT     H1 4596   4.830   4.315   1.080
 1359WAT     H2 4597   4.913   4.418   1.153
 1360WAT      O 4598   4.056   3.469   1.329
 1360WAT     H1 4599   4.038   3.380   1.357
 1360WAT     H2 4600   4.016   3.524   1.396
 1361WAT      O 4601   4.940   3.689   1.119
 1361WAT     H1 4602   4.978   3.602   1.108
 1361WAT     H2 4603   4.930   3.723   1.030
 1362WAT      O 4604   4.353   3.527   0.665
 1362WAT     H1 4605   4.364   3.617   0.696
 1362WAT     H2 4606   4.262   3.522   0.636
 1363WAT      O 4607   5.318   3.439   0.812
 1363WAT     H1 4608   5.400   3.390   0.816
 1363WAT     H2 4609   5.322   3.498   0.887
 1364WAT      O 4610   4.118   3.719   1.190
 1364WAT     H1 4611   4.186   3.745   1.251
 1364WAT     H2 4612   4.086   3.635   1.223
 1365WAT      O 4613   4.537   3.824   1.098
 1365WAT     H1 4614   4.588   3.873   1.162
 1365WAT     H2 4615   4.590   3.746   1.081
 1366WAT      O 4616   4.365   3.288   1.525
 1366WAT     H1 4617   4.366   3.339   1.444
 1366WAT     H2 4618   4.282   3.240   1.523
 1367WAT      O 4619   5.004   4.299   0.675
 1367WAT     H1 4620   4.942   4.345   0.618
 1367WAT     H2 4621   5.055   4.368   0.716
 1368WAT      O 4622   4.490   4.252   1.343
 1368WAT     H1 4623   4.457   4.314   1.407
 1368WAT     H2 4624   4.508   4.304   1.265
 1369WAT      O 4625   5.342   3.633   1.089
 1369WAT     H1 4626   5.271   3.662   1.147
 1369WAT     H2 4627   5.378   3.714   1.053
 1370WAT      O 4628   4.334   3.459   1.326
 1370WAT     H1 4629   4.368   3.543   1.296
 1370WAT     H2 4630   4.240   3.474   1.337
 1371WAT      O 4631   4.412   4.448   1.524
 1371WAT     H1 4632   4.473   4.516   1.496
 1371WAT     H2 4633   4.326   4.489   1.515
 1372WAT      O 4634   3.941   4.367   0.412
 1372WAT     H1 4635   3.903   4.416   0.339
 1372WAT     H2 4636   3.967   4.435   0.475
 1373WAT      O 4637   5.503   4.595   1.316
 1373WAT     H1 4638   5.435   4.662   1.315
 1373WAT     H2 4639   5.557   4.615   1.239
 1374WAT      O 4640   5.649   3.578   1.128
 1374WAT     H1 4641   5.554   3.581   1.142
 1374WAT     H2 4642   5.681   3.659   1.167
 1375WAT      O 4643   4.702   3.207   0.958
 1375WAT     H1 4644   4.733   3.152   0.886
 1375WAT     H2 4645   4.609   3.221   0.940
 1376WAT      O 4646   5.257   4.779   1.187
 1376WAT     H1 4647   5.258   4.739   1.100
 1376WAT     H2 4648   5.202   4.857   1.177
 1377WAT      O 4649   5.386   4.451   0.696
 1377WAT     H1 4650   5.375   4.357   0.709
 1377WAT     H2 4651   5.386   4.487   0.785
 1378WAT      O 4652   5.197   4.269   1.320
 1378WAT     H1 4653   5.239   4.248   1.236
 1378WAT     H2 4654   5.269   4.295   1.377
 1379WAT      O 4655   4.941   4.014   0.632
 1379WAT     H1 4656   4.848   4.007   0.655
 1379WAT     H2 4657   4.956   4.108   0.620
 1380WAT      O 4658   4.939   3.641   0.331
 1380WAT     H1 4659   4.845   3.657   0.340
 1380WAT     H2 4660   4.971   3.713   0.277
 1381WAT      O 4661   5.591   4.109   1.329
 1381WAT     H1 4662   5.509   4.116   1.282
 1381WAT     H2 4663   5.651   4.168   1.282
 1382WAT      O 4664   5.344   4.170   0.682
 1382WAT     H1 4665   5.282   4.136   0.617
 1382WAT     H2 4666   5.342   4.106   0.753
 1383WAT      O 4667   5.288   3.788   1.424
 1383WAT     H1 4668   5.247   3.871   1.449
 1383WAT     H2 4669   5.215   3.729   1.404
 1384WAT      O 4670   4.501   4.067   0.910
 1384WAT     H1 4671   4.461   3.995   0.860
 1384WAT     H2 4672   4.510   4.032   0.999
 1385WAT      O 4673   4.548   4.435   1.126
 1385WAT     H1 4674   4.518   4.375   1.058
 1385WAT     H2 4675   4.643   4.439   1.115
 1386WAT      O 4676   4.373   3.744   1.288
 1386WAT     H1 4677   4.428   3.755   1.210
 1386WAT     H2 4678   4.424   3.781   1.359
 1387WAT      O 4679   5.357   4.793   1.492
 1387WAT     H1 4680   5.309   4.873   1.473
 1387WAT     H2 4681   5.289   4.727   1.508
 1388WAT      O 4682   4.457   4.409   1.791
 1388WAT     H1 4683   4.368   4.432   1.816
 1388WAT     H2 4684   4.460   4.421   1.696
 1389WAT      O 4685   5.161   4.094   0.383
 1389WAT     H1 4686   5.205   4.010   0.368
 1389WAT     H2 4687   5.233   4.157   0.391
 1390WAT      O 4688   4.340   4.096   1.649
 1390WAT     H1 4689   4.326   4.183   1.686
 1390WAT     H2 4690   4.252   4.062   1.634
 1391WAT      O 4691   4.972   4.588   0.780
 1391WAT     H1 4692   5.016   4.662   0.738
 1391WAT     H2 4693   4.966   4.612   0.872
 1392WAT      O 4694   4.520   4.690   1.870
 1392WAT     H1 4695   4.517   4.731   1.783
 1392WAT     H2 4696   4.503   4.598   1.853
 1393WAT      O 4697   5.519   3.219   0.214
 1393WAT     H1 4698   5.488   3.229   0.304
 1393WAT     H2 4699   5.596   3.277   0.209
 1394WAT      O 4700   4.171   3.956   0.660
 1394WAT     H1 4701   4.159   4.029   0.599
 1394WAT     H2 4702   4.140   3.879   0.612
 1395WAT      O 4703   3.935   4.273   1.241
 1395WAT     H1 4704   3.943   4.287   1.146
 1395WAT     H2 4705   3.997   4.202   1.260
 1396WAT      O 4706   4.060   4.443   0.882
 1396WAT     H1 4707   4.019   4.457   0.796
 1396WAT     H2 4708   4.149   4.415   0.861
 1397WAT      O 4709   5.655   4.488   1.715
 1397WAT     H1 4710   5.668   4.464   1.624
 1397WAT     H2 4711   5.659   4.405   1.763
 1398WAT      O 4712   5.041   4.858   1.572
 1398WAT     H1 4713   5.093   4.849   1.653
 1398WAT     H2 4714   4.957   4.893   1.602
 1399WAT      O 4715   5.239   4.887   0.515
 1399WAT     H1 4716   5.223   4.858   0.605
 1399WAT     H2 4717   5.222   4.809   0.462
 1400WAT      O 4718   4.487   4.865   0.693
 1400WAT     H1 4719   4.469   4.773   0.672
 1400WAT     H2 4720   4.401   4.901   0.717
 1401WAT      O 4721   5.209   4.638   0.371
 1401WAT     H1 4722   5.140   4.637   0.305
 1401WAT     H2 4723   5.283   4.595   0.328
 1402WAT      O 4724   5.166   4.800   0.779
 1402WAT     H1 4725   5.211   4.722   0.810
 1402WAT     H2 4726   5.200   4.871   0.833
 1403WAT      O 4727   5.640   3.693   1.812
 1403WAT     H1 4728   5.579   3.744   1.759
 1403WAT     H2 4729   5.608   3.603   1.806
 1404WAT      O 4730   3.941   4.377   1.495
 1404WAT     H1 4731   3.957   4.330   1.413
 1404WAT     H2 4732   3.987   4.327   1.561
 1405WAT      O 4733   4.418   3.290   0.998
 1405WAT     H1 4734   4.374   3.369   0.965
 1405WAT     H2 4735   4.474   3.323   1.069
 1406WAT      O 4736   4.847   3.577   1.558
 1406WAT     H1 4737   4.800   3.598   1.640
 1406WAT     H2 4738   4.806   3.496   1.528
 1407WAT      O 4739   5.347   3.699   1.671
 1407WAT     H1 4740   5.262   3.669   1.704
 1407WAT     H2 4741   5.331   3.724   1.580
 1408WAT      O 4742   5.056   3.849   1.881
 1408WAT     H1 4743   5.089   3.766   1.847
 1408WAT     H2 4744   5.135   3.902   1.896
 1409WAT      O 4745   4.729   3.253   0.486
 1409WAT     H1 4746   4.667   3.252   0.559
 1409WAT     H2 4747   4.721   3.166   0.447
 1410WAT      O 4748   4.622   3.345   1.184
 1410WAT     H1 4749   4.651   3.436   1.176
 1410WAT     H2 4750   4.677   3.296   1.123
 1411WAT      O 4751   4.397   3.803   0.771
 1411WAT     H1 4752   4.374   3.781   0.861
 1411WAT     H2 4753   4.319   3.846   0.736
 1412WAT      O 4754   5.120   3.803   0.631
 1412WAT     H1 4755   5.060   3.876   0.612
 1412WAT     H2 4756   5.175   3.797   0.553
 1413WAT      O 4757   4.641   3.893   1.838
 1413WAT     H1 4758   4.631   3.799   1.823
 1413WAT     H2 4759   4.725   3.915   1.798
 1414WAT      O 4760   4.981   3.667   0.834
 1414WAT     H1 4761   5.020   3.699   0.753
 1414WAT     H2 4762   5.017   3.579   0.845
 1415WAT      O 4763   4.154   3.534   1.653
 1415WAT     H1 4764   4.115   3.619   1.674
 1415WAT     H2 4765   4.085   3.470   1.672
 1416WAT      O 4766   4.812   3.542   1.960
 1416WAT     H1 4767   4.743   3.523   2.023
 1416WAT     H2 4768   4.886   3.570   2.013
 1417WAT      O 4769   3.884   3.326   1.056
 1417WAT     H1 4770   3.855   3.383   1.127
 1417WAT     H2 4771   3.959   3.278   1.093
 1418WAT      O 4772   5.039   3.926   1.243
 1418WAT     H1 4773   4.966   3.977   1.278
 1418WAT     H2 4774   4.999   3.844   1.213
 1419WAT      O 4775   4.683   3.594   1.084
 1419WAT     H1 4776   4.683   3.550   0.999
 1419WAT     H2 4777   4.773   3.626   1.095
 1420WAT      O 4778   4.268   3.582   0.980
 1420WAT     H1 4779   4.234   3.630   1.056
 1420WAT     H2 4780   4.192   3.537   0.944
 1421WAT      O 4781   4.689   3.694   0.383
 1421WAT     H1 4782   4.701   3.690   0.478
 1421WAT     H2 4783   4.651   3.780   0.367
 1422WAT      O 4784   5.085   3.471   1.185
 1422WAT     H1 4785   5.087   3.517   1.269
 1422WAT     H2 4786   5.061   3.381   1.206
 1423WAT      O 4787   4.590   3.925   0.323
 1423WAT     H1 4788   4.534   3.880   0.260
 1423WAT     H2 4789   4.661   3.961   0.269
 1424WAT      O 4790   5.428   3.213   1.768
 1424WAT     H1 4791   5.461   3.140   1.821
 1424WAT     H2 4792   5.432   3.181   1.678
 1425WAT      O 4793   4.098   4.315   1.710
 1425WAT     H1 4794   4.060   4.251   1.770
 1425WAT     H2 4795   4.129   4.385   1.767
 1426WAT      O 4796   4.713   4.000   1.259
 1426WAT     H1 4797   4.750   3.952   1.333
 1426WAT     H2 4798   4.694   4.087   1.293
 1427WAT      O 4799   3.999   3.474   0.872
 1427WAT     H1 4800   3.971   3.438   0.955
 1427WAT     H2 4801   3.993   3.401   0.810
 1428WAT      O 4802   4.492   3.904   1.490
 1428WAT     H1 4803   4.462   3.992   1.513
 1428WAT     H2 4804   4.588   3.910   1.494
 1429WAT      O 4805   4.345   4.324   0.550
 1429WAT     H1 4806   4.268   4.270   0.534
 1429WAT     H2 4807   4.418   4.272   0.516
 1430WAT      O 4808   5.421   4.224   1.129
 1430WAT     H1 4809   5.493   4.274   1.090
 1430WAT     H2 4810   5.401   4.156   1.065
 1431WAT      O 4811   4.967   3.363   0.544
 1431WAT     H1 4812   4.886   3.314   0.536
 1431WAT     H2 4813   4.947   3.447   0.502
 1432WAT      O 4814   4.959   4.231   1.718
 1432WAT     H1 4815   4.952   4.139   1.693
 1432WAT     H2 4816   4.896   4.241   1.789
 1433WAT      O 4817   5.238   3.801   0.373
 1433WAT     H1 4818   5.327   3.832   0.356
 1433WAT     H2 4819   5.235   3.713   0.334
 1434WAT      O 4820   4.349   4.291   0.914
 1434WAT     H1 4821   4.401   4.211   0.908
 1434WAT     H2 4822   4.304   4.285   0.998
 1435WAT      O 4823   4.838   4.418   0.441
 1435WAT     H1 4824   4.872   4.492   0.392
 1435WAT     H2 4825   4.755   4.449   0.477
 1436WAT      O 4826   4.098   3.988   1.605
 1436WAT     H1 4827   4.062   4.054   1.664
 1436WAT     H2 4828   4.068   3.905   1.642
 1437WAT      O 4829   4.418   4.034   1.894
 1437WAT     H1 4830   4.388   4.048   1.804
 1437WAT     H2 4831   4.495   3.978   1.884
 1438WAT      O 4832   4.952   4.513   1.693
 1438WAT     H1 4833   4.954   4.420   1.671
 1438WAT     H2 4834   4.881   4.522   1.757
 1439WAT      O 4835   5.466   3.932   0.320
 1439WAT     H1 4836   5.457   3.975   0.235
 1439WAT     H2 4837   5.537   3.978   0.363
 1440WAT      O 4838   5.573   4.177   1.628
 1440WAT     H1 4839   5.501   4.237   1.608
 1440WAT     H2 4840   5.626   4.177   1.548
 1441WAT      O 4841   5.568   4.617   0.593
 1441WAT     H1 4842   5.504   4.552   0.620
 1441WAT     H2 4843   5.530   4.658   0.515
 1442WAT      O 4844   5.126   4.350   0.978
 1442WAT     H1 4845   5.161   4.290   0.912
 1442WAT     H2 4846   5.038   4.317   0.995
 1443WAT      O 4847   4.735   4.426   0.718
 1443WAT     H1 4848   4.804   4.481   0.756
 1443WAT     H2 4849   4.656   4.480   0.722
 1444WAT      O 4850   3.949   3.988   0.267
 1444WAT     H1 4851   4.036   4.016   0.296
 1444WAT     H2 4852   3.900   4.069   0.256
 1445WAT      O 4853   4.665   4.126   0.680
 1445WAT     H1 4854   4.711   4.207   0.702
 1445WAT     H2 4855   4.630   4.095   0.763
 1446WAT      O 4856   4.895   4.677   1.402
 1446WAT     H1 4857   4.960   4.698   1.470
 1446WAT     H2 4858   4.932   4.601   1.357
 1447WAT      O 4859   4.255   3.161   0.727
 1447WAT     H1 4860   4.242   3.160   0.822
 1447WAT     H2 4861   4.173   3.195   0.692
 1448WAT      O 4862   5.023   4.478   1.274
 1448WAT     H1 4863   5.087   4.408   1.286
 1448WAT     H2 4864   5.075   4.556   1.256
 1449WAT      O 4865   5.407   4.506   0.247
 1449WAT     H1 4866   5.385   4.435   0.306
 1449WAT     H2 4867   5.368   4.481   0.163
 1450WAT      O 4868   5.200   4.558   1.595
 1450WAT     H1 4869   5.234   4.616   1.662
 1450WAT     H2 4870   5.108   4.545   1.618
 1451WAT      O 4871   3.986   4.909   0.324
 1451WAT     H1 4872   4.021   4.969   0.259
 1451WAT     H2 4873   3.971   4.964   0.401
 1452WAT      O 4874   3.955   3.337   1.673
 1452WAT     H1 4875   3.884   3.357   1.733
 1452WAT     H2 4876   3.997   3.259   1.710
 1453WAT      O 4877   5.366   4.298   0.413
 1453WAT     H1 4878   5.337   4.344   0.492
 1453WAT     H2 4879   5.445   4.252   0.440
 1454WAT      O 4880   3.984   4.736   1.772
 1454WAT     H1 4881   3.995   4.641   1.757
 1454WAT     H2 4882   3.919   4.762   1.707
 1455WAT      O 4883   4.783   4.563   1.912
 1455WAT     H1 4884   4.751   4.491   1.966
 1455WAT     H2 4885   4.716   4.630   1.919
 1456WAT      O 4886   4.587   4.647   0.406
 1456WAT     H1 4887   4.586   4.721   0.344
 1456WAT     H2 4888   4.495   4.623   0.415
 1457WAT      O 4889   4.147   4.169   0.480
 1457WAT     H1 4890   4.087   4.243   0.481
 1457WAT     H2 4891   4.195   4.178   0.398
 1458WAT      O 4892   5.105   3.586   1.448
 1458WAT     H1 4893   5.141   3.504   1.481
 1458WAT     H2 4894   5.019   3.592   1.489
 1459WAT      O 4895   5.441   3.481   0.529
 1459WAT     H1 4896   5.378   3.492   0.457
 1459WAT     H2 4897   5.392   3.503   0.608
 1460WAT      O 4898   4.886   4.654   0.272
 1460WAT     H1 4899   4.896   4.633   0.179
 1460WAT     H2 4900   4.796   4.628   0.293
 1461WAT      O 4901   4.638   3.709   0.670
 1461WAT     H1 4902   4.567   3.756   0.714
 1461WAT     H2 4903   4.666   3.644   0.734
 1462WAT      O 4904   4.801   3.851   1.470
 1462WAT     H1 4905   4.850   3.899   1.537
 1462WAT     H2 4906   4.815   3.759   1.491
 1463WAT      O 4907   5.041   3.382   0.814
 1463WAT     H1 4908   5.029   3.384   0.719
 1463WAT     H2 4909   5.136   3.387   0.826
 1464WAT      O 4910   4.750   4.905   0.742
 1464WAT     H1 4911   4.775   4.902   0.649
 1464WAT     H2 4912   4.655   4.893   0.741
 1465WAT      O 4913   4.458   3.540   0.408
 1465WAT     H1 4914   4.543   3.584   0.401
 1465WAT     H2 4915   4.422   3.571   0.491
 1466WAT      O 4916   5.521   3.473   1.555
 1466WAT     H1 4917   5.471   3.547   1.588
 1466WAT     H2 4918   5.603   3.512   1.523
 1467WAT      O 4919   5.350   3.997   0.899
 1467WAT     H1 4920   5.256   3.999   0.917
 1467WAT     H2 4921   5.382   3.919   0.944
 1468WAT      O 4922   4.348   4.166   0.255
 1468WAT     H1 4923   4.425   4.154   0.311
 1468WAT     H2 4924   4.356   4.096   0.190
 1469WAT      O 4925   4.218   3.909   0.324
 1469WAT     H1 4926   4.226   3.814   0.335
 1469WAT     H2 4927   4.307   3.942   0.334
 1470WAT      O 4928   5.551   4.714   1.067
 1470WAT     H1 4929   5.563   4.797   1.114
 1470WAT     H2 4930   5.637   4.693   1.032
 1471WAT      O 4931   4.298   4.924   1.034
 1471WAT     H1 4932   4.372   4.869   1.061
 1471WAT     H2 4933   4.336   5.010   1.020
 1472WAT      O 4934   3.986   4.530   0.621
 1472WAT     H1 4935   3.894   4.555   0.620
 1472WAT     H2 4936   4.033   4.613   0.609
 1473WAT      O 4937   4.199   4.842   1.953
 1473WAT     H1 4938   4.279   4.874   1.994
 1473WAT     H2 4939   4.147   4.806   2.025
 1474WAT      O 4940   4.609   4.841   0.216
 1474WAT     H1 4941   4.688   4.870   0.171
 1474WAT     H2 4942   4.557   4.798   0.148
 1475WAT      O 4943   5.082   4.453   1.947
 1475WAT     H1 4944   5.022   4.455   1.873
 1475WAT     H2 4945   5.052   4.380   2.001
 1476WAT      O 4946   5.225   4.826   1.809
 1476WAT     H1 4947   5.320   4.817   1.804
 1476WAT     H2 4948   5.210   4.892   1.876
 1477WAT      O 4949   5.514   4.764   0.358
 1477WAT     H1 4950   5.486   4.722   0.277
 1477WAT     H2 4951   5.494   4.857   0.346
 1478WAT      O 4952   3.970   4.091   1.847
 1478WAT     H1 4953   4.021   4.033   1.904
 1478WAT     H2 4954   3.897   4.119   1.901
 1479WAT      O 4955   4.676   4.232   1.800
 1479WAT     H1 4956   4.599   4.288   1.792
 1479WAT     H2 4957   4.694   4.202   1.711
 1480WAT      O 4958   4.985   4.269   0.263
 1480WAT     H1 4959   4.930   4.314   0.327
 1480WAT     H2 4960   5.047   4.219   0.315
 1481WAT      O 4961   5.390   4.405   1.856
 1481WAT     H1 4962   5.464   4.438   1.806
 1481WAT     H2 4963   5.314   4.422   1.801
 1482WAT      O 4964   4.174   3.905   1.937
 1482WAT     H1 4965   4.178   3.875   2.027
 1482WAT     H2 4966   4.259   3.945   1.921
 1483WAT      O 4967   4.552   4.165   0.453
 1483WAT     H1 4968   4.594   4.149   0.537
 1483WAT     H2 4969   4.564   4.084   0.403
 1484WAT      O 4970   4.368   3.763   1.733
 1484WAT     H1 4971   4.315   3.714   1.671
 1484WAT     H2 4972   4.435   3.806   1.680
 1485WAT      O 4973   5.258   4.210   1.710
 1485WAT     H1 4974   5.299   4.225   1.795
 1485WAT     H2 4975   5.164   4.222   1.726
 1486WAT      O 4976   5.305   3.944   1.910
 1486WAT     H1 4977   5.363   3.868   1.901
 1486WAT     H2 4978   5.322   3.997   1.832
 1487WAT      O 4979   4.417   3.460   1.741
 1487WAT     H1 4980   4.407   3.398   1.669
 1487WAT     H2 4981   4.358   3.532   1.719
 1488WAT      O 4982   4.693   3.316   1.445
 1488WAT     H1 4983   4.648   3.318   1.360
 1488WAT     H2 4984   4.630   3.276   1.504
 1489WAT      O 4985   4.734   4.205   1.507
 1489WAT     H1 4986   4.776   4.289   1.489
 1489WAT     H2 4987   4.642   4.219   1.484
 1490WAT      O 4988   4.967   3.978   1.645
 1490WAT     H1 4989   4.979   3.919   1.719
 1490WAT     H2 4990   5.053   3.982   1.603
 1491WAT      O 4991   5.201   4.034   1.503
 1491WAT     H1 4992   5.149   4.086   1.442
 1491WAT     H2 4993   5.236   4.097   1.566
 1492WAT      O 4994   4.519   4.836   1.618
 1492WAT     H1 4995   4.465   4.908   1.586
 1492WAT     H2 4996   4.544   4.788   1.539
 1493WAT      O 4997   4.644   3.632   1.771
 1493WAT     H1 4998   4.703   3.602   1.840
 1493WAT     H2 4999   4.562   3.585   1.786
 1494WAT      O 5000   5.126   3.594   1.794
 1494WAT     H1 5001   5.057   3.528   1.788
 1494WAT     H2 5002   5.198   3.549   1.839
 1495WAT      O 5003   5.189   3.254   0.400
 1495WAT     H1 5004   5.217   3.169   0.436
 1495WAT     H2 5005   5.112   3.277   0.451
 1496WAT      O 5006   4.804   4.959   1.644
 1496WAT     H1 5007   4.797   5.049   1.675
 1496WAT     H2 5008   4.714   4.927   1.641
 1497WAT      O 5009   4.643   3.377   0.245
 1497WAT     H1 5010   4.608   3.309   0.187
 1497WAT     H2 5011   4.663   3.331   0.326
 1498WAT      O 5012   4.859   4.876   0.406
 1498WAT     H1 5013   4.949   4.910   0.409
 1498WAT     H2 5014   4.862   4.803   0.344
 1499WAT      O 5015   4.223   4.413   0.229
 1499WAT     H1 5016   4.267   4.467   0.295
 1499WAT     H2 5017   4.272   4.330   0.230
 1500WAT      O 5018   3.945   4.692   0.974
 1500WAT     H1 5019   3.978   4.605   0.951
 1500WAT     H2 5020   3.988   4.712   1.058
 1501WAT      O 5021   4.404   4.525   0.740
 1501WAT     H1 5022   4.374   4.513   0.831
 1501WAT     H2 5023   4.394   4.439   0.700
 1502WAT      O 5024   3.994   4.779   1.248
 1502WAT     H1 5025   3.950   4.797   1.332
 1502WAT     H2 5026   4.050   4.854   1.234
 1503WAT      O 5027   5.557   4.729   1.677
 1503WAT     H1 5028   5.497   4.735   1.603
 1503WAT     H2 5029   5.570   4.635   1.690
 1504WAT      O 5030   3.977   4.030   0.884
 1504WAT     H1 5031   3.911   4.003   0.820
 1504WAT     H2 5032   4.061   4.019   0.839
 1505WAT      O 5033   5.426   4.401   1.487
 1505WAT     H1 5034   5.344   4.444   1.513
 1505WAT     H2 5035   5.466   4.462   1.426
 1506WAT      O 5036   5.632   4.207   0.177
 1506WAT     H1 5037   5.659   4.297   0.164
 1506WAT     H2 5038   5.613   4.200   0.270
 1507WAT      O 5039   5.272   3.509   0.306
 1507WAT     H1 5040   5.314   3.490   0.222
 1507WAT     H2 5041   5.241   3.424   0.337
 1508WAT      O 5042   5.622   4.000   0.676
 1508WAT     H1 5043   5.584   3.924   0.633
 1508WAT     H2 5044   5.549   4.039   0.725
 1509WAT      O 5045   4.081   4.068   1.338
 1509WAT     H1 5046   4.117   4.060   1.426
 1509WAT     H2 5047   4.024   3.992   1.328
 1510WAT      O 5048   5.561   3.915   1.640
 1510WAT     H1 5049   5.537   3.892   1.549
 1510WAT     H2 5050   5.587   4.007   1.635
 1511WAT      O 5051   4.036   3.759   1.729
 1511WAT     H1 5052   3.946   3.756   1.763
 1511WAT     H2 5053   4.090   3.779   1.805
 1512WAT      O 5054   5.405   3.438   1.917
 1512WAT     H1 5055   5.492   3.439   1.956
 1512WAT     H2 5056   5.406   3.364   1.856
 1513WAT      O 5057   3.898   3.751   0.478
 1513WAT     H1 5058   3.808   3.777   0.461
 1513WAT     H2 5059   3.947   3.778   0.400
 1514WAT      O 5060   5.549   3.823   1.006
 1514WAT     H1 5061   5.602   3.774   0.943
 1514WAT     H2 5062   5.608   3.836   1.081
 1515WAT      O 5063   5.567   3.831   1.358
 1515WAT     H1 5064   5.472   3.828   1.370
 1515WAT     H2 5065   5.585   3.922   1.335
 1516WAT      O 5066   4.152   3.656   0.269
 1516WAT     H1 5067   4.223   3.614   0.221
 1516WAT     H2 5068   4.081   3.663   0.206
 1517WAT      O 5069   5.498   3.749   0.600
 1517WAT     H1 5070   5.548   3.725   0.679
 1517WAT     H2 5071   5.478   3.665   0.558
 1518WAT      O 5072   4.086   3.187   1.164
 1518WAT     H1 5073   4.151   3.132   1.120
 1518WAT     H2 5074   4.128   3.212   1.246
 1519WAT      O 5075   5.476   3.206   1.499
 1519WAT     H1 5076   5.539   3.268   1.536
 1519WAT     H2 5077   5.490   3.210   1.405
 1520WAT      O 5078   5.431   4.876   0.840
 1520WAT     H1 5079   5.491   4.844   0.772
 1520WAT     H2 5080   5.457   4.829   0.919
 1521WAT      O 5081   4.061   3.202   1.438
 1521WAT     H1 5082   4.027   3.248   1.514
 1521WAT     H2 5083   4.028   3.113   1.446
 1522WAT      O 5084   4.222   4.520   1.854
 1522WAT     H1 5085   4.218   4.483   1.943
 1522WAT     H2 5086   4.235   4.613   1.868
 1523WAT      O 5087   4.592   4.675   1.415
 1523WAT     H1 5088   4.568   4.702   1.326
 1523WAT     H2 5089   4.686   4.692   1.420
 1524WAT      O 5090   4.813   3.322   1.790
 1524WAT     H1 5091   4.807   3.381   1.865
 1524WAT     H2 5092   4.907   3.311   1.776
 1525WAT      O 5093   5.076   3.287   1.754
 1525WAT     H1 5094   5.138   3.319   1.688
 1525WAT     H2 5095   5.131   3.239   1.816
 1526WAT      O 5096   4.129   3.155   1.765
 1526WAT     H1 5097   4.183   3.137   1.689
 1526WAT     H2 5098   4.135   3.076   1.819
 1527WAT      O 5099   4.206   4.814   1.566
 1527WAT     H1 5100   4.147   4.801   1.640
 1527WAT     H2 5101   4.205   4.731   1.520
 1528WAT      O 5102   5.151   3.144   1.387
 1528WAT     H1 5103   5.063   3.177   1.366
 1528WAT     H2 5104   5.140   3.096   1.469
 1529WAT      O 5105   5.241   3.364   1.525
 1529WAT     H1 5106   5.208   3.283   1.487
 1529WAT     H2 5107   5.336   3.360   1.513
 1530WAT      O 5108   5.487   4.941   1.222
 1530WAT     H1 5109   5.441   5.017   1.185
 1530WAT     H2 5110   5.424   4.869   1.217
 1531WAT      O 5111   4.169   4.551   1.461
 1531WAT     H1 5112   4.096   4.489   1.455
 1531WAT     H2 5113   4.175   4.590   1.374
 1532WAT      O 5114   4.530   4.772   1.140
 1532WAT     H1 5115   4.581   4.711   1.087
 1532WAT     H2 5116   4.595   4.823   1.189
 1533WAT      O 5117   4.804   4.861   1.223
 1533WAT     H1 5118   4.832   4.836   1.135
 1533WAT     H2 5119   4.855   4.806   1.282
 1534WAT      O 5120   4.925   3.235   1.281
 1534WAT     H1 5121   4.847   3.283   1.309
 1534WAT     H2 5122   4.896   3.145   1.270
 1535WAT      O 5123   5.380   3.305   1.085
 1535WAT     H1 5124   5.425   3.300   1.000
 1535WAT     H2 5125   5.354   3.397   1.092
 1536WAT      O 5126   5.567   3.269   0.886
 1536WAT     H1 5127   5.561   3.174   0.872
 1536WAT     H2 5128   5.645   3.279   0.941
 1537WAT      O 5129   3.997   4.883   0.782
 1537WAT     H1 5130   3.981   4.819   0.852
 1537WAT     H2 5131   3.911   4.903   0.747
 1538WAT      O 5132   4.060   3.266   0.533
 1538WAT     H1 5133   4.135   3.277   0.475
 1538WAT     H2 5134   4.013   3.349   0.528
 1539WAT      O 5135   4.714   3.477   0.832
 1539WAT     H1 5136   4.633   3.440   0.798
 1539WAT     H2 5137   4.764   3.402   0.862
 1540WAT      O 5138   5.164   3.144   0.956
 1540WAT     H1 5139   5.224   3.201   1.003
 1540WAT     H2 5140   5.090   3.200   0.933
 1541WAT      O 5141   5.478   3.184   0.483
 1541WAT     H1 5142   5.498   3.274   0.510
 1541WAT     H2 5143   5.400   3.161   0.532
 1542WAT      O 5144   4.158   4.752   0.527
 1542WAT     H1 5145   4.106   4.790   0.457
 1542WAT     H2 5146   4.150   4.814   0.599
 1543WAT      O 5147   4.297   3.318   0.387
 1543WAT     H1 5148   4.350   3.240   0.374
 1543WAT     H2 5149   4.360   3.386   0.410
 1544WAT      O 5150   4.516   3.292   0.692
 1544WAT     H1 5151   4.453   3.222   0.709
 1544WAT     H2 5152   4.462   3.368   0.671
 1545WAT      O 5153   4.810   4.953   1.959
 1545WAT     H1 5154   4.903   4.930   1.964
 1545WAT     H2 5155   4.809   5.036   1.911
 1546WAT      O 5156   5.634   4.908   0.659
 1546WAT     H1 5157   5.651   4.839   0.595
 1546WAT     H2 5158   5.564   4.960   0.620
 1547WAT      O 5159   4.529   3.220   1.936
 1547WAT     H1 5160   4.501   3.270   1.859
 1547WAT     H2 5161   4.567   3.140   1.899
 1548WAT      O 5162   4.418   4.947   0.414
 1548WAT     H1 5163   4.491   4.918   0.360
 1548WAT     H2 5164   4.444   4.923   0.503
 1549WAT      O 5165   4.334   4.558   0.415
 1549WAT     H1 5166   4.271   4.605   0.470
 1549WAT     H2 5167   4.346   4.474   0.458
 1550WAT      O 5168   5.189   3.161   1.994
 1550WAT     H1 5169   5.178   3.193   2.083
 1550WAT     H2 5170   5.271   3.202   1.964
 1551WAT      O 5171   5.467   4.876   1.942
 1551WAT     H1 5172   5.546   4.827   1.921
 1551WAT     H2 5173   5.496   4.944   2.003
 1552WAT      O 5174   5.080   2.086   4.662
 1552WAT     H1 5175   5.072   1.995   4.635
 1552WAT     H2 5176   5.038   2.136   4.592
 1553WAT      O 5177   4.893   2.264   4.850
 1553WAT     H1 5178   4.815   2.216   4.879
 1553WAT     H2 5179   4.958   2.196   4.833
 1554WAT      O 5180   4.294   2.295   4.938
 1554WAT     H1 5181   4.211   2.269   4.978
 1554WAT     H2 5182   4.355   2.302   5.012
 1555WAT      O 5183   5.295   2.704   4.728
 1555WAT     H1 5184   5.249   2.627   4.761
 1555WAT     H2 5185   5.376   2.707   4.779
 1556WAT      O 5186   4.292   2.698   4.958
 1556WAT     H1 5187   4.323   2.609   4.940
 1556WAT     H2 5188   4.367   2.754   4.935
 1557WAT      O 5189   4.135   1.791   4.316
 1557WAT     H1 5190   4.047   1.825   4.306
 1557WAT     H2 5191   4.164   1.771   4.227
 1558WAT      O 5192   3.932   2.051   4.905
 1558WAT     H1 5193   3.989   1.974   4.905
 1558WAT     H2 5194   3.932   2.081   4.814
 1559WAT      O 5195   4.917   2.933   4.690
 1559WAT     H1 5196   4.856   2.979   4.633
 1559WAT     H2 5197   5.003   2.948   4.650
 1560WAT      O 5198   4.837   2.531   4.851
 1560WAT     H1 5199   4.830   2.437   4.835
 1560WAT     H2 5200   4.913   2.540   4.908
 1561WAT      O 5201   4.056   1.592   5.084
 1561WAT     H1 5202   4.038   1.502   5.112
 1561WAT     H2 5203   4.016   1.647   5.151
 1562WAT      O 5204   4.940   1.812   4.874
 1562WAT     H1 5205   4.978   1.725   4.862
 1562WAT     H2 5206   4.930   1.846   4.785
 1563WAT      O 5207   4.353   1.649   4.420
 1563WAT     H1 5208   4.364   1.739   4.451
 1563WAT     H2 5209   4.262   1.644   4.391
 1564WAT      O 5210   5.318   1.562   4.567
 1564WAT     H1 5211   5.400   1.513   4.571
 1564WAT     H2 5212   5.322   1.621   4.642
 1565WAT      O 5213   4.118   1.841   4.944
 1565WAT     H1 5214   4.186   1.868   5.006
 1565WAT     H2 5215   4.086   1.757   4.978
 1566WAT      O 5216   4.537   1.946   4.853
 1566WAT     H1 5217   4.588   1.996   4.917
 1566WAT     H2 5218   4.590   1.869   4.836
 1567WAT      O 5219   4.365   1.410   5.280
 1567WAT     H1 5220   4.366   1.462   5.199
 1567WAT     H2 5221   4.282   1.362   5.277
 1568WAT      O 5222   5.004   2.421   4.430
 1568WAT     H1 5223   4.942   2.468   4.373
 1568WAT     H2 5224   5.055   2.491   4.471
 1569WAT      O 5225   4.490   2.374   5.097
 1569WAT     H1 5226   4.457   2.437   5.162
 1569WAT     H2 5227   4.508   2.427   5.020
 1570WAT      O 5228   5.342   1.756   4.844
 1570WAT     H1 5229   5.271   1.784   4.902
 1570WAT     H2 5230   5.378   1.837   4.808
 1571WAT      O 5231   4.334   1.581   5.080
 1571WAT     H1 5232   4.368   1.666   5.051
 1571WAT     H2 5233   4.240   1.596   5.092
 1572WAT      O 5234   4.412   2.571   5.279
 1572WAT     H1 5235   4.473   2.638   5.251
 1572WAT     H2 5236   4.326   2.612   5.270
 1573WAT      O 5237   3.941   2.490   4.167
 1573WAT     H1 5238   3.903   2.539   4.094
 1573WAT     H2 5239   3.967   2.557   4.230
 1574WAT      O 5240   5.503   2.717   5.071
 1574WAT     H1 5241   5.435   2.784   5.070
 1574WAT     H2 5242   5.557   2.737   4.994
 1575WAT      O 5243   5.649   1.700   4.883
 1575WAT     H1 5244   5.554   1.703   4.897
 1575WAT     H2 5245   5.681   1.781   4.922
 1576WAT      O 5246   4.702   1.330   4.713
 1576WAT     H1 5247   4.733   1.275   4.641
 1576WAT     H2 5248   4.609   1.344   4.695
 1577WAT      O 5249   5.257   2.902   4.942
 1577WAT     H1 5250   5.258   2.861   4.855
 1577WAT     H2 5251   5.202   2.979   4.932
 1578WAT      O 5252   5.386   2.574   4.451
 1578WAT     H1 5253   5.375   2.480   4.463
 1578WAT     H2 5254   5.386   2.610   4.540
 1579WAT      O 5255   5.197   2.392   5.075
 1579WAT     H1 5256   5.239   2.371   4.991
 1579WAT     H2 5257   5.269   2.418   5.132
 1580WAT      O 5258   4.941   2.137   4.387
 1580WAT     H1 5259   4.848   2.130   4.409
 1580WAT     H2 5260   4.956   2.230   4.375
 1581WAT      O 5261   4.939   1.764   4.086
 1581WAT     H1 5262   4.845   1.780   4.095
 1581WAT     H2 5263   4.971   1.836   4.032
 1582WAT      O 5264   5.591   2.232   5.084
 1582WAT     H1 5265   5.509   2.239   5.036
 1582WAT     H2 5266   5.651   2.290   5.037
 1583WAT      O 5267   5.344   2.293   4.437
 1583WAT     H1 5268   5.282   2.259   4.372
 1583WAT     H2 5269   5.342   2.228   4.508
 1584WAT      O 5270   5.288   1.911   5.179
 1584WAT     H1 5271   5.247   1.993   5.204
 1584WAT     H2 5272   5.215   1.852   5.159
 1585WAT      O 5273   4.501   2.189   4.665
 1585WAT     H1 5274   4.461   2.118   4.615
 1585WAT     H2 5275   4.510   2.155   4.754
 1586WAT      O 5276   4.548   2.558   4.881
 1586WAT     H1 5277   4.518   2.497   4.813
 1586WAT     H2 5278   4.643   2.562   4.870
 1587WAT      O 5279   4.373   1.867   5.043
 1587WAT     H1 5280   4.428   1.878   4.965
 1587WAT     H2 5281   4.424   1.904   5.114
 1588WAT      O 5282   5.357   2.915   5.247
 1588WAT     H1 5283   5.309   2.996   5.228
 1588WAT     H2 5284   5.289   2.850   5.263
 1589WAT      O 5285   4.457   2.532   5.546
 1589WAT     H1 5286   4.368   2.554   5.571
 1589WAT     H2 5287   4.460   2.544   5.451
 1590WAT      O 5288   5.161   2.217   4.138
 1590WAT     H1 5289   5.205   2.133   4.123
 1590WAT     H2 5290   5.233   2.280   4.146
 1591WAT      O 5291   4.340   2.219   5.404
 1591WAT     H1 5292   4.326   2.306   5.441
 1591WAT     H2 5293   4.252   2.185   5.389
 1592WAT      O 5294   4.972   2.711   4.534
 1592WAT     H1 5295   5.016   2.785   4.493
 1592WAT     H2 5296   4.966   2.735   4.627
 1593WAT      O 5297   4.520   2.813   5.625
 1593WAT     H1 5298   4.517   2.853   5.538
 1593WAT     H2 5299   4.503   2.720   5.608
 1594WAT      O 5300   5.519   1.342   3.969
 1594WAT     H1 5301   5.488   1.351   4.059
 1594WAT     H2 5302   5.596   1.400   3.964
 1595WAT      O 5303   4.171   2.079   4.415
 1595WAT     H1 5304   4.159   2.151   4.354
 1595WAT     H2 5305   4.140   2.002   4.367
 1596WAT      O 5306   3.935   2.396   4.995
 1596WAT     H1 5307   3.943   2.409   4.901
 1596WAT     H2 5308   3.997   2.325   5.015
 1597WAT      O 5309   4.060   2.566   4.637
 1597WAT     H1 5310   4.019   2.580   4.551
 1597WAT     H2 5311   4.149   2.537   4.616
 1598WAT      O 5312   5.655   2.610   5.470
 1598WAT     H1 5313   5.668   2.587   5.378
 1598WAT     H2 5314   5.659   2.527   5.517
 1599WAT      O 5315   5.041   2.981   5.327
 1599WAT     H1 5316   5.093   2.972   5.407
 1599WAT     H2 5317   4.957   3.015   5.356
 1600WAT      O 5318   5.239   3.009   4.270
 1600WAT     H1 5319   5.223   2.980   4.360
 1600WAT     H2 5320   5.222   2.932   4.216
 1601WAT      O 5321   4.487   2.987   4.448
 1601WAT     H1 5322   4.469   2.896   4.426
 1601WAT     H2 5323   4.401   3.023   4.472
 1602WAT      O 5324   5.209   2.760   4.126
 1602WAT     H1 5325   5.140   2.760   4.060
 1602WAT     H2 5326   5.283   2.718   4.083
 1603WAT      O 5327   5.166   2.923   4.533
 1603WAT     H1 5328   5.211   2.845   4.565
 1603WAT     H2 5329   5.200   2.994   4.588
 1604WAT      O 5330   5.640   1.816   5.567
 1604WAT     H1 5331   5.579   1.867   5.514
 1604WAT     H2 5332   5.608   1.726   5.561
 1605WAT      O 5333   3.941   2.500   5.249
 1605WAT     H1 5334   3.957   2.453   5.168
 1605WAT     H2 5335   3.987   2.449   5.316
 1606WAT      O 5336   4.418   1.413   4.753
 1606WAT     H1 5337   4.374   1.491   4.720
 1606WAT     H2 5338   4.474   1.445   4.824
 1607WAT      O 5339   4.847   1.700   5.313
 1607WAT     H1 5340   4.800   1.721   5.395
 1607WAT     H2 5341   4.806   1.618   5.283
 1608WAT      O 5342   5.347   1.822   5.426
 1608WAT     H1 5343   5.262   1.792   5.458
 1608WAT     H2 5344   5.331   1.846   5.335
 1609WAT      O 5345   5.056   1.972   5.636
 1609WAT     H1 5346   5.089   1.888   5.602
 1609WAT     H2 5347   5.135   2.024   5.651
 1610WAT      O 5348   4.729   1.375   4.241
 1610WAT     H1 5349   4.667   1.375   4.314
 1610WAT     H2 5350   4.721   1.288   4.201
 1611WAT      O 5351   4.622   1.467   4.939
 1611WAT     H1 5352   4.651   1.558   4.931
 1611WAT     H2 5353   4.677   1.419   4.878
 1612WAT      O 5354   4.397   1.925   4.526
 1612WAT     H1 5355   4.374   1.904   4.616
 1612WAT     H2 5356   4.319   1.969   4.491
 1613WAT      O 5357   5.120   1.926   4.386
 1613WAT     H1 5358   5.060   1.998   4.367
 1613WAT     H2 5359   5.175   1.920   4.307
 1614WAT      O 5360   4.641   2.015   5.592
 1614WAT     H1 5361   4.631   1.921   5.577
 1614WAT     H2 5362   4.725   2.037   5.553
 1615WAT      O 5363   4.981   1.790   4.589
 1615WAT     H1 5364   5.020   1.821   4.507
 1615WAT     H2 5365   5.017   1.702   4.600
 1616WAT      O 5366   4.154   1.656   5.408
 1616WAT     H1 5367   4.115   1.741   5.428
 1616WAT     H2 5368   4.085   1.593   5.427
 1617WAT      O 5369   3.884   1.449   4.811
 1617WAT     H1 5370   3.855   1.506   4.882
 1617WAT     H2 5371   3.959   1.401   4.847
 1618WAT      O 5372   3.903   1.843   3.932
 1618WAT     H1 5373   3.895   1.937   3.946
 1618WAT     H2 5374   3.868   1.829   3.844
 1619WAT      O 5375   5.039   2.049   4.998
 1619WAT     H1 5376   4.966   2.100   5.033
 1619WAT     H2 5377   4.999   1.967   4.968
 1620WAT      O 5378   4.683   1.716   4.839
 1620WAT     H1 5379   4.683   1.672   4.754
 1620WAT     H2 5380   4.773   1.748   4.850
 1621WAT      O 5381   4.268   1.704   4.735
 1621WAT     H1 5382   4.234   1.752   4.810
 1621WAT     H2 5383   4.192   1.659   4.699
 1622WAT      O 5384   4.689   1.816   4.138
 1622WAT     H1 5385   4.701   1.812   4.233
 1622WAT     H2 5386   4.651   1.903   4.122
 1623WAT      O 5387   5.085   1.594   4.940
 1623WAT     H1 5388   5.087   1.639   5.024
 1623WAT     H2 5389   5.061   1.504   4.961
 1624WAT      O 5390   4.590   2.047   4.078
 1624WAT     H1 5391   4.534   2.003   4.015
 1624WAT     H2 5392   4.661   2.083   4.024
 1625WAT      O 5393   5.428   1.335   5.523
 1625WAT     H1 5394   5.461   1.262   5.576
 1625WAT     H2 5395   5.432   1.303   5.433
 1626WAT      O 5396   4.098   2.437   5.465
 1626WAT     H1 5397   4.060   2.373   5.525
 1626WAT     H2 5398   4.129   2.508   5.522
 1627WAT      O 5399   4.713   2.122   5.013
 1627WAT     H1 5400   4.750   2.075   5.088
 1627WAT     H2 5401   4.694   2.210   5.048
 1628WAT      O 5402   3.999   1.597   4.626
 1628WAT     H1 5403   3.971   1.560   4.710
 1628WAT     H2 5404   3.993   1.523   4.565
 1629WAT      O 5405   4.492   2.026   5.245
 1629WAT     H1 5406   4.462   2.114   5.268
 1629WAT     H2 5407   4.588   2.032   5.249
 1630WAT      O 5408   4.345   2.447   4.305
 1630WAT     H1 5409   4.268   2.393   4.289
 1630WAT     H2 5410   4.418   2.395   4.271
 1631WAT      O 5411   5.421   2.347   4.884
 1631WAT     H1 5412   5.493   2.396   4.845
 1631WAT     H2 5413   5.401   2.279   4.820
 1632WAT      O 5414   4.967   1.486   4.299
 1632WAT     H1 5415   4.886   1.436   4.291
 1632WAT     H2 5416   4.947   1.570   4.257
 1633WAT      O 5417   4.959   2.354   5.473
 1633WAT     H1 5418   4.952   2.262   5.447
 1633WAT     H2 5419   4.896   2.363   5.544
 1634WAT      O 5420   5.238   1.923   4.128
 1634WAT     H1 5421   5.327   1.954   4.111
 1634WAT     H2 5422   5.235   1.836   4.089
 1635WAT      O 5423   4.349   2.414   4.669
 1635WAT     H1 5424   4.401   2.333   4.663
 1635WAT     H2 5425   4.304   2.408   4.753
 1636WAT      O 5426   4.838   2.540   4.196
 1636WAT     H1 5427   4.872   2.615   4.146
 1636WAT     H2 5428   4.755   2.572   4.232
 1637WAT      O 5429   4.098   2.110   5.360
 1637WAT     H1 5430   4.062   2.177   5.419
 1637WAT     H2 5431   4.068   2.027   5.397
 1638WAT      O 5432   4.418   2.156   5.648
 1638WAT     H1 5433   4.388   2.171   5.559
 1638WAT     H2 5434   4.495   2.100   5.639
 1639WAT      O 5435   4.952   2.636   5.448
 1639WAT     H1 5436   4.954   2.543   5.426
 1639WAT     H2 5437   4.881   2.644   5.512
 1640WAT      O 5438   5.466   2.054   4.075
 1640WAT     H1 5439   5.457   2.097   3.990
 1640WAT     H2 5440   5.537   2.100   4.118
 1641WAT      O 5441   5.573   2.300   5.383
 1641WAT     H1 5442   5.501   2.359   5.363
 1641WAT     H2 5443   5.626   2.299   5.303
 1642WAT      O 5444   5.568   2.740   4.348
 1642WAT     H1 5445   5.504   2.674   4.375
 1642WAT     H2 5446   5.530   2.780   4.270
 1643WAT      O 5447   5.126   2.473   4.732
 1643WAT     H1 5448   5.161   2.413   4.666
 1643WAT     H2 5449   5.038   2.440   4.750
 1644WAT      O 5450   4.735   2.549   4.473
 1644WAT     H1 5451   4.804   2.603   4.511
 1644WAT     H2 5452   4.656   2.603   4.477
 1645WAT      O 5453   3.949   2.110   4.022
 1645WAT     H1 5454   4.036   2.138   4.051
 1645WAT     H2 5455   3.900   2.192   4.011
 1646WAT      O 5456   4.665   2.249   4.434
 1646WAT     H1 5457   4.711   2.330   4.457
 1646WAT     H2 5458   4.630   2.217   4.518
 1647WAT      O 5459   4.895   2.800   5.157
 1647WAT     H1 5460   4.960   2.821   5.225
 1647WAT     H2 5461   4.932   2.724   5.112
 1648WAT      O 5462   4.255   1.283   4.482
 1648WAT     H1 5463   4.242   1.283   4.577
 1648WAT     H2 5464   4.173   1.317   4.447
 1649WAT      O 5465   5.023   2.600   5.029
 1649WAT     H1 5466   5.087   2.530   5.040
 1649WAT     H2 5467   5.075   2.678   5.011
 1650WAT      O 5468   5.407   2.629   4.002
 1650WAT     H1 5469   5.385   2.557   4.061
 1650WAT     H2 5470   5.368   2.604   3.918
 1651WAT      O 5471   5.200   2.680   5.349
 1651WAT     H1 5472   5.234   2.739   5.417
 1651WAT     H2 5473   5.108   2.667   5.372
 1652WAT      O 5474   3.986   3.032   4.079
 1652WAT     H1 5475   4.021   3.091   4.014
 1652WAT     H2 5476   3.971   3.086   4.156
 1653WAT      O 5477   3.955   1.459   5.428
 1653WAT     H1 5478   3.884   1.479   5.488
 1653WAT     H2 5479   3.997   1.382   5.465
 1654WAT      O 5480   5.366   2.421   4.168
 1654WAT     H1 5481   5.337   2.467   4.246
 1654WAT     H2 5482   5.445   2.375   4.195
 1655WAT      O 5483   3.984   2.858   5.526
 1655WAT     H1 5484   3.995   2.764   5.512
 1655WAT     H2 5485   3.919   2.885   5.462
 1656WAT      O 5486   4.783   2.685   5.666
 1656WAT     H1 5487   4.751   2.613   5.721
 1656WAT     H2 5488   4.716   2.753   5.674
 1657WAT      O 5489   4.587   2.770   4.161
 1657WAT     H1 5490   4.586   2.843   4.099
 1657WAT     H2 5491   4.495   2.745   4.170
 1658WAT      O 5492   4.147   2.292   4.235
 1658WAT     H1 5493   4.087   2.366   4.236
 1658WAT     H2 5494   4.195   2.301   4.153
 1659WAT      O 5495   5.105   1.708   5.203
 1659WAT     H1 5496   5.141   1.626   5.236
 1659WAT     H2 5497   5.019   1.715   5.244
 1660WAT      O 5498   5.441   1.604   4.284
 1660WAT     H1 5499   5.378   1.615   4.212
 1660WAT     H2 5500   5.392   1.626   4.363
 1661WAT      O 5501   4.886   2.776   4.027
 1661WAT     H1 5502   4.896   2.756   3.934
 1661WAT     H2 5503   4.796   2.751   4.047
 1662WAT      O 5504   4.638   1.832   4.425
 1662WAT     H1 5505   4.567   1.879   4.469
 1662WAT     H2 5506   4.666   1.766   4.489
 1663WAT      O 5507   4.801   1.974   5.225
 1663WAT     H1 5508   4.850   2.021   5.292
 1663WAT     H2 5509   4.815   1.882   5.246
 1664WAT      O 5510   5.041   1.504   4.569
 1664WAT     H1 5511   5.029   1.506   4.474
 1664WAT     H2 5512   5.136   1.509   4.581
 1665WAT      O 5513   4.750   3.028   4.496
 1665WAT     H1 5514   4.775   3.024   4.404
 1665WAT     H2 5515   4.655   3.015   4.496
 1666WAT      O 5516   4.458   1.663   4.163
 1666WAT     H1 5517   4.543   1.706   4.156
 1666WAT     H2 5518   4.422   1.694   4.245
 1667WAT      O 5519   5.521   1.596   5.309
 1667WAT     H1 5520   5.471   1.670   5.343
 1667WAT     H2 5521   5.603   1.634   5.278
 1668WAT      O 5522   5.350   2.120   4.654
 1668WAT     H1 5523   5.256   2.121   4.671
 1668WAT     H2 5524   5.382   2.041   4.699
 1669WAT      O 5525   4.348   2.288   4.010
 1669WAT     H1 5526   4.425   2.277   4.066
 1669WAT     H2 5527   4.356   2.218   3.945
 1670WAT      O 5528   4.218   2.031   4.078
 1670WAT     H1 5529   4.226   1.937   4.090
 1670WAT     H2 5530   4.307   2.064   4.089
 1671WAT      O 5531   5.551   2.837   4.822
 1671WAT     H1 5532   5.563   2.919   4.869
 1671WAT     H2 5533   5.637   2.816   4.787
 1672WAT      O 5534   4.298   3.046   4.789
 1672WAT     H1 5535   4.372   2.991   4.816
 1672WAT     H2 5536   4.336   3.133   4.775
 1673WAT      O 5537   3.986   2.653   4.376
 1673WAT     H1 5538   3.894   2.677   4.375
 1673WAT     H2 5539   4.033   2.736   4.364
 1674WAT      O 5540   4.609   2.964   3.971
 1674WAT     H1 5541   4.688   2.992   3.926
 1674WAT     H2 5542   4.557   2.921   3.903
 1675WAT      O 5543   5.225   2.948   5.563
 1675WAT     H1 5544   5.320   2.940   5.558
 1675WAT     H2 5545   5.210   3.015   5.631
 1676WAT      O 5546   5.514   2.886   4.113
 1676WAT     H1 5547   5.486   2.845   4.032
 1676WAT     H2 5548   5.494   2.979   4.101
 1677WAT      O 5549   3.970   2.213   5.602
 1677WAT     H1 5550   4.021   2.156   5.659
 1677WAT     H2 5551   3.897   2.242   5.656
 1678WAT      O 5552   4.661   2.486   3.957
 1678WAT     H1 5553   4.650   2.424   4.030
 1678WAT     H2 5554   4.644   2.433   3.879
 1679WAT      O 5555   4.676   2.354   5.555
 1679WAT     H1 5556   4.599   2.411   5.547
 1679WAT     H2 5557   4.694   2.325   5.466
 1680WAT      O 5558   4.985   2.392   4.018
 1680WAT     H1 5559   4.930   2.437   4.082
 1680WAT     H2 5560   5.047   2.341   4.070
 1681WAT      O 5561   5.390   2.527   5.611
 1681WAT     H1 5562   5.464   2.561   5.561
 1681WAT     H2 5563   5.314   2.544   5.556
 1682WAT      O 5564   4.552   2.288   4.207
 1682WAT     H1 5565   4.594   2.271   4.292
 1682WAT     H2 5566   4.564   2.207   4.158
 1683WAT      O 5567   4.368   1.886   5.488
 1683WAT     H1 5568   4.315   1.837   5.425
 1683WAT     H2 5569   4.435   1.929   5.435
 1684WAT      O 5570   4.803   2.190   3.932
 1684WAT     H1 5571   4.855   2.119   3.896
 1684WAT     H2 5572   4.867   2.254   3.962
 1685WAT      O 5573   5.258   2.332   5.465
 1685WAT     H1 5574   5.299   2.348   5.550
 1685WAT     H2 5575   5.164   2.345   5.481
 1686WAT      O 5576   5.305   2.066   5.665
 1686WAT     H1 5577   5.363   1.991   5.656
 1686WAT     H2 5578   5.322   2.119   5.587
 1687WAT      O 5579   4.417   1.582   5.496
 1687WAT     H1 5580   4.407   1.521   5.424
 1687WAT     H2 5581   4.358   1.655   5.473
 1688WAT      O 5582   4.693   1.438   5.199
 1688WAT     H1 5583   4.648   1.440   5.115
 1688WAT     H2 5584   4.630   1.398   5.259
 1689WAT      O 5585   4.734   2.328   5.262
 1689WAT     H1 5586   4.776   2.412   5.244
 1689WAT     H2 5587   4.642   2.341   5.239
 1690WAT      O 5588   4.967   2.101   5.400
 1690WAT     H1 5589   4.979   2.041   5.474
 1690WAT     H2 5590   5.053   2.104   5.358
 1691WAT      O 5591   5.201   2.156   5.258
 1691WAT     H1 5592   5.149   2.209   5.197
 1691WAT     H2 5593   5.236   2.219   5.321
 1692WAT      O 5594   4.441   1.895   3.902
 1692WAT     H1 5595   4.421   1.809   3.938
 1692WAT     H2 5596   4.424   1.886   3.808
 1693WAT      O 5597   4.519   2.958   5.373
 1693WAT     H1 5598   4.465   3.031   5.341
 1693WAT     H2 5599   4.544   2.910   5.294
 1694WAT      O 5600   4.644   1.755   5.526
 1694WAT     H1 5601   4.703   1.724   5.594
 1694WAT     H2 5602   4.562   1.708   5.541
 1695WAT      O 5603   5.126   1.717   5.549
 1695WAT     H1 5604   5.057   1.650   5.543
 1695WAT     H2 5605   5.198   1.672   5.594
 1696WAT      O 5606   5.189   1.376   4.155
 1696WAT     H1 5607   5.217   1.292   4.191
 1696WAT     H2 5608   5.112   1.399   4.206
 1697WAT      O 5609   4.321   1.605   3.901
 1697WAT     H1 5610   4.351   1.606   3.810
 1697WAT     H2 5611   4.395   1.570   3.951
 1698WAT      O 5612   4.804   3.082   5.399
 1698WAT     H1 5613   4.797   3.172   5.430
 1698WAT     H2 5614   4.714   3.050   5.396
 1699WAT      O 5615   4.643   1.499   3.999
 1699WAT     H1 5616   4.608   1.432   3.941
 1699WAT     H2 5617   4.663   1.453   4.081
 1700WAT      O 5618   4.859   2.998   4.161
 1700WAT     H1 5619   4.949   3.032   4.163
 1700WAT     H2 5620   4.862   2.926   4.099
 1701WAT      O 5621   4.223   2.536   3.984
 1701WAT     H1 5622   4.267   2.590   4.050
 1701WAT     H2 5623   4.272   2.453   3.985
 1702WAT      O 5624   3.945   2.814   4.729
 1702WAT     H1 5625   3.978   2.728   4.706
 1702WAT     H2 5626   3.988   2.835   4.812
 1703WAT      O 5627   4.404   2.647   4.495
 1703WAT     H1 5628   4.374   2.635   4.585
 1703WAT     H2 5629   4.394   2.562   4.455
 1704WAT      O 5630   3.994   2.901   5.003
 1704WAT     H1 5631   3.950   2.919   5.086
 1704WAT     H2 5632   4.050   2.977   4.989
 1705WAT      O 5633   5.557   2.851   5.432
 1705WAT     H1 5634   5.497   2.857   5.358
 1705WAT     H2 5635   5.570   2.757   5.445
 1706WAT      O 5636   3.977   2.152   4.639
 1706WAT     H1 5637   3.911   2.125   4.575
 1706WAT     H2 5638   4.061   2.141   4.594
 1707WAT      O 5639   5.426   2.524   5.242
 1707WAT     H1 5640   5.344   2.567   5.268
 1707WAT     H2 5641   5.466   2.585   5.180
 1708WAT      O 5642   5.632   2.329   3.932
 1708WAT     H1 5643   5.659   2.420   3.919
 1708WAT     H2 5644   5.613   2.323   4.025
 1709WAT      O 5645   5.272   1.632   4.061
 1709WAT     H1 5646   5.314   1.613   3.977
 1709WAT     H2 5647   5.241   1.547   4.092
 1710WAT      O 5648   5.622   2.123   4.431
 1710WAT     H1 5649   5.584   2.046   4.388
 1710WAT     H2 5650   5.549   2.161   4.480
 1711WAT      O 5651   4.081   2.191   5.093
 1711WAT     H1 5652   4.117   2.182   5.181
 1711WAT     H2 5653   4.024   2.114   5.083
 1712WAT      O 5654   5.561   2.038   5.394
 1712WAT     H1 5655   5.537   2.015   5.304
 1712WAT     H2 5656   5.587   2.130   5.390
 1713WAT      O 5657   4.036   1.882   5.484
 1713WAT     H1 5658   3.946   1.879   5.518
 1713WAT     H2 5659   4.090   1.902   5.560
 1714WAT      O 5660   5.405   1.560   5.672
 1714WAT     H1 5661   5.492   1.561   5.711
 1714WAT     H2 5662   5.406   1.487   5.611
 1715WAT      O 5663   3.898   1.873   4.233
 1715WAT     H1 5664   3.808   1.900   4.216
 1715WAT     H2 5665   3.947   1.900   4.155
 1716WAT      O 5666   5.549   1.946   4.761
 1716WAT     H1 5667   5.602   1.896   4.698
 1716WAT     H2 5668   5.608   1.959   4.836
 1717WAT      O 5669   5.567   1.954   5.113
 1717WAT     H1 5670   5.472   1.951   5.125
 1717WAT     H2 5671   5.585   2.045   5.090
 1718WAT      O 5672   4.152   1.779   4.024
 1718WAT     H1 5673   4.223   1.737   3.976
 1718WAT     H2 5674   4.081   1.786   3.961
 1719WAT      O 5675   4.117   1.384   3.928
 1719WAT     H1 5676   4.190   1.438   3.960
 1719WAT     H2 5677   4.144   1.357   3.841
 1720WAT      O 5678   5.498   1.871   4.355
 1720WAT     H1 5679   5.548   1.848   4.433
 1720WAT     H2 5680   5.478   1.787   4.313
 1721WAT      O 5681   4.086   1.309   4.919
 1721WAT     H1 5682   4.151   1.254   4.874
 1721WAT     H2 5683   4.128   1.335   5.001
 1722WAT      O 5684   5.476   1.329   5.254
 1722WAT     H1 5685   5.539   1.390   5.291
 1722WAT     H2 5686   5.490   1.332   5.160
 1723WAT      O 5687   5.431   2.999   4.594
 1723WAT     H1 5688   5.491   2.967   4.527
 1723WAT     H2 5689   5.457   2.952   4.674
 1724WAT      O 5690   4.061   1.325   5.193
 1724WAT     H1 5691   4.027   1.371   5.269
 1724WAT     H2 5692   4.028   1.236   5.201
 1725WAT      O 5693   4.222   2.642   5.609
 1725WAT     H1 5694   4.218   2.605   5.697
 1725WAT     H2 5695   4.235   2.736   5.623
 1726WAT      O 5696   4.592   2.798   5.169
 1726WAT     H1 5697   4.568   2.824   5.081
 1726WAT     H2 5698   4.686   2.815   5.175
 1727WAT      O 5699   4.813   1.444   5.545
 1727WAT     H1 5700   4.807   1.503   5.620
 1727WAT     H2 5701   4.907   1.433   5.530
 1728WAT      O 5702   5.076   1.410   5.509
 1728WAT     H1 5703   5.138   1.442   5.443
 1728WAT     H2 5704   5.131   1.361   5.571
 1729WAT      O 5705   4.129   1.278   5.520
 1729WAT     H1 5706   4.183   1.260   5.444
 1729WAT     H2 5707   4.135   1.199   5.574
 1730WAT      O 5708   4.206   2.937   5.321
 1730WAT     H1 5709   4.147   2.924   5.395
 1730WAT     H2 5710   4.205   2.853   5.275
 1731WAT      O 5711   5.151   1.266   5.142
 1731WAT     H1 5712   5.063   1.299   5.121
 1731WAT     H2 5713   5.140   1.219   5.224
 1732WAT      O 5714   5.241   1.487   5.280
 1732WAT     H1 5715   5.208   1.405   5.242
 1732WAT     H2 5716   5.336   1.483   5.268
 1733WAT      O 5717   5.487   3.064   4.977
 1733WAT     H1 5718   5.441   3.139   4.940
 1733WAT     H2 5719   5.424   2.992   4.972
 1734WAT      O 5720   4.169   2.673   5.216
 1734WAT     H1 5721   4.096   2.611   5.210
 1734WAT     H2 5722   4.175   2.713   5.129
 1735WAT      O 5723   4.530   2.895   4.895
 1735WAT     H1 5724   4.581   2.834   4.842
 1735WAT     H2 5725   4.595   2.945   4.944
 1736WAT      O 5726   4.804   2.984   4.978
 1736WAT     H1 5727   4.832   2.958   4.890
 1736WAT     H2 5728   4.855   2.929   5.037
 1737WAT      O 5729   4.925   1.358   5.035
 1737WAT     H1 5730   4.847   1.405   5.063
 1737WAT     H2 5731   4.896   1.267   5.025
 1738WAT      O 5732   5.380   1.428   4.840
 1738WAT     H1 5733   5.425   1.422   4.755
 1738WAT     H2 5734   5.354   1.520   4.847
 1739WAT      O 5735   5.567   1.391   4.641
 1739WAT     H1 5736   5.561   1.297   4.626
 1739WAT     H2 5737   5.645   1.402   4.696
 1740WAT      O 5738   3.997   3.005   4.537
 1740WAT     H1 5739   3.981   2.942   4.607
 1740WAT     H2 5740   3.911   3.026   4.502
 1741WAT      O 5741   4.060   1.388   4.288
 1741WAT     H1 5742   4.135   1.400   4.230
 1741WAT     H2 5743   4.013   1.472   4.283
 1742WAT      O 5744   4.714   1.600   4.587
 1742WAT     H1 5745   4.633   1.562   4.553
 1742WAT     H2 5746   4.764   1.524   4.617
 1743WAT      O 5747   5.164   1.266   4.710
 1743WAT     H1 5748   5.224   1.323   4.758
 1743WAT     H2 5749   5.090   1.322   4.688
 1744WAT      O 5750   5.478   1.306   4.238
 1744WAT     H1 5751   5.498   1.396   4.265
 1744WAT     H2 5752   5.400   1.283   4.287
 1745WAT      O 5753   4.158   2.874   4.282
 1745WAT     H1 5754   4.106   2.913   4.211
 1745WAT     H2 5755   4.150   2.937   4.354
 1746WAT      O 5756   4.297   1.441   4.142
 1746WAT     H1 5757   4.350   1.362   4.129
 1746WAT     H2 5758   4.360   1.509   4.165
 1747WAT      O 5759   4.516   1.415   4.447
 1747WAT     H1 5760   4.453   1.345   4.464
 1747WAT     H2 5761   4.462   1.491   4.425
 1748WAT      O 5762   4.810   3.076   5.714
 1748WAT     H1 5763   4.903   3.053   5.719
 1748WAT     H2 5764   4.809   3.159   5.666
 1749WAT      O 5765   5.634   3.030   4.414
 1749WAT     H1 5766   5.651   2.962   4.350
 1749WAT     H2 5767   5.564   3.083   4.375
 1750WAT      O 5768   4.529   1.343   5.691
 1750WAT     H1 5769   4.501   1.393   5.614
 1750WAT     H2 5770   4.567   1.263   5.654
 1751WAT      O 5771   4.418   3.069   4.169
 1751WAT     H1 5772   4.491   3.041   4.115
 1751WAT     H2 5773   4.444   3.045   4.258
 1752WAT      O 5774   4.334   2.681   4.170
 1752WAT     H1 5775   4.271   2.728   4.225
 1752WAT     H2 5776   4.346   2.596   4.213
 1753WAT      O 5777   5.080   2.086   2.785
 1753WAT     H1 5778   5.072   1.995   2.758
 1753WAT     H2 5779   5.038   2.136   2.714
 1754WAT      O 5780   4.893   2.264   2.973
 1754WAT     H1 5781   4.815   2.216   3.002
 1754WAT     H2 5782   4.958   2.196   2.955
 1755WAT      O 5783   4.294   2.295   3.061
 1755WAT     H1 5784   4.211   2.269   3.101
 1755WAT     H2 5785   4.355   2.302   3.134
 1756WAT      O 5786   5.295   2.704   2.851
 1756WAT     H1 5787   5.249   2.627   2.884
 1756WAT     H2 5788   5.376   2.707   2.901
 1757WAT      O 5789   4.292   2.698   3.080
 1757WAT     H1 5790   4.323   2.609   3.062
 1757WAT     H2 5791   4.367   2.754   3.057
 1758WAT      O 5792   4.135   1.791   2.439
 1758WAT     H1 5793   4.047   1.825   2.429
 1758WAT     H2 5794   4.164   1.771   2.350
 1759WAT      O 5795   3.932   2.051   3.027
 1759WAT     H1 5796   3.989   1.974   3.027
 1759WAT     H2 5797   3.932   2.081   2.937
 1760WAT      O 5798   4.917   2.933   2.813
 1760WAT     H1 5799   4.856   2.979   2.756
 1760WAT     H2 5800   5.003   2.948   2.773
 1761WAT      O 5801   4.837   2.531   2.974
 1761WAT     H1 5802   4.830   2.437   2.957
 1761WAT     H2 5803   4.913   2.540   3.031
 1762WAT      O 5804   4.056   1.592   3.206
 1762WAT     H1 5805   4.038   1.502   3.234
 1762WAT     H2 5806   4.016   1.647   3.274
 1763WAT      O 5807   4.940   1.812   2.996
 1763WAT     H1 5808   4.978   1.725   2.985
 1763WAT     H2 5809   4.930   1.846   2.907
 1764WAT      O 5810   4.353   1.649   2.542
 1764WAT     H1 5811   4.364   1.739   2.573
 1764WAT     H2 5812   4.262   1.644   2.513
 1765WAT      O 5813   5.318   1.562   2.690
 1765WAT     H1 5814   5.400   1.513   2.694
 1765WAT     H2 5815   5.322   1.621   2.765
 1766WAT      O 5816   4.118   1.841   3.067
 1766WAT     H1 5817   4.186   1.868   3.129
 1766WAT     H2 5818   4.086   1.757   3.100
 1767WAT      O 5819   4.537   1.946   2.976
 1767WAT     H1 5820   4.588   1.996   3.040
 1767WAT     H2 5821   4.590   1.869   2.958
 1768WAT      O 5822   4.365   1.410   3.402
 1768WAT     H1 5823   4.366   1.462   3.322
 1768WAT     H2 5824   4.282   1.362   3.400
 1769WAT      O 5825   5.004   2.421   2.552
 1769WAT     H1 5826   4.942   2.468   2.496
 1769WAT     H2 5827   5.055   2.491   2.594
 1770WAT      O 5828   4.490   2.374   3.220
 1770WAT     H1 5829   4.457   2.437   3.284
 1770WAT     H2 5830   4.508   2.427   3.142
 1771WAT      O 5831   5.342   1.756   2.967
 1771WAT     H1 5832   5.271   1.784   3.025
 1771WAT     H2 5833   5.378   1.837   2.931
 1772WAT      O 5834   4.334   1.581   3.203
 1772WAT     H1 5835   4.368   1.666   3.174
 1772WAT     H2 5836   4.240   1.596   3.215
 1773WAT      O 5837   4.412   2.571   3.402
 1773WAT     H1 5838   4.473   2.638   3.373
 1773WAT     H2 5839   4.326   2.612   3.392
 1774WAT      O 5840   3.941   2.490   2.290
 1774WAT     H1 5841   3.903   2.539   2.216
 1774WAT     H2 5842   3.967   2.557   2.353
 1775WAT      O 5843   5.503   2.717   3.193
 1775WAT     H1 5844   5.435   2.784   3.192
 1775WAT     H2 5845   5.557   2.737   3.117
 1776WAT      O 5846   5.649   1.700   3.006
 1776WAT     H1 5847   5.554   1.703   3.019
 1776WAT     H2 5848   5.681   1.781   3.044
 1777WAT      O 5849   4.702   1.330   2.835
 1777WAT     H1 5850   4.733   1.275   2.764
 1777WAT     H2 5851   4.609   1.344   2.817
 1778WAT      O 5852   5.257   2.902   3.065
 1778WAT     H1 5853   5.258   2.861   2.978
 1778WAT     H2 5854   5.202   2.979   3.054
 1779WAT      O 5855   5.386   2.574   2.573
 1779WAT     H1 5856   5.375   2.480   2.586
 1779WAT     H2 5857   5.386   2.610   2.662
 1780WAT      O 5858   5.197   2.392   3.197
 1780WAT     H1 5859   5.239   2.371   3.114
 1780WAT     H2 5860   5.269   2.418   3.254
 1781WAT      O 5861   4.941   2.137   2.509
 1781WAT     H1 5862   4.848   2.130   2.532
 1781WAT     H2 5863   4.956   2.230   2.498
 1782WAT      O 5864   4.939   1.764   2.209
 1782WAT     H1 5865   4.845   1.780   2.217
 1782WAT     H2 5866   4.971   1.836   2.154
 1783WAT      O 5867   5.591   2.232   3.207
 1783WAT     H1 5868   5.509   2.239   3.159
 1783WAT     H2 5869   5.651   2.290   3.160
 1784WAT      O 5870   5.344   2.293   2.559
 1784WAT     H1 5871   5.282   2.259   2.495
 1784WAT     H2 5872   5.342   2.228   2.630
 1785WAT      O 5873   5.288   1.911   3.301
 1785WAT     H1 5874   5.247   1.993   3.326
 1785WAT     H2 5875   5.215   1.852   3.282
 1786WAT      O 5876   4.501   2.189   2.787
 1786WAT     H1 5877   4.461   2.118   2.738
 1786WAT     H2 5878   4.510   2.155   2.876
 1787WAT      O 5879   4.548   2.558   3.004
 1787WAT     H1 5880   4.518   2.497   2.936
 1787WAT     H2 5881   4.643   2.562   2.993
 1788WAT      O 5882   4.373   1.867   3.165
 1788WAT     H1 5883   4.428   1.878   3.088
 1788WAT     H2 5884   4.424   1.904   3.237
 1789WAT      O 5885   5.357   2.915   3.370
 1789WAT     H1 5886   5.309   2.996   3.351
 1789WAT     H2 5887   5.289   2.850   3.385
 1790WAT      O 5888   4.457   2.532   3.669
 1790WAT     H1 5889   4.368   2.554   3.693
 1790WAT     H2 5890   4.460   2.544   3.574
 1791WAT      O 5891   5.161   2.217   2.260
 1791WAT     H1 5892   5.205   2.133   2.246
 1791WAT     H2 5893   5.233   2.280   2.269
 1792WAT      O 5894   4.340   2.219   3.526
 1792WAT     H1 5895   4.326   2.306   3.563
 1792WAT     H2 5896   4.252   2.185   3.512
 1793WAT      O 5897   4.972   2.711   2.657
 1793WAT     H1 5898   5.016   2.785   2.616
 1793WAT     H2 5899   4.966   2.735   2.749
 1794WAT      O 5900   4.520   2.813   3.747
 1794WAT     H1 5901   4.517   2.853   3.660
 1794WAT     H2 5902   4.503   2.720   3.731
 1795WAT      O 5903   5.519   1.342   2.092
 1795WAT     H1 5904   5.488   1.351   2.182
 1795WAT     H2 5905   5.596   1.400   2.087
 1796WAT      O 5906   4.171   2.079   2.537
 1796WAT     H1 5907   4.159   2.151   2.476
 1796WAT     H2 5908   4.140   2.002   2.490
 1797WAT      O 5909   3.935   2.396   3.118
 1797WAT     H1 5910   3.943   2.409   3.024
 1797WAT     H2 5911   3.997   2.325   3.137
 1798WAT      O 5912   4.060   2.566   2.759
 1798WAT     H1 5913   4.019   2.580   2.674
 1798WAT     H2 5914   4.149   2.537   2.739
 1799WAT      O 5915   5.655   2.610   3.593
 1799WAT     H1 5916   5.668   2.587   3.501
 1799WAT     H2 5917   5.659   2.527   3.640
 1800WAT      O 5918   5.041   2.981   3.450
 1800WAT     H1 5919   5.093   2.972   3.530
 1800WAT     H2 5920   4.957   3.015   3.479
 1801WAT      O 5921   5.239   3.009   2.393
 1801WAT     H1 5922   5.223   2.980   2.482
 1801WAT     H2 5923   5.222   2.932   2.339
 1802WAT      O 5924   4.487   2.987   2.570
 1802WAT     H1 5925   4.469   2.896   2.549
 1802WAT     H2 5926   4.401   3.023   2.594
 1803WAT      O 5927   5.209   2.760   2.249
 1803WAT     H1 5928   5.140   2.760   2.183
 1803WAT     H2 5929   5.283   2.718   2.206
 1804WAT      O 5930   5.166   2.923   2.656
 1804WAT     H1 5931   5.211   2.845   2.687
 1804WAT     H2 5932   5.200   2.994   2.710
 1805WAT      O 5933   5.640   1.816   3.689
 1805WAT     H1 5934   5.579   1.867   3.636
 1805WAT     H2 5935   5.608   1.726   3.684
 1806WAT      O 5936   3.941   2.500   3.372
 1806WAT     H1 5937   3.957   2.453   3.290
 1806WAT     H2 5938   3.987   2.449   3.438
 1807WAT      O 5939   4.418   1.413   2.876
 1807WAT     H1 5940   4.374   1.491   2.842
 1807WAT     H2 5941   4.474   1.445   2.946
 1808WAT      O 5942   4.847   1.700   3.436
 1808WAT     H1 5943   4.800   1.721   3.517
 1808WAT     H2 5944   4.806   1.618   3.406
 1809WAT      O 5945   5.347   1.822   3.549
 1809WAT     H1 5946   5.262   1.792   3.581
 1809WAT     H2 5947   5.331   1.846   3.458
 1810WAT      O 5948   5.056   1.972   3.759
 1810WAT     H1 5949   5.089   1.888   3.725
 1810WAT     H2 5950   5.135   2.024   3.774
 1811WAT      O 5951   4.729   1.375   2.364
 1811WAT     H1 5952   4.667   1.375   2.436
 1811WAT     H2 5953   4.721   1.288   2.324
 1812WAT      O 5954   4.622   1.467   3.061
 1812WAT     H1 5955   4.651   1.558   3.053
 1812WAT     H2 5956   4.677   1.419   3.000
 1813WAT      O 5957   4.397   1.925   2.648
 1813WAT     H1 5958   4.374   1.904   2.739
 1813WAT     H2 5959   4.319   1.969   2.614
 1814WAT      O 5960   5.120   1.926   2.508
 1814WAT     H1 5961   5.060   1.998   2.490
 1814WAT     H2 5962   5.175   1.920   2.430
 1815WAT      O 5963   4.641   2.015   3.715
 1815WAT     H1 5964   4.631   1.921   3.700
 1815WAT     H2 5965   4.725   2.037   3.675
 1816WAT      O 5966   4.981   1.790   2.711
 1816WAT     H1 5967   5.020   1.821   2.630
 1816WAT     H2 5968   5.017   1.702   2.723
 1817WAT      O 5969   4.154   1.656   3.530
 1817WAT     H1 5970   4.115   1.741   3.551
 1817WAT     H2 5971   4.085   1.593   3.549
 1818WAT      O 5972   4.812   1.665   3.837
 1818WAT     H1 5973   4.743   1.645   3.901
 1818WAT     H2 5974   4.886   1.693   3.891
 1819WAT      O 5975   3.884   1.449   2.934
 1819WAT     H1 5976   3.855   1.506   3.005
 1819WAT     H2 5977   3.959   1.401   2.970
 1820WAT      O 5978   3.903   1.843   2.055
 1820WAT     H1 5979   3.895   1.937   2.069
 1820WAT     H2 5980   3.868   1.829   1.967
 1821WAT      O 5981   5.039   2.049   3.121
 1821WAT     H1 5982   4.966   2.100   3.156
 1821WAT     H2 5983   4.999   1.967   3.091
 1822WAT      O 5984   4.683   1.716   2.961
 1822WAT     H1 5985   4.683   1.672   2.876
 1822WAT     H2 5986   4.773   1.748   2.972
 1823WAT      O 5987   4.268   1.704   2.857
 1823WAT     H1 5988   4.234   1.752   2.933
 1823WAT     H2 5989   4.192   1.659   2.821
 1824WAT      O 5990   4.689   1.816   2.260
 1824WAT     H1 5991   4.701   1.812   2.355
 1824WAT     H2 5992   4.651   1.903   2.245
 1825WAT      O 5993   5.085   1.594   3.062
 1825WAT     H1 5994   5.087   1.639   3.146
 1825WAT     H2 5995   5.061   1.504   3.083
 1826WAT      O 5996   4.590   2.047   2.200
 1826WAT     H1 5997   4.534   2.003   2.138
 1826WAT     H2 5998   4.661   2.083   2.147
 1827WAT      O 5999   5.428   1.335   3.646
 1827WAT     H1 6000   5.461   1.262   3.699
 1827WAT     H2 6001   5.432   1.303   3.556
 1828WAT      O 6002   4.098   2.437   3.588
 1828WAT     H1 6003   4.060   2.373   3.648
 1828WAT     H2 6004   4.129   2.508   3.645
 1829WAT      O 6005   4.713   2.122   3.136
 1829WAT     H1 6006   4.750   2.075   3.211
 1829WAT     H2 6007   4.694   2.210   3.170
 1830WAT      O 6008   3.999   1.597   2.749
 1830WAT     H1 6009   3.971   1.560   2.833
 1830WAT     H2 6010   3.993   1.523   2.688
 1831WAT      O 6011   4.492   2.026   3.368
 1831WAT     H1 6012   4.462   2.114   3.390
 1831WAT     H2 6013   4.588   2.032   3.371
 1832WAT      O 6014   4.345   2.447   2.428
 1832WAT     H1 6015   4.268   2.393   2.412
 1832WAT     H2 6016   4.418   2.395   2.394
 1833WAT      O 6017   5.421   2.347   3.007
 1833WAT     H1 6018   5.493   2.396   2.968
 1833WAT     H2 6019   5.401   2.279   2.942
 1834WAT      O 6020   4.967   1.486   2.421
 1834WAT     H1 6021   4.886   1.436   2.414
 1834WAT     H2 6022   4.947   1.570   2.379
 1835WAT      O 6023   4.959   2.354   3.595
 1835WAT     H1 6024   4.952   2.262   3.570
 1835WAT     H2 6025   4.896   2.363   3.667
 1836WAT      O 6026   5.238   1.923   2.251
 1836WAT     H1 6027   5.327   1.954   2.233
 1836WAT     H2 6028   5.235   1.836   2.212
 1837WAT      O 6029   4.349   2.414   2.791
 1837WAT     H1 6030   4.401   2.333   2.786
 1837WAT     H2 6031   4.304   2.408   2.875
 1838WAT      O 6032   4.838   2.540   2.319
 1838WAT     H1 6033   4.872   2.615   2.269
 1838WAT     H2 6034   4.755   2.572   2.355
 1839WAT      O 6035   4.098   2.110   3.483
 1839WAT     H1 6036   4.062   2.177   3.541
 1839WAT     H2 6037   4.068   2.027   3.520
 1840WAT      O 6038   4.418   2.156   3.771
 1840WAT     H1 6039   4.388   2.171   3.681
 1840WAT     H2 6040   4.495   2.100   3.762
 1841WAT      O 6041   4.952   2.636   3.571
 1841WAT     H1 6042   4.954   2.543   3.549
 1841WAT     H2 6043   4.881   2.644   3.634
 1842WAT      O 6044   5.466   2.054   2.198
 1842WAT     H1 6045   5.457   2.097   2.112
 1842WAT     H2 6046   5.537   2.100   2.241
 1843WAT      O 6047   5.573   2.300   3.505
 1843WAT     H1 6048   5.501   2.359   3.485
 1843WAT     H2 6049   5.626   2.299   3.425
 1844WAT      O 6050   5.568   2.740   2.470
 1844WAT     H1 6051   5.504   2.674   2.498
 1844WAT     H2 6052   5.530   2.780   2.393
 1845WAT      O 6053   5.126   2.473   2.855
 1845WAT     H1 6054   5.161   2.413   2.789
 1845WAT     H2 6055   5.038   2.440   2.872
 1846WAT      O 6056   4.735   2.549   2.596
 1846WAT     H1 6057   4.804   2.603   2.634
 1846WAT     H2 6058   4.656   2.603   2.599
 1847WAT      O 6059   3.949   2.110   2.145
 1847WAT     H1 6060   4.036   2.138   2.173
 1847WAT     H2 6061   3.900   2.192   2.133
 1848WAT      O 6062   4.665   2.249   2.557
 1848WAT     H1 6063   4.711   2.330   2.580
 1848WAT     H2 6064   4.630   2.217   2.640
 1849WAT      O 6065   4.895   2.800   3.280
 1849WAT     H1 6066   4.960   2.821   3.348
 1849WAT     H2 6067   4.932   2.724   3.235
 1850WAT      O 6068   4.255   1.283   2.604
 1850WAT     H1 6069   4.242   1.283   2.699
 1850WAT     H2 6070   4.173   1.317   2.569
 1851WAT      O 6071   5.023   2.600   3.152
 1851WAT     H1 6072   5.087   2.530   3.163
 1851WAT     H2 6073   5.075   2.678   3.134
 1852WAT      O 6074   5.407   2.629   2.124
 1852WAT     H1 6075   5.385   2.557   2.183
 1852WAT     H2 6076   5.368   2.604   2.040
 1853WAT      O 6077   5.200   2.680   3.472
 1853WAT     H1 6078   5.234   2.739   3.540
 1853WAT     H2 6079   5.108   2.667   3.495
 1854WAT      O 6080   3.986   3.032   2.202
 1854WAT     H1 6081   4.021   3.091   2.136
 1854WAT     H2 6082   3.971   3.086   2.279
 1855WAT      O 6083   3.955   1.459   3.550
 1855WAT     H1 6084   3.884   1.479   3.611
 1855WAT     H2 6085   3.997   1.382   3.587
 1856WAT      O 6086   5.366   2.421   2.290
 1856WAT     H1 6087   5.337   2.467   2.369
 1856WAT     H2 6088   5.445   2.375   2.317
 1857WAT      O 6089   3.984   2.858   3.649
 1857WAT     H1 6090   3.995   2.764   3.635
 1857WAT     H2 6091   3.919   2.885   3.584
 1858WAT      O 6092   4.783   2.685   3.789
 1858WAT     H1 6093   4.751   2.613   3.843
 1858WAT     H2 6094   4.716   2.753   3.796
 1859WAT      O 6095   4.587   2.770   2.283
 1859WAT     H1 6096   4.586   2.843   2.222
 1859WAT     H2 6097   4.495   2.745   2.293
 1860WAT      O 6098   4.147   2.292   2.358
 1860WAT     H1 6099   4.087   2.366   2.359
 1860WAT     H2 6100   4.195   2.301   2.275
 1861WAT      O 6101   5.105   1.708   3.325
 1861WAT     H1 6102   5.141   1.626   3.358
 1861WAT     H2 6103   5.019   1.715   3.367
 1862WAT      O 6104   5.441   1.604   2.406
 1862WAT     H1 6105   5.378   1.615   2.335
 1862WAT     H2 6106   5.392   1.626   2.485
 1863WAT      O 6107   4.886   2.776   2.150
 1863WAT     H1 6108   4.896   2.756   2.057
 1863WAT     H2 6109   4.796   2.751   2.170
 1864WAT      O 6110   4.638   1.832   2.548
 1864WAT     H1 6111   4.567   1.879   2.592
 1864WAT     H2 6112   4.666   1.766   2.611
 1865WAT      O 6113   4.801   1.974   3.348
 1865WAT     H1 6114   4.850   2.021   3.414
 1865WAT     H2 6115   4.815   1.882   3.368
 1866WAT      O 6116   5.041   1.504   2.692
 1866WAT     H1 6117   5.029   1.506   2.597
 1866WAT     H2 6118   5.136   1.509   2.704
 1867WAT      O 6119   4.750   3.028   2.619
 1867WAT     H1 6120   4.775   3.024   2.527
 1867WAT     H2 6121   4.655   3.015   2.618
 1868WAT      O 6122   4.458   1.663   2.285
 1868WAT     H1 6123   4.543   1.706   2.279
 1868WAT     H2 6124   4.422   1.694   2.368
 1869WAT      O 6125   5.521   1.596   3.432
 1869WAT     H1 6126   5.471   1.670   3.466
 1869WAT     H2 6127   5.603   1.634   3.400
 1870WAT      O 6128   5.350   2.120   2.777
 1870WAT     H1 6129   5.256   2.121   2.794
 1870WAT     H2 6130   5.382   2.041   2.821
 1871WAT      O 6131   4.348   2.288   2.133
 1871WAT     H1 6132   4.425   2.277   2.189
 1871WAT     H2 6133   4.356   2.218   2.067
 1872WAT      O 6134   4.218   2.031   2.201
 1872WAT     H1 6135   4.226   1.937   2.212
 1872WAT     H2 6136   4.307   2.064   2.212
 1873WAT      O 6137   5.551   2.837   2.944
 1873WAT     H1 6138   5.563   2.919   2.991
 1873WAT     H2 6139   5.637   2.816   2.909
 1874WAT      O 6140   4.298   3.046   2.911
 1874WAT     H1 6141   4.372   2.991   2.938
 1874WAT     H2 6142   4.336   3.133   2.897
 1875WAT      O 6143   3.986   2.653   2.499
 1875WAT     H1 6144   3.894   2.677   2.498
 1875WAT     H2 6145   4.033   2.736   2.487
 1876WAT      O 6146   4.199   2.965   3.830
 1876WAT     H1 6147   4.279   2.997   3.872
 1876WAT     H2 6148   4.147   2.929   3.902
 1877WAT      O 6149   4.609   2.964   2.094
 1877WAT     H1 6150   4.688   2.992   2.048
 1877WAT     H2 6151   4.557   2.921   2.026
 1878WAT      O 6152   5.082   2.576   3.825
 1878WAT     H1 6153   5.022   2.578   3.751
 1878WAT     H2 6154   5.052   2.502   3.879
 1879WAT      O 6155   5.225   2.948   3.686
 1879WAT     H1 6156   5.320   2.940   3.681
 1879WAT     H2 6157   5.210   3.015   3.753
 1880WAT      O 6158   5.514   2.886   2.236
 1880WAT     H1 6159   5.486   2.845   2.154
 1880WAT     H2 6160   5.494   2.979   2.224
 1881WAT      O 6161   3.970   2.213   3.725
 1881WAT     H1 6162   4.021   2.156   3.782
 1881WAT     H2 6163   3.897   2.242   3.778
 1882WAT      O 6164   4.661   2.486   2.080
 1882WAT     H1 6165   4.650   2.424   2.153
 1882WAT     H2 6166   4.644   2.433   2.002
 1883WAT      O 6167   4.676   2.354   3.678
 1883WAT     H1 6168   4.599   2.411   3.669
 1883WAT     H2 6169   4.694   2.325   3.589
 1884WAT      O 6170   4.985   2.392   2.140
 1884WAT     H1 6171   4.930   2.437   2.205
 1884WAT     H2 6172   5.047   2.341   2.193
 1885WAT      O 6173   5.390   2.527   3.734
 1885WAT     H1 6174   5.464   2.561   3.683
 1885WAT     H2 6175   5.314   2.544   3.678
 1886WAT      O 6176   4.174   2.028   3.814
 1886WAT     H1 6177   4.178   1.998   3.905
 1886WAT     H2 6178   4.259   2.068   3.798
 1887WAT      O 6179   4.552   2.288   2.330
 1887WAT     H1 6180   4.594   2.271   2.414
 1887WAT     H2 6181   4.564   2.207   2.281
 1888WAT      O 6182   4.368   1.886   3.611
 1888WAT     H1 6183   4.315   1.837   3.548
 1888WAT     H2 6184   4.435   1.929   3.557
 1889WAT      O 6185   4.803   2.190   2.055
 1889WAT     H1 6186   4.855   2.119   2.018
 1889WAT     H2 6187   4.867   2.254   2.085
 1890WAT      O 6188   5.258   2.332   3.587
 1890WAT     H1 6189   5.299   2.348   3.672
 1890WAT     H2 6190   5.164   2.345   3.603
 1891WAT      O 6191   5.305   2.066   3.788
 1891WAT     H1 6192   5.363   1.991   3.779
 1891WAT     H2 6193   5.322   2.119   3.710
 1892WAT      O 6194   4.417   1.582   3.619
 1892WAT     H1 6195   4.407   1.521   3.546
 1892WAT     H2 6196   4.358   1.655   3.596
 1893WAT      O 6197   4.693   1.438   3.322
 1893WAT     H1 6198   4.648   1.440   3.237
 1893WAT     H2 6199   4.630   1.398   3.382
 1894WAT      O 6200   4.734   2.328   3.384
 1894WAT     H1 6201   4.776   2.412   3.367
 1894WAT     H2 6202   4.642   2.341   3.361
 1895WAT      O 6203   4.967   2.101   3.523
 1895WAT     H1 6204   4.979   2.041   3.596
 1895WAT     H2 6205   5.053   2.104   3.481
 1896WAT      O 6206   5.201   2.156   3.380
 1896WAT     H1 6207   5.149   2.209   3.320
 1896WAT     H2 6208   5.236   2.219   3.443
 1897WAT      O 6209   4.441   1.895   2.025
 1897WAT     H1 6210   4.421   1.809   2.061
 1897WAT     H2 6211   4.424   1.886   1.931
 1898WAT      O 6212   4.519   2.958   3.496
 1898WAT     H1 6213   4.465   3.031   3.464
 1898WAT     H2 6214   4.544   2.910   3.417
 1899WAT      O 6215   4.644   1.755   3.648
 1899WAT     H1 6216   4.703   1.724   3.717
 1899WAT     H2 6217   4.562   1.708   3.664
 1900WAT      O 6218   5.126   1.717   3.672
 1900WAT     H1 6219   5.057   1.650   3.665
 1900WAT     H2 6220   5.198   1.672   3.716
 1901WAT      O 6221   5.189   1.376   2.278
 1901WAT     H1 6222   5.217   1.292   2.313
 1901WAT     H2 6223   5.112   1.399   2.329
 1902WAT      O 6224   4.321   1.605   2.023
 1902WAT     H1 6225   4.351   1.606   1.933
 1902WAT     H2 6226   4.395   1.570   2.073
 1903WAT      O 6227   4.804   3.082   3.522
 1903WAT     H1 6228   4.797   3.172   3.552
 1903WAT     H2 6229   4.714   3.050   3.519
 1904WAT      O 6230   4.643   1.499   2.122
 1904WAT     H1 6231   4.608   1.432   2.064
 1904WAT     H2 6232   4.663   1.453   2.203
 1905WAT      O 6233   4.859   2.998   2.284
 1905WAT     H1 6234   4.949   3.032   2.286
 1905WAT     H2 6235   4.862   2.926   2.221
 1906WAT      O 6236   4.223   2.536   2.107
 1906WAT     H1 6237   4.267   2.590   2.172
 1906WAT     H2 6238   4.272   2.453   2.108
 1907WAT      O 6239   4.404   2.647   2.618
 1907WAT     H1 6240   4.374   2.635   2.708
 1907WAT     H2 6241   4.394   2.562   2.577
 1908WAT      O 6242   5.557   2.851   3.555
 1908WAT     H1 6243   5.497   2.857   3.480
 1908WAT     H2 6244   5.570   2.757   3.567
 1909WAT      O 6245   3.977   2.152   2.762
 1909WAT     H1 6246   3.911   2.125   2.697
 1909WAT     H2 6247   4.061   2.141   2.717
 1910WAT      O 6248   5.426   2.524   3.364
 1910WAT     H1 6249   5.344   2.567   3.391
 1910WAT     H2 6250   5.466   2.585   3.303
 1911WAT      O 6251   5.632   2.329   2.054
 1911WAT     H1 6252   5.659   2.420   2.041
 1911WAT     H2 6253   5.613   2.323   2.148
 1912WAT      O 6254   5.272   1.632   2.184
 1912WAT     H1 6255   5.314   1.613   2.100
 1912WAT     H2 6256   5.241   1.547   2.215
 1913WAT      O 6257   5.622   2.123   2.554
 1913WAT     H1 6258   5.584   2.046   2.510
 1913WAT     H2 6259   5.549   2.161   2.602
 1914WAT      O 6260   4.081   2.191   3.216
 1914WAT     H1 6261   4.117   2.182   3.304
 1914WAT     H2 6262   4.024   2.114   3.206
 1915WAT      O 6263   5.561   2.038   3.517
 1915WAT     H1 6264   5.537   2.015   3.427
 1915WAT     H2 6265   5.587   2.130   3.512
 1916WAT      O 6266   4.036   1.882   3.606
 1916WAT     H1 6267   3.946   1.879   3.640
 1916WAT     H2 6268   4.090   1.902   3.683
 1917WAT      O 6269   5.405   1.560   3.795
 1917WAT     H1 6270   5.492   1.561   3.833
 1917WAT     H2 6271   5.406   1.487   3.734
 1918WAT      O 6272   3.898   1.873   2.356
 1918WAT     H1 6273   3.808   1.900   2.338
 1918WAT     H2 6274   3.947   1.900   2.278
 1919WAT      O 6275   5.549   1.946   2.884
 1919WAT     H1 6276   5.602   1.896   2.821
 1919WAT     H2 6277   5.608   1.959   2.958
 1920WAT      O 6278   5.567   1.954   3.236
 1920WAT     H1 6279   5.472   1.951   3.247
 1920WAT     H2 6280   5.585   2.045   3.212
 1921WAT      O 6281   4.152   1.779   2.147
 1921WAT     H1 6282   4.223   1.737   2.098
 1921WAT     H2 6283   4.081   1.786   2.084
 1922WAT      O 6284   4.117   1.384   2.051
 1922WAT     H1 6285   4.190   1.438   2.083
 1922WAT     H2 6286   4.144   1.357   1.963
 1923WAT      O 6287   5.498   1.871   2.478
 1923WAT     H1 6288   5.548   1.848   2.556
 1923WAT     H2 6289   5.478   1.787   2.436
 1924WAT      O 6290   4.086   1.309   3.041
 1924WAT     H1 6291   4.151   1.254   2.997
 1924WAT     H2 6292   4.128   1.335   3.123
 1925WAT      O 6293   5.476   1.329   3.377
 1925WAT     H1 6294   5.539   1.390   3.413
 1925WAT     H2 6295   5.490   1.332   3.282
 1926WAT      O 6296   5.431   2.999   2.717
 1926WAT     H1 6297   5.491   2.967   2.649
 1926WAT     H2 6298   5.457   2.952   2.796
 1927WAT      O 6299   4.061   1.325   3.315
 1927WAT     H1 6300   4.027   1.371   3.392
 1927WAT     H2 6301   4.028   1.236   3.324
 1928WAT      O 6302   4.222   2.642   3.732
 1928WAT     H1 6303   4.218   2.605   3.820
 1928WAT     H2 6304   4.235   2.736   3.746
 1929WAT      O 6305   4.592   2.798   3.292
 1929WAT     H1 6306   4.568   2.824   3.203
 1929WAT     H2 6307   4.686   2.815   3.297
 1930WAT      O 6308   4.813   1.444   3.668
 1930WAT     H1 6309   4.807   1.503   3.742
 1930WAT     H2 6310   4.907   1.433   3.653
 1931WAT      O 6311   5.076   1.410   3.631
 1931WAT     H1 6312   5.138   1.442   3.565
 1931WAT     H2 6313   5.131   1.361   3.693
 1932WAT      O 6314   4.129   1.278   3.643
 1932WAT     H1 6315   4.183   1.260   3.566
 1932WAT     H2 6316   4.135   1.199   3.696
 1933WAT      O 6317   5.151   1.266   3.264
 1933WAT     H1 6318   5.063   1.299   3.244
 1933WAT     H2 6319   5.140   1.219   3.347
 1934WAT      O 6320   5.241   1.487   3.403
 1934WAT     H1 6321   5.208   1.405   3.365
 1934WAT     H2 6322   5.336   1.483   3.390
 1935WAT      O 6323   5.487   3.064   3.100
 1935WAT     H1 6324   5.441   3.139   3.063
 1935WAT     H2 6325   5.424   2.992   3.094
 1936WAT      O 6326   4.169   2.673   3.339
 1936WAT     H1 6327   4.096   2.611   3.332
 1936WAT     H2 6328   4.175   2.713   3.252
 1937WAT      O 6329   4.530   2.895   3.017
 1937WAT     H1 6330   4.581   2.834   2.965
 1937WAT     H2 6331   4.595   2.945   3.067
 1938WAT      O 6332   4.804   2.984   3.100
 1938WAT     H1 6333   4.832   2.958   3.012
 1938WAT     H2 6334   4.855   2.929   3.159
 1939WAT      O 6335   4.925   1.358   3.158
 1939WAT     H1 6336   4.847   1.405   3.186
 1939WAT     H2 6337   4.896   1.267   3.147
 1940WAT      O 6338   5.380   1.428   2.963
 1940WAT     H1 6339   5.425   1.422   2.878
 1940WAT     H2 6340   5.354   1.520   2.970
 1941WAT      O 6341   5.567   1.391   2.764
 1941WAT     H1 6342   5.561   1.297   2.749
 1941WAT     H2 6343   5.645   1.402   2.818
 1942WAT      O 6344   3.997   3.005   2.660
 1942WAT     H1 6345   3.981   2.942   2.730
 1942WAT     H2 6346   3.911   3.026   2.625
 1943WAT      O 6347   4.060   1.388   2.410
 1943WAT     H1 6348   4.135   1.400   2.353
 1943WAT     H2 6349   4.013   1.472   2.406
 1944WAT      O 6350   4.714   1.600   2.709
 1944WAT     H1 6351   4.633   1.562   2.675
 1944WAT     H2 6352   4.764   1.524   2.739
 1945WAT      O 6353   5.164   1.266   2.833
 1945WAT     H1 6354   5.224   1.323   2.881
 1945WAT     H2 6355   5.090   1.322   2.811
 1946WAT      O 6356   5.478   1.306   2.360
 1946WAT     H1 6357   5.498   1.396   2.387
 1946WAT     H2 6358   5.400   1.283   2.410
 1947WAT      O 6359   4.158   2.874   2.404
 1947WAT     H1 6360   4.106   2.913   2.334
 1947WAT     H2 6361   4.150   2.937   2.476
 1948WAT      O 6362   4.297   1.441   2.264
 1948WAT     H1 6363   4.350   1.362   2.251
 1948WAT     H2 6364   4.360   1.509   2.288
 1949WAT      O 6365   4.516   1.415   2.570
 1949WAT     H1 6366   4.453   1.345   2.586
 1949WAT     H2 6367   4.462   1.491   2.548
 1950WAT      O 6368   4.810   3.076   3.837
 1950WAT     H1 6369   4.903   3.053   3.841
 1950WAT     H2 6370   4.809   3.159   3.789
 1951WAT      O 6371   5.634   3.030   2.537
 1951WAT     H1 6372   5.651   2.962   2.472
 1951WAT     H2 6373   5.564   3.083   2.497
 1952WAT      O 6374   4.529   1.343   3.813
 1952WAT     H1 6375   4.501   1.393   3.737
 1952WAT     H2 6376   4.567   1.263   3.777
 1953WAT      O 6377   4.418   3.069   2.292
 1953WAT     H1 6378   4.491   3.041   2.237
 1953WAT     H2 6379   4.444   3.045   2.381
 1954WAT      O 6380   4.334   2.681   2.292
 1954WAT     H1 6381   4.271   2.728   2.347
 1954WAT     H2 6382   4.346   2.596   2.336
 1955WAT      O 6383   5.189   1.284   3.871
 1955WAT     H1 6384   5.178   1.316   3.961
 1955WAT     H2 6385   5.271   1.324   3.841
 1956WAT      O 6386   5.467   2.999   3.819
 1956WAT     H1 6387   5.546   2.949   3.798
 1956WAT     H2 6388   5.496   3.067   3.880
 1957WAT      O 6389   5.080   2.086   0.907
 1957WAT     H1 6390   5.072   1.995   0.880
 1957WAT     H2 6391   5.038   2.136   0.837
 1958WAT      O 6392   4.893   2.264   1.095
 1958WAT     H1 6393   4.815   2.216   1.124
 1958WAT     H2 6394   4.958   2.196   1.078
 1959WAT      O 6395   4.294   2.295   1.183
 1959WAT     H1 6396   4.211   2.269   1.223
 1959WAT     H2 6397   4.355   2.302   1.257
 1960WAT      O 6398   5.295   2.704   0.973
 1960WAT     H1 6399   5.249   2.627   1.006
 1960WAT     H2 6400   5.376   2.707   1.024
 1961WAT      O 6401   4.292   2.698   1.203
 1961WAT     H1 6402   4.323   2.609   1.185
 1961WAT     H2 6403   4.367   2.754   1.180
 1962WAT      O 6404   4.135   1.791   0.562
 1962WAT     H1 6405   4.047   1.825   0.551
 1962WAT     H2 6406   4.164   1.771   0.472
 1963WAT      O 6407   3.932   2.051   1.150
 1963WAT     H1 6408   3.989   1.974   1.150
 1963WAT     H2 6409   3.932   2.081   1.059
 1964WAT      O 6410   4.917   2.933   0.935
 1964WAT     H1 6411   4.856   2.979   0.878
 1964WAT     H2 6412   5.003   2.948   0.895
 1965WAT      O 6413   4.837   2.531   1.096
 1965WAT     H1 6414   4.830   2.437   1.080
 1965WAT     H2 6415   4.913   2.540   1.153
 1966WAT      O 6416   4.056   1.592   1.329
 1966WAT     H1 6417   4.038   1.502   1.357
 1966WAT     H2 6418   4.016   1.647   1.396
 1967WAT      O 6419   4.940   1.812   1.119
 1967WAT     H1 6420   4.978   1.725   1.108
 1967WAT     H2 6421   4.930   1.846   1.030
 1968WAT      O 6422   4.353   1.649   0.665
 1968WAT     H1 6423   4.364   1.739   0.696
 1968WAT     H2 6424   4.262   1.644   0.636
 1969WAT      O 6425   5.318   1.562   0.812
 1969WAT     H1 6426   5.400   1.513   0.816
 1969WAT     H2 6427   5.322   1.621   0.887
 1970WAT      O 6428   4.118   1.841   1.190
 1970WAT     H1 6429   4.186   1.868   1.251
 1970WAT     H2 6430   4.086   1.757   1.223
 1971WAT      O 6431   4.537   1.946   1.098
 1971WAT     H1 6432   4.588   1.996   1.162
 1971WAT     H2 6433   4.590   1.869   1.081
 1972WAT      O 6434   4.365   1.410   1.525
 1972WAT     H1 6435   4.366   1.462   1.444
 1972WAT     H2 6436   4.282   1.362   1.523
 1973WAT      O 6437   5.004   2.421   0.675
 1973WAT     H1 6438   4.942   2.468   0.618
 1973WAT     H2 6439   5.055   2.491   0.716
 1974WAT      O 6440   4.490   2.374   1.343
 1974WAT     H1 6441   4.457   2.437   1.407
 1974WAT     H2 6442   4.508   2.427   1.265
 1975WAT      O 6443   5.342   1.756   1.089
 1975WAT     H1 6444   5.271   1.784   1.147
 1975WAT     H2 6445   5.378   1.837   1.053
 1976WAT      O 6446   4.334   1.581   1.326
 1976WAT     H1 6447   4.368   1.666   1.296
 1976WAT     H2 6448   4.240   1.596   1.337
 1977WAT      O 6449   4.412   2.571   1.524
 1977WAT     H1 6450   4.473   2.638   1.496
 1977WAT     H2 6451   4.326   2.612   1.515
 1978WAT      O 6452   3.941   2.490   0.412
 1978WAT     H1 6453   3.903   2.539   0.339
 1978WAT     H2 6454   3.967   2.557   0.475
 1979WAT      O 6455   5.503   2.717   1.316
 1979WAT     H1 6456   5.435   2.784   1.315
 1979WAT     H2 6457   5.557   2.737   1.239
 1980WAT      O 6458   5.649   1.700   1.128
 1980WAT     H1 6459   5.554   1.703   1.142
 1980WAT     H2 6460   5.681   1.781   1.167
 1981WAT      O 6461   4.702   1.330   0.958
 1981WAT     H1 6462   4.733   1.275   0.886
 1981WAT     H2 6463   4.609   1.344   0.940
 1982WAT      O 6464   5.257   2.902   1.187
 1982WAT     H1 6465   5.258   2.861   1.100
 1982WAT     H2 6466   5.202   2.979   1.177
 1983WAT      O 6467   5.386   2.574   0.696
 1983WAT     H1 6468   5.375   2.480   0.709
 1983WAT     H2 6469   5.386   2.610   0.785
 1984WAT      O 6470   5.197   2.392   1.320
 1984WAT     H1 6471   5.239   2.371   1.236
 1984WAT     H2 6472   5.269   2.418   1.377
 1985WAT      O 6473   4.941   2.137   0.632
 1985WAT     H1 6474   4.848   2.130   0.655
 1985WAT     H2 6475   4.956   2.230   0.620
 1986WAT      O 6476   4.939   1.764   0.331
 1986WAT     H1 6477   4.845   1.780   0.340
 1986WAT     H2 6478   4.971   1.836   0.277
 1987WAT      O 6479   5.591   2.232   1.329
 1987WAT     H1 6480   5.509   2.239   1.282
 1987WAT     H2 6481   5.651   2.290   1.282
 1988WAT      O 6482   5.344   2.293   0.682
 1988WAT     H1 6483   5.282   2.259   0.617
 1988WAT     H2 6484   5.342   2.228   0.753
 1989WAT      O 6485   5.288   1.911   1.424
 1989WAT     H1 6486   5.247   1.993   1.449
 1989WAT     H2 6487   5.215   1.852   1.404
 1990WAT      O 6488   4.501   2.189   0.910
 1990WAT     H1 6489   4.461   2.118   0.860
 1990WAT     H2 6490   4.510   2.155   0.999
 1991WAT      O 6491   4.548   2.558   1.126
 1991WAT     H1 6492   4.518   2.497   1.058
 1991WAT     H2 6493   4.643   2.562   1.115
 1992WAT      O 6494   4.373   1.867   1.288
 1992WAT     H1 6495   4.428   1.878   1.210
 1992WAT     H2 6496   4.424   1.904   1.359
 1993WAT      O 6497   5.357   2.915   1.492
 1993WAT     H1 6498   5.309   2.996   1.473
 1993WAT     H2 6499   5.289   2.850   1.508
 1994WAT      O 6500   4.457   2.532   1.791
 1994WAT     H1 6501   4.368   2.554   1.816
 1994WAT     H2 6502   4.460   2.544   1.696
 1995WAT      O 6503   5.161   2.217   0.383
 1995WAT     H1 6504   5.205   2.133   0.368
 1995WAT     H2 6505   5.233   2.280   0.391
 1996WAT      O 6506   4.340   2.219   1.649
 1996WAT     H1 6507   4.326   2.306   1.686
 1996WAT     H2 6508   4.252   2.185   1.634
 1997WAT      O 6509   4.972   2.711   0.780
 1997WAT     H1 6510   5.016   2.785   0.738
 1997WAT     H2 6511   4.966   2.735   0.872
 1998WAT      O 6512   4.520   2.813   1.870
 1998WAT     H1 6513   4.517   2.853   1.783
 1998WAT     H2 6514   4.503   2.720   1.853
 1999WAT      O 6515   5.519   1.342   0.214
 1999WAT     H1 6516   5.488   1.351   0.304
 1999WAT     H2 6517   5.596   1.400   0.209
 2000WAT      O 6518   4.171   2.079   0.660
 2000WAT     H1 6519   4.159   2.151   0.599
 2000WAT     H2 6520   4.140   2.002   0.612
 2001WAT      O 6521   3.935   2.396   1.241
 2001WAT     H1 6522   3.943   2.409   1.146
 2001WAT     H2 6523   3.997   2.325   1.260
 2002WAT      O 6524   4.060   2.566   0.882
 2002WAT     H1 6525   4.019   2.580   0.796
 2002WAT     H2 6526   4.149   2.537   0.861
 2003WAT      O 6527   5.655   2.610   1.715
 2003WAT     H1 6528   5.668   2.587   1.624
 2003WAT     H2 6529   5.659   2.527   1.763
 2004WAT      O 6530   5.041   2.981   1.572
 2004WAT     H1 6531   5.093   2.972   1.653
 2004WAT     H2 6532   4.957   3.015   1.602
 2005WAT      O 6533   5.239   3.009   0.515
 2005WAT     H1 6534   5.223   2.980   0.605
 2005WAT     H2 6535   5.222   2.932   0.462
 2006WAT      O 6536   4.487   2.987   0.693
 2006WAT     H1 6537   4.469   2.896   0.672
 2006WAT     H2 6538   4.401   3.023   0.717
 2007WAT      O 6539   5.209   2.760   0.371
 2007WAT     H1 6540   5.140   2.760   0.305
 2007WAT     H2 6541   5.283   2.718   0.328
 2008WAT      O 6542   5.166   2.923   0.779
 2008WAT     H1 6543   5.211   2.845   0.810
 2008WAT     H2 6544   5.200   2.994   0.833
 2009WAT      O 6545   5.640   1.816   1.812
 2009WAT     H1 6546   5.579   1.867   1.759
 2009WAT     H2 6547   5.608   1.726   1.806
 2010WAT      O 6548   3.941   2.500   1.495
 2010WAT     H1 6549   3.957   2.453   1.413
 2010WAT     H2 6550   3.987   2.449   1.561
 2011WAT      O 6551   4.418   1.413   0.998
 2011WAT     H1 6552   4.374   1.491   0.965
 2011WAT     H2 6553   4.474   1.445   1.069
 2012WAT      O 6554   4.847   1.700   1.558
 2012WAT     H1 6555   4.800   1.721   1.640
 2012WAT     H2 6556   4.806   1.618   1.528
 2013WAT      O 6557   5.347   1.822   1.671
 2013WAT     H1 6558   5.262   1.792   1.704
 2013WAT     H2 6559   5.331   1.846   1.580
 2014WAT      O 6560   5.056   1.972   1.881
 2014WAT     H1 6561   5.089   1.888   1.847
 2014WAT     H2 6562   5.135   2.024   1.896
 2015WAT      O 6563   4.729   1.375   0.486
 2015WAT     H1 6564   4.667   1.375   0.559
 2015WAT     H2 6565   4.721   1.288   0.447
 2016WAT      O 6566   4.622   1.467   1.184
 2016WAT     H1 6567   4.651   1.558   1.176
 2016WAT     H2 6568   4.677   1.419   1.123
 2017WAT      O 6569   4.397   1.925   0.771
 2017WAT     H1 6570   4.374   1.904   0.861
 2017WAT     H2 6571   4.319   1.969   0.736
 2018WAT      O 6572   5.120   1.926   0.631
 2018WAT     H1 6573   5.060   1.998   0.612
 2018WAT     H2 6574   5.175   1.920   0.553
 2019WAT      O 6575   4.641   2.015   1.838
 2019WAT     H1 6576   4.631   1.921   1.823
 2019WAT     H2 6577   4.725   2.037   1.798
 2020WAT      O 6578   4.981   1.790   0.834
 2020WAT     H1 6579   5.020   1.821   0.753
 2020WAT     H2 6580   5.017   1.702   0.845
 2021WAT      O 6581   4.154   1.656   1.653
 2021WAT     H1 6582   4.115   1.741   1.674
 2021WAT     H2 6583   4.085   1.593   1.672
 2022WAT      O 6584   4.812   1.665   1.960
 2022WAT     H1 6585   4.743   1.645   2.023
 2022WAT     H2 6586   4.886   1.693   2.013
 2023WAT      O 6587   3.884   1.449   1.056
 2023WAT     H1 6588   3.855   1.506   1.127
 2023WAT     H2 6589   3.959   1.401   1.093
 2024WAT      O 6590   5.039   2.049   1.243
 2024WAT     H1 6591   4.966   2.100   1.278
 2024WAT     H2 6592   4.999   1.967   1.213
 2025WAT      O 6593   4.683   1.716   1.084
 2025WAT     H1 6594   4.683   1.672   0.999
 2025WAT     H2 6595   4.773   1.748   1.095
 2026WAT      O 6596   4.268   1.704   0.980
 2026WAT     H1 6597   4.234   1.752   1.056
 2026WAT     H2 6598   4.192   1.659   0.944
 2027WAT      O 6599   4.689   1.816   0.383
 2027WAT     H1 6600   4.701   1.812   0.478
 2027WAT     H2 6601   4.651   1.903   0.367
 2028WAT      O 6602   5.085   1.594   1.185
 2028WAT     H1 6603   5.087   1.639   1.269
 2028WAT     H2 6604   5.061   1.504   1.206
 2029WAT      O 6605   4.590   2.047   0.323
 2029WAT     H1 6606   4.534   2.003   0.260
 2029WAT     H2 6607   4.661   2.083   0.269
 2030WAT      O 6608   5.428   1.335   1.768
 2030WAT     H1 6609   5.461   1.262   1.821
 2030WAT     H2 6610   5.432   1.303   1.678
 2031WAT      O 6611   4.098   2.437   1.710
 2031WAT     H1 6612   4.060   2.373   1.770
 2031WAT     H2 6613   4.129   2.508   1.767
 2032WAT      O 6614   4.713   2.122   1.259
 2032WAT     H1 6615   4.750   2.075   1.333
 2032WAT     H2 6616   4.694   2.210   1.293
 2033WAT      O 6617   3.999   1.597   0.872
 2033WAT     H1 6618   3.971   1.560   0.955
 2033WAT     H2 6619   3.993   1.523   0.810
 2034WAT      O 6620   4.492   2.026   1.490
 2034WAT     H1 6621   4.462   2.114   1.513
 2034WAT     H2 6622   4.588   2.032   1.494
 2035WAT      O 6623   4.345   2.447   0.550
 2035WAT     H1 6624   4.268   2.393   0.534
 2035WAT     H2 6625   4.418   2.395   0.516
 2036WAT      O 6626   5.421   2.347   1.129
 2036WAT     H1 6627   5.493   2.396   1.090
 2036WAT     H2 6628   5.401   2.279   1.065
 2037WAT      O 6629   4.967   1.486   0.544
 2037WAT     H1 6630   4.886   1.436   0.536
 2037WAT     H2 6631   4.947   1.570   0.502
 2038WAT      O 6632   4.959   2.354   1.718
 2038WAT     H1 6633   4.952   2.262   1.693
 2038WAT     H2 6634   4.896   2.363   1.789
 2039WAT      O 6635   5.238   1.923   0.373
 2039WAT     H1 6636   5.327   1.954   0.356
 2039WAT     H2 6637   5.235   1.836   0.334
 2040WAT      O 6638   4.349   2.414   0.914
 2040WAT     H1 6639   4.401   2.333   0.908
 2040WAT     H2 6640   4.304   2.408   0.998
 2041WAT      O 6641   4.838   2.540   0.441
 2041WAT     H1 6642   4.872   2.615   0.392
 2041WAT     H2 6643   4.755   2.572   0.477
 2042WAT      O 6644   4.098   2.110   1.605
 2042WAT     H1 6645   4.062   2.177   1.664
 2042WAT     H2 6646   4.068   2.027   1.642
 2043WAT      O 6647   4.418   2.156   1.894
 2043WAT     H1 6648   4.388   2.171   1.804
 2043WAT     H2 6649   4.495   2.100   1.884
 2044WAT      O 6650   4.952   2.636   1.693
 2044WAT     H1 6651   4.954   2.543   1.671
 2044WAT     H2 6652   4.881   2.644   1.757
 2045WAT      O 6653   5.466   2.054   0.320
 2045WAT     H1 6654   5.457   2.097   0.235
 2045WAT     H2 6655   5.537   2.100   0.363
 2046WAT      O 6656   5.573   2.300   1.628
 2046WAT     H1 6657   5.501   2.359   1.608
 2046WAT     H2 6658   5.626   2.299   1.548
 2047WAT      O 6659   5.568   2.740   0.593
 2047WAT     H1 6660   5.504   2.674   0.620
 2047WAT     H2 6661   5.530   2.780   0.515
 2048WAT      O 6662   5.126   2.473   0.978
 2048WAT     H1 6663   5.161   2.413   0.912
 2048WAT     H2 6664   5.038   2.440   0.995
 2049WAT      O 6665   4.735   2.549   0.718
 2049WAT     H1 6666   4.804   2.603   0.756
 2049WAT     H2 6667   4.656   2.603   0.722
 2050WAT      O 6668   3.949   2.110   0.267
 2050WAT     H1 6669   4.036   2.138   0.296
 2050WAT     H2 6670   3.900   2.192   0.256
 2051WAT      O 6671   4.665   2.249   0.680
 2051WAT     H1 6672   4.711   2.330   0.702
 2051WAT     H2 6673   4.630   2.217   0.763
 2052WAT      O 6674   4.895   2.800   1.402
 2052WAT     H1 6675   4.960   2.821   1.470
 2052WAT     H2 6676   4.932   2.724   1.357
 2053WAT      O 6677   4.255   1.283   0.727
 2053WAT     H1 6678   4.242   1.283   0.822
 2053WAT     H2 6679   4.173   1.317   0.692
 2054WAT      O 6680   5.023   2.600   1.274
 2054WAT     H1 6681   5.087   2.530   1.286
 2054WAT     H2 6682   5.075   2.678   1.256
 2055WAT      O 6683   5.407   2.629   0.247
 2055WAT     H1 6684   5.385   2.557   0.306
 2055WAT     H2 6685   5.368   2.604   0.163
 2056WAT      O 6686   5.200   2.680   1.595
 2056WAT     H1 6687   5.234   2.739   1.662
 2056WAT     H2 6688   5.108   2.667   1.618
 2057WAT      O 6689   3.986   3.032   0.324
 2057WAT     H1 6690   4.021   3.091   0.259
 2057WAT     H2 6691   3.971   3.086   0.401
 2058WAT      O 6692   3.955   1.459   1.673
 2058WAT     H1 6693   3.884   1.479   1.733
 2058WAT     H2 6694   3.997   1.382   1.710
 2059WAT      O 6695   5.366   2.421   0.413
 2059WAT     H1 6696   5.337   2.467   0.492
 2059WAT     H2 6697   5.445   2.375   0.440
 2060WAT      O 6698   3.984   2.858   1.772
 2060WAT     H1 6699   3.995   2.764   1.757
 2060WAT     H2 6700   3.919   2.885   1.707
 2061WAT      O 6701   4.783   2.685   1.912
 2061WAT     H1 6702   4.751   2.613   1.966
 2061WAT     H2 6703   4.716   2.753   1.919
 2062WAT      O 6704   4.587   2.770   0.406
 2062WAT     H1 6705   4.586   2.843   0.344
 2062WAT     H2 6706   4.495   2.745   0.415
 2063WAT      O 6707   4.147   2.292   0.480
 2063WAT     H1 6708   4.087   2.366   0.481
 2063WAT     H2 6709   4.195   2.301   0.398
 2064WAT      O 6710   5.105   1.708   1.448
 2064WAT     H1 6711   5.141   1.626   1.481
 2064WAT     H2 6712   5.019   1.715   1.489
 2065WAT      O 6713   5.441   1.604   0.529
 2065WAT     H1 6714   5.378   1.615   0.457
 2065WAT     H2 6715   5.392   1.626   0.608
 2066WAT      O 6716   4.886   2.776   0.272
 2066WAT     H1 6717   4.896   2.756   0.179
 2066WAT     H2 6718   4.796   2.751   0.293
 2067WAT      O 6719   4.638   1.832   0.670
 2067WAT     H1 6720   4.567   1.879   0.714
 2067WAT     H2 6721   4.666   1.766   0.734
 2068WAT      O 6722   4.801   1.974   1.470
 2068WAT     H1 6723   4.850   2.021   1.537
 2068WAT     H2 6724   4.815   1.882   1.491
 2069WAT      O 6725   5.041   1.504   0.814
 2069WAT     H1 6726   5.029   1.506   0.719
 2069WAT     H2 6727   5.136   1.509   0.826
 2070WAT      O 6728   4.750   3.028   0.742
 2070WAT     H1 6729   4.775   3.024   0.649
 2070WAT     H2 6730   4.655   3.015   0.741
 2071WAT      O 6731   4.458   1.663   0.408
 2071WAT     H1 6732   4.543   1.706   0.401
 2071WAT     H2 6733   4.422   1.694   0.491
 2072WAT      O 6734   5.521   1.596   1.555
 2072WAT     H1 6735   5.471   1.670   1.588
 2072WAT     H2 6736   5.603   1.634   1.523
 2073WAT      O 6737   5.350   2.120   0.899
 2073WAT     H1 6738   5.256   2.121   0.917
 2073WAT     H2 6739   5.382   2.041   0.944
 2074WAT      O 6740   4.348   2.288   0.255
 2074WAT     H1 6741   4.425   2.277   0.311
 2074WAT     H2 6742   4.356   2.218   0.190
 2075WAT      O 6743   4.218   2.031   0.324
 2075WAT     H1 6744   4.226   1.937   0.335
 2075WAT     H2 6745   4.307   2.064   0.334
 2076WAT      O 6746   5.551   2.837   1.067
 2076WAT     H1 6747   5.563   2.919   1.114
 2076WAT     H2 6748   5.637   2.816   1.032
 2077WAT      O 6749   4.298   3.046   1.034
 2077WAT     H1 6750   4.372   2.991   1.061
 2077WAT     H2 6751   4.336   3.133   1.020
 2078WAT      O 6752   3.986   2.653   0.621
 2078WAT     H1 6753   3.894   2.677   0.620
 2078WAT     H2 6754   4.033   2.736   0.609
 2079WAT      O 6755   4.199   2.965   1.953
 2079WAT     H1 6756   4.279   2.997   1.994
 2079WAT     H2 6757   4.147   2.929   2.025
 2080WAT      O 6758   4.609   2.964   0.216
 2080WAT     H1 6759   4.688   2.992   0.171
 2080WAT     H2 6760   4.557   2.921   0.148
 2081WAT      O 6761   5.082   2.576   1.947
 2081WAT     H1 6762   5.022   2.578   1.873
 2081WAT     H2 6763   5.052   2.502   2.001
 2082WAT      O 6764   5.225   2.948   1.809
 2082WAT     H1 6765   5.320   2.940   1.804
 2082WAT     H2 6766   5.210   3.015   1.876
 2083WAT      O 6767   5.514   2.886   0.358
 2083WAT     H1 6768   5.486   2.845   0.277
 2083WAT     H2 6769   5.494   2.979   0.346
 2084WAT      O 6770   3.970   2.213   1.847
 2084WAT     H1 6771   4.021   2.156   1.904
 2084WAT     H2 6772   3.897   2.242   1.901
 2085WAT      O 6773   4.676   2.354   1.800
 2085WAT     H1 6774   4.599   2.411   1.792
 2085WAT     H2 6775   4.694   2.325   1.711
 2086WAT      O 6776   4.985   2.392   0.263
 2086WAT     H1 6777   4.930   2.437   0.327
 2086WAT     H2 6778   5.047   2.341   0.315
 2087WAT      O 6779   5.390   2.527   1.856
 2087WAT     H1 6780   5.464   2.561   1.806
 2087WAT     H2 6781   5.314   2.544   1.801
 2088WAT      O 6782   4.174   2.028   1.937
 2088WAT     H1 6783   4.178   1.998   2.027
 2088WAT     H2 6784   4.259   2.068   1.921
 2089WAT      O 6785   4.552   2.288   0.453
 2089WAT     H1 6786   4.594   2.271   0.537
 2089WAT     H2 6787   4.564   2.207   0.403
 2090WAT      O 6788   4.368   1.886   1.733
 2090WAT     H1 6789   4.315   1.837   1.671
 2090WAT     H2 6790   4.435   1.929   1.680
 2091WAT      O 6791   5.258   2.332   1.710
 2091WAT     H1 6792   5.299   2.348   1.795
 2091WAT     H2 6793   5.164   2.345   1.726
 2092WAT      O 6794   5.305   2.066   1.910
 2092WAT     H1 6795   5.363   1.991   1.901
 2092WAT     H2 6796   5.322   2.119   1.832
 2093WAT      O 6797   4.417   1.582   1.741
 2093WAT     H1 6798   4.407   1.521   1.669
 2093WAT     H2 6799   4.358   1.655   1.719
 2094WAT      O 6800   4.693   1.438   1.445
 2094WAT     H1 6801   4.648   1.440   1.360
 2094WAT     H2 6802   4.630   1.398   1.504
 2095WAT      O 6803   4.734   2.328   1.507
 2095WAT     H1 6804   4.776   2.412   1.489
 2095WAT     H2 6805   4.642   2.341   1.484
 2096WAT      O 6806   4.967   2.101   1.645
 2096WAT     H1 6807   4.979   2.041   1.719
 2096WAT     H2 6808   5.053   2.104   1.603
 2097WAT      O 6809   5.201   2.156   1.503
 2097WAT     H1 6810   5.149   2.209   1.442
 2097WAT     H2 6811   5.236   2.219   1.566
 2098WAT      O 6812   4.519   2.958   1.618
 2098WAT     H1 6813   4.465   3.031   1.586
 2098WAT     H2 6814   4.544   2.910   1.539
 2099WAT      O 6815   4.644   1.755   1.771
 2099WAT     H1 6816   4.703   1.724   1.840
 2099WAT     H2 6817   4.562   1.708   1.786
 2100WAT      O 6818   5.126   1.717   1.794
 2100WAT     H1 6819   5.057   1.650   1.788
 2100WAT     H2 6820   5.198   1.672   1.839
 2101WAT      O 6821   5.189   1.376   0.400
 2101WAT     H1 6822   5.217   1.292   0.436
 2101WAT     H2 6823   5.112   1.399   0.451
 2102WAT      O 6824   4.804   3.082   1.644
 2102WAT     H1 6825   4.797   3.172   1.675
 2102WAT     H2 6826   4.714   3.050   1.641
 2103WAT      O 6827   4.643   1.499   0.245
 2103WAT     H1 6828   4.608   1.432   0.187
 2103WAT     H2 6829   4.663   1.453   0.326
 2104WAT      O 6830   4.859   2.998   0.406
 2104WAT     H1 6831   4.949   3.032   0.409
 2104WAT     H2 6832   4.862   2.926   0.344
 2105WAT      O 6833   4.223   2.536   0.229
 2105WAT     H1 6834   4.267   2.590   0.295
 2105WAT     H2 6835   4.272   2.453   0.230
 2106WAT      O 6836   3.945   2.814   0.974
 2106WAT     H1 6837   3.978   2.728   0.951
 2106WAT     H2 6838   3.988   2.835   1.058
 2107WAT      O 6839   4.404   2.647   0.740
 2107WAT     H1 6840   4.374   2.635   0.831
 2107WAT     H2 6841   4.394   2.562   0.700
 2108WAT      O 6842   3.994   2.901   1.248
 2108WAT     H1 6843   3.950   2.919   1.332
 2108WAT     H2 6844   4.050   2.977   1.234
 2109WAT      O 6845   5.557   2.851   1.677
 2109WAT     H1 6846   5.497   2.857   1.603
 2109WAT     H2 6847   5.570   2.757   1.690
 2110WAT      O 6848   3.977   2.152   0.884
 2110WAT     H1 6849   3.911   2.125   0.820
 2110WAT     H2 6850   4.061   2.141   0.839
 2111WAT      O 6851   5.426   2.524   1.487
 2111WAT     H1 6852   5.344   2.567   1.513
 2111WAT     H2 6853   5.466   2.585   1.426
 2112WAT      O 6854   5.632   2.329   0.177
 2112WAT     H1 6855   5.659   2.420   0.164
 2112WAT     H2 6856   5.613   2.323   0.270
 2113WAT      O 6857   5.272   1.632   0.306
 2113WAT     H1 6858   5.314   1.613   0.222
 2113WAT     H2 6859   5.241   1.547   0.337
 2114WAT      O 6860   5.622   2.123   0.676
 2114WAT     H1 6861   5.584   2.046   0.633
 2114WAT     H2 6862   5.549   2.161   0.725
 2115WAT      O 6863   4.081   2.191   1.338
 2115WAT     H1 6864   4.117   2.182   1.426
 2115WAT     H2 6865   4.024   2.114   1.328
 2116WAT      O 6866   5.561   2.038   1.640
 2116WAT     H1 6867   5.537   2.015   1.549
 2116WAT     H2 6868   5.587   2.130   1.635
 2117WAT      O 6869   4.036   1.882   1.729
 2117WAT     H1 6870   3.946   1.879   1.763
 2117WAT     H2 6871   4.090   1.902   1.805
 2118WAT      O 6872   5.405   1.560   1.917
 2118WAT     H1 6873   5.492   1.561   1.956
 2118WAT     H2 6874   5.406   1.487   1.856
 2119WAT      O 6875   3.898   1.873   0.478
 2119WAT     H1 6876   3.808   1.900   0.461
 2119WAT     H2 6877   3.947   1.900   0.400
 2120WAT      O 6878   5.549   1.946   1.006
 2120WAT     H1 6879   5.602   1.896   0.943
 2120WAT     H2 6880   5.608   1.959   1.081
 2121WAT      O 6881   5.567   1.954   1.358
 2121WAT     H1 6882   5.472   1.951   1.370
 2121WAT     H2 6883   5.585   2.045   1.335
 2122WAT      O 6884   4.152   1.779   0.269
 2122WAT     H1 6885   4.223   1.737   0.221
 2122WAT     H2 6886   4.081   1.786   0.206
 2123WAT      O 6887   5.498   1.871   0.600
 2123WAT     H1 6888   5.548   1.848   0.679
 2123WAT     H2 6889   5.478   1.787   0.558
 2124WAT      O 6890   4.086   1.309   1.164
 2124WAT     H1 6891   4.151   1.254   1.120
 2124WAT     H2 6892   4.128   1.335   1.246
 2125WAT      O 6893   5.476   1.329   1.499
 2125WAT     H1 6894   5.539   1.390   1.536
 2125WAT     H2 6895   5.490   1.332   1.405
 2126WAT      O 6896   5.431   2.999   0.840
 2126WAT     H1 6897   5.491   2.967   0.772
 2126WAT     H2 6898   5.457   2.952   0.919
 2127WAT      O 6899   4.061   1.325   1.438
 2127WAT     H1 6900   4.027   1.371   1.514
 2127WAT     H2 6901   4.028   1.236   1.446
 2128WAT      O 6902   4.222   2.642   1.854
 2128WAT     H1 6903   4.218   2.605   1.943
 2128WAT     H2 6904   4.235   2.736   1.868
 2129WAT      O 6905   4.592   2.798   1.415
 2129WAT     H1 6906   4.568   2.824   1.326
 2129WAT     H2 6907   4.686   2.815   1.420
 2130WAT      O 6908   4.813   1.444   1.790
 2130WAT     H1 6909   4.807   1.503   1.865
 2130WAT     H2 6910   4.907   1.433   1.776
 2131WAT      O 6911   5.076   1.410   1.754
 2131WAT     H1 6912   5.138   1.442   1.688
 2131WAT     H2 6913   5.131   1.361   1.816
 2132WAT      O 6914   4.129   1.278   1.765
 2132WAT     H1 6915   4.183   1.260   1.689
 2132WAT     H2 6916   4.135   1.199   1.819
 2133WAT      O 6917   4.206   2.937   1.566
 2133WAT     H1 6918   4.147   2.924   1.640
 2133WAT     H2 6919   4.205   2.853   1.520
 2134WAT      O 6920   5.151   1.266   1.387
 2134WAT     H1 6921   5.063   1.299   1.366
 2134WAT     H2 6922   5.140   1.219   1.469
 2135WAT      O 6923   5.241   1.487   1.525
 2135WAT     H1 6924   5.208   1.405   1.487
 2135WAT     H2 6925   5.336   1.483   1.513
 2136WAT      O 6926   5.487   3.064   1.222
 2136WAT     H1 6927   5.441   3.139   1.185
 2136WAT     H2 6928   5.424   2.992   1.217
 2137WAT      O 6929   4.169   2.673   1.461
 2137WAT     H1 6930   4.096   2.611   1.455
 2137WAT     H2 6931   4.175   2.713   1.374
 2138WAT      O 6932   4.530   2.895   1.140
 2138WAT     H1 6933   4.581   2.834   1.087
 2138WAT     H2 6934   4.595   2.945   1.189
 2139WAT      O 6935   4.804   2.984   1.223
 2139WAT     H1 6936   4.832   2.958   1.135
 2139WAT     H2 6937   4.855   2.929   1.282
 2140WAT      O 6938   4.925   1.358   1.281
 2140WAT     H1 6939   4.847   1.405   1.309
 2140WAT     H2 6940   4.896   1.267   1.270
 2141WAT      O 6941   5.380   1.428   1.085
 2141WAT     H1 6942   5.425   1.422   1.000
 2141WAT     H2 6943   5.354   1.520   1.092
 2142WAT      O 6944   5.567   1.391   0.886
 2142WAT     H1 6945   5.561   1.297   0.872
 2142WAT     H2 6946   5.645   1.402   0.941
 2143WAT      O 6947   3.997   3.005   0.782
 2143WAT     H1 6948   3.981   2.942   0.852
 2143WAT     H2 6949   3.911   3.026   0.747
 2144WAT      O 6950   4.060   1.388   0.533
 2144WAT     H1 6951   4.135   1.400   0.475
 2144WAT     H2 6952   4.013   1.472   0.528
 2145WAT      O 6953   4.714   1.600   0.832
 2145WAT     H1 6954   4.633   1.562   0.798
 2145WAT     H2 6955   4.764   1.524   0.862
 2146WAT      O 6956   5.164   1.266   0.956
 2146WAT     H1 6957   5.224   1.323   1.003
 2146WAT     H2 6958   5.090   1.322   0.933
 2147WAT      O 6959   5.478   1.306   0.483
 2147WAT     H1 6960   5.498   1.396   0.510
 2147WAT     H2 6961   5.400   1.283   0.532
 2148WAT      O 6962   4.158   2.874   0.527
 2148WAT     H1 6963   4.106   2.913   0.457
 2148WAT     H2 6964   4.150   2.937   0.599
 2149WAT      O 6965   4.297   1.441   0.387
 2149WAT     H1 6966   4.350   1.362   0.374
 2149WAT     H2 6967   4.360   1.509   0.410
 2150WAT      O 6968   4.516   1.415   0.692
 2150WAT     H1 6969   4.453   1.345   0.709
 2150WAT     H2 6970   4.462   1.491   0.671
 2151WAT      O 6971   4.810   3.076   1.959
 2151WAT     H1 6972   4.903   3.053   1.964
 2151WAT     H2 6973   4.809   3.159   1.911
 2152WAT      O 6974   5.634   3.030   0.659
 2152WAT     H1 6975   5.651   2.962   0.595
 2152WAT     H2 6976   5.564   3.083   0.620
 2153WAT      O 6977   4.529   1.343   1.936
 2153WAT     H1 6978   4.501   1.393   1.859
 2153WAT     H2 6979   4.567   1.263   1.899
 2154WAT      O 6980   4.418   3.069   0.414
 2154WAT     H1 6981   4.491   3.041   0.360
 2154WAT     H2 6982   4.444   3.045   0.503
 2155WAT      O 6983   4.334   2.681   0.415
 2155WAT     H1 6984   4.271   2.728   0.470
 2155WAT     H2 6985   4.346   2.596   0.458
 2156WAT      O 6986   5.189   1.284   1.994
 2156WAT     H1 6987   5.178   1.316   2.083
 2156WAT     H2 6988   5.271   1.324   1.964
 2157WAT      O 6989   5.467   2.999   1.942
 2157WAT     H1 6990   5.546   2.949   1.921
 2157WAT     H2 6991   5.496   3.067   2.003
 2158WAT      O 6992   4.893   0.386   4.850
 2158WAT     H1 6993   4.815   0.338   4.879
 2158WAT     H2 6994   4.958   0.318   4.833
 2159WAT      O 6995   4.294   0.418   4.938
 2159WAT     H1 6996   4.211   0.392   4.978
 2159WAT     H2 6997   4.355   0.425   5.012
 2160WAT      O 6998   5.295   0.827   4.728
 2160WAT     H1 6999   5.249   0.750   4.761
 2160WAT     H2 7000   5.376   0.830   4.779
 2161WAT      O 7001   4.292   0.821   4.958
 2161WAT     H1 7002   4.323   0.732   4.940
 2161WAT     H2 7003   4.367   0.877   4.935
 2162WAT      O 7004   4.917   1.056   4.690
 2162WAT     H1 7005   4.856   1.101   4.633
 2162WAT     H2 7006   5.003   1.071   4.650
 2163WAT      O 7007   4.837   0.654   4.851
 2163WAT     H1 7008   4.830   0.560   4.835
 2163WAT     H2 7009   4.913   0.663   4.908
 2164WAT      O 7010   5.004   0.544   4.430
 2164WAT     H1 7011   4.942   0.590   4.373
 2164WAT     H2 7012   5.055   0.613   4.471
 2165WAT      O 7013   4.490   0.497   5.097
 2165WAT     H1 7014   4.457   0.559   5.162
 2165WAT     H2 7015   4.508   0.549   5.020
 2166WAT      O 7016   4.412   0.693   5.279
 2166WAT     H1 7017   4.473   0.761   5.251
 2166WAT     H2 7018   4.326   0.734   5.270
 2167WAT      O 7019   3.941   0.612   4.167
 2167WAT     H1 7020   3.903   0.661   4.094
 2167WAT     H2 7021   3.967   0.680   4.230
 2168WAT      O 7022   5.503   0.840   5.071
 2168WAT     H1 7023   5.435   0.907   5.070
 2168WAT     H2 7024   5.557   0.860   4.994
 2169WAT      O 7025   5.257   1.024   4.942
 2169WAT     H1 7026   5.258   0.984   4.855
 2169WAT     H2 7027   5.202   1.102   4.932
 2170WAT      O 7028   5.386   0.696   4.451
 2170WAT     H1 7029   5.375   0.602   4.463
 2170WAT     H2 7030   5.386   0.733   4.540
 2171WAT      O 7031   5.197   0.515   5.075
 2171WAT     H1 7032   5.239   0.493   4.991
 2171WAT     H2 7033   5.269   0.540   5.132
 2172WAT      O 7034   4.941   0.259   4.387
 2172WAT     H1 7035   4.848   0.252   4.409
 2172WAT     H2 7036   4.956   0.353   4.375
 2173WAT      O 7037   5.591   0.354   5.084
 2173WAT     H1 7038   5.509   0.361   5.036
 2173WAT     H2 7039   5.651   0.413   5.037
 2174WAT      O 7040   5.344   0.415   4.437
 2174WAT     H1 7041   5.282   0.382   4.372
 2174WAT     H2 7042   5.342   0.351   4.508
 2175WAT      O 7043   4.501   0.312   4.665
 2175WAT     H1 7044   4.461   0.241   4.615
 2175WAT     H2 7045   4.510   0.277   4.754
 2176WAT      O 7046   4.548   0.680   4.881
 2176WAT     H1 7047   4.518   0.620   4.813
 2176WAT     H2 7048   4.643   0.684   4.870
 2177WAT      O 7049   5.357   1.038   5.247
 2177WAT     H1 7050   5.309   1.118   5.228
 2177WAT     H2 7051   5.289   0.973   5.263
 2178WAT      O 7052   4.457   0.654   5.546
 2178WAT     H1 7053   4.368   0.677   5.571
 2178WAT     H2 7054   4.460   0.667   5.451
 2179WAT      O 7055   5.161   0.339   4.138
 2179WAT     H1 7056   5.205   0.255   4.123
 2179WAT     H2 7057   5.233   0.402   4.146
 2180WAT      O 7058   4.340   0.341   5.404
 2180WAT     H1 7059   4.326   0.429   5.441
 2180WAT     H2 7060   4.252   0.307   5.389
 2181WAT      O 7061   4.972   0.833   4.534
 2181WAT     H1 7062   5.016   0.907   4.493
 2181WAT     H2 7063   4.966   0.857   4.627
 2182WAT      O 7064   4.520   0.936   5.625
 2182WAT     H1 7065   4.517   0.976   5.538
 2182WAT     H2 7066   4.503   0.843   5.608
 2183WAT      O 7067   3.935   0.518   4.995
 2183WAT     H1 7068   3.943   0.532   4.901
 2183WAT     H2 7069   3.997   0.448   5.015
 2184WAT      O 7070   4.060   0.688   4.637
 2184WAT     H1 7071   4.019   0.703   4.551
 2184WAT     H2 7072   4.149   0.660   4.616
 2185WAT      O 7073   5.655   0.733   5.470
 2185WAT     H1 7074   5.668   0.709   5.378
 2185WAT     H2 7075   5.659   0.650   5.517
 2186WAT      O 7076   5.041   1.103   5.327
 2186WAT     H1 7077   5.093   1.094   5.407
 2186WAT     H2 7078   4.957   1.138   5.356
 2187WAT      O 7079   5.239   1.132   4.270
 2187WAT     H1 7080   5.223   1.103   4.360
 2187WAT     H2 7081   5.222   1.054   4.216
 2188WAT      O 7082   4.487   1.110   4.448
 2188WAT     H1 7083   4.469   1.018   4.426
 2188WAT     H2 7084   4.401   1.146   4.472
 2189WAT      O 7085   5.209   0.883   4.126
 2189WAT     H1 7086   5.140   0.882   4.060
 2189WAT     H2 7087   5.283   0.840   4.083
 2190WAT      O 7088   5.166   1.045   4.533
 2190WAT     H1 7089   5.211   0.967   4.565
 2190WAT     H2 7090   5.200   1.116   4.588
 2191WAT      O 7091   3.941   0.623   5.249
 2191WAT     H1 7092   3.957   0.576   5.168
 2191WAT     H2 7093   3.987   0.572   5.316
 2192WAT      O 7094   4.098   0.560   5.465
 2192WAT     H1 7095   4.060   0.496   5.525
 2192WAT     H2 7096   4.129   0.630   5.522
 2193WAT      O 7097   4.713   0.245   5.013
 2193WAT     H1 7098   4.750   0.197   5.088
 2193WAT     H2 7099   4.694   0.332   5.048
 2194WAT      O 7100   4.345   0.569   4.305
 2194WAT     H1 7101   4.268   0.515   4.289
 2194WAT     H2 7102   4.418   0.518   4.271
 2195WAT      O 7103   5.421   0.469   4.884
 2195WAT     H1 7104   5.493   0.519   4.845
 2195WAT     H2 7105   5.401   0.401   4.820
 2196WAT      O 7106   4.959   0.476   5.473
 2196WAT     H1 7107   4.952   0.384   5.447
 2196WAT     H2 7108   4.896   0.486   5.544
 2197WAT      O 7109   4.349   0.536   4.669
 2197WAT     H1 7110   4.401   0.456   4.663
 2197WAT     H2 7111   4.304   0.530   4.753
 2198WAT      O 7112   4.838   0.663   4.196
 2198WAT     H1 7113   4.872   0.737   4.146
 2198WAT     H2 7114   4.755   0.694   4.232
 2199WAT      O 7115   4.418   0.279   5.648
 2199WAT     H1 7116   4.388   0.293   5.559
 2199WAT     H2 7117   4.495   0.223   5.639
 2200WAT      O 7118   4.952   0.758   5.448
 2200WAT     H1 7119   4.954   0.665   5.426
 2200WAT     H2 7120   4.881   0.767   5.512
 2201WAT      O 7121   5.466   0.177   4.075
 2201WAT     H1 7122   5.457   0.220   3.990
 2201WAT     H2 7123   5.537   0.223   4.118
 2202WAT      O 7124   5.573   0.423   5.383
 2202WAT     H1 7125   5.501   0.482   5.363
 2202WAT     H2 7126   5.626   0.422   5.303
 2203WAT      O 7127   5.568   0.862   4.348
 2203WAT     H1 7128   5.504   0.797   4.375
 2203WAT     H2 7129   5.530   0.903   4.270
 2204WAT      O 7130   5.126   0.595   4.732
 2204WAT     H1 7131   5.161   0.535   4.666
 2204WAT     H2 7132   5.038   0.563   4.750
 2205WAT      O 7133   4.735   0.671   4.473
 2205WAT     H1 7134   4.804   0.726   4.511
 2205WAT     H2 7135   4.656   0.725   4.477
 2206WAT      O 7136   3.949   0.233   4.022
 2206WAT     H1 7137   4.036   0.261   4.051
 2206WAT     H2 7138   3.900   0.314   4.011
 2207WAT      O 7139   4.665   0.372   4.434
 2207WAT     H1 7140   4.711   0.453   4.457
 2207WAT     H2 7141   4.630   0.340   4.518
 2208WAT      O 7142   4.895   0.923   5.157
 2208WAT     H1 7143   4.960   0.943   5.225
 2208WAT     H2 7144   4.932   0.846   5.112
 2209WAT      O 7145   5.023   0.723   5.029
 2209WAT     H1 7146   5.087   0.653   5.040
 2209WAT     H2 7147   5.075   0.801   5.011
 2210WAT      O 7148   5.407   0.751   4.002
 2210WAT     H1 7149   5.385   0.680   4.061
 2210WAT     H2 7150   5.368   0.727   3.918
 2211WAT      O 7151   5.200   0.803   5.349
 2211WAT     H1 7152   5.234   0.862   5.417
 2211WAT     H2 7153   5.108   0.790   5.372
 2212WAT      O 7154   3.986   1.154   4.079
 2212WAT     H1 7155   4.021   1.214   4.014
 2212WAT     H2 7156   3.971   1.209   4.156
 2213WAT      O 7157   5.366   0.543   4.168
 2213WAT     H1 7158   5.337   0.589   4.246
 2213WAT     H2 7159   5.445   0.497   4.195
 2214WAT      O 7160   3.984   0.981   5.526
 2214WAT     H1 7161   3.995   0.887   5.512
 2214WAT     H2 7162   3.919   1.007   5.462
 2215WAT      O 7163   4.783   0.808   5.666
 2215WAT     H1 7164   4.751   0.736   5.721
 2215WAT     H2 7165   4.716   0.875   5.674
 2216WAT      O 7166   4.587   0.892   4.161
 2216WAT     H1 7167   4.586   0.966   4.099
 2216WAT     H2 7168   4.495   0.868   4.170
 2217WAT      O 7169   4.147   0.415   4.235
 2217WAT     H1 7170   4.087   0.489   4.236
 2217WAT     H2 7171   4.195   0.424   4.153
 2218WAT      O 7172   4.886   0.899   4.027
 2218WAT     H1 7173   4.896   0.878   3.934
 2218WAT     H2 7174   4.796   0.873   4.047
 2219WAT      O 7175   4.750   1.151   4.496
 2219WAT     H1 7176   4.775   1.147   4.404
 2219WAT     H2 7177   4.655   1.138   4.496
 2220WAT      O 7178   4.348   0.411   4.010
 2220WAT     H1 7179   4.425   0.399   4.066
 2220WAT     H2 7180   4.356   0.341   3.945
 2221WAT      O 7181   5.551   0.960   4.822
 2221WAT     H1 7182   5.563   1.042   4.869
 2221WAT     H2 7183   5.637   0.938   4.787
 2222WAT      O 7184   4.298   1.169   4.789
 2222WAT     H1 7185   4.372   1.114   4.816
 2222WAT     H2 7186   4.336   1.255   4.775
 2223WAT      O 7187   3.986   0.776   4.376
 2223WAT     H1 7188   3.894   0.800   4.375
 2223WAT     H2 7189   4.033   0.858   4.364
 2224WAT      O 7190   4.609   1.086   3.971
 2224WAT     H1 7191   4.688   1.115   3.926
 2224WAT     H2 7192   4.557   1.043   3.903
 2225WAT      O 7193   5.225   1.071   5.563
 2225WAT     H1 7194   5.320   1.063   5.558
 2225WAT     H2 7195   5.210   1.137   5.631
 2226WAT      O 7196   5.514   1.009   4.113
 2226WAT     H1 7197   5.486   0.968   4.032
 2226WAT     H2 7198   5.494   1.102   4.101
 2227WAT      O 7199   3.970   0.336   5.602
 2227WAT     H1 7200   4.021   0.278   5.659
 2227WAT     H2 7201   3.897   0.364   5.656
 2228WAT      O 7202   4.661   0.608   3.957
 2228WAT     H1 7203   4.650   0.547   4.030
 2228WAT     H2 7204   4.644   0.556   3.879
 2229WAT      O 7205   4.676   0.477   5.555
 2229WAT     H1 7206   4.599   0.534   5.547
 2229WAT     H2 7207   4.694   0.448   5.466
 2230WAT      O 7208   4.985   0.514   4.018
 2230WAT     H1 7209   4.930   0.559   4.082
 2230WAT     H2 7210   5.047   0.464   4.070
 2231WAT      O 7211   5.390   0.650   5.611
 2231WAT     H1 7212   5.464   0.684   5.561
 2231WAT     H2 7213   5.314   0.667   5.556
 2232WAT      O 7214   4.552   0.410   4.207
 2232WAT     H1 7215   4.594   0.394   4.292
 2232WAT     H2 7216   4.564   0.329   4.158
 2233WAT      O 7217   4.803   0.313   3.932
 2233WAT     H1 7218   4.855   0.241   3.896
 2233WAT     H2 7219   4.867   0.377   3.962
 2234WAT      O 7220   5.258   0.455   5.465
 2234WAT     H1 7221   5.299   0.470   5.550
 2234WAT     H2 7222   5.164   0.468   5.481
 2235WAT      O 7223   4.734   0.450   5.262
 2235WAT     H1 7224   4.776   0.535   5.244
 2235WAT     H2 7225   4.642   0.464   5.239
 2236WAT      O 7226   5.201   0.279   5.258
 2236WAT     H1 7227   5.149   0.331   5.197
 2236WAT     H2 7228   5.236   0.342   5.321
 2237WAT      O 7229   4.519   1.081   5.373
 2237WAT     H1 7230   4.465   1.153   5.341
 2237WAT     H2 7231   4.544   1.033   5.294
 2238WAT      O 7232   4.804   1.204   5.399
 2238WAT     H1 7233   4.797   1.295   5.430
 2238WAT     H2 7234   4.714   1.172   5.396
 2239WAT      O 7235   4.859   1.121   4.161
 2239WAT     H1 7236   4.949   1.155   4.163
 2239WAT     H2 7237   4.862   1.049   4.099
 2240WAT      O 7238   4.223   0.658   3.984
 2240WAT     H1 7239   4.267   0.712   4.050
 2240WAT     H2 7240   4.272   0.576   3.985
 2241WAT      O 7241   3.945   0.937   4.729
 2241WAT     H1 7242   3.978   0.850   4.706
 2241WAT     H2 7243   3.988   0.958   4.812
 2242WAT      O 7244   4.404   0.770   4.495
 2242WAT     H1 7245   4.374   0.758   4.585
 2242WAT     H2 7246   4.394   0.684   4.455
 2243WAT      O 7247   3.994   1.024   5.003
 2243WAT     H1 7248   3.950   1.042   5.086
 2243WAT     H2 7249   4.050   1.099   4.989
 2244WAT      O 7250   5.557   0.974   5.432
 2244WAT     H1 7251   5.497   0.980   5.358
 2244WAT     H2 7252   5.570   0.880   5.445
 2245WAT      O 7253   3.977   0.275   4.639
 2245WAT     H1 7254   3.911   0.248   4.575
 2245WAT     H2 7255   4.061   0.264   4.594
 2246WAT      O 7256   5.426   0.646   5.242
 2246WAT     H1 7257   5.344   0.689   5.268
 2246WAT     H2 7258   5.466   0.708   5.180
 2247WAT      O 7259   5.632   0.452   3.932
 2247WAT     H1 7260   5.659   0.543   3.919
 2247WAT     H2 7261   5.613   0.445   4.025
 2248WAT      O 7262   5.622   0.246   4.431
 2248WAT     H1 7263   5.584   0.169   4.388
 2248WAT     H2 7264   5.549   0.284   4.480
 2249WAT      O 7265   4.081   0.313   5.093
 2249WAT     H1 7266   4.117   0.305   5.181
 2249WAT     H2 7267   4.024   0.237   5.083
 2250WAT      O 7268   5.431   1.122   4.594
 2250WAT     H1 7269   5.491   1.089   4.527
 2250WAT     H2 7270   5.457   1.074   4.674
 2251WAT      O 7271   4.222   0.765   5.609
 2251WAT     H1 7272   4.218   0.728   5.697
 2251WAT     H2 7273   4.235   0.858   5.623
 2252WAT      O 7274   4.592   0.920   5.169
 2252WAT     H1 7275   4.568   0.947   5.081
 2252WAT     H2 7276   4.686   0.937   5.175
 2253WAT      O 7277   4.206   1.059   5.321
 2253WAT     H1 7278   4.147   1.046   5.395
 2253WAT     H2 7279   4.205   0.976   5.275
 2254WAT      O 7280   5.487   1.186   4.977
 2254WAT     H1 7281   5.441   1.262   4.940
 2254WAT     H2 7282   5.424   1.115   4.972
 2255WAT      O 7283   4.169   0.796   5.216
 2255WAT     H1 7284   4.096   0.734   5.210
 2255WAT     H2 7285   4.175   0.835   5.129
 2256WAT      O 7286   4.530   1.017   4.895
 2256WAT     H1 7287   4.581   0.956   4.842
 2256WAT     H2 7288   4.595   1.068   4.944
 2257WAT      O 7289   4.804   1.106   4.978
 2257WAT     H1 7290   4.832   1.081   4.890
 2257WAT     H2 7291   4.855   1.051   5.037
 2258WAT      O 7292   3.997   1.128   4.537
 2258WAT     H1 7293   3.981   1.064   4.607
 2258WAT     H2 7294   3.911   1.148   4.502
 2259WAT      O 7295   4.158   0.997   4.282
 2259WAT     H1 7296   4.106   1.035   4.211
 2259WAT     H2 7297   4.150   1.060   4.354
 2260WAT      O 7298   4.810   1.199   5.714
 2260WAT     H1 7299   4.903   1.175   5.719
 2260WAT     H2 7300   4.809   1.281   5.666
 2261WAT      O 7301   5.634   1.153   4.414
 2261WAT     H1 7302   5.651   1.084   4.350
 2261WAT     H2 7303   5.564   1.205   4.375
 2262WAT      O 7304   4.418   1.192   4.169
 2262WAT     H1 7305   4.491   1.163   4.115
 2262WAT     H2 7306   4.444   1.168   4.258
 2263WAT      O 7307   4.334   0.803   4.170
 2263WAT     H1 7308   4.271   0.850   4.225
 2263WAT     H2 7309   4.346   0.719   4.213
 2264WAT      O 7310   4.893   0.386   2.973
 2264WAT     H1 7311   4.815   0.338   3.002
 2264WAT     H2 7312   4.958   0.318   2.955
 2265WAT      O 7313   4.294   0.418   3.061
 2265WAT     H1 7314   4.211   0.392   3.101
 2265WAT     H2 7315   4.355   0.425   3.134
 2266WAT      O 7316   5.295   0.827   2.851
 2266WAT     H1 7317   5.249   0.750   2.884
 2266WAT     H2 7318   5.376   0.830   2.901
 2267WAT      O 7319   4.292   0.821   3.080
 2267WAT     H1 7320   4.323   0.732   3.062
 2267WAT     H2 7321   4.367   0.877   3.057
 2268WAT      O 7322   4.917   1.056   2.813
 2268WAT     H1 7323   4.856   1.101   2.756
 2268WAT     H2 7324   5.003   1.071   2.773
 2269WAT      O 7325   4.837   0.654   2.974
 2269WAT     H1 7326   4.830   0.560   2.957
 2269WAT     H2 7327   4.913   0.663   3.031
 2270WAT      O 7328   5.004   0.544   2.552
 2270WAT     H1 7329   4.942   0.590   2.496
 2270WAT     H2 7330   5.055   0.613   2.594
 2271WAT      O 7331   4.490   0.497   3.220
 2271WAT     H1 7332   4.457   0.559   3.284
 2271WAT     H2 7333   4.508   0.549   3.142
 2272WAT      O 7334   4.412   0.693   3.402
 2272WAT     H1 7335   4.473   0.761   3.373
 2272WAT     H2 7336   4.326   0.734   3.392
 2273WAT      O 7337   3.941   0.612   2.290
 2273WAT     H1 7338   3.903   0.661   2.216
 2273WAT     H2 7339   3.967   0.680   2.353
 2274WAT      O 7340   5.503   0.840   3.193
 2274WAT     H1 7341   5.435   0.907   3.192
 2274WAT     H2 7342   5.557   0.860   3.117
 2275WAT      O 7343   5.257   1.024   3.065
 2275WAT     H1 7344   5.258   0.984   2.978
 2275WAT     H2 7345   5.202   1.102   3.054
 2276WAT      O 7346   5.386   0.696   2.573
 2276WAT     H1 7347   5.375   0.602   2.586
 2276WAT     H2 7348   5.386   0.733   2.662
 2277WAT      O 7349   5.197   0.515   3.197
 2277WAT     H1 7350   5.239   0.493   3.114
 2277WAT     H2 7351   5.269   0.540   3.254
 2278WAT      O 7352   4.941   0.259   2.509
 2278WAT     H1 7353   4.848   0.252   2.532
 2278WAT     H2 7354   4.956   0.353   2.498
 2279WAT      O 7355   5.591   0.354   3.207
 2279WAT     H1 7356   5.509   0.361   3.159
 2279WAT     H2 7357   5.651   0.413   3.160
 2280WAT      O 7358   5.344   0.415   2.559
 2280WAT     H1 7359   5.282   0.382   2.495
 2280WAT     H2 7360   5.342   0.351   2.630
 2281WAT      O 7361   4.501   0.312   2.787
 2281WAT     H1 7362   4.461   0.241   2.738
 2281WAT     H2 7363   4.510   0.277   2.876
 2282WAT      O 7364   4.548   0.680   3.004
 2282WAT     H1 7365   4.518   0.620   2.936
 2282WAT     H2 7366   4.643   0.684   2.993
 2283WAT      O 7367   5.357   1.038   3.370
 2283WAT     H1 7368   5.309   1.118   3.351
 2283WAT     H2 7369   5.289   0.973   3.385
 2284WAT      O 7370   4.457   0.654   3.669
 2284WAT     H1 7371   4.368   0.677   3.693
 2284WAT     H2 7372   4.460   0.667   3.574
 2285WAT      O 7373   5.161   0.339   2.260
 2285WAT     H1 7374   5.205   0.255   2.246
 2285WAT     H2 7375   5.233   0.402   2.269
 2286WAT      O 7376   4.340   0.341   3.526
 2286WAT     H1 7377   4.326   0.429   3.563
 2286WAT     H2 7378   4.252   0.307   3.512
 2287WAT      O 7379   4.972   0.833   2.657
 2287WAT     H1 7380   5.016   0.907   2.616
 2287WAT     H2 7381   4.966   0.857   2.749
 2288WAT      O 7382   4.520   0.936   3.747
 2288WAT     H1 7383   4.517   0.976   3.660
 2288WAT     H2 7384   4.503   0.843   3.731
 2289WAT      O 7385   3.935   0.518   3.118
 2289WAT     H1 7386   3.943   0.532   3.024
 2289WAT     H2 7387   3.997   0.448   3.137
 2290WAT      O 7388   4.060   0.688   2.759
 2290WAT     H1 7389   4.019   0.703   2.674
 2290WAT     H2 7390   4.149   0.660   2.739
 2291WAT      O 7391   5.655   0.733   3.593
 2291WAT     H1 7392   5.668   0.709   3.501
 2291WAT     H2 7393   5.659   0.650   3.640
 2292WAT      O 7394   5.041   1.103   3.450
 2292WAT     H1 7395   5.093   1.094   3.530
 2292WAT     H2 7396   4.957   1.138   3.479
 2293WAT      O 7397   5.239   1.132   2.393
 2293WAT     H1 7398   5.223   1.103   2.482
 2293WAT     H2 7399   5.222   1.054   2.339
 2294WAT      O 7400   4.487   1.110   2.570
 2294WAT     H1 7401   4.469   1.018   2.549
 2294WAT     H2 7402   4.401   1.146   2.594
 2295WAT      O 7403   5.209   0.883   2.249
 2295WAT     H1 7404   5.140   0.882   2.183
 2295WAT     H2 7405   5.283   0.840   2.206
 2296WAT      O 7406   5.166   1.045   2.656
 2296WAT     H1 7407   5.211   0.967   2.687
 2296WAT     H2 7408   5.200   1.116   2.710
 2297WAT      O 7409   3.941   0.623   3.372
 2297WAT     H1 7410   3.957   0.576   3.290
 2297WAT     H2 7411   3.987   0.572   3.438
 2298WAT      O 7412   4.098   0.560   3.588
 2298WAT     H1 7413   4.060   0.496   3.648
 2298WAT     H2 7414   4.129   0.630   3.645
 2299WAT      O 7415   4.713   0.245   3.136
 2299WAT     H1 7416   4.750   0.197   3.211
 2299WAT     H2 7417   4.694   0.332   3.170
 2300WAT      O 7418   4.345   0.569   2.428
 2300WAT     H1 7419   4.268   0.515   2.412
 2300WAT     H2 7420   4.418   0.518   2.394
 2301WAT      O 7421   5.421   0.469   3.007
 2301WAT     H1 7422   5.493   0.519   2.968
 2301WAT     H2 7423   5.401   0.401   2.942
 2302WAT      O 7424   4.959   0.476   3.595
 2302WAT     H1 7425   4.952   0.384   3.570
 2302WAT     H2 7426   4.896   0.486   3.667
 2303WAT      O 7427   4.349   0.536   2.791
 2303WAT     H1 7428   4.401   0.456   2.786
 2303WAT     H2 7429   4.304   0.530   2.875
 2304WAT      O 7430   4.838   0.663   2.319
 2304WAT     H1 7431   4.872   0.737   2.269
 2304WAT     H2 7432   4.755   0.694   2.355
 2305WAT      O 7433   4.418   0.279   3.771
 2305WAT     H1 7434   4.388   0.293   3.681
 2305WAT     H2 7435   4.495   0.223   3.762
 2306WAT      O 7436   4.952   0.758   3.571
 2306WAT     H1 7437   4.954   0.665   3.549
 2306WAT     H2 7438   4.881   0.767   3.634
 2307WAT      O 7439   5.466   0.177   2.198
 2307WAT     H1 7440   5.457   0.220   2.112
 2307WAT     H2 7441   5.537   0.223   2.241
 2308WAT      O 7442   5.573   0.423   3.505
 2308WAT     H1 7443   5.501   0.482   3.485
 2308WAT     H2 7444   5.626   0.422   3.425
 2309WAT      O 7445   5.568   0.862   2.470
 2309WAT     H1 7446   5.504   0.797   2.498
 2309WAT     H2 7447   5.530   0.903   2.393
 2310WAT      O 7448   5.126   0.595   2.855
 2310WAT     H1 7449   5.161   0.535   2.789
 2310WAT     H2 7450   5.038   0.563   2.872
 2311WAT      O 7451   4.735   0.671   2.596
 2311WAT     H1 7452   4.804   0.726   2.634
 2311WAT     H2 7453   4.656   0.725   2.599
 2312WAT      O 7454   3.949   0.233   2.145
 2312WAT     H1 7455   4.036   0.261   2.173
 2312WAT     H2 7456   3.900   0.314   2.133
 2313WAT      O 7457   4.665   0.372   2.557
 2313WAT     H1 7458   4.711   0.453   2.580
 2313WAT     H2 7459   4.630   0.340   2.640
 2314WAT      O 7460   4.895   0.923   3.280
 2314WAT     H1 7461   4.960   0.943   3.348
 2314WAT     H2 7462   4.932   0.846   3.235
 2315WAT      O 7463   5.023   0.723   3.152
 2315WAT     H1 7464   5.087   0.653   3.163
 2315WAT     H2 7465   5.075   0.801   3.134
 2316WAT      O 7466   5.407   0.751   2.124
 2316WAT     H1 7467   5.385   0.680   2.183
 2316WAT     H2 7468   5.368   0.727   2.040
 2317WAT      O 7469   5.200   0.803   3.472
 2317WAT     H1 7470   5.234   0.862   3.540
 2317WAT     H2 7471   5.108   0.790   3.495
 2318WAT      O 7472   3.986   1.154   2.202
 2318WAT     H1 7473   4.021   1.214   2.136
 2318WAT     H2 7474   3.971   1.209   2.279
 2319WAT      O 7475   5.366   0.543   2.290
 2319WAT     H1 7476   5.337   0.589   2.369
 2319WAT     H2 7477   5.445   0.497   2.317
 2320WAT      O 7478   3.984   0.981   3.649
 2320WAT     H1 7479   3.995   0.887   3.635
 2320WAT     H2 7480   3.919   1.007   3.584
 2321WAT      O 7481   4.783   0.808   3.789
 2321WAT     H1 7482   4.751   0.736   3.843
 2321WAT     H2 7483   4.716   0.875   3.796
 2322WAT      O 7484   4.587   0.892   2.283
 2322WAT     H1 7485   4.586   0.966   2.222
 2322WAT     H2 7486   4.495   0.868   2.293
 2323WAT      O 7487   4.147   0.415   2.358
 2323WAT     H1 7488   4.087   0.489   2.359
 2323WAT     H2 7489   4.195   0.424   2.275
 2324WAT      O 7490   4.886   0.899   2.150
 2324WAT     H1 7491   4.896   0.878   2.057
 2324WAT     H2 7492   4.796   0.873   2.170
 2325WAT      O 7493   4.750   1.151   2.619
 2325WAT     H1 7494   4.775   1.147   2.527
 2325WAT     H2 7495   4.655   1.138   2.618
 2326WAT      O 7496   4.348   0.411   2.133
 2326WAT     H1 7497   4.425   0.399   2.189
 2326WAT     H2 7498   4.356   0.341   2.067
 2327WAT      O 7499   5.551   0.960   2.944
 2327WAT     H1 7500   5.563   1.042   2.991
 2327WAT     H2 7501   5.637   0.938   2.909
 2328WAT      O 7502   4.298   1.169   2.911
 2328WAT     H1 7503   4.372   1.114   2.938
 2328WAT     H2 7504   4.336   1.255   2.897
 2329WAT      O 7505   3.986   0.776   2.499
 2329WAT     H1 7506   3.894   0.800   2.498
 2329WAT     H2 7507   4.033   0.858   2.487
 2330WAT      O 7508   4.199   1.087   3.830
 2330WAT     H1 7509   4.279   1.119   3.872
 2330WAT     H2 7510   4.147   1.051   3.902
 2331WAT      O 7511   4.609   1.086   2.094
 2331WAT     H1 7512   4.688   1.115   2.048
 2331WAT     H2 7513   4.557   1.043   2.026
 2332WAT      O 7514   5.082   0.698   3.825
 2332WAT     H1 7515   5.022   0.700   3.751
 2332WAT     H2 7516   5.052   0.625   3.879
 2333WAT      O 7517   5.225   1.071   3.686
 2333WAT     H1 7518   5.320   1.063   3.681
 2333WAT     H2 7519   5.210   1.137   3.753
 2334WAT      O 7520   5.514   1.009   2.236
 2334WAT     H1 7521   5.486   0.968   2.154
 2334WAT     H2 7522   5.494   1.102   2.224
 2335WAT      O 7523   3.970   0.336   3.725
 2335WAT     H1 7524   4.021   0.278   3.782
 2335WAT     H2 7525   3.897   0.364   3.778
 2336WAT      O 7526   4.661   0.608   2.080
 2336WAT     H1 7527   4.650   0.547   2.153
 2336WAT     H2 7528   4.644   0.556   2.002
 2337WAT      O 7529   4.676   0.477   3.678
 2337WAT     H1 7530   4.599   0.534   3.669
 2337WAT     H2 7531   4.694   0.448   3.589
 2338WAT      O 7532   4.985   0.514   2.140
 2338WAT     H1 7533   4.930   0.559   2.205
 2338WAT     H2 7534   5.047   0.464   2.193
 2339WAT      O 7535   5.390   0.650   3.734
 2339WAT     H1 7536   5.464   0.684   3.683
 2339WAT     H2 7537   5.314   0.667   3.678
 2340WAT      O 7538   4.552   0.410   2.330
 2340WAT     H1 7539   4.594   0.394   2.414
 2340WAT     H2 7540   4.564   0.329   2.281
 2341WAT      O 7541   4.803   0.313   2.055
 2341WAT     H1 7542   4.855   0.241   2.018
 2341WAT     H2 7543   4.867   0.377   2.085
 2342WAT      O 7544   5.258   0.455   3.587
 2342WAT     H1 7545   5.299   0.470   3.672
 2342WAT     H2 7546   5.164   0.468   3.603
 2343WAT      O 7547   4.734   0.450   3.384
 2343WAT     H1 7548   4.776   0.535   3.367
 2343WAT     H2 7549   4.642   0.464   3.361
 2344WAT      O 7550   5.201   0.279   3.380
 2344WAT     H1 7551   5.149   0.331   3.320
 2344WAT     H2 7552   5.236   0.342   3.443
 2345WAT      O 7553   4.519   1.081   3.496
 2345WAT     H1 7554   4.465   1.153   3.464
 2345WAT     H2 7555   4.544   1.033   3.417
 2346WAT      O 7556   4.804   1.204   3.522
 2346WAT     H1 7557   4.797   1.295   3.552
 2346WAT     H2 7558   4.714   1.172   3.519
 2347WAT      O 7559   4.859   1.121   2.284
 2347WAT     H1 7560   4.949   1.155   2.286
 2347WAT     H2 7561   4.862   1.049   2.221
 2348WAT      O 7562   4.223   0.658   2.107
 2348WAT     H1 7563   4.267   0.712   2.172
 2348WAT     H2 7564   4.272   0.576   2.108
 2349WAT      O 7565   3.945   0.937   2.852
 2349WAT     H1 7566   3.978   0.850   2.829
 2349WAT     H2 7567   3.988   0.958   2.935
 2350WAT      O 7568   4.404   0.770   2.618
 2350WAT     H1 7569   4.374   0.758   2.708
 2350WAT     H2 7570   4.394   0.684   2.577
 2351WAT      O 7571   3.994   1.024   3.126
 2351WAT     H1 7572   3.950   1.042   3.209
 2351WAT     H2 7573   4.050   1.099   3.112
 2352WAT      O 7574   5.557   0.974   3.555
 2352WAT     H1 7575   5.497   0.980   3.480
 2352WAT     H2 7576   5.570   0.880   3.567
 2353WAT      O 7577   3.977   0.275   2.762
 2353WAT     H1 7578   3.911   0.248   2.697
 2353WAT     H2 7579   4.061   0.264   2.717
 2354WAT      O 7580   5.426   0.646   3.364
 2354WAT     H1 7581   5.344   0.689   3.391
 2354WAT     H2 7582   5.466   0.708   3.303
 2355WAT      O 7583   5.632   0.452   2.054
 2355WAT     H1 7584   5.659   0.543   2.041
 2355WAT     H2 7585   5.613   0.445   2.148
 2356WAT      O 7586   5.622   0.246   2.554
 2356WAT     H1 7587   5.584   0.169   2.510
 2356WAT     H2 7588   5.549   0.284   2.602
 2357WAT      O 7589   4.081   0.313   3.216
 2357WAT     H1 7590   4.117   0.305   3.304
 2357WAT     H2 7591   4.024   0.237   3.206
 2358WAT      O 7592   5.431   1.122   2.717
 2358WAT     H1 7593   5.491   1.089   2.649
 2358WAT     H2 7594   5.457   1.074   2.796
 2359WAT      O 7595   4.222   0.765   3.732
 2359WAT     H1 7596   4.218   0.728   3.820
 2359WAT     H2 7597   4.235   0.858   3.746
 2360WAT      O 7598   4.592   0.920   3.292
 2360WAT     H1 7599   4.568   0.947   3.203
 2360WAT     H2 7600   4.686   0.937   3.297
 2361WAT      O 7601   4.206   1.059   3.444
 2361WAT     H1 7602   4.147   1.046   3.518
 2361WAT     H2 7603   4.205   0.976   3.397
 2362WAT      O 7604   5.487   1.186   3.100
 2362WAT     H1 7605   5.441   1.262   3.063
 2362WAT     H2 7606   5.424   1.115   3.094
 2363WAT      O 7607   4.169   0.796   3.339
 2363WAT     H1 7608   4.096   0.734   3.332
 2363WAT     H2 7609   4.175   0.835   3.252
 2364WAT      O 7610   4.530   1.017   3.017
 2364WAT     H1 7611   4.581   0.956   2.965
 2364WAT     H2 7612   4.595   1.068   3.067
 2365WAT      O 7613   4.804   1.106   3.100
 2365WAT     H1 7614   4.832   1.081   3.012
 2365WAT     H2 7615   4.855   1.051   3.159
 2366WAT      O 7616   3.997   1.128   2.660
 2366WAT     H1 7617   3.981   1.064   2.730
 2366WAT     H2 7618   3.911   1.148   2.625
 2367WAT      O 7619   4.158   0.997   2.404
 2367WAT     H1 7620   4.106   1.035   2.334
 2367WAT     H2 7621   4.150   1.060   2.476
 2368WAT      O 7622   4.810   1.199   3.837
 2368WAT     H1 7623   4.903   1.175   3.841
 2368WAT     H2 7624   4.809   1.281   3.789
 2369WAT      O 7625   5.634   1.153   2.537
 2369WAT     H1 7626   5.651   1.084   2.472
 2369WAT     H2 7627   5.564   1.205   2.497
 2370WAT      O 7628   4.418   1.192   2.292
 2370WAT     H1 7629   4.491   1.163   2.237
 2370WAT     H2 7630   4.444   1.168   2.381
 2371WAT      O 7631   4.334   0.803   2.292
 2371WAT     H1 7632   4.271   0.850   2.347
 2371WAT     H2 7633   4.346   0.719   2.336
 2372WAT      O 7634   5.467   1.121   3.819
 2372WAT     H1 7635   5.546   1.072   3.798
 2372WAT     H2 7636   5.496   1.189   3.880
 2373WAT      O 7637   4.893   0.386   1.095
 2373WAT     H1 7638   4.815   0.338   1.124
 2373WAT     H2 7639   4.958   0.318   1.078
 2374WAT      O 7640   4.294   0.418   1.183
 2374WAT     H1 7641   4.211   0.392   1.223
 2374WAT     H2 7642   4.355   0.425   1.257
 2375WAT      O 7643   5.295   0.827   0.973
 2375WAT     H1 7644   5.249   0.750   1.006
 2375WAT     H2 7645   5.376   0.830   1.024
 2376WAT      O 7646   4.292   0.821   1.203
 2376WAT     H1 7647   4.323   0.732   1.185
 2376WAT     H2 7648   4.367   0.877   1.180
 2377WAT      O 7649   4.917   1.056   0.935
 2377WAT     H1 7650   4.856   1.101   0.878
 2377WAT     H2 7651   5.003   1.071   0.895
 2378WAT      O 7652   4.837   0.654   1.096
 2378WAT     H1 7653   4.830   0.560   1.080
 2378WAT     H2 7654   4.913   0.663   1.153
 2379WAT      O 7655   5.004   0.544   0.675
 2379WAT     H1 7656   4.942   0.590   0.618
 2379WAT     H2 7657   5.055   0.613   0.716
 2380WAT      O 7658   4.490   0.497   1.343
 2380WAT     H1 7659   4.457   0.559   1.407
 2380WAT     H2 7660   4.508   0.549   1.265
 2381WAT      O 7661   4.412   0.693   1.524
 2381WAT     H1 7662   4.473   0.761   1.496
 2381WAT     H2 7663   4.326   0.734   1.515
 2382WAT      O 7664   3.941   0.612   0.412
 2382WAT     H1 7665   3.903   0.661   0.339
 2382WAT     H2 7666   3.967   0.680   0.475
 2383WAT      O 7667   5.503   0.840   1.316
 2383WAT     H1 7668   5.435   0.907   1.315
 2383WAT     H2 7669   5.557   0.860   1.239
 2384WAT      O 7670   5.257   1.024   1.187
 2384WAT     H1 7671   5.258   0.984   1.100
 2384WAT     H2 7672   5.202   1.102   1.177
 2385WAT      O 7673   5.386   0.696   0.696
 2385WAT     H1 7674   5.375   0.602   0.709
 2385WAT     H2 7675   5.386   0.733   0.785
 2386WAT      O 7676   5.197   0.515   1.320
 2386WAT     H1 7677   5.239   0.493   1.236
 2386WAT     H2 7678   5.269   0.540   1.377
 2387WAT      O 7679   4.941   0.259   0.632
 2387WAT     H1 7680   4.848   0.252   0.655
 2387WAT     H2 7681   4.956   0.353   0.620
 2388WAT      O 7682   5.591   0.354   1.329
 2388WAT     H1 7683   5.509   0.361   1.282
 2388WAT     H2 7684   5.651   0.413   1.282
 2389WAT      O 7685   5.344   0.415   0.682
 2389WAT     H1 7686   5.282   0.382   0.617
 2389WAT     H2 7687   5.342   0.351   0.753
 2390WAT      O 7688   4.501   0.312   0.910
 2390WAT     H1 7689   4.461   0.241   0.860
 2390WAT     H2 7690   4.510   0.277   0.999
 2391WAT      O 7691   4.548   0.680   1.126
 2391WAT     H1 7692   4.518   0.620   1.058
 2391WAT     H2 7693   4.643   0.684   1.115
 2392WAT      O 7694   5.357   1.038   1.492
 2392WAT     H1 7695   5.309   1.118   1.473
 2392WAT     H2 7696   5.289   0.973   1.508
 2393WAT      O 7697   4.457   0.654   1.791
 2393WAT     H1 7698   4.368   0.677   1.816
 2393WAT     H2 7699   4.460   0.667   1.696
 2394WAT      O 7700   5.161   0.339   0.383
 2394WAT     H1 7701   5.205   0.255   0.368
 2394WAT     H2 7702   5.233   0.402   0.391
 2395WAT      O 7703   4.340   0.341   1.649
 2395WAT     H1 7704   4.326   0.429   1.686
 2395WAT     H2 7705   4.252   0.307   1.634
 2396WAT      O 7706   4.972   0.833   0.780
 2396WAT     H1 7707   5.016   0.907   0.738
 2396WAT     H2 7708   4.966   0.857   0.872
 2397WAT      O 7709   4.520   0.936   1.870
 2397WAT     H1 7710   4.517   0.976   1.783
 2397WAT     H2 7711   4.503   0.843   1.853
 2398WAT      O 7712   3.935   0.518   1.241
 2398WAT     H1 7713   3.943   0.532   1.146
 2398WAT     H2 7714   3.997   0.448   1.260
 2399WAT      O 7715   4.060   0.688   0.882
 2399WAT     H1 7716   4.019   0.703   0.796
 2399WAT     H2 7717   4.149   0.660   0.861
 2400WAT      O 7718   5.655   0.733   1.715
 2400WAT     H1 7719   5.668   0.709   1.624
 2400WAT     H2 7720   5.659   0.650   1.763
 2401WAT      O 7721   5.041   1.103   1.572
 2401WAT     H1 7722   5.093   1.094   1.653
 2401WAT     H2 7723   4.957   1.138   1.602
 2402WAT      O 7724   5.239   1.132   0.515
 2402WAT     H1 7725   5.223   1.103   0.605
 2402WAT     H2 7726   5.222   1.054   0.462
 2403WAT      O 7727   4.487   1.110   0.693
 2403WAT     H1 7728   4.469   1.018   0.672
 2403WAT     H2 7729   4.401   1.146   0.717
 2404WAT      O 7730   5.209   0.883   0.371
 2404WAT     H1 7731   5.140   0.882   0.305
 2404WAT     H2 7732   5.283   0.840   0.328
 2405WAT      O 7733   5.166   1.045   0.779
 2405WAT     H1 7734   5.211   0.967   0.810
 2405WAT     H2 7735   5.200   1.116   0.833
 2406WAT      O 7736   3.941   0.623   1.495
 2406WAT     H1 7737   3.957   0.576   1.413
 2406WAT     H2 7738   3.987   0.572   1.561
 2407WAT      O 7739   4.098   0.560   1.710
 2407WAT     H1 7740   4.060   0.496   1.770
 2407WAT     H2 7741   4.129   0.630   1.767
 2408WAT      O 7742   4.713   0.245   1.259
 2408WAT     H1 7743   4.750   0.197   1.333
 2408WAT     H2 7744   4.694   0.332   1.293
 2409WAT      O 7745   4.345   0.569   0.550
 2409WAT     H1 7746   4.268   0.515   0.534
 2409WAT     H2 7747   4.418   0.518   0.516
 2410WAT      O 7748   5.421   0.469   1.129
 2410WAT     H1 7749   5.493   0.519   1.090
 2410WAT     H2 7750   5.401   0.401   1.065
 2411WAT      O 7751   4.959   0.476   1.718
 2411WAT     H1 7752   4.952   0.384   1.693
 2411WAT     H2 7753   4.896   0.486   1.789
 2412WAT      O 7754   4.349   0.536   0.914
 2412WAT     H1 7755   4.401   0.456   0.908
 2412WAT     H2 7756   4.304   0.530   0.998
 2413WAT      O 7757   4.838   0.663   0.441
 2413WAT     H1 7758   4.872   0.737   0.392
 2413WAT     H2 7759   4.755   0.694   0.477
 2414WAT      O 7760   4.418   0.279   1.894
 2414WAT     H1 7761   4.388   0.293   1.804
 2414WAT     H2 7762   4.495   0.223   1.884
 2415WAT      O 7763   4.952   0.758   1.693
 2415WAT     H1 7764   4.954   0.665   1.671
 2415WAT     H2 7765   4.881   0.767   1.757
 2416WAT      O 7766   5.466   0.177   0.320
 2416WAT     H1 7767   5.457   0.220   0.235
 2416WAT     H2 7768   5.537   0.223   0.363
 2417WAT      O 7769   5.573   0.423   1.628
 2417WAT     H1 7770   5.501   0.482   1.608
 2417WAT     H2 7771   5.626   0.422   1.548
 2418WAT      O 7772   5.568   0.862   0.593
 2418WAT     H1 7773   5.504   0.797   0.620
 2418WAT     H2 7774   5.530   0.903   0.515
 2419WAT      O 7775   5.126   0.595   0.978
 2419WAT     H1 7776   5.161   0.535   0.912
 2419WAT     H2 7777   5.038   0.563   0.995
 2420WAT      O 7778   4.735   0.671   0.718
 2420WAT     H1 7779   4.804   0.726   0.756
 2420WAT     H2 7780   4.656   0.725   0.722
 2421WAT      O 7781   3.949   0.233   0.267
 2421WAT     H1 7782   4.036   0.261   0.296
 2421WAT     H2 7783   3.900   0.314   0.256
 2422WAT      O 7784   4.665   0.372   0.680
 2422WAT     H1 7785   4.711   0.453   0.702
 2422WAT     H2 7786   4.630   0.340   0.763
 2423WAT      O 7787   4.895   0.923   1.402
 2423WAT     H1 7788   4.960   0.943   1.470
 2423WAT     H2 7789   4.932   0.846   1.357
 2424WAT      O 7790   5.023   0.723   1.274
 2424WAT     H1 7791   5.087   0.653   1.286
 2424WAT     H2 7792   5.075   0.801   1.256
 2425WAT      O 7793   5.407   0.751   0.247
 2425WAT     H1 7794   5.385   0.680   0.306
 2425WAT     H2 7795   5.368   0.727   0.163
 2426WAT      O 7796   5.200   0.803   1.595
 2426WAT     H1 7797   5.234   0.862   1.662
 2426WAT     H2 7798   5.108   0.790   1.618
 2427WAT      O 7799   3.986   1.154   0.324
 2427WAT     H1 7800   4.021   1.214   0.259
 2427WAT     H2 7801   3.971   1.209   0.401
 2428WAT      O 7802   5.366   0.543   0.413
 2428WAT     H1 7803   5.337   0.589   0.492
 2428WAT     H2 7804   5.445   0.497   0.440
 2429WAT      O 7805   3.984   0.981   1.772
 2429WAT     H1 7806   3.995   0.887   1.757
 2429WAT     H2 7807   3.919   1.007   1.707
 2430WAT      O 7808   4.783   0.808   1.912
 2430WAT     H1 7809   4.751   0.736   1.966
 2430WAT     H2 7810   4.716   0.875   1.919
 2431WAT      O 7811   4.587   0.892   0.406
 2431WAT     H1 7812   4.586   0.966   0.344
 2431WAT     H2 7813   4.495   0.868   0.415
 2432WAT      O 7814   4.147   0.415   0.480
 2432WAT     H1 7815   4.087   0.489   0.481
 2432WAT     H2 7816   4.195   0.424   0.398
 2433WAT      O 7817   4.886   0.899   0.272
 2433WAT     H1 7818   4.896   0.878   0.179
 2433WAT     H2 7819   4.796   0.873   0.293
 2434WAT      O 7820   4.750   1.151   0.742
 2434WAT     H1 7821   4.775   1.147   0.649
 2434WAT     H2 7822   4.655   1.138   0.741
 2435WAT      O 7823   4.348   0.411   0.255
 2435WAT     H1 7824   4.425   0.399   0.311
 2435WAT     H2 7825   4.356   0.341   0.190
 2436WAT      O 7826   5.551   0.960   1.067
 2436WAT     H1 7827   5.563   1.042   1.114
 2436WAT     H2 7828   5.637   0.938   1.032
 2437WAT      O 7829   4.298   1.169   1.034
 2437WAT     H1 7830   4.372   1.114   1.061
 2437WAT     H2 7831   4.336   1.255   1.020
 2438WAT      O 7832   3.986   0.776   0.621
 2438WAT     H1 7833   3.894   0.800   0.620
 2438WAT     H2 7834   4.033   0.858   0.609
 2439WAT      O 7835   4.199   1.087   1.953
 2439WAT     H1 7836   4.279   1.119   1.994
 2439WAT     H2 7837   4.147   1.051   2.025
 2440WAT      O 7838   4.609   1.086   0.216
 2440WAT     H1 7839   4.688   1.115   0.171
 2440WAT     H2 7840   4.557   1.043   0.148
 2441WAT      O 7841   5.082   0.698   1.947
 2441WAT     H1 7842   5.022   0.700   1.873
 2441WAT     H2 7843   5.052   0.625   2.001
 2442WAT      O 7844   5.225   1.071   1.809
 2442WAT     H1 7845   5.320   1.063   1.804
 2442WAT     H2 7846   5.210   1.137   1.876
 2443WAT      O 7847   5.514   1.009   0.358
 2443WAT     H1 7848   5.486   0.968   0.277
 2443WAT     H2 7849   5.494   1.102   0.346
 2444WAT      O 7850   3.970   0.336   1.847
 2444WAT     H1 7851   4.021   0.278   1.904
 2444WAT     H2 7852   3.897   0.364   1.901
 2445WAT      O 7853   4.676   0.477   1.800
 2445WAT     H1 7854   4.599   0.534   1.792
 2445WAT     H2 7855   4.694   0.448   1.711
 2446WAT      O 7856   4.985   0.514   0.263
 2446WAT     H1 7857   4.930   0.559   0.327
 2446WAT     H2 7858   5.047   0.464   0.315
 2447WAT      O 7859   5.390   0.650   1.856
 2447WAT     H1 7860   5.464   0.684   1.806
 2447WAT     H2 7861   5.314   0.667   1.801
 2448WAT      O 7862   4.552   0.410   0.453
 2448WAT     H1 7863   4.594   0.394   0.537
 2448WAT     H2 7864   4.564   0.329   0.403
 2449WAT      O 7865   5.258   0.455   1.710
 2449WAT     H1 7866   5.299   0.470   1.795
 2449WAT     H2 7867   5.164   0.468   1.726
 2450WAT      O 7868   4.734   0.450   1.507
 2450WAT     H1 7869   4.776   0.535   1.489
 2450WAT     H2 7870   4.642   0.464   1.484
 2451WAT      O 7871   5.201   0.279   1.503
 2451WAT     H1 7872   5.149   0.331   1.442
 2451WAT     H2 7873   5.236   0.342   1.566
 2452WAT      O 7874   4.519   1.081   1.618
 2452WAT     H1 7875   4.465   1.153   1.586
 2452WAT     H2 7876   4.544   1.033   1.539
 2453WAT      O 7877   4.804   1.204   1.644
 2453WAT     H1 7878   4.797   1.295   1.675
 2453WAT     H2 7879   4.714   1.172   1.641
 2454WAT      O 7880   4.859   1.121   0.406
 2454WAT     H1 7881   4.949   1.155   0.409
 2454WAT     H2 7882   4.862   1.049   0.344
 2455WAT      O 7883   4.223   0.658   0.229
 2455WAT     H1 7884   4.267   0.712   0.295
 2455WAT     H2 7885   4.272   0.576   0.230
 2456WAT      O 7886   3.945   0.937   0.974
 2456WAT     H1 7887   3.978   0.850   0.951
 2456WAT     H2 7888   3.988   0.958   1.058
 2457WAT      O 7889   4.404   0.770   0.740
 2457WAT     H1 7890   4.374   0.758   0.831
 2457WAT     H2 7891   4.394   0.684   0.700
 2458WAT      O 7892   3.994   1.024   1.248
 2458WAT     H1 7893   3.950   1.042   1.332
 2458WAT     H2 7894   4.050   1.099   1.234
 2459WAT      O 7895   5.557   0.974   1.677
 2459WAT     H1 7896   5.497   0.980   1.603
 2459WAT     H2 7897   5.570   0.880   1.690
 2460WAT      O 7898   3.977   0.275   0.884
 2460WAT     H1 7899   3.911   0.248   0.820
 2460WAT     H2 7900   4.061   0.264   0.839
 2461WAT      O 7901   5.426   0.646   1.487
 2461WAT     H1 7902   5.344   0.689   1.513
 2461WAT     H2 7903   5.466   0.708   1.426
 2462WAT      O 7904   5.632   0.452   0.177
 2462WAT     H1 7905   5.659   0.543   0.164
 2462WAT     H2 7906   5.613   0.445   0.270
 2463WAT      O 7907   5.622   0.246   0.676
 2463WAT     H1 7908   5.584   0.169   0.633
 2463WAT     H2 7909   5.549   0.284   0.725
 2464WAT      O 7910   4.081   0.313   1.338
 2464WAT     H1 7911   4.117   0.305   1.426
 2464WAT     H2 7912   4.024   0.237   1.328
 2465WAT      O 7913   5.431   1.122   0.840
 2465WAT     H1 7914   5.491   1.089   0.772
 2465WAT     H2 7915   5.457   1.074   0.919
 2466WAT      O 7916   4.222   0.765   1.854
 2466WAT     H1 7917   4.218   0.728   1.943
 2466WAT     H2 7918   4.235   0.858   1.868
 2467WAT      O 7919   4.592   0.920   1.415
 2467WAT     H1 7920   4.568   0.947   1.326
 2467WAT     H2 7921   4.686   0.937   1.420
 2468WAT      O 7922   4.206   1.059   1.566
 2468WAT     H1 7923   4.147   1.046   1.640
 2468WAT     H2 7924   4.205   0.976   1.520
 2469WAT      O 7925   5.487   1.186   1.222
 2469WAT     H1 7926   5.441   1.262   1.185
 2469WAT     H2 7927   5.424   1.115   1.217
 2470WAT      O 7928   4.169   0.796   1.461
 2470WAT     H1 7929   4.096   0.734   1.455
 2470WAT     H2 7930   4.175   0.835   1.374
 2471WAT      O 7931   4.530   1.017   1.140
 2471WAT     H1 7932   4.581   0.956   1.087
 2471WAT     H2 7933   4.595   1.068   1.189
 2472WAT      O 7934   4.804   1.106   1.223
 2472WAT     H1 7935   4.832   1.081   1.135
 2472WAT     H2 7936   4.855   1.051   1.282
 2473WAT      O 7937   3.997   1.128   0.782
 2473WAT     H1 7938   3.981   1.064   0.852
 2473WAT     H2 7939   3.911   1.148   0.747
 2474WAT      O 7940   4.158   0.997   0.527
 2474WAT     H1 7941   4.106   1.035   0.457
 2474WAT     H2 7942   4.150   1.060   0.599
 2475WAT      O 7943   4.810   1.199   1.959
 2475WAT     H1 7944   4.903   1.175   1.964
 2475WAT     H2 7945   4.809   1.281   1.911
 2476WAT      O 7946   5.634   1.153   0.659
 2476WAT     H1 7947   5.651   1.084   0.595
 2476WAT     H2 7948   5.564   1.205   0.620
 2477WAT      O 7949   4.418   1.192   0.414
 2477WAT     H1 7950   4.491   1.163   0.360
 2477WAT     H2 7951   4.444   1.168   0.503
 2478WAT      O 7952   4.334   0.803   0.415
 2478WAT     H1 7953   4.271   0.850   0.470
 2478WAT     H2 7954   4.346   0.719   0.458
 2479WAT      O 7955   5.467   1.121   1.942
 2479WAT     H1 7956   5.546   1.072   1.921
 2479WAT     H2 7957   5.496   1.189   2.003
 2480WAT      O 7958   3.202   7.718   4.662
 2480WAT     H1 7959   3.194   7.627   4.635
 2480WAT     H2 7960   3.161   7.768   4.592
 2481WAT      O 7961   3.015   7.896   4.850
 2481WAT     H1 7962   2.938   7.848   4.879
 2481WAT     H2 7963   3.080   7.828   4.833
 2482WAT      O 7964   2.258   7.423   4.316
 2482WAT     H1 7965   2.169   7.457   4.306
 2482WAT     H2 7966   2.286   7.403   4.227
 2483WAT      O 7967   2.054   7.683   4.905
 2483WAT     H1 7968   2.111   7.607   4.905
 2483WAT     H2 7969   2.054   7.713   4.814
 2484WAT      O 7970   2.179   7.224   5.084
 2484WAT     H1 7971   2.161   7.134   5.112
 2484WAT     H2 7972   2.138   7.279   5.151
 2485WAT      O 7973   3.062   7.444   4.874
 2485WAT     H1 7974   3.100   7.357   4.862
 2485WAT     H2 7975   3.053   7.478   4.785
 2486WAT      O 7976   2.476   7.282   4.420
 2486WAT     H1 7977   2.486   7.372   4.451
 2486WAT     H2 7978   2.384   7.277   4.391
 2487WAT      O 7979   3.441   7.194   4.567
 2487WAT     H1 7980   3.523   7.145   4.571
 2487WAT     H2 7981   3.444   7.253   4.642
 2488WAT      O 7982   2.240   7.474   4.944
 2488WAT     H1 7983   2.308   7.500   5.006
 2488WAT     H2 7984   2.209   7.390   4.978
 2489WAT      O 7985   2.660   7.578   4.853
 2489WAT     H1 7986   2.710   7.628   4.917
 2489WAT     H2 7987   2.713   7.501   4.836
 2490WAT      O 7988   3.870   7.396   5.223
 2490WAT     H1 7989   3.799   7.434   5.172
 2490WAT     H2 7990   3.896   7.465   5.284
 2491WAT      O 7991   2.488   7.042   5.280
 2491WAT     H1 7992   2.488   7.094   5.199
 2491WAT     H2 7993   2.405   6.995   5.277
 2492WAT      O 7994   3.464   7.388   4.844
 2492WAT     H1 7995   3.394   7.417   4.902
 2492WAT     H2 7996   3.500   7.469   4.808
 2493WAT      O 7997   2.456   7.214   5.080
 2493WAT     H1 7998   2.490   7.298   5.051
 2493WAT     H2 7999   2.362   7.228   5.092
 2494WAT      O 8000   3.771   7.332   4.883
 2494WAT     H1 8001   3.676   7.336   4.897
 2494WAT     H2 8002   3.804   7.414   4.922
 2495WAT      O 8003   2.824   6.962   4.713
 2495WAT     H1 8004   2.855   6.907   4.641
 2495WAT     H2 8005   2.731   6.976   4.695
 2496WAT      O 8006   3.063   7.769   4.387
 2496WAT     H1 8007   2.971   7.762   4.409
 2496WAT     H2 8008   3.078   7.863   4.375
 2497WAT      O 8009   3.062   7.396   4.086
 2497WAT     H1 8010   2.968   7.412   4.095
 2497WAT     H2 8011   3.094   7.468   4.032
 2498WAT      O 8012   3.410   7.543   5.179
 2498WAT     H1 8013   3.369   7.625   5.204
 2498WAT     H2 8014   3.337   7.484   5.159
 2499WAT      O 8015   2.624   7.822   4.665
 2499WAT     H1 8016   2.583   7.750   4.615
 2499WAT     H2 8017   2.632   7.787   4.754
 2500WAT      O 8018   2.495   7.499   5.043
 2500WAT     H1 8019   2.550   7.510   4.965
 2500WAT     H2 8020   2.547   7.536   5.114
 2501WAT      O 8021   3.284   7.849   4.138
 2501WAT     H1 8022   3.328   7.765   4.123
 2501WAT     H2 8023   3.355   7.912   4.146
 2502WAT      O 8024   3.642   6.974   3.969
 2502WAT     H1 8025   3.611   6.984   4.059
 2502WAT     H2 8026   3.718   7.032   3.964
 2503WAT      O 8027   2.294   7.711   4.415
 2503WAT     H1 8028   2.282   7.784   4.354
 2503WAT     H2 8029   2.263   7.634   4.367
 2504WAT      O 8030   3.763   7.448   5.567
 2504WAT     H1 8031   3.701   7.499   5.514
 2504WAT     H2 8032   3.731   7.358   5.561
 2505WAT      O 8033   2.540   7.045   4.753
 2505WAT     H1 8034   2.496   7.123   4.720
 2505WAT     H2 8035   2.596   7.078   4.824
 2506WAT      O 8036   2.969   7.332   5.313
 2506WAT     H1 8037   2.923   7.353   5.395
 2506WAT     H2 8038   2.929   7.251   5.283
 2507WAT      O 8039   3.469   7.454   5.426
 2507WAT     H1 8040   3.384   7.424   5.458
 2507WAT     H2 8041   3.453   7.478   5.335
 2508WAT      O 8042   3.179   7.604   5.636
 2508WAT     H1 8043   3.211   7.521   5.602
 2508WAT     H2 8044   3.258   7.656   5.651
 2509WAT      O 8045   2.852   7.007   4.241
 2509WAT     H1 8046   2.790   7.007   4.314
 2509WAT     H2 8047   2.843   6.921   4.201
 2510WAT      O 8048   2.744   7.100   4.939
 2510WAT     H1 8049   2.774   7.190   4.931
 2510WAT     H2 8050   2.799   7.051   4.878
 2511WAT      O 8051   2.520   7.558   4.526
 2511WAT     H1 8052   2.497   7.536   4.616
 2511WAT     H2 8053   2.442   7.601   4.491
 2512WAT      O 8054   3.243   7.558   4.386
 2512WAT     H1 8055   3.183   7.631   4.367
 2512WAT     H2 8056   3.297   7.552   4.307
 2513WAT      O 8057   2.764   7.647   5.592
 2513WAT     H1 8058   2.754   7.553   5.577
 2513WAT     H2 8059   2.848   7.670   5.553
 2514WAT      O 8060   3.103   7.422   4.589
 2514WAT     H1 8061   3.143   7.454   4.507
 2514WAT     H2 8062   3.139   7.334   4.600
 2515WAT      O 8063   2.277   7.289   5.408
 2515WAT     H1 8064   2.237   7.373   5.428
 2515WAT     H2 8065   2.208   7.225   5.427
 2516WAT      O 8066   2.007   7.081   4.811
 2516WAT     H1 8067   1.978   7.138   4.882
 2516WAT     H2 8068   2.081   7.033   4.847
 2517WAT      O 8069   2.026   7.475   3.932
 2517WAT     H1 8070   2.017   7.569   3.946
 2517WAT     H2 8071   1.990   7.461   3.844
 2518WAT      O 8072   3.162   7.681   4.998
 2518WAT     H1 8073   3.089   7.732   5.033
 2518WAT     H2 8074   3.122   7.599   4.968
 2519WAT      O 8075   2.806   7.349   4.839
 2519WAT     H1 8076   2.806   7.304   4.754
 2519WAT     H2 8077   2.895   7.381   4.850
 2520WAT      O 8078   2.391   7.337   4.735
 2520WAT     H1 8079   2.357   7.385   4.810
 2520WAT     H2 8080   2.314   7.291   4.699
 2521WAT      O 8081   2.812   7.449   4.138
 2521WAT     H1 8082   2.824   7.444   4.233
 2521WAT     H2 8083   2.773   7.535   4.122
 2522WAT      O 8084   3.208   7.226   4.940
 2522WAT     H1 8085   3.210   7.271   5.024
 2522WAT     H2 8086   3.183   7.136   4.961
 2523WAT      O 8087   2.713   7.680   4.078
 2523WAT     H1 8088   2.656   7.635   4.015
 2523WAT     H2 8089   2.784   7.716   4.024
 2524WAT      O 8090   3.551   6.968   5.523
 2524WAT     H1 8091   3.583   6.895   5.576
 2524WAT     H2 8092   3.554   6.936   5.433
 2525WAT      O 8093   2.836   7.755   5.013
 2525WAT     H1 8094   2.872   7.707   5.088
 2525WAT     H2 8095   2.817   7.842   5.048
 2526WAT      O 8096   2.122   7.229   4.626
 2526WAT     H1 8097   2.094   7.193   4.710
 2526WAT     H2 8098   2.116   7.156   4.565
 2527WAT      O 8099   2.615   7.659   5.245
 2527WAT     H1 8100   2.584   7.747   5.268
 2527WAT     H2 8101   2.710   7.665   5.249
 2528WAT      O 8102   3.089   7.118   4.299
 2528WAT     H1 8103   3.008   7.068   4.291
 2528WAT     H2 8104   3.070   7.202   4.257
 2529WAT      O 8105   3.361   7.555   4.128
 2529WAT     H1 8106   3.450   7.587   4.111
 2529WAT     H2 8107   3.358   7.468   4.089
 2530WAT      O 8108   2.220   7.743   5.360
 2530WAT     H1 8109   2.184   7.809   5.419
 2530WAT     H2 8110   2.191   7.659   5.397
 2531WAT      O 8111   2.540   7.788   5.648
 2531WAT     H1 8112   2.510   7.803   5.559
 2531WAT     H2 8113   2.618   7.733   5.639
 2532WAT      O 8114   3.588   7.687   4.075
 2532WAT     H1 8115   3.580   7.730   3.990
 2532WAT     H2 8116   3.660   7.733   4.118
 2533WAT      O 8117   2.071   7.743   4.022
 2533WAT     H1 8118   2.158   7.771   4.051
 2533WAT     H2 8119   2.022   7.824   4.011
 2534WAT      O 8120   2.378   6.916   4.482
 2534WAT     H1 8121   2.365   6.915   4.577
 2534WAT     H2 8122   2.295   6.949   4.447
 2535WAT      O 8123   2.078   7.092   5.428
 2535WAT     H1 8124   2.006   7.112   5.488
 2535WAT     H2 8125   2.120   7.014   5.465
 2536WAT      O 8126   3.227   7.341   5.203
 2536WAT     H1 8127   3.264   7.259   5.236
 2536WAT     H2 8128   3.141   7.347   5.244
 2537WAT      O 8129   3.564   7.236   4.284
 2537WAT     H1 8130   3.501   7.247   4.212
 2537WAT     H2 8131   3.514   7.258   4.363
 2538WAT      O 8132   2.761   7.464   4.425
 2538WAT     H1 8133   2.690   7.511   4.469
 2538WAT     H2 8134   2.789   7.398   4.489
 2539WAT      O 8135   2.923   7.606   5.225
 2539WAT     H1 8136   2.973   7.654   5.292
 2539WAT     H2 8137   2.937   7.514   5.246
 2540WAT      O 8138   3.164   7.137   4.569
 2540WAT     H1 8139   3.151   7.139   4.474
 2540WAT     H2 8140   3.259   7.142   4.581
 2541WAT      O 8141   2.581   7.295   4.163
 2541WAT     H1 8142   2.666   7.339   4.156
 2541WAT     H2 8143   2.544   7.326   4.245
 2542WAT      O 8144   3.644   7.228   5.309
 2542WAT     H1 8145   3.594   7.302   5.343
 2542WAT     H2 8146   3.725   7.267   5.278
 2543WAT      O 8147   3.473   7.752   4.654
 2543WAT     H1 8148   3.379   7.754   4.671
 2543WAT     H2 8149   3.505   7.674   4.699
 2544WAT      O 8150   2.340   7.664   4.078
 2544WAT     H1 8151   2.348   7.569   4.090
 2544WAT     H2 8152   2.430   7.697   4.089
 2545WAT      O 8153   2.093   7.846   5.602
 2545WAT     H1 8154   2.143   7.788   5.659
 2545WAT     H2 8155   2.019   7.874   5.656
 2546WAT      O 8156   2.490   7.518   5.488
 2546WAT     H1 8157   2.437   7.469   5.425
 2546WAT     H2 8158   2.557   7.561   5.435
 2547WAT      O 8159   2.925   7.822   3.932
 2547WAT     H1 8160   2.977   7.751   3.896
 2547WAT     H2 8161   2.990   7.886   3.962
 2548WAT      O 8162   3.427   7.699   5.665
 2548WAT     H1 8163   3.486   7.623   5.656
 2548WAT     H2 8164   3.445   7.752   5.587
 2549WAT      O 8165   2.539   7.215   5.496
 2549WAT     H1 8166   2.530   7.153   5.424
 2549WAT     H2 8167   2.481   7.287   5.473
 2550WAT      O 8168   2.816   7.070   5.199
 2550WAT     H1 8169   2.771   7.073   5.115
 2550WAT     H2 8170   2.752   7.031   5.259
 2551WAT      O 8171   3.090   7.733   5.400
 2551WAT     H1 8172   3.102   7.673   5.474
 2551WAT     H2 8173   3.176   7.737   5.358
 2552WAT      O 8174   3.324   7.788   5.258
 2552WAT     H1 8175   3.271   7.841   5.197
 2552WAT     H2 8176   3.358   7.852   5.321
 2553WAT      O 8177   2.564   7.527   3.902
 2553WAT     H1 8178   2.544   7.441   3.938
 2553WAT     H2 8179   2.547   7.519   3.808
 2554WAT      O 8180   2.767   7.387   5.526
 2554WAT     H1 8181   2.826   7.356   5.594
 2554WAT     H2 8182   2.685   7.340   5.541
 2555WAT      O 8183   3.249   7.349   5.549
 2555WAT     H1 8184   3.180   7.283   5.543
 2555WAT     H2 8185   3.321   7.304   5.594
 2556WAT      O 8186   3.312   7.008   4.155
 2556WAT     H1 8187   3.340   6.924   4.191
 2556WAT     H2 8188   3.234   7.032   4.206
 2557WAT      O 8189   2.443   7.237   3.901
 2557WAT     H1 8190   2.474   7.238   3.810
 2557WAT     H2 8191   2.517   7.202   3.951
 2558WAT      O 8192   2.765   7.132   3.999
 2558WAT     H1 8193   2.731   7.064   3.941
 2558WAT     H2 8194   2.785   7.086   4.081
 2559WAT      O 8195   2.099   7.785   4.639
 2559WAT     H1 8196   2.034   7.758   4.575
 2559WAT     H2 8197   2.183   7.774   4.594
 2560WAT      O 8198   3.394   7.264   4.061
 2560WAT     H1 8199   3.436   7.245   3.977
 2560WAT     H2 8200   3.364   7.179   4.092
 2561WAT      O 8201   3.744   7.755   4.431
 2561WAT     H1 8202   3.707   7.679   4.388
 2561WAT     H2 8203   3.671   7.793   4.480
 2562WAT      O 8204   2.203   7.823   5.093
 2562WAT     H1 8205   2.240   7.814   5.181
 2562WAT     H2 8206   2.146   7.747   5.083
 2563WAT      O 8207   3.683   7.670   5.394
 2563WAT     H1 8208   3.660   7.647   5.304
 2563WAT     H2 8209   3.709   7.762   5.390
 2564WAT      O 8210   2.158   7.514   5.484
 2564WAT     H1 8211   2.069   7.511   5.518
 2564WAT     H2 8212   2.212   7.534   5.560
 2565WAT      O 8213   3.527   7.193   5.672
 2565WAT     H1 8214   3.615   7.193   5.711
 2565WAT     H2 8215   3.528   7.119   5.611
 2566WAT      O 8216   2.021   7.506   4.233
 2566WAT     H1 8217   1.930   7.532   4.216
 2566WAT     H2 8218   2.069   7.533   4.155
 2567WAT      O 8219   3.672   7.578   4.761
 2567WAT     H1 8220   3.724   7.528   4.698
 2567WAT     H2 8221   3.730   7.591   4.836
 2568WAT      O 8222   3.690   7.586   5.113
 2568WAT     H1 8223   3.595   7.583   5.125
 2568WAT     H2 8224   3.708   7.677   5.090
 2569WAT      O 8225   2.275   7.411   4.024
 2569WAT     H1 8226   2.346   7.369   3.976
 2569WAT     H2 8227   2.203   7.418   3.961
 2570WAT      O 8228   2.240   7.017   3.928
 2570WAT     H1 8229   2.312   7.071   3.960
 2570WAT     H2 8230   2.267   6.989   3.841
 2571WAT      O 8231   3.621   7.504   4.355
 2571WAT     H1 8232   3.670   7.480   4.433
 2571WAT     H2 8233   3.601   7.420   4.313
 2572WAT      O 8234   2.209   6.942   4.919
 2572WAT     H1 8235   2.273   6.887   4.874
 2572WAT     H2 8236   2.251   6.967   5.001
 2573WAT      O 8237   3.764   7.367   4.608
 2573WAT     H1 8238   3.753   7.352   4.702
 2573WAT     H2 8239   3.840   7.314   4.584
 2574WAT      O 8240   3.598   6.961   5.254
 2574WAT     H1 8241   3.662   7.022   5.291
 2574WAT     H2 8242   3.613   6.965   5.160
 2575WAT      O 8243   3.852   7.150   3.932
 2575WAT     H1 8244   3.945   7.137   3.912
 2575WAT     H2 8245   3.850   7.158   4.028
 2576WAT      O 8246   3.860   7.227   4.195
 2576WAT     H1 8247   3.780   7.221   4.248
 2576WAT     H2 8248   3.880   7.321   4.194
 2577WAT      O 8249   2.184   6.957   5.193
 2577WAT     H1 8250   2.149   7.003   5.269
 2577WAT     H2 8251   2.151   6.868   5.201
 2578WAT      O 8252   2.935   7.076   5.545
 2578WAT     H1 8253   2.929   7.136   5.620
 2578WAT     H2 8254   3.029   7.066   5.530
 2579WAT      O 8255   3.199   7.042   5.509
 2579WAT     H1 8256   3.260   7.074   5.443
 2579WAT     H2 8257   3.254   6.994   5.571
 2580WAT      O 8258   2.251   6.910   5.520
 2580WAT     H1 8259   2.306   6.892   5.444
 2580WAT     H2 8260   2.258   6.831   5.574
 2581WAT      O 8261   3.273   6.898   5.142
 2581WAT     H1 8262   3.186   6.932   5.121
 2581WAT     H2 8263   3.262   6.851   5.224
 2582WAT      O 8264   3.364   7.119   5.280
 2582WAT     H1 8265   3.331   7.038   5.242
 2582WAT     H2 8266   3.459   7.115   5.268
 2583WAT      O 8267   3.048   6.990   5.035
 2583WAT     H1 8268   2.970   7.038   5.063
 2583WAT     H2 8269   3.018   6.900   5.025
 2584WAT      O 8270   3.503   7.060   4.840
 2584WAT     H1 8271   3.547   7.055   4.755
 2584WAT     H2 8272   3.476   7.152   4.847
 2585WAT      O 8273   3.689   7.023   4.641
 2585WAT     H1 8274   3.683   6.929   4.626
 2585WAT     H2 8275   3.767   7.034   4.696
 2586WAT      O 8276   2.182   7.021   4.288
 2586WAT     H1 8277   2.258   7.032   4.230
 2586WAT     H2 8278   2.136   7.104   4.283
 2587WAT      O 8279   2.836   7.232   4.587
 2587WAT     H1 8280   2.755   7.195   4.553
 2587WAT     H2 8281   2.887   7.156   4.617
 2588WAT      O 8282   3.287   6.898   4.710
 2588WAT     H1 8283   3.347   6.956   4.758
 2588WAT     H2 8284   3.213   6.955   4.688
 2589WAT      O 8285   3.601   6.939   4.238
 2589WAT     H1 8286   3.620   7.028   4.265
 2589WAT     H2 8287   3.522   6.915   4.287
 2590WAT      O 8288   2.420   7.073   4.142
 2590WAT     H1 8289   2.472   6.995   4.129
 2590WAT     H2 8290   2.483   7.141   4.165
 2591WAT      O 8291   2.639   7.047   4.447
 2591WAT     H1 8292   2.576   6.977   4.464
 2591WAT     H2 8293   2.585   7.123   4.425
 2592WAT      O 8294   2.651   6.975   5.691
 2592WAT     H1 8295   2.623   7.025   5.614
 2592WAT     H2 8296   2.690   6.895   5.654
 2593WAT      O 8297   3.202   7.718   2.785
 2593WAT     H1 8298   3.194   7.627   2.758
 2593WAT     H2 8299   3.161   7.768   2.714
 2594WAT      O 8300   3.015   7.896   2.973
 2594WAT     H1 8301   2.938   7.848   3.002
 2594WAT     H2 8302   3.080   7.828   2.955
 2595WAT      O 8303   2.258   7.423   2.439
 2595WAT     H1 8304   2.169   7.457   2.429
 2595WAT     H2 8305   2.286   7.403   2.350
 2596WAT      O 8306   2.054   7.683   3.027
 2596WAT     H1 8307   2.111   7.607   3.027
 2596WAT     H2 8308   2.054   7.713   2.937
 2597WAT      O 8309   2.179   7.224   3.206
 2597WAT     H1 8310   2.161   7.134   3.234
 2597WAT     H2 8311   2.138   7.279   3.274
 2598WAT      O 8312   3.062   7.444   2.996
 2598WAT     H1 8313   3.100   7.357   2.985
 2598WAT     H2 8314   3.053   7.478   2.907
 2599WAT      O 8315   2.476   7.282   2.542
 2599WAT     H1 8316   2.486   7.372   2.573
 2599WAT     H2 8317   2.384   7.277   2.513
 2600WAT      O 8318   3.441   7.194   2.690
 2600WAT     H1 8319   3.523   7.145   2.694
 2600WAT     H2 8320   3.444   7.253   2.765
 2601WAT      O 8321   2.240   7.474   3.067
 2601WAT     H1 8322   2.308   7.500   3.129
 2601WAT     H2 8323   2.209   7.390   3.100
 2602WAT      O 8324   2.660   7.578   2.976
 2602WAT     H1 8325   2.710   7.628   3.040
 2602WAT     H2 8326   2.713   7.501   2.958
 2603WAT      O 8327   3.870   7.396   3.346
 2603WAT     H1 8328   3.799   7.434   3.294
 2603WAT     H2 8329   3.896   7.465   3.406
 2604WAT      O 8330   2.488   7.042   3.402
 2604WAT     H1 8331   2.488   7.094   3.322
 2604WAT     H2 8332   2.405   6.995   3.400
 2605WAT      O 8333   3.464   7.388   2.967
 2605WAT     H1 8334   3.394   7.417   3.025
 2605WAT     H2 8335   3.500   7.469   2.931
 2606WAT      O 8336   2.456   7.214   3.203
 2606WAT     H1 8337   2.490   7.298   3.174
 2606WAT     H2 8338   2.362   7.228   3.215
 2607WAT      O 8339   3.771   7.332   3.006
 2607WAT     H1 8340   3.676   7.336   3.019
 2607WAT     H2 8341   3.804   7.414   3.044
 2608WAT      O 8342   2.824   6.962   2.835
 2608WAT     H1 8343   2.855   6.907   2.764
 2608WAT     H2 8344   2.731   6.976   2.817
 2609WAT      O 8345   3.063   7.769   2.509
 2609WAT     H1 8346   2.971   7.762   2.532
 2609WAT     H2 8347   3.078   7.863   2.498
 2610WAT      O 8348   3.062   7.396   2.209
 2610WAT     H1 8349   2.968   7.412   2.217
 2610WAT     H2 8350   3.094   7.468   2.154
 2611WAT      O 8351   3.410   7.543   3.301
 2611WAT     H1 8352   3.369   7.625   3.326
 2611WAT     H2 8353   3.337   7.484   3.282
 2612WAT      O 8354   2.624   7.822   2.787
 2612WAT     H1 8355   2.583   7.750   2.738
 2612WAT     H2 8356   2.632   7.787   2.876
 2613WAT      O 8357   2.495   7.499   3.165
 2613WAT     H1 8358   2.550   7.510   3.088
 2613WAT     H2 8359   2.547   7.536   3.237
 2614WAT      O 8360   3.284   7.849   2.260
 2614WAT     H1 8361   3.328   7.765   2.246
 2614WAT     H2 8362   3.355   7.912   2.269
 2615WAT      O 8363   3.642   6.974   2.092
 2615WAT     H1 8364   3.611   6.984   2.182
 2615WAT     H2 8365   3.718   7.032   2.087
 2616WAT      O 8366   2.294   7.711   2.537
 2616WAT     H1 8367   2.282   7.784   2.476
 2616WAT     H2 8368   2.263   7.634   2.490
 2617WAT      O 8369   3.763   7.448   3.689
 2617WAT     H1 8370   3.701   7.499   3.636
 2617WAT     H2 8371   3.731   7.358   3.684
 2618WAT      O 8372   2.540   7.045   2.876
 2618WAT     H1 8373   2.496   7.123   2.842
 2618WAT     H2 8374   2.596   7.078   2.946
 2619WAT      O 8375   2.969   7.332   3.436
 2619WAT     H1 8376   2.923   7.353   3.517
 2619WAT     H2 8377   2.929   7.251   3.406
 2620WAT      O 8378   3.469   7.454   3.549
 2620WAT     H1 8379   3.384   7.424   3.581
 2620WAT     H2 8380   3.453   7.478   3.458
 2621WAT      O 8381   3.179   7.604   3.759
 2621WAT     H1 8382   3.211   7.521   3.725
 2621WAT     H2 8383   3.258   7.656   3.774
 2622WAT      O 8384   2.852   7.007   2.364
 2622WAT     H1 8385   2.790   7.007   2.436
 2622WAT     H2 8386   2.843   6.921   2.324
 2623WAT      O 8387   2.744   7.100   3.061
 2623WAT     H1 8388   2.774   7.190   3.053
 2623WAT     H2 8389   2.799   7.051   3.000
 2624WAT      O 8390   2.520   7.558   2.648
 2624WAT     H1 8391   2.497   7.536   2.739
 2624WAT     H2 8392   2.442   7.601   2.614
 2625WAT      O 8393   3.243   7.558   2.508
 2625WAT     H1 8394   3.183   7.631   2.490
 2625WAT     H2 8395   3.297   7.552   2.430
 2626WAT      O 8396   2.764   7.647   3.715
 2626WAT     H1 8397   2.754   7.553   3.700
 2626WAT     H2 8398   2.848   7.670   3.675
 2627WAT      O 8399   3.103   7.422   2.711
 2627WAT     H1 8400   3.143   7.454   2.630
 2627WAT     H2 8401   3.139   7.334   2.723
 2628WAT      O 8402   2.277   7.289   3.530
 2628WAT     H1 8403   2.237   7.373   3.551
 2628WAT     H2 8404   2.208   7.225   3.549
 2629WAT      O 8405   2.934   7.297   3.837
 2629WAT     H1 8406   2.865   7.278   3.901
 2629WAT     H2 8407   3.008   7.325   3.891
 2630WAT      O 8408   2.007   7.081   2.934
 2630WAT     H1 8409   1.978   7.138   3.005
 2630WAT     H2 8410   2.081   7.033   2.970
 2631WAT      O 8411   2.026   7.475   2.055
 2631WAT     H1 8412   2.017   7.569   2.069
 2631WAT     H2 8413   1.990   7.461   1.967
 2632WAT      O 8414   3.162   7.681   3.121
 2632WAT     H1 8415   3.089   7.732   3.156
 2632WAT     H2 8416   3.122   7.599   3.091
 2633WAT      O 8417   2.806   7.349   2.961
 2633WAT     H1 8418   2.806   7.304   2.876
 2633WAT     H2 8419   2.895   7.381   2.972
 2634WAT      O 8420   2.391   7.337   2.857
 2634WAT     H1 8421   2.357   7.385   2.933
 2634WAT     H2 8422   2.314   7.291   2.821
 2635WAT      O 8423   2.812   7.449   2.260
 2635WAT     H1 8424   2.824   7.444   2.355
 2635WAT     H2 8425   2.773   7.535   2.245
 2636WAT      O 8426   3.208   7.226   3.062
 2636WAT     H1 8427   3.210   7.271   3.146
 2636WAT     H2 8428   3.183   7.136   3.083
 2637WAT      O 8429   2.713   7.680   2.200
 2637WAT     H1 8430   2.656   7.635   2.138
 2637WAT     H2 8431   2.784   7.716   2.147
 2638WAT      O 8432   3.551   6.968   3.646
 2638WAT     H1 8433   3.583   6.895   3.699
 2638WAT     H2 8434   3.554   6.936   3.556
 2639WAT      O 8435   2.836   7.755   3.136
 2639WAT     H1 8436   2.872   7.707   3.211
 2639WAT     H2 8437   2.817   7.842   3.170
 2640WAT      O 8438   2.122   7.229   2.749
 2640WAT     H1 8439   2.094   7.193   2.833
 2640WAT     H2 8440   2.116   7.156   2.688
 2641WAT      O 8441   2.615   7.659   3.368
 2641WAT     H1 8442   2.584   7.747   3.390
 2641WAT     H2 8443   2.710   7.665   3.371
 2642WAT      O 8444   3.089   7.118   2.421
 2642WAT     H1 8445   3.008   7.068   2.414
 2642WAT     H2 8446   3.070   7.202   2.379
 2643WAT      O 8447   3.361   7.555   2.251
 2643WAT     H1 8448   3.450   7.587   2.233
 2643WAT     H2 8449   3.358   7.468   2.212
 2644WAT      O 8450   2.220   7.743   3.483
 2644WAT     H1 8451   2.184   7.809   3.541
 2644WAT     H2 8452   2.191   7.659   3.520
 2645WAT      O 8453   2.540   7.788   3.771
 2645WAT     H1 8454   2.510   7.803   3.681
 2645WAT     H2 8455   2.618   7.733   3.762
 2646WAT      O 8456   3.588   7.687   2.198
 2646WAT     H1 8457   3.580   7.730   2.112
 2646WAT     H2 8458   3.660   7.733   2.241
 2647WAT      O 8459   2.071   7.743   2.145
 2647WAT     H1 8460   2.158   7.771   2.173
 2647WAT     H2 8461   2.022   7.824   2.133
 2648WAT      O 8462   2.378   6.916   2.604
 2648WAT     H1 8463   2.365   6.915   2.699
 2648WAT     H2 8464   2.295   6.949   2.569
 2649WAT      O 8465   2.078   7.092   3.550
 2649WAT     H1 8466   2.006   7.112   3.611
 2649WAT     H2 8467   2.120   7.014   3.587
 2650WAT      O 8468   3.227   7.341   3.325
 2650WAT     H1 8469   3.264   7.259   3.358
 2650WAT     H2 8470   3.141   7.347   3.367
 2651WAT      O 8471   3.564   7.236   2.406
 2651WAT     H1 8472   3.501   7.247   2.335
 2651WAT     H2 8473   3.514   7.258   2.485
 2652WAT      O 8474   2.761   7.464   2.548
 2652WAT     H1 8475   2.690   7.511   2.592
 2652WAT     H2 8476   2.789   7.398   2.611
 2653WAT      O 8477   2.923   7.606   3.348
 2653WAT     H1 8478   2.973   7.654   3.414
 2653WAT     H2 8479   2.937   7.514   3.368
 2654WAT      O 8480   3.164   7.137   2.692
 2654WAT     H1 8481   3.151   7.139   2.597
 2654WAT     H2 8482   3.259   7.142   2.704
 2655WAT      O 8483   2.581   7.295   2.285
 2655WAT     H1 8484   2.666   7.339   2.279
 2655WAT     H2 8485   2.544   7.326   2.368
 2656WAT      O 8486   3.644   7.228   3.432
 2656WAT     H1 8487   3.594   7.302   3.466
 2656WAT     H2 8488   3.725   7.267   3.400
 2657WAT      O 8489   3.473   7.752   2.777
 2657WAT     H1 8490   3.379   7.754   2.794
 2657WAT     H2 8491   3.505   7.674   2.821
 2658WAT      O 8492   2.340   7.664   2.201
 2658WAT     H1 8493   2.348   7.569   2.212
 2658WAT     H2 8494   2.430   7.697   2.212
 2659WAT      O 8495   2.093   7.846   3.725
 2659WAT     H1 8496   2.143   7.788   3.782
 2659WAT     H2 8497   2.019   7.874   3.778
 2660WAT      O 8498   2.296   7.660   3.814
 2660WAT     H1 8499   2.300   7.630   3.905
 2660WAT     H2 8500   2.382   7.700   3.798
 2661WAT      O 8501   2.490   7.518   3.611
 2661WAT     H1 8502   2.437   7.469   3.548
 2661WAT     H2 8503   2.557   7.561   3.557
 2662WAT      O 8504   2.925   7.822   2.055
 2662WAT     H1 8505   2.977   7.751   2.018
 2662WAT     H2 8506   2.990   7.886   2.085
 2663WAT      O 8507   3.427   7.699   3.788
 2663WAT     H1 8508   3.486   7.623   3.779
 2663WAT     H2 8509   3.445   7.752   3.710
 2664WAT      O 8510   2.539   7.215   3.619
 2664WAT     H1 8511   2.530   7.153   3.546
 2664WAT     H2 8512   2.481   7.287   3.596
 2665WAT      O 8513   2.816   7.070   3.322
 2665WAT     H1 8514   2.771   7.073   3.237
 2665WAT     H2 8515   2.752   7.031   3.382
 2666WAT      O 8516   3.090   7.733   3.523
 2666WAT     H1 8517   3.102   7.673   3.596
 2666WAT     H2 8518   3.176   7.737   3.481
 2667WAT      O 8519   3.324   7.788   3.380
 2667WAT     H1 8520   3.271   7.841   3.320
 2667WAT     H2 8521   3.358   7.852   3.443
 2668WAT      O 8522   2.564   7.527   2.025
 2668WAT     H1 8523   2.544   7.441   2.061
 2668WAT     H2 8524   2.547   7.519   1.931
 2669WAT      O 8525   2.767   7.387   3.648
 2669WAT     H1 8526   2.826   7.356   3.717
 2669WAT     H2 8527   2.685   7.340   3.664
 2670WAT      O 8528   3.249   7.349   3.672
 2670WAT     H1 8529   3.180   7.283   3.665
 2670WAT     H2 8530   3.321   7.304   3.716
 2671WAT      O 8531   3.312   7.008   2.278
 2671WAT     H1 8532   3.340   6.924   2.313
 2671WAT     H2 8533   3.234   7.032   2.329
 2672WAT      O 8534   2.443   7.237   2.023
 2672WAT     H1 8535   2.474   7.238   1.933
 2672WAT     H2 8536   2.517   7.202   2.073
 2673WAT      O 8537   2.765   7.132   2.122
 2673WAT     H1 8538   2.731   7.064   2.064
 2673WAT     H2 8539   2.785   7.086   2.203
 2674WAT      O 8540   2.099   7.785   2.762
 2674WAT     H1 8541   2.034   7.758   2.697
 2674WAT     H2 8542   2.183   7.774   2.717
 2675WAT      O 8543   3.394   7.264   2.184
 2675WAT     H1 8544   3.436   7.245   2.100
 2675WAT     H2 8545   3.364   7.179   2.215
 2676WAT      O 8546   3.744   7.755   2.554
 2676WAT     H1 8547   3.707   7.679   2.510
 2676WAT     H2 8548   3.671   7.793   2.602
 2677WAT      O 8549   2.203   7.823   3.216
 2677WAT     H1 8550   2.240   7.814   3.304
 2677WAT     H2 8551   2.146   7.747   3.206
 2678WAT      O 8552   3.683   7.670   3.517
 2678WAT     H1 8553   3.660   7.647   3.427
 2678WAT     H2 8554   3.709   7.762   3.512
 2679WAT      O 8555   2.158   7.514   3.606
 2679WAT     H1 8556   2.069   7.511   3.640
 2679WAT     H2 8557   2.212   7.534   3.683
 2680WAT      O 8558   3.527   7.193   3.795
 2680WAT     H1 8559   3.615   7.193   3.833
 2680WAT     H2 8560   3.528   7.119   3.734
 2681WAT      O 8561   2.021   7.506   2.356
 2681WAT     H1 8562   1.930   7.532   2.338
 2681WAT     H2 8563   2.069   7.533   2.278
 2682WAT      O 8564   3.672   7.578   2.884
 2682WAT     H1 8565   3.724   7.528   2.821
 2682WAT     H2 8566   3.730   7.591   2.958
 2683WAT      O 8567   3.690   7.586   3.236
 2683WAT     H1 8568   3.595   7.583   3.247
 2683WAT     H2 8569   3.708   7.677   3.212
 2684WAT      O 8570   2.275   7.411   2.147
 2684WAT     H1 8571   2.346   7.369   2.098
 2684WAT     H2 8572   2.203   7.418   2.084
 2685WAT      O 8573   2.240   7.017   2.051
 2685WAT     H1 8574   2.312   7.071   2.083
 2685WAT     H2 8575   2.267   6.989   1.963
 2686WAT      O 8576   3.621   7.504   2.478
 2686WAT     H1 8577   3.670   7.480   2.556
 2686WAT     H2 8578   3.601   7.420   2.436
 2687WAT      O 8579   2.209   6.942   3.041
 2687WAT     H1 8580   2.273   6.887   2.997
 2687WAT     H2 8581   2.251   6.967   3.123
 2688WAT      O 8582   3.764   7.367   2.731
 2688WAT     H1 8583   3.753   7.352   2.825
 2688WAT     H2 8584   3.840   7.314   2.707
 2689WAT      O 8585   3.598   6.961   3.377
 2689WAT     H1 8586   3.662   7.022   3.413
 2689WAT     H2 8587   3.613   6.965   3.282
 2690WAT      O 8588   3.852   7.150   2.055
 2690WAT     H1 8589   3.945   7.137   2.034
 2690WAT     H2 8590   3.850   7.158   2.150
 2691WAT      O 8591   3.860   7.227   2.318
 2691WAT     H1 8592   3.780   7.221   2.370
 2691WAT     H2 8593   3.880   7.321   2.316
 2692WAT      O 8594   2.184   6.957   3.315
 2692WAT     H1 8595   2.149   7.003   3.392
 2692WAT     H2 8596   2.151   6.868   3.324
 2693WAT      O 8597   2.935   7.076   3.668
 2693WAT     H1 8598   2.929   7.136   3.742
 2693WAT     H2 8599   3.029   7.066   3.653
 2694WAT      O 8600   3.199   7.042   3.631
 2694WAT     H1 8601   3.260   7.074   3.565
 2694WAT     H2 8602   3.254   6.994   3.693
 2695WAT      O 8603   2.251   6.910   3.643
 2695WAT     H1 8604   2.306   6.892   3.566
 2695WAT     H2 8605   2.258   6.831   3.696
 2696WAT      O 8606   3.273   6.898   3.264
 2696WAT     H1 8607   3.186   6.932   3.244
 2696WAT     H2 8608   3.262   6.851   3.347
 2697WAT      O 8609   3.364   7.119   3.403
 2697WAT     H1 8610   3.331   7.038   3.365
 2697WAT     H2 8611   3.459   7.115   3.390
 2698WAT      O 8612   3.048   6.990   3.158
 2698WAT     H1 8613   2.970   7.038   3.186
 2698WAT     H2 8614   3.018   6.900   3.147
 2699WAT      O 8615   3.503   7.060   2.963
 2699WAT     H1 8616   3.547   7.055   2.878
 2699WAT     H2 8617   3.476   7.152   2.970
 2700WAT      O 8618   3.689   7.023   2.764
 2700WAT     H1 8619   3.683   6.929   2.749
 2700WAT     H2 8620   3.767   7.034   2.818
 2701WAT      O 8621   2.182   7.021   2.410
 2701WAT     H1 8622   2.258   7.032   2.353
 2701WAT     H2 8623   2.136   7.104   2.406
 2702WAT      O 8624   2.836   7.232   2.709
 2702WAT     H1 8625   2.755   7.195   2.675
 2702WAT     H2 8626   2.887   7.156   2.739
 2703WAT      O 8627   3.287   6.898   2.833
 2703WAT     H1 8628   3.347   6.956   2.881
 2703WAT     H2 8629   3.213   6.955   2.811
 2704WAT      O 8630   3.601   6.939   2.360
 2704WAT     H1 8631   3.620   7.028   2.387
 2704WAT     H2 8632   3.522   6.915   2.410
 2705WAT      O 8633   2.420   7.073   2.264
 2705WAT     H1 8634   2.472   6.995   2.251
 2705WAT     H2 8635   2.483   7.141   2.288
 2706WAT      O 8636   2.639   7.047   2.570
 2706WAT     H1 8637   2.576   6.977   2.586
 2706WAT     H2 8638   2.585   7.123   2.548
 2707WAT      O 8639   2.651   6.975   3.813
 2707WAT     H1 8640   2.623   7.025   3.737
 2707WAT     H2 8641   2.690   6.895   3.777
 2708WAT      O 8642   3.312   6.916   3.871
 2708WAT     H1 8643   3.300   6.948   3.961
 2708WAT     H2 8644   3.393   6.956   3.841
 2709WAT      O 8645   3.202   7.718   0.907
 2709WAT     H1 8646   3.194   7.627   0.880
 2709WAT     H2 8647   3.161   7.768   0.837
 2710WAT      O 8648   3.015   7.896   1.095
 2710WAT     H1 8649   2.938   7.848   1.124
 2710WAT     H2 8650   3.080   7.828   1.078
 2711WAT      O 8651   2.258   7.423   0.562
 2711WAT     H1 8652   2.169   7.457   0.551
 2711WAT     H2 8653   2.286   7.403   0.472
 2712WAT      O 8654   2.054   7.683   1.150
 2712WAT     H1 8655   2.111   7.607   1.150
 2712WAT     H2 8656   2.054   7.713   1.059
 2713WAT      O 8657   2.179   7.224   1.329
 2713WAT     H1 8658   2.161   7.134   1.357
 2713WAT     H2 8659   2.138   7.279   1.396
 2714WAT      O 8660   3.062   7.444   1.119
 2714WAT     H1 8661   3.100   7.357   1.108
 2714WAT     H2 8662   3.053   7.478   1.030
 2715WAT      O 8663   2.476   7.282   0.665
 2715WAT     H1 8664   2.486   7.372   0.696
 2715WAT     H2 8665   2.384   7.277   0.636
 2716WAT      O 8666   3.441   7.194   0.812
 2716WAT     H1 8667   3.523   7.145   0.816
 2716WAT     H2 8668   3.444   7.253   0.887
 2717WAT      O 8669   2.240   7.474   1.190
 2717WAT     H1 8670   2.308   7.500   1.251
 2717WAT     H2 8671   2.209   7.390   1.223
 2718WAT      O 8672   2.660   7.578   1.098
 2718WAT     H1 8673   2.710   7.628   1.162
 2718WAT     H2 8674   2.713   7.501   1.081
 2719WAT      O 8675   3.870   7.396   1.469
 2719WAT     H1 8676   3.799   7.434   1.417
 2719WAT     H2 8677   3.896   7.465   1.529
 2720WAT      O 8678   2.488   7.042   1.525
 2720WAT     H1 8679   2.488   7.094   1.444
 2720WAT     H2 8680   2.405   6.995   1.523
 2721WAT      O 8681   3.464   7.388   1.089
 2721WAT     H1 8682   3.394   7.417   1.147
 2721WAT     H2 8683   3.500   7.469   1.053
 2722WAT      O 8684   2.456   7.214   1.326
 2722WAT     H1 8685   2.490   7.298   1.296
 2722WAT     H2 8686   2.362   7.228   1.337
 2723WAT      O 8687   3.771   7.332   1.128
 2723WAT     H1 8688   3.676   7.336   1.142
 2723WAT     H2 8689   3.804   7.414   1.167
 2724WAT      O 8690   2.824   6.962   0.958
 2724WAT     H1 8691   2.855   6.907   0.886
 2724WAT     H2 8692   2.731   6.976   0.940
 2725WAT      O 8693   3.063   7.769   0.632
 2725WAT     H1 8694   2.971   7.762   0.655
 2725WAT     H2 8695   3.078   7.863   0.620
 2726WAT      O 8696   3.062   7.396   0.331
 2726WAT     H1 8697   2.968   7.412   0.340
 2726WAT     H2 8698   3.094   7.468   0.277
 2727WAT      O 8699   3.410   7.543   1.424
 2727WAT     H1 8700   3.369   7.625   1.449
 2727WAT     H2 8701   3.337   7.484   1.404
 2728WAT      O 8702   2.624   7.822   0.910
 2728WAT     H1 8703   2.583   7.750   0.860
 2728WAT     H2 8704   2.632   7.787   0.999
 2729WAT      O 8705   2.495   7.499   1.288
 2729WAT     H1 8706   2.550   7.510   1.210
 2729WAT     H2 8707   2.547   7.536   1.359
 2730WAT      O 8708   3.284   7.849   0.383
 2730WAT     H1 8709   3.328   7.765   0.368
 2730WAT     H2 8710   3.355   7.912   0.391
 2731WAT      O 8711   3.642   6.974   0.214
 2731WAT     H1 8712   3.611   6.984   0.304
 2731WAT     H2 8713   3.718   7.032   0.209
 2732WAT      O 8714   2.294   7.711   0.660
 2732WAT     H1 8715   2.282   7.784   0.599
 2732WAT     H2 8716   2.263   7.634   0.612
 2733WAT      O 8717   3.763   7.448   1.812
 2733WAT     H1 8718   3.701   7.499   1.759
 2733WAT     H2 8719   3.731   7.358   1.806
 2734WAT      O 8720   2.540   7.045   0.998
 2734WAT     H1 8721   2.496   7.123   0.965
 2734WAT     H2 8722   2.596   7.078   1.069
 2735WAT      O 8723   2.969   7.332   1.558
 2735WAT     H1 8724   2.923   7.353   1.640
 2735WAT     H2 8725   2.929   7.251   1.528
 2736WAT      O 8726   3.469   7.454   1.671
 2736WAT     H1 8727   3.384   7.424   1.704
 2736WAT     H2 8728   3.453   7.478   1.580
 2737WAT      O 8729   3.179   7.604   1.881
 2737WAT     H1 8730   3.211   7.521   1.847
 2737WAT     H2 8731   3.258   7.656   1.896
 2738WAT      O 8732   2.852   7.007   0.486
 2738WAT     H1 8733   2.790   7.007   0.559
 2738WAT     H2 8734   2.843   6.921   0.447
 2739WAT      O 8735   2.744   7.100   1.184
 2739WAT     H1 8736   2.774   7.190   1.176
 2739WAT     H2 8737   2.799   7.051   1.123
 2740WAT      O 8738   2.520   7.558   0.771
 2740WAT     H1 8739   2.497   7.536   0.861
 2740WAT     H2 8740   2.442   7.601   0.736
 2741WAT      O 8741   3.243   7.558   0.631
 2741WAT     H1 8742   3.183   7.631   0.612
 2741WAT     H2 8743   3.297   7.552   0.553
 2742WAT      O 8744   2.764   7.647   1.838
 2742WAT     H1 8745   2.754   7.553   1.823
 2742WAT     H2 8746   2.848   7.670   1.798
 2743WAT      O 8747   3.103   7.422   0.834
 2743WAT     H1 8748   3.143   7.454   0.753
 2743WAT     H2 8749   3.139   7.334   0.845
 2744WAT      O 8750   2.277   7.289   1.653
 2744WAT     H1 8751   2.237   7.373   1.674
 2744WAT     H2 8752   2.208   7.225   1.672
 2745WAT      O 8753   2.934   7.297   1.960
 2745WAT     H1 8754   2.865   7.278   2.023
 2745WAT     H2 8755   3.008   7.325   2.013
 2746WAT      O 8756   2.007   7.081   1.056
 2746WAT     H1 8757   1.978   7.138   1.127
 2746WAT     H2 8758   2.081   7.033   1.093
 2747WAT      O 8759   3.162   7.681   1.243
 2747WAT     H1 8760   3.089   7.732   1.278
 2747WAT     H2 8761   3.122   7.599   1.213
 2748WAT      O 8762   2.806   7.349   1.084
 2748WAT     H1 8763   2.806   7.304   0.999
 2748WAT     H2 8764   2.895   7.381   1.095
 2749WAT      O 8765   2.391   7.337   0.980
 2749WAT     H1 8766   2.357   7.385   1.056
 2749WAT     H2 8767   2.314   7.291   0.944
 2750WAT      O 8768   2.812   7.449   0.383
 2750WAT     H1 8769   2.824   7.444   0.478
 2750WAT     H2 8770   2.773   7.535   0.367
 2751WAT      O 8771   3.208   7.226   1.185
 2751WAT     H1 8772   3.210   7.271   1.269
 2751WAT     H2 8773   3.183   7.136   1.206
 2752WAT      O 8774   2.713   7.680   0.323
 2752WAT     H1 8775   2.656   7.635   0.260
 2752WAT     H2 8776   2.784   7.716   0.269
 2753WAT      O 8777   3.551   6.968   1.768
 2753WAT     H1 8778   3.583   6.895   1.821
 2753WAT     H2 8779   3.554   6.936   1.678
 2754WAT      O 8780   2.836   7.755   1.259
 2754WAT     H1 8781   2.872   7.707   1.333
 2754WAT     H2 8782   2.817   7.842   1.293
 2755WAT      O 8783   2.122   7.229   0.872
 2755WAT     H1 8784   2.094   7.193   0.955
 2755WAT     H2 8785   2.116   7.156   0.810
 2756WAT      O 8786   2.615   7.659   1.490
 2756WAT     H1 8787   2.584   7.747   1.513
 2756WAT     H2 8788   2.710   7.665   1.494
 2757WAT      O 8789   3.089   7.118   0.544
 2757WAT     H1 8790   3.008   7.068   0.536
 2757WAT     H2 8791   3.070   7.202   0.502
 2758WAT      O 8792   3.361   7.555   0.373
 2758WAT     H1 8793   3.450   7.587   0.356
 2758WAT     H2 8794   3.358   7.468   0.334
 2759WAT      O 8795   2.220   7.743   1.605
 2759WAT     H1 8796   2.184   7.809   1.664
 2759WAT     H2 8797   2.191   7.659   1.642
 2760WAT      O 8798   2.540   7.788   1.894
 2760WAT     H1 8799   2.510   7.803   1.804
 2760WAT     H2 8800   2.618   7.733   1.884
 2761WAT      O 8801   3.588   7.687   0.320
 2761WAT     H1 8802   3.580   7.730   0.235
 2761WAT     H2 8803   3.660   7.733   0.363
 2762WAT      O 8804   2.071   7.743   0.267
 2762WAT     H1 8805   2.158   7.771   0.296
 2762WAT     H2 8806   2.022   7.824   0.256
 2763WAT      O 8807   2.378   6.916   0.727
 2763WAT     H1 8808   2.365   6.915   0.822
 2763WAT     H2 8809   2.295   6.949   0.692
 2764WAT      O 8810   2.078   7.092   1.673
 2764WAT     H1 8811   2.006   7.112   1.733
 2764WAT     H2 8812   2.120   7.014   1.710
 2765WAT      O 8813   3.227   7.341   1.448
 2765WAT     H1 8814   3.264   7.259   1.481
 2765WAT     H2 8815   3.141   7.347   1.489
 2766WAT      O 8816   3.564   7.236   0.529
 2766WAT     H1 8817   3.501   7.247   0.457
 2766WAT     H2 8818   3.514   7.258   0.608
 2767WAT      O 8819   2.761   7.464   0.670
 2767WAT     H1 8820   2.690   7.511   0.714
 2767WAT     H2 8821   2.789   7.398   0.734
 2768WAT      O 8822   2.923   7.606   1.470
 2768WAT     H1 8823   2.973   7.654   1.537
 2768WAT     H2 8824   2.937   7.514   1.491
 2769WAT      O 8825   3.164   7.137   0.814
 2769WAT     H1 8826   3.151   7.139   0.719
 2769WAT     H2 8827   3.259   7.142   0.826
 2770WAT      O 8828   2.581   7.295   0.408
 2770WAT     H1 8829   2.666   7.339   0.401
 2770WAT     H2 8830   2.544   7.326   0.491
 2771WAT      O 8831   3.644   7.228   1.555
 2771WAT     H1 8832   3.594   7.302   1.588
 2771WAT     H2 8833   3.725   7.267   1.523
 2772WAT      O 8834   3.473   7.752   0.899
 2772WAT     H1 8835   3.379   7.754   0.917
 2772WAT     H2 8836   3.505   7.674   0.944
 2773WAT      O 8837   2.340   7.664   0.324
 2773WAT     H1 8838   2.348   7.569   0.335
 2773WAT     H2 8839   2.430   7.697   0.334
 2774WAT      O 8840   2.093   7.846   1.847
 2774WAT     H1 8841   2.143   7.788   1.904
 2774WAT     H2 8842   2.019   7.874   1.901
 2775WAT      O 8843   2.296   7.660   1.937
 2775WAT     H1 8844   2.300   7.630   2.027
 2775WAT     H2 8845   2.382   7.700   1.921
 2776WAT      O 8846   2.490   7.518   1.733
 2776WAT     H1 8847   2.437   7.469   1.671
 2776WAT     H2 8848   2.557   7.561   1.680
 2777WAT      O 8849   3.427   7.699   1.910
 2777WAT     H1 8850   3.486   7.623   1.901
 2777WAT     H2 8851   3.445   7.752   1.832
 2778WAT      O 8852   2.539   7.215   1.741
 2778WAT     H1 8853   2.530   7.153   1.669
 2778WAT     H2 8854   2.481   7.287   1.719
 2779WAT      O 8855   2.816   7.070   1.445
 2779WAT     H1 8856   2.771   7.073   1.360
 2779WAT     H2 8857   2.752   7.031   1.504
 2780WAT      O 8858   3.090   7.733   1.645
 2780WAT     H1 8859   3.102   7.673   1.719
 2780WAT     H2 8860   3.176   7.737   1.603
 2781WAT      O 8861   3.324   7.788   1.503
 2781WAT     H1 8862   3.271   7.841   1.442
 2781WAT     H2 8863   3.358   7.852   1.566
 2782WAT      O 8864   2.767   7.387   1.771
 2782WAT     H1 8865   2.826   7.356   1.840
 2782WAT     H2 8866   2.685   7.340   1.786
 2783WAT      O 8867   3.249   7.349   1.794
 2783WAT     H1 8868   3.180   7.283   1.788
 2783WAT     H2 8869   3.321   7.304   1.839
 2784WAT      O 8870   3.312   7.008   0.400
 2784WAT     H1 8871   3.340   6.924   0.436
 2784WAT     H2 8872   3.234   7.032   0.451
 2785WAT      O 8873   2.765   7.132   0.245
 2785WAT     H1 8874   2.731   7.064   0.187
 2785WAT     H2 8875   2.785   7.086   0.326
 2786WAT      O 8876   2.099   7.785   0.884
 2786WAT     H1 8877   2.034   7.758   0.820
 2786WAT     H2 8878   2.183   7.774   0.839
 2787WAT      O 8879   3.394   7.264   0.306
 2787WAT     H1 8880   3.436   7.245   0.222
 2787WAT     H2 8881   3.364   7.179   0.337
 2788WAT      O 8882   3.744   7.755   0.676
 2788WAT     H1 8883   3.707   7.679   0.633
 2788WAT     H2 8884   3.671   7.793   0.725
 2789WAT      O 8885   2.203   7.823   1.338
 2789WAT     H1 8886   2.240   7.814   1.426
 2789WAT     H2 8887   2.146   7.747   1.328
 2790WAT      O 8888   3.683   7.670   1.640
 2790WAT     H1 8889   3.660   7.647   1.549
 2790WAT     H2 8890   3.709   7.762   1.635
 2791WAT      O 8891   2.158   7.514   1.729
 2791WAT     H1 8892   2.069   7.511   1.763
 2791WAT     H2 8893   2.212   7.534   1.805
 2792WAT      O 8894   3.527   7.193   1.917
 2792WAT     H1 8895   3.615   7.193   1.956
 2792WAT     H2 8896   3.528   7.119   1.856
 2793WAT      O 8897   2.021   7.506   0.478
 2793WAT     H1 8898   1.930   7.532   0.461
 2793WAT     H2 8899   2.069   7.533   0.400
 2794WAT      O 8900   3.672   7.578   1.006
 2794WAT     H1 8901   3.724   7.528   0.943
 2794WAT     H2 8902   3.730   7.591   1.081
 2795WAT      O 8903   3.690   7.586   1.358
 2795WAT     H1 8904   3.595   7.583   1.370
 2795WAT     H2 8905   3.708   7.677   1.335
 2796WAT      O 8906   2.275   7.411   0.269
 2796WAT     H1 8907   2.346   7.369   0.221
 2796WAT     H2 8908   2.203   7.418   0.206
 2797WAT      O 8909   3.621   7.504   0.600
 2797WAT     H1 8910   3.670   7.480   0.679
 2797WAT     H2 8911   3.601   7.420   0.558
 2798WAT      O 8912   2.209   6.942   1.164
 2798WAT     H1 8913   2.273   6.887   1.120
 2798WAT     H2 8914   2.251   6.967   1.246
 2799WAT      O 8915   3.764   7.367   0.853
 2799WAT     H1 8916   3.753   7.352   0.947
 2799WAT     H2 8917   3.840   7.314   0.829
 2800WAT      O 8918   3.598   6.961   1.499
 2800WAT     H1 8919   3.662   7.022   1.536
 2800WAT     H2 8920   3.613   6.965   1.405
 2801WAT      O 8921   3.852   7.150   0.178
 2801WAT     H1 8922   3.945   7.137   0.157
 2801WAT     H2 8923   3.850   7.158   0.273
 2802WAT      O 8924   3.860   7.227   0.440
 2802WAT     H1 8925   3.780   7.221   0.493
 2802WAT     H2 8926   3.880   7.321   0.439
 2803WAT      O 8927   2.184   6.957   1.438
 2803WAT     H1 8928   2.149   7.003   1.514
 2803WAT     H2 8929   2.151   6.868   1.446
 2804WAT      O 8930   2.935   7.076   1.790
 2804WAT     H1 8931   2.929   7.136   1.865
 2804WAT     H2 8932   3.029   7.066   1.776
 2805WAT      O 8933   3.199   7.042   1.754
 2805WAT     H1 8934   3.260   7.074   1.688
 2805WAT     H2 8935   3.254   6.994   1.816
 2806WAT      O 8936   2.251   6.910   1.765
 2806WAT     H1 8937   2.306   6.892   1.689
 2806WAT     H2 8938   2.258   6.831   1.819
 2807WAT      O 8939   3.273   6.898   1.387
 2807WAT     H1 8940   3.186   6.932   1.366
 2807WAT     H2 8941   3.262   6.851   1.469
 2808WAT      O 8942   3.364   7.119   1.525
 2808WAT     H1 8943   3.331   7.038   1.487
 2808WAT     H2 8944   3.459   7.115   1.513
 2809WAT      O 8945   3.048   6.990   1.281
 2809WAT     H1 8946   2.970   7.038   1.309
 2809WAT     H2 8947   3.018   6.900   1.270
 2810WAT      O 8948   3.503   7.060   1.085
 2810WAT     H1 8949   3.547   7.055   1.000
 2810WAT     H2 8950   3.476   7.152   1.092
 2811WAT      O 8951   3.689   7.023   0.886
 2811WAT     H1 8952   3.683   6.929   0.872
 2811WAT     H2 8953   3.767   7.034   0.941
 2812WAT      O 8954   2.182   7.021   0.533
 2812WAT     H1 8955   2.258   7.032   0.475
 2812WAT     H2 8956   2.136   7.104   0.528
 2813WAT      O 8957   2.836   7.232   0.832
 2813WAT     H1 8958   2.755   7.195   0.798
 2813WAT     H2 8959   2.887   7.156   0.862
 2814WAT      O 8960   3.287   6.898   0.956
 2814WAT     H1 8961   3.347   6.956   1.003
 2814WAT     H2 8962   3.213   6.955   0.933
 2815WAT      O 8963   3.601   6.939   0.483
 2815WAT     H1 8964   3.620   7.028   0.510
 2815WAT     H2 8965   3.522   6.915   0.532
 2816WAT      O 8966   2.420   7.073   0.387
 2816WAT     H1 8967   2.472   6.995   0.374
 2816WAT     H2 8968   2.483   7.141   0.410
 2817WAT      O 8969   2.639   7.047   0.692
 2817WAT     H1 8970   2.576   6.977   0.709
 2817WAT     H2 8971   2.585   7.123   0.671
 2818WAT      O 8972   2.651   6.975   1.936
 2818WAT     H1 8973   2.623   7.025   1.859
 2818WAT     H2 8974   2.690   6.895   1.899
 2819WAT      O 8975   3.312   6.916   1.994
 2819WAT     H1 8976   3.300   6.948   2.083
 2819WAT     H2 8977   3.393   6.956   1.964
 2820WAT      O 8978   3.202   5.841   4.662
 2820WAT     H1 8979   3.194   5.749   4.635
 2820WAT     H2 8980   3.161   5.891   4.592
 2821WAT      O 8981   3.015   6.019   4.850
 2821WAT     H1 8982   2.938   5.971   4.879
 2821WAT     H2 8983   3.080   5.951   4.833
 2822WAT      O 8984   2.417   6.050   4.938
 2822WAT     H1 8985   2.334   6.024   4.978
 2822WAT     H2 8986   2.478   6.057   5.012
 2823WAT      O 8987   3.417   6.459   4.728
 2823WAT     H1 8988   3.371   6.382   4.761
 2823WAT     H2 8989   3.499   6.462   4.779
 2824WAT      O 8990   2.415   6.453   4.958
 2824WAT     H1 8991   2.445   6.364   4.940
 2824WAT     H2 8992   2.489   6.509   4.935
 2825WAT      O 8993   2.258   5.546   4.316
 2825WAT     H1 8994   2.169   5.580   4.306
 2825WAT     H2 8995   2.286   5.526   4.227
 2826WAT      O 8996   2.054   5.806   4.905
 2826WAT     H1 8997   2.111   5.729   4.905
 2826WAT     H2 8998   2.054   5.836   4.814
 2827WAT      O 8999   3.040   6.688   4.690
 2827WAT     H1 9000   2.978   6.733   4.633
 2827WAT     H2 9001   3.126   6.703   4.650
 2828WAT      O 9002   2.959   6.286   4.851
 2828WAT     H1 9003   2.953   6.192   4.835
 2828WAT     H2 9004   3.036   6.295   4.908
 2829WAT      O 9005   2.179   5.347   5.084
 2829WAT     H1 9006   2.161   5.257   5.112
 2829WAT     H2 9007   2.138   5.401   5.151
 2830WAT      O 9008   3.062   5.567   4.874
 2830WAT     H1 9009   3.100   5.480   4.862
 2830WAT     H2 9010   3.053   5.600   4.785
 2831WAT      O 9011   2.476   5.404   4.420
 2831WAT     H1 9012   2.486   5.494   4.451
 2831WAT     H2 9013   2.384   5.399   4.391
 2832WAT      O 9014   3.441   5.316   4.567
 2832WAT     H1 9015   3.523   5.267   4.571
 2832WAT     H2 9016   3.444   5.375   4.642
 2833WAT      O 9017   2.240   5.596   4.944
 2833WAT     H1 9018   2.308   5.623   5.006
 2833WAT     H2 9019   2.209   5.512   4.978
 2834WAT      O 9020   2.660   5.701   4.853
 2834WAT     H1 9021   2.710   5.751   4.917
 2834WAT     H2 9022   2.713   5.623   4.836
 2835WAT      O 9023   3.870   5.518   5.223
 2835WAT     H1 9024   3.799   5.557   5.172
 2835WAT     H2 9025   3.896   5.588   5.284
 2836WAT      O 9026   2.488   5.165   5.280
 2836WAT     H1 9027   2.488   5.217   5.199
 2836WAT     H2 9028   2.405   5.117   5.277
 2837WAT      O 9029   3.127   6.176   4.430
 2837WAT     H1 9030   3.065   6.223   4.373
 2837WAT     H2 9031   3.178   6.245   4.471
 2838WAT      O 9032   2.613   6.129   5.097
 2838WAT     H1 9033   2.580   6.192   5.162
 2838WAT     H2 9034   2.631   6.182   5.020
 2839WAT      O 9035   3.464   5.510   4.844
 2839WAT     H1 9036   3.394   5.539   4.902
 2839WAT     H2 9037   3.500   5.591   4.808
 2840WAT      O 9038   2.456   5.336   5.080
 2840WAT     H1 9039   2.490   5.421   5.051
 2840WAT     H2 9040   2.362   5.351   5.092
 2841WAT      O 9041   2.534   6.326   5.279
 2841WAT     H1 9042   2.596   6.393   5.251
 2841WAT     H2 9043   2.448   6.367   5.270
 2842WAT      O 9044   2.064   6.245   4.167
 2842WAT     H1 9045   2.026   6.294   4.094
 2842WAT     H2 9046   2.089   6.312   4.230
 2843WAT      O 9047   3.626   6.472   5.071
 2843WAT     H1 9048   3.558   6.539   5.070
 2843WAT     H2 9049   3.680   6.492   4.994
 2844WAT      O 9050   3.771   5.455   4.883
 2844WAT     H1 9051   3.676   5.458   4.897
 2844WAT     H2 9052   3.804   5.536   4.922
 2845WAT      O 9053   2.824   5.085   4.713
 2845WAT     H1 9054   2.855   5.029   4.641
 2845WAT     H2 9055   2.731   5.098   4.695
 2846WAT      O 9056   3.380   6.657   4.942
 2846WAT     H1 9057   3.381   6.616   4.855
 2846WAT     H2 9058   3.324   6.734   4.932
 2847WAT      O 9059   3.509   6.329   4.451
 2847WAT     H1 9060   3.498   6.235   4.463
 2847WAT     H2 9061   3.509   6.365   4.540
 2848WAT      O 9062   3.319   6.147   5.075
 2848WAT     H1 9063   3.361   6.126   4.991
 2848WAT     H2 9064   3.392   6.173   5.132
 2849WAT      O 9065   3.063   5.891   4.387
 2849WAT     H1 9066   2.971   5.885   4.409
 2849WAT     H2 9067   3.078   5.985   4.375
 2850WAT      O 9068   3.062   5.519   4.086
 2850WAT     H1 9069   2.968   5.535   4.095
 2850WAT     H2 9070   3.094   5.590   4.032
 2851WAT      O 9071   3.714   5.987   5.084
 2851WAT     H1 9072   3.631   5.994   5.036
 2851WAT     H2 9073   3.774   6.045   5.037
 2852WAT      O 9074   3.466   6.048   4.437
 2852WAT     H1 9075   3.404   6.014   4.372
 2852WAT     H2 9076   3.464   5.983   4.508
 2853WAT      O 9077   3.410   5.665   5.179
 2853WAT     H1 9078   3.369   5.748   5.204
 2853WAT     H2 9079   3.337   5.607   5.159
 2854WAT      O 9080   2.624   5.944   4.665
 2854WAT     H1 9081   2.583   5.873   4.615
 2854WAT     H2 9082   2.632   5.910   4.754
 2855WAT      O 9083   2.671   6.313   4.881
 2855WAT     H1 9084   2.641   6.252   4.813
 2855WAT     H2 9085   2.766   6.317   4.870
 2856WAT      O 9086   2.495   5.621   5.043
 2856WAT     H1 9087   2.550   5.632   4.965
 2856WAT     H2 9088   2.547   5.659   5.114
 2857WAT      O 9089   3.479   6.670   5.247
 2857WAT     H1 9090   3.432   6.751   5.228
 2857WAT     H2 9091   3.411   6.605   5.263
 2858WAT      O 9092   2.580   6.287   5.546
 2858WAT     H1 9093   2.490   6.309   5.571
 2858WAT     H2 9094   2.582   6.299   5.451
 2859WAT      O 9095   3.284   5.971   4.138
 2859WAT     H1 9096   3.328   5.888   4.123
 2859WAT     H2 9097   3.355   6.035   4.146
 2860WAT      O 9098   2.463   5.974   5.404
 2860WAT     H1 9099   2.449   6.061   5.441
 2860WAT     H2 9100   2.374   5.939   5.389
 2861WAT      O 9101   3.095   6.465   4.534
 2861WAT     H1 9102   3.139   6.540   4.493
 2861WAT     H2 9103   3.089   6.490   4.627
 2862WAT      O 9104   2.642   6.568   5.625
 2862WAT     H1 9105   2.639   6.608   5.538
 2862WAT     H2 9106   2.626   6.475   5.608
 2863WAT      O 9107   3.642   5.097   3.969
 2863WAT     H1 9108   3.611   5.106   4.059
 2863WAT     H2 9109   3.718   5.155   3.964
 2864WAT      O 9110   2.294   5.834   4.415
 2864WAT     H1 9111   2.282   5.906   4.354
 2864WAT     H2 9112   2.263   5.757   4.367
 2865WAT      O 9113   2.058   6.151   4.995
 2865WAT     H1 9114   2.065   6.164   4.901
 2865WAT     H2 9115   2.119   6.080   5.015
 2866WAT      O 9116   2.182   6.321   4.637
 2866WAT     H1 9117   2.141   6.335   4.551
 2866WAT     H2 9118   2.271   6.292   4.616
 2867WAT      O 9119   3.778   6.365   5.470
 2867WAT     H1 9120   3.790   6.341   5.378
 2867WAT     H2 9121   3.782   6.282   5.517
 2868WAT      O 9122   3.164   6.736   5.327
 2868WAT     H1 9123   3.215   6.727   5.407
 2868WAT     H2 9124   3.080   6.770   5.356
 2869WAT      O 9125   3.362   6.764   4.270
 2869WAT     H1 9126   3.346   6.735   4.360
 2869WAT     H2 9127   3.345   6.687   4.216
 2870WAT      O 9128   2.609   6.742   4.448
 2870WAT     H1 9129   2.592   6.650   4.426
 2870WAT     H2 9130   2.524   6.778   4.472
 2871WAT      O 9131   3.332   6.515   4.126
 2871WAT     H1 9132   3.262   6.515   4.060
 2871WAT     H2 9133   3.406   6.473   4.083
 2872WAT      O 9134   3.288   6.678   4.533
 2872WAT     H1 9135   3.334   6.600   4.565
 2872WAT     H2 9136   3.322   6.749   4.588
 2873WAT      O 9137   3.763   5.571   5.567
 2873WAT     H1 9138   3.701   5.621   5.514
 2873WAT     H2 9139   3.731   5.481   5.561
 2874WAT      O 9140   2.063   6.255   5.249
 2874WAT     H1 9141   2.080   6.208   5.168
 2874WAT     H2 9142   2.110   6.204   5.316
 2875WAT      O 9143   2.540   5.168   4.753
 2875WAT     H1 9144   2.496   5.246   4.720
 2875WAT     H2 9145   2.596   5.200   4.824
 2876WAT      O 9146   2.969   5.455   5.313
 2876WAT     H1 9147   2.923   5.475   5.395
 2876WAT     H2 9148   2.929   5.373   5.283
 2877WAT      O 9149   3.469   5.577   5.426
 2877WAT     H1 9150   3.384   5.547   5.458
 2877WAT     H2 9151   3.453   5.601   5.335
 2878WAT      O 9152   3.179   5.727   5.636
 2878WAT     H1 9153   3.211   5.643   5.602
 2878WAT     H2 9154   3.258   5.779   5.651
 2879WAT      O 9155   2.852   5.130   4.241
 2879WAT     H1 9156   2.790   5.130   4.314
 2879WAT     H2 9157   2.843   5.043   4.201
 2880WAT      O 9158   2.744   5.222   4.939
 2880WAT     H1 9159   2.774   5.313   4.931
 2880WAT     H2 9160   2.799   5.174   4.878
 2881WAT      O 9161   2.520   5.680   4.526
 2881WAT     H1 9162   2.497   5.659   4.616
 2881WAT     H2 9163   2.442   5.723   4.491
 2882WAT      O 9164   3.243   5.681   4.386
 2882WAT     H1 9165   3.183   5.753   4.367
 2882WAT     H2 9166   3.297   5.675   4.307
 2883WAT      O 9167   2.764   5.770   5.592
 2883WAT     H1 9168   2.754   5.676   5.577
 2883WAT     H2 9169   2.848   5.792   5.553
 2884WAT      O 9170   3.103   5.544   4.589
 2884WAT     H1 9171   3.143   5.576   4.507
 2884WAT     H2 9172   3.139   5.457   4.600
 2885WAT      O 9173   2.277   5.411   5.408
 2885WAT     H1 9174   2.237   5.496   5.428
 2885WAT     H2 9175   2.208   5.347   5.427
 2886WAT      O 9176   2.007   5.203   4.811
 2886WAT     H1 9177   1.978   5.261   4.882
 2886WAT     H2 9178   2.081   5.156   4.847
 2887WAT      O 9179   2.026   5.598   3.932
 2887WAT     H1 9180   2.017   5.692   3.946
 2887WAT     H2 9181   1.990   5.583   3.844
 2888WAT      O 9182   3.162   5.804   4.998
 2888WAT     H1 9183   3.089   5.854   5.033
 2888WAT     H2 9184   3.122   5.722   4.968
 2889WAT      O 9185   2.806   5.471   4.839
 2889WAT     H1 9186   2.806   5.427   4.754
 2889WAT     H2 9187   2.895   5.503   4.850
 2890WAT      O 9188   2.391   5.459   4.735
 2890WAT     H1 9189   2.357   5.507   4.810
 2890WAT     H2 9190   2.314   5.414   4.699
 2891WAT      O 9191   2.812   5.571   4.138
 2891WAT     H1 9192   2.824   5.567   4.233
 2891WAT     H2 9193   2.773   5.657   4.122
 2892WAT      O 9194   3.208   5.349   4.940
 2892WAT     H1 9195   3.210   5.394   5.024
 2892WAT     H2 9196   3.183   5.259   4.961
 2893WAT      O 9197   2.713   5.802   4.078
 2893WAT     H1 9198   2.656   5.757   4.015
 2893WAT     H2 9199   2.784   5.838   4.024
 2894WAT      O 9200   3.551   5.090   5.523
 2894WAT     H1 9201   3.583   5.017   5.576
 2894WAT     H2 9202   3.554   5.058   5.433
 2895WAT      O 9203   2.221   6.192   5.465
 2895WAT     H1 9204   2.182   6.128   5.525
 2895WAT     H2 9205   2.252   6.263   5.522
 2896WAT      O 9206   2.836   5.877   5.013
 2896WAT     H1 9207   2.872   5.830   5.088
 2896WAT     H2 9208   2.817   5.965   5.048
 2897WAT      O 9209   2.122   5.352   4.626
 2897WAT     H1 9210   2.094   5.315   4.710
 2897WAT     H2 9211   2.116   5.278   4.565
 2898WAT      O 9212   2.615   5.781   5.245
 2898WAT     H1 9213   2.584   5.869   5.268
 2898WAT     H2 9214   2.710   5.787   5.249
 2899WAT      O 9215   2.467   6.202   4.305
 2899WAT     H1 9216   2.390   6.148   4.289
 2899WAT     H2 9217   2.540   6.150   4.271
 2900WAT      O 9218   3.543   6.101   4.884
 2900WAT     H1 9219   3.615   6.151   4.845
 2900WAT     H2 9220   3.523   6.034   4.820
 2901WAT      O 9221   3.089   5.241   4.299
 2901WAT     H1 9222   3.008   5.191   4.291
 2901WAT     H2 9223   3.070   5.325   4.257
 2902WAT      O 9224   3.082   6.109   5.473
 2902WAT     H1 9225   3.075   6.016   5.447
 2902WAT     H2 9226   3.019   6.118   5.544
 2903WAT      O 9227   3.361   5.678   4.128
 2903WAT     H1 9228   3.450   5.709   4.111
 2903WAT     H2 9229   3.358   5.591   4.089
 2904WAT      O 9230   2.472   6.169   4.669
 2904WAT     H1 9231   2.524   6.088   4.663
 2904WAT     H2 9232   2.427   6.162   4.753
 2905WAT      O 9233   2.961   6.295   4.196
 2905WAT     H1 9234   2.995   6.370   4.146
 2905WAT     H2 9235   2.878   6.327   4.232
 2906WAT      O 9236   2.220   5.865   5.360
 2906WAT     H1 9237   2.184   5.932   5.419
 2906WAT     H2 9238   2.191   5.782   5.397
 2907WAT      O 9239   2.540   5.911   5.648
 2907WAT     H1 9240   2.510   5.926   5.559
 2907WAT     H2 9241   2.618   5.855   5.639
 2908WAT      O 9242   3.075   6.391   5.448
 2908WAT     H1 9243   3.076   6.298   5.426
 2908WAT     H2 9244   3.004   6.399   5.512
 2909WAT      O 9245   3.588   5.809   4.075
 2909WAT     H1 9246   3.580   5.852   3.990
 2909WAT     H2 9247   3.660   5.855   4.118
 2910WAT      O 9248   3.696   6.055   5.383
 2910WAT     H1 9249   3.623   6.114   5.363
 2910WAT     H2 9250   3.749   6.054   5.303
 2911WAT      O 9251   3.691   6.495   4.348
 2911WAT     H1 9252   3.627   6.429   4.375
 2911WAT     H2 9253   3.652   6.535   4.270
 2912WAT      O 9254   3.249   6.227   4.732
 2912WAT     H1 9255   3.284   6.168   4.666
 2912WAT     H2 9256   3.160   6.195   4.750
 2913WAT      O 9257   2.857   6.303   4.473
 2913WAT     H1 9258   2.926   6.358   4.511
 2913WAT     H2 9259   2.779   6.358   4.477
 2914WAT      O 9260   2.071   5.865   4.022
 2914WAT     H1 9261   2.158   5.893   4.051
 2914WAT     H2 9262   2.022   5.946   4.011
 2915WAT      O 9263   2.788   6.004   4.434
 2915WAT     H1 9264   2.833   6.085   4.457
 2915WAT     H2 9265   2.753   5.972   4.518
 2916WAT      O 9266   3.018   6.555   5.157
 2916WAT     H1 9267   3.082   6.576   5.225
 2916WAT     H2 9268   3.054   6.479   5.112
 2917WAT      O 9269   2.378   5.038   4.482
 2917WAT     H1 9270   2.365   5.037   4.577
 2917WAT     H2 9271   2.295   5.072   4.447
 2918WAT      O 9272   3.145   6.355   5.029
 2918WAT     H1 9273   3.210   6.285   5.040
 2918WAT     H2 9274   3.198   6.433   5.011
 2919WAT      O 9275   3.530   6.384   4.002
 2919WAT     H1 9276   3.507   6.312   4.061
 2919WAT     H2 9277   3.491   6.359   3.918
 2920WAT      O 9278   3.323   6.435   5.349
 2920WAT     H1 9279   3.356   6.494   5.417
 2920WAT     H2 9280   3.231   6.422   5.372
 2921WAT      O 9281   2.108   6.786   4.079
 2921WAT     H1 9282   2.144   6.846   4.014
 2921WAT     H2 9283   2.094   6.841   4.156
 2922WAT      O 9284   2.078   5.214   5.428
 2922WAT     H1 9285   2.006   5.234   5.488
 2922WAT     H2 9286   2.120   5.137   5.465
 2923WAT      O 9287   3.488   6.175   4.168
 2923WAT     H1 9288   3.459   6.222   4.246
 2923WAT     H2 9289   3.568   6.129   4.195
 2924WAT      O 9290   2.106   6.613   5.526
 2924WAT     H1 9291   2.117   6.519   5.512
 2924WAT     H2 9292   2.041   6.639   5.462
 2925WAT      O 9293   2.906   6.440   5.666
 2925WAT     H1 9294   2.874   6.368   5.721
 2925WAT     H2 9295   2.838   6.508   5.674
 2926WAT      O 9296   2.710   6.525   4.161
 2926WAT     H1 9297   2.709   6.598   4.099
 2926WAT     H2 9298   2.618   6.500   4.170
 2927WAT      O 9299   2.270   6.047   4.235
 2927WAT     H1 9300   2.209   6.121   4.236
 2927WAT     H2 9301   2.317   6.056   4.153
 2928WAT      O 9302   3.227   5.463   5.203
 2928WAT     H1 9303   3.264   5.381   5.236
 2928WAT     H2 9304   3.141   5.469   5.244
 2929WAT      O 9305   3.564   5.359   4.284
 2929WAT     H1 9306   3.501   5.369   4.212
 2929WAT     H2 9307   3.514   5.381   4.363
 2930WAT      O 9308   3.008   6.531   4.027
 2930WAT     H1 9309   3.018   6.511   3.934
 2930WAT     H2 9310   2.918   6.506   4.047
 2931WAT      O 9311   2.761   5.587   4.425
 2931WAT     H1 9312   2.690   5.634   4.469
 2931WAT     H2 9313   2.789   5.521   4.489
 2932WAT      O 9314   2.923   5.729   5.225
 2932WAT     H1 9315   2.973   5.776   5.292
 2932WAT     H2 9316   2.937   5.636   5.246
 2933WAT      O 9317   3.164   5.259   4.569
 2933WAT     H1 9318   3.151   5.261   4.474
 2933WAT     H2 9319   3.259   5.264   4.581
 2934WAT      O 9320   2.873   6.783   4.496
 2934WAT     H1 9321   2.898   6.779   4.404
 2934WAT     H2 9322   2.778   6.770   4.496
 2935WAT      O 9323   2.581   5.418   4.163
 2935WAT     H1 9324   2.666   5.461   4.156
 2935WAT     H2 9325   2.544   5.449   4.245
 2936WAT      O 9326   3.644   5.350   5.309
 2936WAT     H1 9327   3.594   5.424   5.343
 2936WAT     H2 9328   3.725   5.389   5.278
 2937WAT      O 9329   3.473   5.875   4.654
 2937WAT     H1 9330   3.379   5.876   4.671
 2937WAT     H2 9331   3.505   5.796   4.699
 2938WAT      O 9332   2.471   6.043   4.010
 2938WAT     H1 9333   2.548   6.032   4.066
 2938WAT     H2 9334   2.479   5.973   3.945
 2939WAT      O 9335   2.340   5.786   4.078
 2939WAT     H1 9336   2.348   5.691   4.090
 2939WAT     H2 9337   2.430   5.819   4.089
 2940WAT      O 9338   3.673   6.592   4.822
 2940WAT     H1 9339   3.686   6.674   4.869
 2940WAT     H2 9340   3.760   6.571   4.787
 2941WAT      O 9341   2.420   6.801   4.789
 2941WAT     H1 9342   2.494   6.746   4.816
 2941WAT     H2 9343   2.459   6.888   4.775
 2942WAT      O 9344   2.109   6.408   4.376
 2942WAT     H1 9345   2.016   6.432   4.375
 2942WAT     H2 9346   2.156   6.491   4.364
 2943WAT      O 9347   2.732   6.718   3.971
 2943WAT     H1 9348   2.811   6.747   3.926
 2943WAT     H2 9349   2.680   6.675   3.903
 2944WAT      O 9350   3.348   6.703   5.563
 2944WAT     H1 9351   3.443   6.695   5.558
 2944WAT     H2 9352   3.333   6.770   5.631
 2945WAT      O 9353   3.637   6.641   4.113
 2945WAT     H1 9354   3.608   6.600   4.032
 2945WAT     H2 9355   3.617   6.734   4.101
 2946WAT      O 9356   2.093   5.968   5.602
 2946WAT     H1 9357   2.143   5.910   5.659
 2946WAT     H2 9358   2.019   5.997   5.656
 2947WAT      O 9359   2.783   6.241   3.957
 2947WAT     H1 9360   2.773   6.179   4.030
 2947WAT     H2 9361   2.767   6.188   3.879
 2948WAT      O 9362   2.798   6.109   5.555
 2948WAT     H1 9363   2.722   6.166   5.547
 2948WAT     H2 9364   2.817   6.080   5.466
 2949WAT      O 9365   3.107   6.147   4.018
 2949WAT     H1 9366   3.052   6.191   4.082
 2949WAT     H2 9367   3.170   6.096   4.070
 2950WAT      O 9368   3.513   6.282   5.611
 2950WAT     H1 9369   3.587   6.316   5.561
 2950WAT     H2 9370   3.436   6.299   5.556
 2951WAT      O 9371   2.674   6.043   4.207
 2951WAT     H1 9372   2.716   6.026   4.292
 2951WAT     H2 9373   2.687   5.962   4.158
 2952WAT      O 9374   2.490   5.641   5.488
 2952WAT     H1 9375   2.437   5.591   5.425
 2952WAT     H2 9376   2.557   5.683   5.435
 2953WAT      O 9377   2.925   5.945   3.932
 2953WAT     H1 9378   2.977   5.873   3.896
 2953WAT     H2 9379   2.990   6.009   3.962
 2954WAT      O 9380   3.380   6.087   5.465
 2954WAT     H1 9381   3.422   6.103   5.550
 2954WAT     H2 9382   3.287   6.100   5.481
 2955WAT      O 9383   3.427   5.821   5.665
 2955WAT     H1 9384   3.486   5.746   5.656
 2955WAT     H2 9385   3.445   5.874   5.587
 2956WAT      O 9386   2.539   5.337   5.496
 2956WAT     H1 9387   2.530   5.275   5.424
 2956WAT     H2 9388   2.481   5.410   5.473
 2957WAT      O 9389   2.816   5.193   5.199
 2957WAT     H1 9390   2.771   5.195   5.115
 2957WAT     H2 9391   2.752   5.153   5.259
 2958WAT      O 9392   2.856   6.082   5.262
 2958WAT     H1 9393   2.898   6.167   5.244
 2958WAT     H2 9394   2.764   6.096   5.239
 2959WAT      O 9395   3.090   5.856   5.400
 2959WAT     H1 9396   3.102   5.796   5.474
 2959WAT     H2 9397   3.176   5.859   5.358
 2960WAT      O 9398   3.324   5.911   5.258
 2960WAT     H1 9399   3.271   5.963   5.197
 2960WAT     H2 9400   3.358   5.974   5.321
 2961WAT      O 9401   2.564   5.650   3.902
 2961WAT     H1 9402   2.544   5.564   3.938
 2961WAT     H2 9403   2.547   5.641   3.808
 2962WAT      O 9404   2.641   6.713   5.373
 2962WAT     H1 9405   2.588   6.785   5.341
 2962WAT     H2 9406   2.667   6.665   5.294
 2963WAT      O 9407   2.767   5.510   5.526
 2963WAT     H1 9408   2.826   5.479   5.594
 2963WAT     H2 9409   2.685   5.463   5.541
 2964WAT      O 9410   3.249   5.472   5.549
 2964WAT     H1 9411   3.180   5.405   5.543
 2964WAT     H2 9412   3.321   5.427   5.594
 2965WAT      O 9413   3.312   5.131   4.155
 2965WAT     H1 9414   3.340   5.047   4.191
 2965WAT     H2 9415   3.234   5.154   4.206
 2966WAT      O 9416   2.443   5.360   3.901
 2966WAT     H1 9417   2.474   5.361   3.810
 2966WAT     H2 9418   2.517   5.325   3.951
 2967WAT      O 9419   2.927   6.837   5.399
 2967WAT     H1 9420   2.920   6.927   5.430
 2967WAT     H2 9421   2.837   6.805   5.396
 2968WAT      O 9422   2.765   5.254   3.999
 2968WAT     H1 9423   2.731   5.187   3.941
 2968WAT     H2 9424   2.785   5.208   4.081
 2969WAT      O 9425   2.982   6.753   4.161
 2969WAT     H1 9426   3.071   6.787   4.163
 2969WAT     H2 9427   2.985   6.681   4.099
 2970WAT      O 9428   2.346   6.290   3.984
 2970WAT     H1 9429   2.390   6.345   4.050
 2970WAT     H2 9430   2.394   6.208   3.985
 2971WAT      O 9431   2.067   6.569   4.729
 2971WAT     H1 9432   2.100   6.482   4.706
 2971WAT     H2 9433   2.110   6.590   4.812
 2972WAT      O 9434   2.527   6.402   4.495
 2972WAT     H1 9435   2.497   6.390   4.585
 2972WAT     H2 9436   2.516   6.316   4.455
 2973WAT      O 9437   2.116   6.656   5.003
 2973WAT     H1 9438   2.072   6.674   5.086
 2973WAT     H2 9439   2.173   6.732   4.989
 2974WAT      O 9440   3.680   6.606   5.432
 2974WAT     H1 9441   3.620   6.612   5.358
 2974WAT     H2 9442   3.693   6.512   5.445
 2975WAT      O 9443   3.804   6.380   3.966
 2975WAT     H1 9444   3.721   6.387   4.013
 2975WAT     H2 9445   3.822   6.469   3.935
 2976WAT      O 9446   3.749   6.055   4.216
 2976WAT     H1 9447   3.826   6.112   4.227
 2976WAT     H2 9448   3.751   5.998   4.293
 2977WAT      O 9449   2.099   5.907   4.639
 2977WAT     H1 9450   2.034   5.880   4.575
 2977WAT     H2 9451   2.183   5.896   4.594
 2978WAT      O 9452   3.850   6.140   4.700
 2978WAT     H1 9453   3.887   6.062   4.660
 2978WAT     H2 9454   3.914   6.209   4.683
 2979WAT      O 9455   3.548   6.279   5.242
 2979WAT     H1 9456   3.467   6.322   5.268
 2979WAT     H2 9457   3.589   6.340   5.180
 2980WAT      O 9458   3.755   6.084   3.932
 2980WAT     H1 9459   3.782   6.175   3.919
 2980WAT     H2 9460   3.736   6.078   4.025
 2981WAT      O 9461   3.394   5.387   4.061
 2981WAT     H1 9462   3.436   5.368   3.977
 2981WAT     H2 9463   3.364   5.301   4.092
 2982WAT      O 9464   3.744   5.878   4.431
 2982WAT     H1 9465   3.707   5.801   4.388
 2982WAT     H2 9466   3.671   5.916   4.480
 2983WAT      O 9467   2.203   5.946   5.093
 2983WAT     H1 9468   2.240   5.937   5.181
 2983WAT     H2 9469   2.146   5.869   5.083
 2984WAT      O 9470   3.683   5.793   5.394
 2984WAT     H1 9471   3.660   5.770   5.304
 2984WAT     H2 9472   3.709   5.885   5.390
 2985WAT      O 9473   2.158   5.637   5.484
 2985WAT     H1 9474   2.069   5.633   5.518
 2985WAT     H2 9475   2.212   5.657   5.560
 2986WAT      O 9476   3.527   5.315   5.672
 2986WAT     H1 9477   3.615   5.316   5.711
 2986WAT     H2 9478   3.528   5.241   5.611
 2987WAT      O 9479   2.021   5.628   4.233
 2987WAT     H1 9480   1.930   5.654   4.216
 2987WAT     H2 9481   2.069   5.655   4.155
 2988WAT      O 9482   3.672   5.700   4.761
 2988WAT     H1 9483   3.724   5.651   4.698
 2988WAT     H2 9484   3.730   5.714   4.836
 2989WAT      O 9485   3.690   5.709   5.113
 2989WAT     H1 9486   3.595   5.705   5.125
 2989WAT     H2 9487   3.708   5.800   5.090
 2990WAT      O 9488   2.275   5.534   4.024
 2990WAT     H1 9489   2.346   5.492   3.976
 2990WAT     H2 9490   2.203   5.541   3.961
 2991WAT      O 9491   2.240   5.139   3.928
 2991WAT     H1 9492   2.312   5.193   3.960
 2991WAT     H2 9493   2.267   5.112   3.841
 2992WAT      O 9494   3.621   5.626   4.355
 2992WAT     H1 9495   3.670   5.603   4.433
 2992WAT     H2 9496   3.601   5.542   4.313
 2993WAT      O 9497   2.209   5.064   4.919
 2993WAT     H1 9498   2.273   5.009   4.874
 2993WAT     H2 9499   2.251   5.090   5.001
 2994WAT      O 9500   3.764   5.490   4.608
 2994WAT     H1 9501   3.753   5.474   4.702
 2994WAT     H2 9502   3.840   5.437   4.584
 2995WAT      O 9503   3.598   5.084   5.254
 2995WAT     H1 9504   3.662   5.145   5.291
 2995WAT     H2 9505   3.613   5.087   5.160
 2996WAT      O 9506   3.852   5.273   3.932
 2996WAT     H1 9507   3.945   5.260   3.912
 2996WAT     H2 9508   3.850   5.281   4.028
 2997WAT      O 9509   3.860   5.350   4.195
 2997WAT     H1 9510   3.780   5.343   4.248
 2997WAT     H2 9511   3.880   5.443   4.194
 2998WAT      O 9512   3.554   6.754   4.594
 2998WAT     H1 9513   3.614   6.722   4.527
 2998WAT     H2 9514   3.580   6.707   4.674
 2999WAT      O 9515   2.184   5.080   5.193
 2999WAT     H1 9516   2.149   5.125   5.269
 2999WAT     H2 9517   2.151   4.990   5.201
 3000WAT      O 9518   2.345   6.397   5.609
 3000WAT     H1 9519   2.340   6.360   5.697
 3000WAT     H2 9520   2.358   6.491   5.623
 3001WAT      O 9521   2.715   6.553   5.169
 3001WAT     H1 9522   2.691   6.579   5.081
 3001WAT     H2 9523   2.809   6.570   5.175
 3002WAT      O 9524   2.935   5.199   5.545
 3002WAT     H1 9525   2.929   5.258   5.620
 3002WAT     H2 9526   3.029   5.188   5.530
 3003WAT      O 9527   3.199   5.165   5.509
 3003WAT     H1 9528   3.260   5.196   5.443
 3003WAT     H2 9529   3.254   5.116   5.571
 3004WAT      O 9530   3.841   6.755   5.249
 3004WAT     H1 9531   3.791   6.794   5.178
 3004WAT     H2 9532   3.780   6.692   5.289
 3005WAT      O 9533   2.251   5.033   5.520
 3005WAT     H1 9534   2.306   5.014   5.444
 3005WAT     H2 9535   2.258   4.954   5.574
 3006WAT      O 9536   2.329   6.692   5.321
 3006WAT     H1 9537   2.269   6.678   5.395
 3006WAT     H2 9538   2.328   6.608   5.275
 3007WAT      O 9539   3.273   5.021   5.142
 3007WAT     H1 9540   3.186   5.054   5.121
 3007WAT     H2 9541   3.262   4.974   5.224
 3008WAT      O 9542   3.364   5.242   5.280
 3008WAT     H1 9543   3.331   5.160   5.242
 3008WAT     H2 9544   3.459   5.237   5.268
 3009WAT      O 9545   3.609   6.819   4.977
 3009WAT     H1 9546   3.563   6.894   4.940
 3009WAT     H2 9547   3.546   6.747   4.972
 3010WAT      O 9548   2.292   6.428   5.216
 3010WAT     H1 9549   2.219   6.366   5.210
 3010WAT     H2 9550   2.298   6.468   5.129
 3011WAT      O 9551   2.652   6.650   4.895
 3011WAT     H1 9552   2.704   6.589   4.842
 3011WAT     H2 9553   2.717   6.700   4.944
 3012WAT      O 9554   2.926   6.739   4.978
 3012WAT     H1 9555   2.955   6.713   4.890
 3012WAT     H2 9556   2.977   6.684   5.037
 3013WAT      O 9557   3.048   5.113   5.035
 3013WAT     H1 9558   2.970   5.160   5.063
 3013WAT     H2 9559   3.018   5.022   5.025
 3014WAT      O 9560   3.503   5.183   4.840
 3014WAT     H1 9561   3.547   5.177   4.755
 3014WAT     H2 9562   3.476   5.274   4.847
 3015WAT      O 9563   3.689   5.146   4.641
 3015WAT     H1 9564   3.683   5.052   4.626
 3015WAT     H2 9565   3.767   5.157   4.696
 3016WAT      O 9566   2.120   6.760   4.537
 3016WAT     H1 9567   2.103   6.697   4.607
 3016WAT     H2 9568   2.033   6.781   4.502
 3017WAT      O 9569   2.182   5.143   4.288
 3017WAT     H1 9570   2.258   5.154   4.230
 3017WAT     H2 9571   2.136   5.227   4.283
 3018WAT      O 9572   2.836   5.355   4.587
 3018WAT     H1 9573   2.755   5.317   4.553
 3018WAT     H2 9574   2.887   5.279   4.617
 3019WAT      O 9575   3.287   5.021   4.710
 3019WAT     H1 9576   3.347   5.078   4.758
 3019WAT     H2 9577   3.213   5.077   4.688
 3020WAT      O 9578   3.601   5.061   4.238
 3020WAT     H1 9579   3.620   5.151   4.265
 3020WAT     H2 9580   3.522   5.038   4.287
 3021WAT      O 9581   2.281   6.629   4.282
 3021WAT     H1 9582   2.228   6.667   4.211
 3021WAT     H2 9583   2.273   6.692   4.354
 3022WAT      O 9584   2.420   5.196   4.142
 3022WAT     H1 9585   2.472   5.117   4.129
 3022WAT     H2 9586   2.483   5.264   4.165
 3023WAT      O 9587   2.639   5.170   4.447
 3023WAT     H1 9588   2.576   5.099   4.464
 3023WAT     H2 9589   2.585   5.246   4.425
 3024WAT      O 9590   2.933   6.831   5.714
 3024WAT     H1 9591   3.025   6.807   5.719
 3024WAT     H2 9592   2.931   6.914   5.666
 3025WAT      O 9593   3.756   6.785   4.414
 3025WAT     H1 9594   3.774   6.717   4.350
 3025WAT     H2 9595   3.686   6.838   4.375
 3026WAT      O 9596   2.651   5.097   5.691
 3026WAT     H1 9597   2.623   5.148   5.614
 3026WAT     H2 9598   2.690   5.018   5.654
 3027WAT      O 9599   2.541   6.824   4.169
 3027WAT     H1 9600   2.614   6.796   4.115
 3027WAT     H2 9601   2.566   6.800   4.258
 3028WAT      O 9602   2.457   6.436   4.170
 3028WAT     H1 9603   2.394   6.483   4.225
 3028WAT     H2 9604   2.468   6.351   4.213
 3029WAT      O 9605   3.417   6.459   2.851
 3029WAT     H1 9606   3.371   6.382   2.884
 3029WAT     H2 9607   3.499   6.462   2.901
 3030WAT      O 9608   2.258   5.546   2.439
 3030WAT     H1 9609   2.169   5.580   2.429
 3030WAT     H2 9610   2.286   5.526   2.350
 3031WAT      O 9611   3.040   6.688   2.813
 3031WAT     H1 9612   2.978   6.733   2.756
 3031WAT     H2 9613   3.126   6.703   2.773
 3032WAT      O 9614   3.441   5.316   2.690
 3032WAT     H1 9615   3.523   5.267   2.694
 3032WAT     H2 9616   3.444   5.375   2.765
 3033WAT      O 9617   3.870   5.518   3.346
 3033WAT     H1 9618   3.799   5.557   3.294
 3033WAT     H2 9619   3.896   5.588   3.406
 3034WAT      O 9620   2.064   6.245   2.290
 3034WAT     H1 9621   2.026   6.294   2.216
 3034WAT     H2 9622   2.089   6.312   2.353
 3035WAT      O 9623   3.626   6.472   3.193
 3035WAT     H1 9624   3.558   6.539   3.192
 3035WAT     H2 9625   3.680   6.492   3.117
 3036WAT      O 9626   3.771   5.455   3.006
 3036WAT     H1 9627   3.676   5.458   3.019
 3036WAT     H2 9628   3.804   5.536   3.044
 3037WAT      O 9629   3.380   6.657   3.065
 3037WAT     H1 9630   3.381   6.616   2.978
 3037WAT     H2 9631   3.324   6.734   3.054
 3038WAT      O 9632   3.509   6.329   2.573
 3038WAT     H1 9633   3.498   6.235   2.586
 3038WAT     H2 9634   3.509   6.365   2.662
 3039WAT      O 9635   3.319   6.147   3.197
 3039WAT     H1 9636   3.361   6.126   3.114
 3039WAT     H2 9637   3.392   6.173   3.254
 3040WAT      O 9638   3.062   5.519   2.209
 3040WAT     H1 9639   2.968   5.535   2.217
 3040WAT     H2 9640   3.094   5.590   2.154
 3041WAT      O 9641   3.714   5.987   3.207
 3041WAT     H1 9642   3.631   5.994   3.159
 3041WAT     H2 9643   3.774   6.045   3.160
 3042WAT      O 9644   3.479   6.670   3.370
 3042WAT     H1 9645   3.432   6.751   3.351
 3042WAT     H2 9646   3.411   6.605   3.385
 3043WAT      O 9647   3.284   5.971   2.260
 3043WAT     H1 9648   3.328   5.888   2.246
 3043WAT     H2 9649   3.355   6.035   2.269
 3044WAT      O 9650   3.095   6.465   2.657
 3044WAT     H1 9651   3.139   6.540   2.616
 3044WAT     H2 9652   3.089   6.490   2.749
 3045WAT      O 9653   2.642   6.568   3.747
 3045WAT     H1 9654   2.639   6.608   3.660
 3045WAT     H2 9655   2.626   6.475   3.731
 3046WAT      O 9656   3.642   5.097   2.092
 3046WAT     H1 9657   3.611   5.106   2.182
 3046WAT     H2 9658   3.718   5.155   2.087
 3047WAT      O 9659   2.294   5.834   2.537
 3047WAT     H1 9660   2.282   5.906   2.476
 3047WAT     H2 9661   2.263   5.757   2.490
 3048WAT      O 9662   3.837   6.646   3.877
 3048WAT     H1 9663   3.885   6.694   3.945
 3048WAT     H2 9664   3.900   6.639   3.804
 3049WAT      O 9665   2.182   6.321   2.759
 3049WAT     H1 9666   2.141   6.335   2.674
 3049WAT     H2 9667   2.271   6.292   2.739
 3050WAT      O 9668   3.778   6.365   3.593
 3050WAT     H1 9669   3.790   6.341   3.501
 3050WAT     H2 9670   3.782   6.282   3.640
 3051WAT      O 9671   3.164   6.736   3.450
 3051WAT     H1 9672   3.215   6.727   3.530
 3051WAT     H2 9673   3.080   6.770   3.479
 3052WAT      O 9674   3.362   6.764   2.393
 3052WAT     H1 9675   3.346   6.735   2.482
 3052WAT     H2 9676   3.345   6.687   2.339
 3053WAT      O 9677   2.609   6.742   2.570
 3053WAT     H1 9678   2.592   6.650   2.549
 3053WAT     H2 9679   2.524   6.778   2.594
 3054WAT      O 9680   3.332   6.515   2.249
 3054WAT     H1 9681   3.262   6.515   2.183
 3054WAT     H2 9682   3.406   6.473   2.206
 3055WAT      O 9683   3.288   6.678   2.656
 3055WAT     H1 9684   3.334   6.600   2.687
 3055WAT     H2 9685   3.322   6.749   2.710
 3056WAT      O 9686   3.763   5.571   3.689
 3056WAT     H1 9687   3.701   5.621   3.636
 3056WAT     H2 9688   3.731   5.481   3.684
 3057WAT      O 9689   3.469   5.577   3.549
 3057WAT     H1 9690   3.384   5.547   3.581
 3057WAT     H2 9691   3.453   5.601   3.458
 3058WAT      O 9692   3.179   5.727   3.759
 3058WAT     H1 9693   3.211   5.643   3.725
 3058WAT     H2 9694   3.258   5.779   3.774
 3059WAT      O 9695   3.243   5.681   2.508
 3059WAT     H1 9696   3.183   5.753   2.490
 3059WAT     H2 9697   3.297   5.675   2.430
 3060WAT      O 9698   2.764   5.770   3.715
 3060WAT     H1 9699   2.754   5.676   3.700
 3060WAT     H2 9700   2.848   5.792   3.675
 3061WAT      O 9701   2.934   5.420   3.837
 3061WAT     H1 9702   2.865   5.400   3.901
 3061WAT     H2 9703   3.008   5.448   3.891
 3062WAT      O 9704   2.007   5.203   2.934
 3062WAT     H1 9705   1.978   5.261   3.005
 3062WAT     H2 9706   2.081   5.156   2.970
 3063WAT      O 9707   2.026   5.598   2.055
 3063WAT     H1 9708   2.017   5.692   2.069
 3063WAT     H2 9709   1.990   5.583   1.967
 3064WAT      O 9710   2.713   5.802   2.200
 3064WAT     H1 9711   2.656   5.757   2.138
 3064WAT     H2 9712   2.784   5.838   2.147
 3065WAT      O 9713   3.551   5.090   3.646
 3065WAT     H1 9714   3.583   5.017   3.699
 3065WAT     H2 9715   3.554   5.058   3.556
 3066WAT      O 9716   2.122   5.352   2.749
 3066WAT     H1 9717   2.094   5.315   2.833
 3066WAT     H2 9718   2.116   5.278   2.688
 3067WAT      O 9719   2.467   6.202   2.428
 3067WAT     H1 9720   2.390   6.148   2.412
 3067WAT     H2 9721   2.540   6.150   2.394
 3068WAT      O 9722   3.543   6.101   3.007
 3068WAT     H1 9723   3.615   6.151   2.968
 3068WAT     H2 9724   3.523   6.034   2.942
 3069WAT      O 9725   3.082   6.109   3.595
 3069WAT     H1 9726   3.075   6.016   3.570
 3069WAT     H2 9727   3.019   6.118   3.667
 3070WAT      O 9728   3.361   5.678   2.251
 3070WAT     H1 9729   3.450   5.709   2.233
 3070WAT     H2 9730   3.358   5.591   2.212
 3071WAT      O 9731   2.961   6.295   2.319
 3071WAT     H1 9732   2.995   6.370   2.269
 3071WAT     H2 9733   2.878   6.327   2.355
 3072WAT      O 9734   3.075   6.391   3.571
 3072WAT     H1 9735   3.076   6.298   3.549
 3072WAT     H2 9736   3.004   6.399   3.634
 3073WAT      O 9737   3.588   5.809   2.198
 3073WAT     H1 9738   3.580   5.852   2.112
 3073WAT     H2 9739   3.660   5.855   2.241
 3074WAT      O 9740   3.696   6.055   3.505
 3074WAT     H1 9741   3.623   6.114   3.485
 3074WAT     H2 9742   3.749   6.054   3.425
 3075WAT      O 9743   3.691   6.495   2.470
 3075WAT     H1 9744   3.627   6.429   2.498
 3075WAT     H2 9745   3.652   6.535   2.393
 3076WAT      O 9746   2.071   5.865   2.145
 3076WAT     H1 9747   2.158   5.893   2.173
 3076WAT     H2 9748   2.022   5.946   2.133
 3077WAT      O 9749   3.018   6.555   3.280
 3077WAT     H1 9750   3.082   6.576   3.348
 3077WAT     H2 9751   3.054   6.479   3.235
 3078WAT      O 9752   3.145   6.355   3.152
 3078WAT     H1 9753   3.210   6.285   3.163
 3078WAT     H2 9754   3.198   6.433   3.134
 3079WAT      O 9755   3.530   6.384   2.124
 3079WAT     H1 9756   3.507   6.312   2.183
 3079WAT     H2 9757   3.491   6.359   2.040
 3080WAT      O 9758   3.323   6.435   3.472
 3080WAT     H1 9759   3.356   6.494   3.540
 3080WAT     H2 9760   3.231   6.422   3.495
 3081WAT      O 9761   2.108   6.786   2.202
 3081WAT     H1 9762   2.144   6.846   2.136
 3081WAT     H2 9763   2.094   6.841   2.279
 3082WAT      O 9764   2.078   5.214   3.550
 3082WAT     H1 9765   2.006   5.234   3.611
 3082WAT     H2 9766   2.120   5.137   3.587
 3083WAT      O 9767   3.488   6.175   2.290
 3083WAT     H1 9768   3.459   6.222   2.369
 3083WAT     H2 9769   3.568   6.129   2.317
 3084WAT      O 9770   2.106   6.613   3.649
 3084WAT     H1 9771   2.117   6.519   3.635
 3084WAT     H2 9772   2.041   6.639   3.584
 3085WAT      O 9773   2.906   6.440   3.789
 3085WAT     H1 9774   2.874   6.368   3.843
 3085WAT     H2 9775   2.838   6.508   3.796
 3086WAT      O 9776   2.710   6.525   2.283
 3086WAT     H1 9777   2.709   6.598   2.222
 3086WAT     H2 9778   2.618   6.500   2.293
 3087WAT      O 9779   2.270   6.047   2.358
 3087WAT     H1 9780   2.209   6.121   2.359
 3087WAT     H2 9781   2.317   6.056   2.275
 3088WAT      O 9782   3.564   5.359   2.406
 3088WAT     H1 9783   3.501   5.369   2.335
 3088WAT     H2 9784   3.514   5.381   2.485
 3089WAT      O 9785   3.008   6.531   2.150
 3089WAT     H1 9786   3.018   6.511   2.057
 3089WAT     H2 9787   2.918   6.506   2.170
 3090WAT      O 9788   2.873   6.783   2.619
 3090WAT     H1 9789   2.898   6.779   2.527
 3090WAT     H2 9790   2.778   6.770   2.618
 3091WAT      O 9791   3.644   5.350   3.432
 3091WAT     H1 9792   3.594   5.424   3.466
 3091WAT     H2 9793   3.725   5.389   3.400
 3092WAT      O 9794   2.471   6.043   2.133
 3092WAT     H1 9795   2.548   6.032   2.189
 3092WAT     H2 9796   2.479   5.973   2.067
 3093WAT      O 9797   2.340   5.786   2.201
 3093WAT     H1 9798   2.348   5.691   2.212
 3093WAT     H2 9799   2.430   5.819   2.212
 3094WAT      O 9800   3.673   6.592   2.944
 3094WAT     H1 9801   3.686   6.674   2.991
 3094WAT     H2 9802   3.760   6.571   2.909
 3095WAT      O 9803   2.420   6.801   2.911
 3095WAT     H1 9804   2.494   6.746   2.938
 3095WAT     H2 9805   2.459   6.888   2.897
 3096WAT      O 9806   2.109   6.408   2.499
 3096WAT     H1 9807   2.016   6.432   2.498
 3096WAT     H2 9808   2.156   6.491   2.487
 3097WAT      O 9809   2.321   6.720   3.830
 3097WAT     H1 9810   2.401   6.752   3.872
 3097WAT     H2 9811   2.270   6.684   3.902
 3098WAT      O 9812   2.732   6.718   2.094
 3098WAT     H1 9813   2.811   6.747   2.048
 3098WAT     H2 9814   2.680   6.675   2.026
 3099WAT      O 9815   3.205   6.330   3.825
 3099WAT     H1 9816   3.144   6.333   3.751
 3099WAT     H2 9817   3.174   6.257   3.879
 3100WAT      O 9818   3.348   6.703   3.686
 3100WAT     H1 9819   3.443   6.695   3.681
 3100WAT     H2 9820   3.333   6.770   3.753
 3101WAT      O 9821   3.637   6.641   2.236
 3101WAT     H1 9822   3.608   6.600   2.154
 3101WAT     H2 9823   3.617   6.734   2.224
 3102WAT      O 9824   2.783   6.241   2.080
 3102WAT     H1 9825   2.773   6.179   2.153
 3102WAT     H2 9826   2.767   6.188   2.002
 3103WAT      O 9827   3.107   6.147   2.140
 3103WAT     H1 9828   3.052   6.191   2.205
 3103WAT     H2 9829   3.170   6.096   2.193
 3104WAT      O 9830   3.513   6.282   3.734
 3104WAT     H1 9831   3.587   6.316   3.683
 3104WAT     H2 9832   3.436   6.299   3.678
 3105WAT      O 9833   2.674   6.043   2.330
 3105WAT     H1 9834   2.716   6.026   2.414
 3105WAT     H2 9835   2.687   5.962   2.281
 3106WAT      O 9836   2.925   5.945   2.055
 3106WAT     H1 9837   2.977   5.873   2.018
 3106WAT     H2 9838   2.990   6.009   2.085
 3107WAT      O 9839   3.380   6.087   3.587
 3107WAT     H1 9840   3.422   6.103   3.672
 3107WAT     H2 9841   3.287   6.100   3.603
 3108WAT      O 9842   3.427   5.821   3.788
 3108WAT     H1 9843   3.486   5.746   3.779
 3108WAT     H2 9844   3.445   5.874   3.710
 3109WAT      O 9845   2.539   5.337   3.619
 3109WAT     H1 9846   2.530   5.275   3.546
 3109WAT     H2 9847   2.481   5.410   3.596
 3110WAT      O 9848   2.564   5.650   2.025
 3110WAT     H1 9849   2.544   5.564   2.061
 3110WAT     H2 9850   2.547   5.641   1.931
 3111WAT      O 9851   2.641   6.713   3.496
 3111WAT     H1 9852   2.588   6.785   3.464
 3111WAT     H2 9853   2.667   6.665   3.417
 3112WAT      O 9854   2.767   5.510   3.648
 3112WAT     H1 9855   2.826   5.479   3.717
 3112WAT     H2 9856   2.685   5.463   3.664
 3113WAT      O 9857   3.249   5.472   3.672
 3113WAT     H1 9858   3.180   5.405   3.665
 3113WAT     H2 9859   3.321   5.427   3.716
 3114WAT      O 9860   3.312   5.131   2.278
 3114WAT     H1 9861   3.340   5.047   2.313
 3114WAT     H2 9862   3.234   5.154   2.329
 3115WAT      O 9863   2.443   5.360   2.023
 3115WAT     H1 9864   2.474   5.361   1.933
 3115WAT     H2 9865   2.517   5.325   2.073
 3116WAT      O 9866   2.927   6.837   3.522
 3116WAT     H1 9867   2.920   6.927   3.552
 3116WAT     H2 9868   2.837   6.805   3.519
 3117WAT      O 9869   2.765   5.254   2.122
 3117WAT     H1 9870   2.731   5.187   2.064
 3117WAT     H2 9871   2.785   5.208   2.203
 3118WAT      O 9872   2.982   6.753   2.284
 3118WAT     H1 9873   3.071   6.787   2.286
 3118WAT     H2 9874   2.985   6.681   2.221
 3119WAT      O 9875   2.346   6.290   2.107
 3119WAT     H1 9876   2.390   6.345   2.172
 3119WAT     H2 9877   2.394   6.208   2.108
 3120WAT      O 9878   2.067   6.569   2.852
 3120WAT     H1 9879   2.100   6.482   2.829
 3120WAT     H2 9880   2.110   6.590   2.935
 3121WAT      O 9881   2.527   6.402   2.618
 3121WAT     H1 9882   2.497   6.390   2.708
 3121WAT     H2 9883   2.516   6.316   2.577
 3122WAT      O 9884   2.116   6.656   3.126
 3122WAT     H1 9885   2.072   6.674   3.209
 3122WAT     H2 9886   2.173   6.732   3.112
 3123WAT      O 9887   3.680   6.606   3.555
 3123WAT     H1 9888   3.620   6.612   3.480
 3123WAT     H2 9889   3.693   6.512   3.567
 3124WAT      O 9890   3.804   6.380   2.088
 3124WAT     H1 9891   3.721   6.387   2.135
 3124WAT     H2 9892   3.822   6.469   2.058
 3125WAT      O 9893   3.749   6.055   2.339
 3125WAT     H1 9894   3.826   6.112   2.349
 3125WAT     H2 9895   3.751   5.998   2.416
 3126WAT      O 9896   2.099   5.907   2.762
 3126WAT     H1 9897   2.034   5.880   2.697
 3126WAT     H2 9898   2.183   5.896   2.717
 3127WAT      O 9899   3.850   6.140   2.823
 3127WAT     H1 9900   3.887   6.062   2.782
 3127WAT     H2 9901   3.914   6.209   2.805
 3128WAT      O 9902   3.548   6.279   3.364
 3128WAT     H1 9903   3.467   6.322   3.391
 3128WAT     H2 9904   3.589   6.340   3.303
 3129WAT      O 9905   3.755   6.084   2.054
 3129WAT     H1 9906   3.782   6.175   2.041
 3129WAT     H2 9907   3.736   6.078   2.148
 3130WAT      O 9908   3.394   5.387   2.184
 3130WAT     H1 9909   3.436   5.368   2.100
 3130WAT     H2 9910   3.364   5.301   2.215
 3131WAT      O 9911   3.744   5.878   2.554
 3131WAT     H1 9912   3.707   5.801   2.510
 3131WAT     H2 9913   3.671   5.916   2.602
 3132WAT      O 9914   3.683   5.793   3.517
 3132WAT     H1 9915   3.660   5.770   3.427
 3132WAT     H2 9916   3.709   5.885   3.512
 3133WAT      O 9917   3.527   5.315   3.795
 3133WAT     H1 9918   3.615   5.316   3.833
 3133WAT     H2 9919   3.528   5.241   3.734
 3134WAT      O 9920   2.021   5.628   2.356
 3134WAT     H1 9921   1.930   5.654   2.338
 3134WAT     H2 9922   2.069   5.655   2.278
 3135WAT      O 9923   3.672   5.700   2.884
 3135WAT     H1 9924   3.724   5.651   2.821
 3135WAT     H2 9925   3.730   5.714   2.958
 3136WAT      O 9926   3.690   5.709   3.236
 3136WAT     H1 9927   3.595   5.705   3.247
 3136WAT     H2 9928   3.708   5.800   3.212
 3137WAT      O 9929   2.275   5.534   2.147
 3137WAT     H1 9930   2.346   5.492   2.098
 3137WAT     H2 9931   2.203   5.541   2.084
 3138WAT      O 9932   2.240   5.139   2.051
 3138WAT     H1 9933   2.312   5.193   2.083
 3138WAT     H2 9934   2.267   5.112   1.963
 3139WAT      O 9935   3.621   5.626   2.478
 3139WAT     H1 9936   3.670   5.603   2.556
 3139WAT     H2 9937   3.601   5.542   2.436
 3140WAT      O 9938   3.764   5.490   2.731
 3140WAT     H1 9939   3.753   5.474   2.825
 3140WAT     H2 9940   3.840   5.437   2.707
 3141WAT      O 9941   3.598   5.084   3.377
 3141WAT     H1 9942   3.662   5.145   3.413
 3141WAT     H2 9943   3.613   5.087   3.282
 3142WAT      O 9944   3.852   5.273   2.055
 3142WAT     H1 9945   3.945   5.260   2.034
 3142WAT     H2 9946   3.850   5.281   2.150
 3143WAT      O 9947   3.860   5.350   2.318
 3143WAT     H1 9948   3.780   5.343   2.370
 3143WAT     H2 9949   3.880   5.443   2.316
 3144WAT      O 9950   3.554   6.754   2.717
 3144WAT     H1 9951   3.614   6.722   2.649
 3144WAT     H2 9952   3.580   6.707   2.796
 3145WAT      O 9953   2.935   5.199   3.668
 3145WAT     H1 9954   2.929   5.258   3.742
 3145WAT     H2 9955   3.029   5.188   3.653
 3146WAT      O 9956   3.199   5.165   3.631
 3146WAT     H1 9957   3.260   5.196   3.565
 3146WAT     H2 9958   3.254   5.116   3.693
 3147WAT      O 9959   3.841   6.755   3.372
 3147WAT     H1 9960   3.791   6.794   3.300
 3147WAT     H2 9961   3.780   6.692   3.411
 3148WAT      O 9962   2.329   6.692   3.444
 3148WAT     H1 9963   2.269   6.678   3.518
 3148WAT     H2 9964   2.328   6.608   3.397
 3149WAT      O 9965   3.364   5.242   3.403
 3149WAT     H1 9966   3.331   5.160   3.365
 3149WAT     H2 9967   3.459   5.237   3.390
 3150WAT      O 9968   3.609   6.819   3.100
 3150WAT     H1 9969   3.563   6.894   3.063
 3150WAT     H2 9970   3.546   6.747   3.094
 3151WAT      O 9971   2.652   6.650   3.017
 3151WAT     H1 9972   2.704   6.589   2.965
 3151WAT     H2 9973   2.717   6.700   3.067
 3152WAT      O 9974   2.926   6.739   3.100
 3152WAT     H1 9975   2.955   6.713   3.012
 3152WAT     H2 9976   2.977   6.684   3.159
 3153WAT      O 9977   3.689   5.146   2.764
 3153WAT     H1 9978   3.683   5.052   2.749
 3153WAT     H2 9979   3.767   5.157   2.818
 3154WAT      O 9980   2.120   6.760   2.660
 3154WAT     H1 9981   2.103   6.697   2.730
 3154WAT     H2 9982   2.033   6.781   2.625
 3155WAT      O 9983   2.182   5.143   2.410
 3155WAT     H1 9984   2.258   5.154   2.353
 3155WAT     H2 9985   2.136   5.227   2.406
 3156WAT      O 9986   3.601   5.061   2.360
 3156WAT     H1 9987   3.620   5.151   2.387
 3156WAT     H2 9988   3.522   5.038   2.410
 3157WAT      O 9989   2.281   6.629   2.404
 3157WAT     H1 9990   2.228   6.667   2.334
 3157WAT     H2 9991   2.273   6.692   2.476
 3158WAT      O 9992   2.420   5.196   2.264
 3158WAT     H1 9993   2.472   5.117   2.251
 3158WAT     H2 9994   2.483   5.264   2.288
 3159WAT      O 9995   2.933   6.831   3.837
 3159WAT     H1 9996   3.025   6.807   3.841
 3159WAT     H2 9997   2.931   6.914   3.789
 3160WAT      O 9998   3.756   6.785   2.537
 3160WAT     H1 9999   3.774   6.717   2.472
 3160WAT     H210000   3.686   6.838   2.497
 3161WAT      O10001   2.651   5.097   3.813
 3161WAT     H110002   2.623   5.148   3.737
 3161WAT     H210003   2.690   5.018   3.777
 3162WAT      O10004   2.541   6.824   2.292
 3162WAT     H110005   2.614   6.796   2.237
 3162WAT     H210006   2.566   6.800   2.381
 3163WAT      O10007   2.457   6.436   2.292
 3163WAT     H110008   2.394   6.483   2.347
 3163WAT     H210009   2.468   6.351   2.336
 3164WAT      O10010   3.312   5.039   3.871
 3164WAT     H110011   3.300   5.071   3.961
 3164WAT     H210012   3.393   5.079   3.841
 3165WAT      O10013   3.590   6.754   3.819
 3165WAT     H110014   3.669   6.704   3.798
 3165WAT     H210015   3.619   6.822   3.880
 3166WAT      O10016   3.202   5.841   0.907
 3166WAT     H110017   3.194   5.749   0.880
 3166WAT     H210018   3.161   5.891   0.837
 3167WAT      O10019   3.015   6.019   1.095
 3167WAT     H110020   2.938   5.971   1.124
 3167WAT     H210021   3.080   5.951   1.078
 3168WAT      O10022   2.417   6.050   1.183
 3168WAT     H110023   2.334   6.024   1.223
 3168WAT     H210024   2.478   6.057   1.257
 3169WAT      O10025   3.417   6.459   0.973
 3169WAT     H110026   3.371   6.382   1.006
 3169WAT     H210027   3.499   6.462   1.024
 3170WAT      O10028   2.415   6.453   1.203
 3170WAT     H110029   2.445   6.364   1.185
 3170WAT     H210030   2.489   6.509   1.180
 3171WAT      O10031   2.258   5.546   0.562
 3171WAT     H110032   2.169   5.580   0.551
 3171WAT     H210033   2.286   5.526   0.472
 3172WAT      O10034   2.054   5.806   1.150
 3172WAT     H110035   2.111   5.729   1.150
 3172WAT     H210036   2.054   5.836   1.059
 3173WAT      O10037   3.040   6.688   0.935
 3173WAT     H110038   2.978   6.733   0.878
 3173WAT     H210039   3.126   6.703   0.895
 3174WAT      O10040   2.959   6.286   1.096
 3174WAT     H110041   2.953   6.192   1.080
 3174WAT     H210042   3.036   6.295   1.153
 3175WAT      O10043   2.179   5.347   1.329
 3175WAT     H110044   2.161   5.257   1.357
 3175WAT     H210045   2.138   5.401   1.396
 3176WAT      O10046   3.062   5.567   1.119
 3176WAT     H110047   3.100   5.480   1.108
 3176WAT     H210048   3.053   5.600   1.030
 3177WAT      O10049   2.476   5.404   0.665
 3177WAT     H110050   2.486   5.494   0.696
 3177WAT     H210051   2.384   5.399   0.636
 3178WAT      O10052   3.441   5.316   0.812
 3178WAT     H110053   3.523   5.267   0.816
 3178WAT     H210054   3.444   5.375   0.887
 3179WAT      O10055   2.240   5.596   1.190
 3179WAT     H110056   2.308   5.623   1.251
 3179WAT     H210057   2.209   5.512   1.223
 3180WAT      O10058   2.660   5.701   1.098
 3180WAT     H110059   2.710   5.751   1.162
 3180WAT     H210060   2.713   5.623   1.081
 3181WAT      O10061   3.870   5.518   1.469
 3181WAT     H110062   3.799   5.557   1.417
 3181WAT     H210063   3.896   5.588   1.529
 3182WAT      O10064   2.488   5.165   1.525
 3182WAT     H110065   2.488   5.217   1.444
 3182WAT     H210066   2.405   5.117   1.523
 3183WAT      O10067   3.127   6.176   0.675
 3183WAT     H110068   3.065   6.223   0.618
 3183WAT     H210069   3.178   6.245   0.716
 3184WAT      O10070   2.613   6.129   1.343
 3184WAT     H110071   2.580   6.192   1.407
 3184WAT     H210072   2.631   6.182   1.265
 3185WAT      O10073   3.464   5.510   1.089
 3185WAT     H110074   3.394   5.539   1.147
 3185WAT     H210075   3.500   5.591   1.053
 3186WAT      O10076   2.456   5.336   1.326
 3186WAT     H110077   2.490   5.421   1.296
 3186WAT     H210078   2.362   5.351   1.337
 3187WAT      O10079   2.534   6.326   1.524
 3187WAT     H110080   2.596   6.393   1.496
 3187WAT     H210081   2.448   6.367   1.515
 3188WAT      O10082   2.064   6.245   0.412
 3188WAT     H110083   2.026   6.294   0.339
 3188WAT     H210084   2.089   6.312   0.475
 3189WAT      O10085   3.626   6.472   1.316
 3189WAT     H110086   3.558   6.539   1.315
 3189WAT     H210087   3.680   6.492   1.239
 3190WAT      O10088   3.771   5.455   1.128
 3190WAT     H110089   3.676   5.458   1.142
 3190WAT     H210090   3.804   5.536   1.167
 3191WAT      O10091   2.824   5.085   0.958
 3191WAT     H110092   2.855   5.029   0.886
 3191WAT     H210093   2.731   5.098   0.940
 3192WAT      O10094   3.380   6.657   1.187
 3192WAT     H110095   3.381   6.616   1.100
 3192WAT     H210096   3.324   6.734   1.177
 3193WAT      O10097   3.509   6.329   0.696
 3193WAT     H110098   3.498   6.235   0.709
 3193WAT     H210099   3.509   6.365   0.785
 3194WAT      O10100   3.319   6.147   1.320
 3194WAT     H110101   3.361   6.126   1.236
 3194WAT     H210102   3.392   6.173   1.377
 3195WAT      O10103   3.063   5.891   0.632
 3195WAT     H110104   2.971   5.885   0.655
 3195WAT     H210105   3.078   5.985   0.620
 3196WAT      O10106   3.062   5.519   0.331
 3196WAT     H110107   2.968   5.535   0.340
 3196WAT     H210108   3.094   5.590   0.277
 3197WAT      O10109   3.714   5.987   1.329
 3197WAT     H110110   3.631   5.994   1.282
 3197WAT     H210111   3.774   6.045   1.282
 3198WAT      O10112   3.466   6.048   0.682
 3198WAT     H110113   3.404   6.014   0.617
 3198WAT     H210114   3.464   5.983   0.753
 3199WAT      O10115   3.410   5.665   1.424
 3199WAT     H110116   3.369   5.748   1.449
 3199WAT     H210117   3.337   5.607   1.404
 3200WAT      O10118   2.624   5.944   0.910
 3200WAT     H110119   2.583   5.873   0.860
 3200WAT     H210120   2.632   5.910   0.999
 3201WAT      O10121   2.671   6.313   1.126
 3201WAT     H110122   2.641   6.252   1.058
 3201WAT     H210123   2.766   6.317   1.115
 3202WAT      O10124   2.495   5.621   1.288
 3202WAT     H110125   2.550   5.632   1.210
 3202WAT     H210126   2.547   5.659   1.359
 3203WAT      O10127   3.479   6.670   1.492
 3203WAT     H110128   3.432   6.751   1.473
 3203WAT     H210129   3.411   6.605   1.508
 3204WAT      O10130   2.580   6.287   1.791
 3204WAT     H110131   2.490   6.309   1.816
 3204WAT     H210132   2.582   6.299   1.696
 3205WAT      O10133   3.284   5.971   0.383
 3205WAT     H110134   3.328   5.888   0.368
 3205WAT     H210135   3.355   6.035   0.391
 3206WAT      O10136   2.463   5.974   1.649
 3206WAT     H110137   2.449   6.061   1.686
 3206WAT     H210138   2.374   5.939   1.634
 3207WAT      O10139   3.095   6.465   0.780
 3207WAT     H110140   3.139   6.540   0.738
 3207WAT     H210141   3.089   6.490   0.872
 3208WAT      O10142   2.642   6.568   1.870
 3208WAT     H110143   2.639   6.608   1.783
 3208WAT     H210144   2.626   6.475   1.853
 3209WAT      O10145   3.642   5.097   0.214
 3209WAT     H110146   3.611   5.106   0.304
 3209WAT     H210147   3.718   5.155   0.209
 3210WAT      O10148   2.294   5.834   0.660
 3210WAT     H110149   2.282   5.906   0.599
 3210WAT     H210150   2.263   5.757   0.612
 3211WAT      O10151   3.837   6.646   1.999
 3211WAT     H110152   3.885   6.694   2.067
 3211WAT     H210153   3.900   6.639   1.927
 3212WAT      O10154   2.058   6.151   1.241
 3212WAT     H110155   2.065   6.164   1.146
 3212WAT     H210156   2.119   6.080   1.260
 3213WAT      O10157   2.182   6.321   0.882
 3213WAT     H110158   2.141   6.335   0.796
 3213WAT     H210159   2.271   6.292   0.861
 3214WAT      O10160   3.778   6.365   1.715
 3214WAT     H110161   3.790   6.341   1.624
 3214WAT     H210162   3.782   6.282   1.763
 3215WAT      O10163   3.164   6.736   1.572
 3215WAT     H110164   3.215   6.727   1.653
 3215WAT     H210165   3.080   6.770   1.602
 3216WAT      O10166   3.362   6.764   0.515
 3216WAT     H110167   3.346   6.735   0.605
 3216WAT     H210168   3.345   6.687   0.462
 3217WAT      O10169   2.609   6.742   0.693
 3217WAT     H110170   2.592   6.650   0.672
 3217WAT     H210171   2.524   6.778   0.717
 3218WAT      O10172   3.332   6.515   0.371
 3218WAT     H110173   3.262   6.515   0.305
 3218WAT     H210174   3.406   6.473   0.328
 3219WAT      O10175   3.288   6.678   0.779
 3219WAT     H110176   3.334   6.600   0.810
 3219WAT     H210177   3.322   6.749   0.833
 3220WAT      O10178   3.763   5.571   1.812
 3220WAT     H110179   3.701   5.621   1.759
 3220WAT     H210180   3.731   5.481   1.806
 3221WAT      O10181   2.063   6.255   1.495
 3221WAT     H110182   2.080   6.208   1.413
 3221WAT     H210183   2.110   6.204   1.561
 3222WAT      O10184   2.540   5.168   0.998
 3222WAT     H110185   2.496   5.246   0.965
 3222WAT     H210186   2.596   5.200   1.069
 3223WAT      O10187   2.969   5.455   1.558
 3223WAT     H110188   2.923   5.475   1.640
 3223WAT     H210189   2.929   5.373   1.528
 3224WAT      O10190   3.469   5.577   1.671
 3224WAT     H110191   3.384   5.547   1.704
 3224WAT     H210192   3.453   5.601   1.580
 3225WAT      O10193   3.179   5.727   1.881
 3225WAT     H110194   3.211   5.643   1.847
 3225WAT     H210195   3.258   5.779   1.896
 3226WAT      O10196   2.852   5.130   0.486
 3226WAT     H110197   2.790   5.130   0.559
 3226WAT     H210198   2.843   5.043   0.447
 3227WAT      O10199   2.744   5.222   1.184
 3227WAT     H110200   2.774   5.313   1.176
 3227WAT     H210201   2.799   5.174   1.123
 3228WAT      O10202   2.520   5.680   0.771
 3228WAT     H110203   2.497   5.659   0.861
 3228WAT     H210204   2.442   5.723   0.736
 3229WAT      O10205   3.243   5.681   0.631
 3229WAT     H110206   3.183   5.753   0.612
 3229WAT     H210207   3.297   5.675   0.553
 3230WAT      O10208   2.764   5.770   1.838
 3230WAT     H110209   2.754   5.676   1.823
 3230WAT     H210210   2.848   5.792   1.798
 3231WAT      O10211   3.103   5.544   0.834
 3231WAT     H110212   3.143   5.576   0.753
 3231WAT     H210213   3.139   5.457   0.845
 3232WAT      O10214   2.277   5.411   1.653
 3232WAT     H110215   2.237   5.496   1.674
 3232WAT     H210216   2.208   5.347   1.672
 3233WAT      O10217   2.934   5.420   1.960
 3233WAT     H110218   2.865   5.400   2.023
 3233WAT     H210219   3.008   5.448   2.013
 3234WAT      O10220   2.007   5.203   1.056
 3234WAT     H110221   1.978   5.261   1.127
 3234WAT     H210222   2.081   5.156   1.093
 3235WAT      O10223   3.162   5.804   1.243
 3235WAT     H110224   3.089   5.854   1.278
 3235WAT     H210225   3.122   5.722   1.213
 3236WAT      O10226   2.806   5.471   1.084
 3236WAT     H110227   2.806   5.427   0.999
 3236WAT     H210228   2.895   5.503   1.095
 3237WAT      O10229   2.391   5.459   0.980
 3237WAT     H110230   2.357   5.507   1.056
 3237WAT     H210231   2.314   5.414   0.944
 3238WAT      O10232   2.812   5.571   0.383
 3238WAT     H110233   2.824   5.567   0.478
 3238WAT     H210234   2.773   5.657   0.367
 3239WAT      O10235   3.208   5.349   1.185
 3239WAT     H110236   3.210   5.394   1.269
 3239WAT     H210237   3.183   5.259   1.206
 3240WAT      O10238   2.713   5.802   0.323
 3240WAT     H110239   2.656   5.757   0.260
 3240WAT     H210240   2.784   5.838   0.269
 3241WAT      O10241   3.551   5.090   1.768
 3241WAT     H110242   3.583   5.017   1.821
 3241WAT     H210243   3.554   5.058   1.678
 3242WAT      O10244   2.221   6.192   1.710
 3242WAT     H110245   2.182   6.128   1.770
 3242WAT     H210246   2.252   6.263   1.767
 3243WAT      O10247   2.836   5.877   1.259
 3243WAT     H110248   2.872   5.830   1.333
 3243WAT     H210249   2.817   5.965   1.293
 3244WAT      O10250   2.122   5.352   0.872
 3244WAT     H110251   2.094   5.315   0.955
 3244WAT     H210252   2.116   5.278   0.810
 3245WAT      O10253   2.615   5.781   1.490
 3245WAT     H110254   2.584   5.869   1.513
 3245WAT     H210255   2.710   5.787   1.494
 3246WAT      O10256   2.467   6.202   0.550
 3246WAT     H110257   2.390   6.148   0.534
 3246WAT     H210258   2.540   6.150   0.516
 3247WAT      O10259   3.543   6.101   1.129
 3247WAT     H110260   3.615   6.151   1.090
 3247WAT     H210261   3.523   6.034   1.065
 3248WAT      O10262   3.089   5.241   0.544
 3248WAT     H110263   3.008   5.191   0.536
 3248WAT     H210264   3.070   5.325   0.502
 3249WAT      O10265   3.082   6.109   1.718
 3249WAT     H110266   3.075   6.016   1.693
 3249WAT     H210267   3.019   6.118   1.789
 3250WAT      O10268   3.361   5.678   0.373
 3250WAT     H110269   3.450   5.709   0.356
 3250WAT     H210270   3.358   5.591   0.334
 3251WAT      O10271   2.472   6.169   0.914
 3251WAT     H110272   2.524   6.088   0.908
 3251WAT     H210273   2.427   6.162   0.998
 3252WAT      O10274   2.961   6.295   0.441
 3252WAT     H110275   2.995   6.370   0.392
 3252WAT     H210276   2.878   6.327   0.477
 3253WAT      O10277   2.220   5.865   1.605
 3253WAT     H110278   2.184   5.932   1.664
 3253WAT     H210279   2.191   5.782   1.642
 3254WAT      O10280   2.540   5.911   1.894
 3254WAT     H110281   2.510   5.926   1.804
 3254WAT     H210282   2.618   5.855   1.884
 3255WAT      O10283   3.075   6.391   1.693
 3255WAT     H110284   3.076   6.298   1.671
 3255WAT     H210285   3.004   6.399   1.757
 3256WAT      O10286   3.588   5.809   0.320
 3256WAT     H110287   3.580   5.852   0.235
 3256WAT     H210288   3.660   5.855   0.363
 3257WAT      O10289   3.696   6.055   1.628
 3257WAT     H110290   3.623   6.114   1.608
 3257WAT     H210291   3.749   6.054   1.548
 3258WAT      O10292   3.691   6.495   0.593
 3258WAT     H110293   3.627   6.429   0.620
 3258WAT     H210294   3.652   6.535   0.515
 3259WAT      O10295   3.249   6.227   0.978
 3259WAT     H110296   3.284   6.168   0.912
 3259WAT     H210297   3.160   6.195   0.995
 3260WAT      O10298   2.857   6.303   0.718
 3260WAT     H110299   2.926   6.358   0.756
 3260WAT     H210300   2.779   6.358   0.722
 3261WAT      O10301   2.071   5.865   0.267
 3261WAT     H110302   2.158   5.893   0.296
 3261WAT     H210303   2.022   5.946   0.256
 3262WAT      O10304   2.788   6.004   0.680
 3262WAT     H110305   2.833   6.085   0.702
 3262WAT     H210306   2.753   5.972   0.763
 3263WAT      O10307   3.018   6.555   1.402
 3263WAT     H110308   3.082   6.576   1.470
 3263WAT     H210309   3.054   6.479   1.357
 3264WAT      O10310   2.378   5.038   0.727
 3264WAT     H110311   2.365   5.037   0.822
 3264WAT     H210312   2.295   5.072   0.692
 3265WAT      O10313   3.145   6.355   1.274
 3265WAT     H110314   3.210   6.285   1.286
 3265WAT     H210315   3.198   6.433   1.256
 3266WAT      O10316   3.530   6.384   0.247
 3266WAT     H110317   3.507   6.312   0.306
 3266WAT     H210318   3.491   6.359   0.163
 3267WAT      O10319   3.323   6.435   1.595
 3267WAT     H110320   3.356   6.494   1.662
 3267WAT     H210321   3.231   6.422   1.618
 3268WAT      O10322   2.108   6.786   0.324
 3268WAT     H110323   2.144   6.846   0.259
 3268WAT     H210324   2.094   6.841   0.401
 3269WAT      O10325   2.078   5.214   1.673
 3269WAT     H110326   2.006   5.234   1.733
 3269WAT     H210327   2.120   5.137   1.710
 3270WAT      O10328   3.488   6.175   0.413
 3270WAT     H110329   3.459   6.222   0.492
 3270WAT     H210330   3.568   6.129   0.440
 3271WAT      O10331   2.106   6.613   1.772
 3271WAT     H110332   2.117   6.519   1.757
 3271WAT     H210333   2.041   6.639   1.707
 3272WAT      O10334   2.906   6.440   1.912
 3272WAT     H110335   2.874   6.368   1.966
 3272WAT     H210336   2.838   6.508   1.919
 3273WAT      O10337   2.710   6.525   0.406
 3273WAT     H110338   2.709   6.598   0.344
 3273WAT     H210339   2.618   6.500   0.415
 3274WAT      O10340   2.270   6.047   0.480
 3274WAT     H110341   2.209   6.121   0.481
 3274WAT     H210342   2.317   6.056   0.398
 3275WAT      O10343   3.227   5.463   1.448
 3275WAT     H110344   3.264   5.381   1.481
 3275WAT     H210345   3.141   5.469   1.489
 3276WAT      O10346   3.564   5.359   0.529
 3276WAT     H110347   3.501   5.369   0.457
 3276WAT     H210348   3.514   5.381   0.608
 3277WAT      O10349   3.008   6.531   0.272
 3277WAT     H110350   3.018   6.511   0.179
 3277WAT     H210351   2.918   6.506   0.293
 3278WAT      O10352   2.761   5.587   0.670
 3278WAT     H110353   2.690   5.634   0.714
 3278WAT     H210354   2.789   5.521   0.734
 3279WAT      O10355   2.923   5.729   1.470
 3279WAT     H110356   2.973   5.776   1.537
 3279WAT     H210357   2.937   5.636   1.491
 3280WAT      O10358   3.164   5.259   0.814
 3280WAT     H110359   3.151   5.261   0.719
 3280WAT     H210360   3.259   5.264   0.826
 3281WAT      O10361   2.873   6.783   0.742
 3281WAT     H110362   2.898   6.779   0.649
 3281WAT     H210363   2.778   6.770   0.741
 3282WAT      O10364   2.581   5.418   0.408
 3282WAT     H110365   2.666   5.461   0.401
 3282WAT     H210366   2.544   5.449   0.491
 3283WAT      O10367   3.644   5.350   1.555
 3283WAT     H110368   3.594   5.424   1.588
 3283WAT     H210369   3.725   5.389   1.523
 3284WAT      O10370   3.473   5.875   0.899
 3284WAT     H110371   3.379   5.876   0.917
 3284WAT     H210372   3.505   5.796   0.944
 3285WAT      O10373   2.471   6.043   0.255
 3285WAT     H110374   2.548   6.032   0.311
 3285WAT     H210375   2.479   5.973   0.190
 3286WAT      O10376   2.340   5.786   0.324
 3286WAT     H110377   2.348   5.691   0.335
 3286WAT     H210378   2.430   5.819   0.334
 3287WAT      O10379   3.673   6.592   1.067
 3287WAT     H110380   3.686   6.674   1.114
 3287WAT     H210381   3.760   6.571   1.032
 3288WAT      O10382   2.420   6.801   1.034
 3288WAT     H110383   2.494   6.746   1.061
 3288WAT     H210384   2.459   6.888   1.020
 3289WAT      O10385   2.109   6.408   0.621
 3289WAT     H110386   2.016   6.432   0.620
 3289WAT     H210387   2.156   6.491   0.609
 3290WAT      O10388   2.321   6.720   1.953
 3290WAT     H110389   2.401   6.752   1.994
 3290WAT     H210390   2.270   6.684   2.025
 3291WAT      O10391   2.732   6.718   0.216
 3291WAT     H110392   2.811   6.747   0.171
 3291WAT     H210393   2.680   6.675   0.148
 3292WAT      O10394   3.205   6.330   1.947
 3292WAT     H110395   3.144   6.333   1.873
 3292WAT     H210396   3.174   6.257   2.001
 3293WAT      O10397   3.348   6.703   1.809
 3293WAT     H110398   3.443   6.695   1.804
 3293WAT     H210399   3.333   6.770   1.876
 3294WAT      O10400   3.637   6.641   0.358
 3294WAT     H110401   3.608   6.600   0.277
 3294WAT     H210402   3.617   6.734   0.346
 3295WAT      O10403   2.093   5.968   1.847
 3295WAT     H110404   2.143   5.910   1.904
 3295WAT     H210405   2.019   5.997   1.901
 3296WAT      O10406   2.798   6.109   1.800
 3296WAT     H110407   2.722   6.166   1.792
 3296WAT     H210408   2.817   6.080   1.711
 3297WAT      O10409   3.107   6.147   0.263
 3297WAT     H110410   3.052   6.191   0.327
 3297WAT     H210411   3.170   6.096   0.315
 3298WAT      O10412   3.513   6.282   1.856
 3298WAT     H110413   3.587   6.316   1.806
 3298WAT     H210414   3.436   6.299   1.801
 3299WAT      O10415   2.296   5.783   1.937
 3299WAT     H110416   2.300   5.753   2.027
 3299WAT     H210417   2.382   5.823   1.921
 3300WAT      O10418   2.674   6.043   0.453
 3300WAT     H110419   2.716   6.026   0.537
 3300WAT     H210420   2.687   5.962   0.403
 3301WAT      O10421   2.490   5.641   1.733
 3301WAT     H110422   2.437   5.591   1.671
 3301WAT     H210423   2.557   5.683   1.680
 3302WAT      O10424   3.380   6.087   1.710
 3302WAT     H110425   3.422   6.103   1.795
 3302WAT     H210426   3.287   6.100   1.726
 3303WAT      O10427   3.427   5.821   1.910
 3303WAT     H110428   3.486   5.746   1.901
 3303WAT     H210429   3.445   5.874   1.832
 3304WAT      O10430   2.539   5.337   1.741
 3304WAT     H110431   2.530   5.275   1.669
 3304WAT     H210432   2.481   5.410   1.719
 3305WAT      O10433   2.816   5.193   1.445
 3305WAT     H110434   2.771   5.195   1.360
 3305WAT     H210435   2.752   5.153   1.504
 3306WAT      O10436   2.856   6.082   1.507
 3306WAT     H110437   2.898   6.167   1.489
 3306WAT     H210438   2.764   6.096   1.484
 3307WAT      O10439   3.090   5.856   1.645
 3307WAT     H110440   3.102   5.796   1.719
 3307WAT     H210441   3.176   5.859   1.603
 3308WAT      O10442   3.324   5.911   1.503
 3308WAT     H110443   3.271   5.963   1.442
 3308WAT     H210444   3.358   5.974   1.566
 3309WAT      O10445   2.641   6.713   1.618
 3309WAT     H110446   2.588   6.785   1.586
 3309WAT     H210447   2.667   6.665   1.539
 3310WAT      O10448   2.767   5.510   1.771
 3310WAT     H110449   2.826   5.479   1.840
 3310WAT     H210450   2.685   5.463   1.786
 3311WAT      O10451   3.249   5.472   1.794
 3311WAT     H110452   3.180   5.405   1.788
 3311WAT     H210453   3.321   5.427   1.839
 3312WAT      O10454   3.312   5.131   0.400
 3312WAT     H110455   3.340   5.047   0.436
 3312WAT     H210456   3.234   5.154   0.451
 3313WAT      O10457   2.927   6.837   1.644
 3313WAT     H110458   2.920   6.927   1.675
 3313WAT     H210459   2.837   6.805   1.641
 3314WAT      O10460   2.765   5.254   0.245
 3314WAT     H110461   2.731   5.187   0.187
 3314WAT     H210462   2.785   5.208   0.326
 3315WAT      O10463   2.982   6.753   0.406
 3315WAT     H110464   3.071   6.787   0.409
 3315WAT     H210465   2.985   6.681   0.344
 3316WAT      O10466   2.346   6.290   0.229
 3316WAT     H110467   2.390   6.345   0.295
 3316WAT     H210468   2.394   6.208   0.230
 3317WAT      O10469   2.067   6.569   0.974
 3317WAT     H110470   2.100   6.482   0.951
 3317WAT     H210471   2.110   6.590   1.058
 3318WAT      O10472   2.527   6.402   0.740
 3318WAT     H110473   2.497   6.390   0.831
 3318WAT     H210474   2.516   6.316   0.700
 3319WAT      O10475   2.116   6.656   1.248
 3319WAT     H110476   2.072   6.674   1.332
 3319WAT     H210477   2.173   6.732   1.234
 3320WAT      O10478   3.680   6.606   1.677
 3320WAT     H110479   3.620   6.612   1.603
 3320WAT     H210480   3.693   6.512   1.690
 3321WAT      O10481   3.804   6.380   0.211
 3321WAT     H110482   3.721   6.387   0.258
 3321WAT     H210483   3.822   6.469   0.180
 3322WAT      O10484   3.749   6.055   0.461
 3322WAT     H110485   3.826   6.112   0.472
 3322WAT     H210486   3.751   5.998   0.538
 3323WAT      O10487   2.099   5.907   0.884
 3323WAT     H110488   2.034   5.880   0.820
 3323WAT     H210489   2.183   5.896   0.839
 3324WAT      O10490   3.850   6.140   0.946
 3324WAT     H110491   3.887   6.062   0.905
 3324WAT     H210492   3.914   6.209   0.928
 3325WAT      O10493   3.548   6.279   1.487
 3325WAT     H110494   3.467   6.322   1.513
 3325WAT     H210495   3.589   6.340   1.426
 3326WAT      O10496   3.755   6.084   0.177
 3326WAT     H110497   3.782   6.175   0.164
 3326WAT     H210498   3.736   6.078   0.270
 3327WAT      O10499   3.394   5.387   0.306
 3327WAT     H110500   3.436   5.368   0.222
 3327WAT     H210501   3.364   5.301   0.337
 3328WAT      O10502   3.744   5.878   0.676
 3328WAT     H110503   3.707   5.801   0.633
 3328WAT     H210504   3.671   5.916   0.725
 3329WAT      O10505   2.203   5.946   1.338
 3329WAT     H110506   2.240   5.937   1.426
 3329WAT     H210507   2.146   5.869   1.328
 3330WAT      O10508   3.683   5.793   1.640
 3330WAT     H110509   3.660   5.770   1.549
 3330WAT     H210510   3.709   5.885   1.635
 3331WAT      O10511   2.158   5.637   1.729
 3331WAT     H110512   2.069   5.633   1.763
 3331WAT     H210513   2.212   5.657   1.805
 3332WAT      O10514   3.527   5.315   1.917
 3332WAT     H110515   3.615   5.316   1.956
 3332WAT     H210516   3.528   5.241   1.856
 3333WAT      O10517   2.021   5.628   0.478
 3333WAT     H110518   1.930   5.654   0.461
 3333WAT     H210519   2.069   5.655   0.400
 3334WAT      O10520   3.672   5.700   1.006
 3334WAT     H110521   3.724   5.651   0.943
 3334WAT     H210522   3.730   5.714   1.081
 3335WAT      O10523   3.690   5.709   1.358
 3335WAT     H110524   3.595   5.705   1.370
 3335WAT     H210525   3.708   5.800   1.335
 3336WAT      O10526   2.275   5.534   0.269
 3336WAT     H110527   2.346   5.492   0.221
 3336WAT     H210528   2.203   5.541   0.206
 3337WAT      O10529   3.621   5.626   0.600
 3337WAT     H110530   3.670   5.603   0.679
 3337WAT     H210531   3.601   5.542   0.558
 3338WAT      O10532   2.209   5.064   1.164
 3338WAT     H110533   2.273   5.009   1.120
 3338WAT     H210534   2.251   5.090   1.246
 3339WAT      O10535   3.764   5.490   0.853
 3339WAT     H110536   3.753   5.474   0.947
 3339WAT     H210537   3.840   5.437   0.829
 3340WAT      O10538   3.598   5.084   1.499
 3340WAT     H110539   3.662   5.145   1.536
 3340WAT     H210540   3.613   5.087   1.405
 3341WAT      O10541   3.852   5.273   0.178
 3341WAT     H110542   3.945   5.260   0.157
 3341WAT     H210543   3.850   5.281   0.273
 3342WAT      O10544   3.860   5.350   0.440
 3342WAT     H110545   3.780   5.343   0.493
 3342WAT     H210546   3.880   5.443   0.439
 3343WAT      O10547   3.554   6.754   0.840
 3343WAT     H110548   3.614   6.722   0.772
 3343WAT     H210549   3.580   6.707   0.919
 3344WAT      O10550   2.184   5.080   1.438
 3344WAT     H110551   2.149   5.125   1.514
 3344WAT     H210552   2.151   4.990   1.446
 3345WAT      O10553   2.345   6.397   1.854
 3345WAT     H110554   2.340   6.360   1.943
 3345WAT     H210555   2.358   6.491   1.868
 3346WAT      O10556   2.715   6.553   1.415
 3346WAT     H110557   2.691   6.579   1.326
 3346WAT     H210558   2.809   6.570   1.420
 3347WAT      O10559   2.935   5.199   1.790
 3347WAT     H110560   2.929   5.258   1.865
 3347WAT     H210561   3.029   5.188   1.776
 3348WAT      O10562   3.199   5.165   1.754
 3348WAT     H110563   3.260   5.196   1.688
 3348WAT     H210564   3.254   5.116   1.816
 3349WAT      O10565   3.841   6.755   1.495
 3349WAT     H110566   3.791   6.794   1.423
 3349WAT     H210567   3.780   6.692   1.534
 3350WAT      O10568   2.251   5.033   1.765
 3350WAT     H110569   2.306   5.014   1.689
 3350WAT     H210570   2.258   4.954   1.819
 3351WAT      O10571   2.329   6.692   1.566
 3351WAT     H110572   2.269   6.678   1.640
 3351WAT     H210573   2.328   6.608   1.520
 3352WAT      O10574   3.273   5.021   1.387
 3352WAT     H110575   3.186   5.054   1.366
 3352WAT     H210576   3.262   4.974   1.469
 3353WAT      O10577   3.364   5.242   1.525
 3353WAT     H110578   3.331   5.160   1.487
 3353WAT     H210579   3.459   5.237   1.513
 3354WAT      O10580   3.609   6.819   1.222
 3354WAT     H110581   3.563   6.894   1.185
 3354WAT     H210582   3.546   6.747   1.217
 3355WAT      O10583   2.292   6.428   1.461
 3355WAT     H110584   2.219   6.366   1.455
 3355WAT     H210585   2.298   6.468   1.374
 3356WAT      O10586   2.652   6.650   1.140
 3356WAT     H110587   2.704   6.589   1.087
 3356WAT     H210588   2.717   6.700   1.189
 3357WAT      O10589   2.926   6.739   1.223
 3357WAT     H110590   2.955   6.713   1.135
 3357WAT     H210591   2.977   6.684   1.282
 3358WAT      O10592   3.048   5.113   1.281
 3358WAT     H110593   2.970   5.160   1.309
 3358WAT     H210594   3.018   5.022   1.270
 3359WAT      O10595   3.503   5.183   1.085
 3359WAT     H110596   3.547   5.177   1.000
 3359WAT     H210597   3.476   5.274   1.092
 3360WAT      O10598   3.689   5.146   0.886
 3360WAT     H110599   3.683   5.052   0.872
 3360WAT     H210600   3.767   5.157   0.941
 3361WAT      O10601   2.120   6.760   0.782
 3361WAT     H110602   2.103   6.697   0.852
 3361WAT     H210603   2.033   6.781   0.747
 3362WAT      O10604   2.182   5.143   0.533
 3362WAT     H110605   2.258   5.154   0.475
 3362WAT     H210606   2.136   5.227   0.528
 3363WAT      O10607   2.836   5.355   0.832
 3363WAT     H110608   2.755   5.317   0.798
 3363WAT     H210609   2.887   5.279   0.862
 3364WAT      O10610   3.287   5.021   0.956
 3364WAT     H110611   3.347   5.078   1.003
 3364WAT     H210612   3.213   5.077   0.933
 3365WAT      O10613   3.601   5.061   0.483
 3365WAT     H110614   3.620   5.151   0.510
 3365WAT     H210615   3.522   5.038   0.532
 3366WAT      O10616   2.281   6.629   0.527
 3366WAT     H110617   2.228   6.667   0.457
 3366WAT     H210618   2.273   6.692   0.599
 3367WAT      O10619   2.420   5.196   0.387
 3367WAT     H110620   2.472   5.117   0.374
 3367WAT     H210621   2.483   5.264   0.410
 3368WAT      O10622   2.639   5.170   0.692
 3368WAT     H110623   2.576   5.099   0.709
 3368WAT     H210624   2.585   5.246   0.671
 3369WAT      O10625   2.933   6.831   1.959
 3369WAT     H110626   3.025   6.807   1.964
 3369WAT     H210627   2.931   6.914   1.911
 3370WAT      O10628   3.756   6.785   0.659
 3370WAT     H110629   3.774   6.717   0.595
 3370WAT     H210630   3.686   6.838   0.620
 3371WAT      O10631   2.651   5.097   1.936
 3371WAT     H110632   2.623   5.148   1.859
 3371WAT     H210633   2.690   5.018   1.899
 3372WAT      O10634   2.541   6.824   0.414
 3372WAT     H110635   2.614   6.796   0.360
 3372WAT     H210636   2.566   6.800   0.503
 3373WAT      O10637   2.457   6.436   0.415
 3373WAT     H110638   2.394   6.483   0.470
 3373WAT     H210639   2.468   6.351   0.458
 3374WAT      O10640   3.312   5.039   1.994
 3374WAT     H110641   3.300   5.071   2.083
 3374WAT     H210642   3.393   5.079   1.964
 3375WAT      O10643   3.590   6.754   1.942
 3375WAT     H110644   3.669   6.704   1.921
 3375WAT     H210645   3.619   6.822   2.003
 3376WAT      O10646   3.202   3.963   4.662
 3376WAT     H110647   3.194   3.872   4.635
 3376WAT     H210648   3.161   4.013   4.592
 3377WAT      O10649   3.015   4.141   4.850
 3377WAT     H110650   2.938   4.093   4.879
 3377WAT     H210651   3.080   4.073   4.833
 3378WAT      O10652   2.417   4.172   4.938
 3378WAT     H110653   2.334   4.147   4.978
 3378WAT     H210654   2.478   4.179   5.012
 3379WAT      O10655   3.417   4.582   4.728
 3379WAT     H110656   3.371   4.505   4.761
 3379WAT     H210657   3.499   4.584   4.779
 3380WAT      O10658   2.415   4.576   4.958
 3380WAT     H110659   2.445   4.487   4.940
 3380WAT     H210660   2.489   4.631   4.935
 3381WAT      O10661   2.258   3.668   4.316
 3381WAT     H110662   2.169   3.703   4.306
 3381WAT     H210663   2.286   3.648   4.227
 3382WAT      O10664   2.054   3.928   4.905
 3382WAT     H110665   2.111   3.852   4.905
 3382WAT     H210666   2.054   3.958   4.814
 3383WAT      O10667   3.040   4.810   4.690
 3383WAT     H110668   2.978   4.856   4.633
 3383WAT     H210669   3.126   4.826   4.650
 3384WAT      O10670   2.959   4.409   4.851
 3384WAT     H110671   2.953   4.315   4.835
 3384WAT     H210672   3.036   4.418   4.908
 3385WAT      O10673   2.179   3.469   5.084
 3385WAT     H110674   2.161   3.380   5.112
 3385WAT     H210675   2.138   3.524   5.151
 3386WAT      O10676   3.062   3.689   4.874
 3386WAT     H110677   3.100   3.602   4.862
 3386WAT     H210678   3.053   3.723   4.785
 3387WAT      O10679   2.476   3.527   4.420
 3387WAT     H110680   2.486   3.617   4.451
 3387WAT     H210681   2.384   3.522   4.391
 3388WAT      O10682   3.441   3.439   4.567
 3388WAT     H110683   3.523   3.390   4.571
 3388WAT     H210684   3.444   3.498   4.642
 3389WAT      O10685   2.240   3.719   4.944
 3389WAT     H110686   2.308   3.745   5.006
 3389WAT     H210687   2.209   3.635   4.978
 3390WAT      O10688   2.660   3.824   4.853
 3390WAT     H110689   2.710   3.873   4.917
 3390WAT     H210690   2.713   3.746   4.836
 3391WAT      O10691   3.870   3.641   5.223
 3391WAT     H110692   3.799   3.679   5.172
 3391WAT     H210693   3.896   3.710   5.284
 3392WAT      O10694   2.488   3.288   5.280
 3392WAT     H110695   2.488   3.339   5.199
 3392WAT     H210696   2.405   3.240   5.277
 3393WAT      O10697   3.127   4.299   4.430
 3393WAT     H110698   3.065   4.345   4.373
 3393WAT     H210699   3.178   4.368   4.471
 3394WAT      O10700   2.613   4.252   5.097
 3394WAT     H110701   2.580   4.314   5.162
 3394WAT     H210702   2.631   4.304   5.020
 3395WAT      O10703   3.464   3.633   4.844
 3395WAT     H110704   3.394   3.662   4.902
 3395WAT     H210705   3.500   3.714   4.808
 3396WAT      O10706   2.456   3.459   5.080
 3396WAT     H110707   2.490   3.543   5.051
 3396WAT     H210708   2.362   3.474   5.092
 3397WAT      O10709   2.534   4.448   5.279
 3397WAT     H110710   2.596   4.516   5.251
 3397WAT     H210711   2.448   4.489   5.270
 3398WAT      O10712   2.064   4.367   4.167
 3398WAT     H110713   2.026   4.416   4.094
 3398WAT     H210714   2.089   4.435   4.230
 3399WAT      O10715   3.626   4.595   5.071
 3399WAT     H110716   3.558   4.662   5.070
 3399WAT     H210717   3.680   4.615   4.994
 3400WAT      O10718   3.771   3.578   4.883
 3400WAT     H110719   3.676   3.581   4.897
 3400WAT     H210720   3.804   3.659   4.922
 3401WAT      O10721   2.824   3.207   4.713
 3401WAT     H110722   2.855   3.152   4.641
 3401WAT     H210723   2.731   3.221   4.695
 3402WAT      O10724   3.380   4.779   4.942
 3402WAT     H110725   3.381   4.739   4.855
 3402WAT     H210726   3.324   4.857   4.932
 3403WAT      O10727   3.509   4.451   4.451
 3403WAT     H110728   3.498   4.357   4.463
 3403WAT     H210729   3.509   4.487   4.540
 3404WAT      O10730   3.319   4.269   5.075
 3404WAT     H110731   3.361   4.248   4.991
 3404WAT     H210732   3.392   4.295   5.132
 3405WAT      O10733   3.063   4.014   4.387
 3405WAT     H110734   2.971   4.007   4.409
 3405WAT     H210735   3.078   4.108   4.375
 3406WAT      O10736   3.714   4.109   5.084
 3406WAT     H110737   3.631   4.116   5.036
 3406WAT     H210738   3.774   4.168   5.037
 3407WAT      O10739   3.466   4.170   4.437
 3407WAT     H110740   3.404   4.136   4.372
 3407WAT     H210741   3.464   4.106   4.508
 3408WAT      O10742   3.410   3.788   5.179
 3408WAT     H110743   3.369   3.871   5.204
 3408WAT     H210744   3.337   3.729   5.159
 3409WAT      O10745   2.624   4.067   4.665
 3409WAT     H110746   2.583   3.995   4.615
 3409WAT     H210747   2.632   4.032   4.754
 3410WAT      O10748   2.671   4.435   4.881
 3410WAT     H110749   2.641   4.375   4.813
 3410WAT     H210750   2.766   4.439   4.870
 3411WAT      O10751   2.495   3.744   5.043
 3411WAT     H110752   2.550   3.755   4.965
 3411WAT     H210753   2.547   3.781   5.114
 3412WAT      O10754   3.479   4.793   5.247
 3412WAT     H110755   3.432   4.873   5.228
 3412WAT     H210756   3.411   4.727   5.263
 3413WAT      O10757   2.580   4.409   5.546
 3413WAT     H110758   2.490   4.432   5.571
 3413WAT     H210759   2.582   4.421   5.451
 3414WAT      O10760   3.284   4.094   4.138
 3414WAT     H110761   3.328   4.010   4.123
 3414WAT     H210762   3.355   4.157   4.146
 3415WAT      O10763   2.463   4.096   5.404
 3415WAT     H110764   2.449   4.183   5.441
 3415WAT     H210765   2.374   4.062   5.389
 3416WAT      O10766   3.095   4.588   4.534
 3416WAT     H110767   3.139   4.662   4.493
 3416WAT     H210768   3.089   4.612   4.627
 3417WAT      O10769   2.642   4.690   5.625
 3417WAT     H110770   2.639   4.731   5.538
 3417WAT     H210771   2.626   4.598   5.608
 3418WAT      O10772   3.642   3.219   3.969
 3418WAT     H110773   3.611   3.229   4.059
 3418WAT     H210774   3.718   3.277   3.964
 3419WAT      O10775   2.294   3.956   4.415
 3419WAT     H110776   2.282   4.029   4.354
 3419WAT     H210777   2.263   3.879   4.367
 3420WAT      O10778   2.058   4.273   4.995
 3420WAT     H110779   2.065   4.287   4.901
 3420WAT     H210780   2.119   4.202   5.015
 3421WAT      O10781   2.182   4.443   4.637
 3421WAT     H110782   2.141   4.457   4.551
 3421WAT     H210783   2.271   4.415   4.616
 3422WAT      O10784   3.778   4.488   5.470
 3422WAT     H110785   3.790   4.464   5.378
 3422WAT     H210786   3.782   4.405   5.517
 3423WAT      O10787   3.164   4.858   5.327
 3423WAT     H110788   3.215   4.849   5.407
 3423WAT     H210789   3.080   4.893   5.356
 3424WAT      O10790   3.362   4.887   4.270
 3424WAT     H110791   3.346   4.858   4.360
 3424WAT     H210792   3.345   4.809   4.216
 3425WAT      O10793   2.609   4.865   4.448
 3425WAT     H110794   2.592   4.773   4.426
 3425WAT     H210795   2.524   4.901   4.472
 3426WAT      O10796   3.332   4.638   4.126
 3426WAT     H110797   3.262   4.637   4.060
 3426WAT     H210798   3.406   4.595   4.083
 3427WAT      O10799   3.288   4.800   4.533
 3427WAT     H110800   3.334   4.722   4.565
 3427WAT     H210801   3.322   4.871   4.588
 3428WAT      O10802   3.763   3.693   5.567
 3428WAT     H110803   3.701   3.744   5.514
 3428WAT     H210804   3.731   3.603   5.561
 3429WAT      O10805   2.063   4.377   5.249
 3429WAT     H110806   2.080   4.330   5.168
 3429WAT     H210807   2.110   4.327   5.316
 3430WAT      O10808   2.540   3.290   4.753
 3430WAT     H110809   2.496   3.369   4.720
 3430WAT     H210810   2.596   3.323   4.824
 3431WAT      O10811   2.969   3.577   5.313
 3431WAT     H110812   2.923   3.598   5.395
 3431WAT     H210813   2.929   3.496   5.283
 3432WAT      O10814   3.469   3.699   5.426
 3432WAT     H110815   3.384   3.669   5.458
 3432WAT     H210816   3.453   3.724   5.335
 3433WAT      O10817   3.179   3.849   5.636
 3433WAT     H110818   3.211   3.766   5.602
 3433WAT     H210819   3.258   3.902   5.651
 3434WAT      O10820   2.744   3.345   4.939
 3434WAT     H110821   2.774   3.436   4.931
 3434WAT     H210822   2.799   3.296   4.878
 3435WAT      O10823   2.520   3.803   4.526
 3435WAT     H110824   2.497   3.781   4.616
 3435WAT     H210825   2.442   3.846   4.491
 3436WAT      O10826   3.243   3.803   4.386
 3436WAT     H110827   3.183   3.876   4.367
 3436WAT     H210828   3.297   3.797   4.307
 3437WAT      O10829   2.764   3.893   5.592
 3437WAT     H110830   2.754   3.799   5.577
 3437WAT     H210831   2.848   3.915   5.553
 3438WAT      O10832   3.103   3.667   4.589
 3438WAT     H110833   3.143   3.699   4.507
 3438WAT     H210834   3.139   3.579   4.600
 3439WAT      O10835   2.277   3.534   5.408
 3439WAT     H110836   2.237   3.619   5.428
 3439WAT     H210837   2.208   3.470   5.427
 3440WAT      O10838   2.007   3.326   4.811
 3440WAT     H110839   1.978   3.383   4.882
 3440WAT     H210840   2.081   3.278   4.847
 3441WAT      O10841   2.026   3.720   3.932
 3441WAT     H110842   2.017   3.815   3.946
 3441WAT     H210843   1.990   3.706   3.844
 3442WAT      O10844   3.162   3.926   4.998
 3442WAT     H110845   3.089   3.977   5.033
 3442WAT     H210846   3.122   3.844   4.968
 3443WAT      O10847   2.806   3.594   4.839
 3443WAT     H110848   2.806   3.550   4.754
 3443WAT     H210849   2.895   3.626   4.850
 3444WAT      O10850   2.391   3.582   4.735
 3444WAT     H110851   2.357   3.630   4.810
 3444WAT     H210852   2.314   3.537   4.699
 3445WAT      O10853   3.208   3.471   4.940
 3445WAT     H110854   3.210   3.517   5.024
 3445WAT     H210855   3.183   3.381   4.961
 3446WAT      O10856   2.713   3.925   4.078
 3446WAT     H110857   2.656   3.880   4.015
 3446WAT     H210858   2.784   3.961   4.024
 3447WAT      O10859   3.551   3.213   5.523
 3447WAT     H110860   3.583   3.140   5.576
 3447WAT     H210861   3.554   3.181   5.433
 3448WAT      O10862   2.221   4.315   5.465
 3448WAT     H110863   2.182   4.251   5.525
 3448WAT     H210864   2.252   4.385   5.522
 3449WAT      O10865   2.836   4.000   5.013
 3449WAT     H110866   2.872   3.952   5.088
 3449WAT     H210867   2.817   4.087   5.048
 3450WAT      O10868   2.122   3.474   4.626
 3450WAT     H110869   2.094   3.438   4.710
 3450WAT     H210870   2.116   3.401   4.565
 3451WAT      O10871   2.615   3.904   5.245
 3451WAT     H110872   2.584   3.992   5.268
 3451WAT     H210873   2.710   3.910   5.249
 3452WAT      O10874   2.467   4.324   4.305
 3452WAT     H110875   2.390   4.270   4.289
 3452WAT     H210876   2.540   4.272   4.271
 3453WAT      O10877   3.543   4.224   4.884
 3453WAT     H110878   3.615   4.274   4.845
 3453WAT     H210879   3.523   4.156   4.820
 3454WAT      O10880   3.082   4.231   5.473
 3454WAT     H110881   3.075   4.139   5.447
 3454WAT     H210882   3.019   4.241   5.544
 3455WAT      O10883   3.361   3.801   4.128
 3455WAT     H110884   3.450   3.832   4.111
 3455WAT     H210885   3.358   3.713   4.089
 3456WAT      O10886   2.472   4.291   4.669
 3456WAT     H110887   2.524   4.211   4.663
 3456WAT     H210888   2.427   4.285   4.753
 3457WAT      O10889   2.961   4.418   4.196
 3457WAT     H110890   2.995   4.492   4.146
 3457WAT     H210891   2.878   4.449   4.232
 3458WAT      O10892   2.220   3.988   5.360
 3458WAT     H110893   2.184   4.054   5.419
 3458WAT     H210894   2.191   3.905   5.397
 3459WAT      O10895   2.540   4.034   5.648
 3459WAT     H110896   2.510   4.048   5.559
 3459WAT     H210897   2.618   3.978   5.639
 3460WAT      O10898   3.075   4.513   5.448
 3460WAT     H110899   3.076   4.420   5.426
 3460WAT     H210900   3.004   4.522   5.512
 3461WAT      O10901   3.588   3.932   4.075
 3461WAT     H110902   3.580   3.975   3.990
 3461WAT     H210903   3.660   3.978   4.118
 3462WAT      O10904   3.696   4.177   5.383
 3462WAT     H110905   3.623   4.237   5.363
 3462WAT     H210906   3.749   4.177   5.303
 3463WAT      O10907   3.691   4.617   4.348
 3463WAT     H110908   3.627   4.552   4.375
 3463WAT     H210909   3.652   4.658   4.270
 3464WAT      O10910   3.249   4.350   4.732
 3464WAT     H110911   3.284   4.290   4.666
 3464WAT     H210912   3.160   4.317   4.750
 3465WAT      O10913   2.857   4.426   4.473
 3465WAT     H110914   2.926   4.481   4.511
 3465WAT     H210915   2.779   4.480   4.477
 3466WAT      O10916   2.071   3.988   4.022
 3466WAT     H110917   2.158   4.016   4.051
 3466WAT     H210918   2.022   4.069   4.011
 3467WAT      O10919   2.788   4.126   4.434
 3467WAT     H110920   2.833   4.207   4.457
 3467WAT     H210921   2.753   4.095   4.518
 3468WAT      O10922   3.018   4.677   5.157
 3468WAT     H110923   3.082   4.698   5.225
 3468WAT     H210924   3.054   4.601   5.112
 3469WAT      O10925   2.378   3.161   4.482
 3469WAT     H110926   2.365   3.160   4.577
 3469WAT     H210927   2.295   3.195   4.447
 3470WAT      O10928   3.145   4.478   5.029
 3470WAT     H110929   3.210   4.408   5.040
 3470WAT     H210930   3.198   4.556   5.011
 3471WAT      O10931   3.530   4.506   4.002
 3471WAT     H110932   3.507   4.435   4.061
 3471WAT     H210933   3.491   4.481   3.918
 3472WAT      O10934   3.323   4.558   5.349
 3472WAT     H110935   3.356   4.616   5.417
 3472WAT     H210936   3.231   4.545   5.372
 3473WAT      O10937   2.108   4.909   4.079
 3473WAT     H110938   2.144   4.969   4.014
 3473WAT     H210939   2.094   4.964   4.156
 3474WAT      O10940   2.078   3.337   5.428
 3474WAT     H110941   2.006   3.357   5.488
 3474WAT     H210942   2.120   3.259   5.465
 3475WAT      O10943   3.488   4.298   4.168
 3475WAT     H110944   3.459   4.344   4.246
 3475WAT     H210945   3.568   4.252   4.195
 3476WAT      O10946   2.106   4.736   5.526
 3476WAT     H110947   2.117   4.641   5.512
 3476WAT     H210948   2.041   4.762   5.462
 3477WAT      O10949   2.906   4.563   5.666
 3477WAT     H110950   2.874   4.491   5.721
 3477WAT     H210951   2.838   4.630   5.674
 3478WAT      O10952   2.710   4.647   4.161
 3478WAT     H110953   2.709   4.721   4.099
 3478WAT     H210954   2.618   4.623   4.170
 3479WAT      O10955   2.270   4.169   4.235
 3479WAT     H110956   2.209   4.243   4.236
 3479WAT     H210957   2.317   4.178   4.153
 3480WAT      O10958   3.227   3.586   5.203
 3480WAT     H110959   3.264   3.504   5.236
 3480WAT     H210960   3.141   3.592   5.244
 3481WAT      O10961   3.564   3.481   4.284
 3481WAT     H110962   3.501   3.492   4.212
 3481WAT     H210963   3.514   3.503   4.363
 3482WAT      O10964   3.008   4.654   4.027
 3482WAT     H110965   3.018   4.633   3.934
 3482WAT     H210966   2.918   4.628   4.047
 3483WAT      O10967   2.761   3.709   4.425
 3483WAT     H110968   2.690   3.756   4.469
 3483WAT     H210969   2.789   3.644   4.489
 3484WAT      O10970   2.923   3.851   5.225
 3484WAT     H110971   2.973   3.899   5.292
 3484WAT     H210972   2.937   3.759   5.246
 3485WAT      O10973   3.164   3.382   4.569
 3485WAT     H110974   3.151   3.384   4.474
 3485WAT     H210975   3.259   3.387   4.581
 3486WAT      O10976   2.873   4.905   4.496
 3486WAT     H110977   2.898   4.902   4.404
 3486WAT     H210978   2.778   4.893   4.496
 3487WAT      O10979   3.644   3.473   5.309
 3487WAT     H110980   3.594   3.547   5.343
 3487WAT     H210981   3.725   3.512   5.278
 3488WAT      O10982   3.473   3.997   4.654
 3488WAT     H110983   3.379   3.999   4.671
 3488WAT     H210984   3.505   3.919   4.699
 3489WAT      O10985   2.471   4.166   4.010
 3489WAT     H110986   2.548   4.154   4.066
 3489WAT     H210987   2.479   4.096   3.945
 3490WAT      O10988   2.340   3.909   4.078
 3490WAT     H110989   2.348   3.814   4.090
 3490WAT     H210990   2.430   3.942   4.089
 3491WAT      O10991   3.673   4.714   4.822
 3491WAT     H110992   3.686   4.797   4.869
 3491WAT     H210993   3.760   4.693   4.787
 3492WAT      O10994   2.420   4.924   4.789
 3492WAT     H110995   2.494   4.869   4.816
 3492WAT     H210996   2.459   5.010   4.775
 3493WAT      O10997   2.109   4.530   4.376
 3493WAT     H110998   2.016   4.555   4.375
 3493WAT     H210999   2.156   4.613   4.364
 3494WAT      O11000   2.732   4.841   3.971
 3494WAT     H111001   2.811   4.870   3.926
 3494WAT     H211002   2.680   4.798   3.903
 3495WAT      O11003   3.348   4.826   5.563
 3495WAT     H111004   3.443   4.817   5.558
 3495WAT     H211005   3.333   4.892   5.631
 3496WAT      O11006   3.637   4.764   4.113
 3496WAT     H111007   3.608   4.722   4.032
 3496WAT     H211008   3.617   4.857   4.101
 3497WAT      O11009   2.093   4.091   5.602
 3497WAT     H111010   2.143   4.033   5.659
 3497WAT     H211011   2.019   4.119   5.656
 3498WAT      O11012   2.783   4.363   3.957
 3498WAT     H111013   2.773   4.302   4.030
 3498WAT     H211014   2.767   4.311   3.879
 3499WAT      O11015   2.798   4.232   5.555
 3499WAT     H111016   2.722   4.288   5.547
 3499WAT     H211017   2.817   4.202   5.466
 3500WAT      O11018   3.107   4.269   4.018
 3500WAT     H111019   3.052   4.314   4.082
 3500WAT     H211020   3.170   4.219   4.070
 3501WAT      O11021   3.513   4.405   5.611
 3501WAT     H111022   3.587   4.438   5.561
 3501WAT     H211023   3.436   4.422   5.556
 3502WAT      O11024   2.674   4.165   4.207
 3502WAT     H111025   2.716   4.149   4.292
 3502WAT     H211026   2.687   4.084   4.158
 3503WAT      O11027   2.490   3.763   5.488
 3503WAT     H111028   2.437   3.714   5.425
 3503WAT     H211029   2.557   3.806   5.435
 3504WAT      O11030   2.925   4.068   3.932
 3504WAT     H111031   2.977   3.996   3.896
 3504WAT     H211032   2.990   4.131   3.962
 3505WAT      O11033   3.380   4.210   5.465
 3505WAT     H111034   3.422   4.225   5.550
 3505WAT     H211035   3.287   4.222   5.481
 3506WAT      O11036   3.427   3.944   5.665
 3506WAT     H111037   3.486   3.868   5.656
 3506WAT     H211038   3.445   3.997   5.587
 3507WAT      O11039   2.539   3.460   5.496
 3507WAT     H111040   2.530   3.398   5.424
 3507WAT     H211041   2.481   3.532   5.473
 3508WAT      O11042   2.816   3.316   5.199
 3508WAT     H111043   2.771   3.318   5.115
 3508WAT     H211044   2.752   3.276   5.259
 3509WAT      O11045   2.856   4.205   5.262
 3509WAT     H111046   2.898   4.289   5.244
 3509WAT     H211047   2.764   4.219   5.239
 3510WAT      O11048   3.090   3.978   5.400
 3510WAT     H111049   3.102   3.919   5.474
 3510WAT     H211050   3.176   3.982   5.358
 3511WAT      O11051   3.324   4.034   5.258
 3511WAT     H111052   3.271   4.086   5.197
 3511WAT     H211053   3.358   4.097   5.321
 3512WAT      O11054   2.641   4.836   5.373
 3512WAT     H111055   2.588   4.908   5.341
 3512WAT     H211056   2.667   4.788   5.294
 3513WAT      O11057   2.767   3.632   5.526
 3513WAT     H111058   2.826   3.602   5.594
 3513WAT     H211059   2.685   3.585   5.541
 3514WAT      O11060   3.249   3.594   5.549
 3514WAT     H111061   3.180   3.528   5.543
 3514WAT     H211062   3.321   3.549   5.594
 3515WAT      O11063   2.927   4.959   5.399
 3515WAT     H111064   2.920   5.049   5.430
 3515WAT     H211065   2.837   4.927   5.396
 3516WAT      O11066   2.982   4.876   4.161
 3516WAT     H111067   3.071   4.910   4.163
 3516WAT     H211068   2.985   4.803   4.099
 3517WAT      O11069   2.346   4.413   3.984
 3517WAT     H111070   2.390   4.467   4.050
 3517WAT     H211071   2.394   4.330   3.985
 3518WAT      O11072   2.067   4.692   4.729
 3518WAT     H111073   2.100   4.605   4.706
 3518WAT     H211074   2.110   4.712   4.812
 3519WAT      O11075   2.527   4.525   4.495
 3519WAT     H111076   2.497   4.513   4.585
 3519WAT     H211077   2.516   4.439   4.455
 3520WAT      O11078   2.116   4.779   5.003
 3520WAT     H111079   2.072   4.797   5.086
 3520WAT     H211080   2.173   4.854   4.989
 3521WAT      O11081   3.680   4.729   5.432
 3521WAT     H111082   3.620   4.735   5.358
 3521WAT     H211083   3.693   4.635   5.445
 3522WAT      O11084   3.804   4.503   3.966
 3522WAT     H111085   3.721   4.510   4.013
 3522WAT     H211086   3.822   4.592   3.935
 3523WAT      O11087   3.749   4.177   4.216
 3523WAT     H111088   3.826   4.234   4.227
 3523WAT     H211089   3.751   4.121   4.293
 3524WAT      O11090   2.099   4.030   4.639
 3524WAT     H111091   2.034   4.003   4.575
 3524WAT     H211092   2.183   4.019   4.594
 3525WAT      O11093   3.850   4.263   4.700
 3525WAT     H111094   3.887   4.185   4.660
 3525WAT     H211095   3.914   4.332   4.683
 3526WAT      O11096   3.548   4.401   5.242
 3526WAT     H111097   3.467   4.444   5.268
 3526WAT     H211098   3.589   4.462   5.180
 3527WAT      O11099   3.755   4.207   3.932
 3527WAT     H111100   3.782   4.297   3.919
 3527WAT     H211101   3.736   4.200   4.025
 3528WAT      O11102   3.394   3.509   4.061
 3528WAT     H111103   3.436   3.490   3.977
 3528WAT     H211104   3.364   3.424   4.092
 3529WAT      O11105   3.744   4.000   4.431
 3529WAT     H111106   3.707   3.924   4.388
 3529WAT     H211107   3.671   4.039   4.480
 3530WAT      O11108   2.203   4.068   5.093
 3530WAT     H111109   2.240   4.060   5.181
 3530WAT     H211110   2.146   3.992   5.083
 3531WAT      O11111   3.683   3.915   5.394
 3531WAT     H111112   3.660   3.892   5.304
 3531WAT     H211113   3.709   4.007   5.390
 3532WAT      O11114   2.158   3.759   5.484
 3532WAT     H111115   2.069   3.756   5.518
 3532WAT     H211116   2.212   3.779   5.560
 3533WAT      O11117   3.527   3.438   5.672
 3533WAT     H111118   3.615   3.439   5.711
 3533WAT     H211119   3.528   3.364   5.611
 3534WAT      O11120   2.021   3.751   4.233
 3534WAT     H111121   1.930   3.777   4.216
 3534WAT     H211122   2.069   3.778   4.155
 3535WAT      O11123   3.672   3.823   4.761
 3535WAT     H111124   3.724   3.774   4.698
 3535WAT     H211125   3.730   3.836   4.836
 3536WAT      O11126   3.690   3.831   5.113
 3536WAT     H111127   3.595   3.828   5.125
 3536WAT     H211128   3.708   3.922   5.090
 3537WAT      O11129   2.275   3.656   4.024
 3537WAT     H111130   2.346   3.614   3.976
 3537WAT     H211131   2.203   3.663   3.961
 3538WAT      O11132   3.621   3.749   4.355
 3538WAT     H111133   3.670   3.725   4.433
 3538WAT     H211134   3.601   3.665   4.313
 3539WAT      O11135   2.209   3.187   4.919
 3539WAT     H111136   2.273   3.132   4.874
 3539WAT     H211137   2.251   3.212   5.001
 3540WAT      O11138   3.764   3.612   4.608
 3540WAT     H111139   3.753   3.597   4.702
 3540WAT     H211140   3.840   3.560   4.584
 3541WAT      O11141   3.598   3.206   5.254
 3541WAT     H111142   3.662   3.268   5.291
 3541WAT     H211143   3.613   3.210   5.160
 3542WAT      O11144   3.852   3.395   3.932
 3542WAT     H111145   3.945   3.382   3.912
 3542WAT     H211146   3.850   3.403   4.028
 3543WAT      O11147   3.860   3.472   4.195
 3543WAT     H111148   3.780   3.466   4.248
 3543WAT     H211149   3.880   3.566   4.194
 3544WAT      O11150   3.554   4.876   4.594
 3544WAT     H111151   3.614   4.844   4.527
 3544WAT     H211152   3.580   4.829   4.674
 3545WAT      O11153   2.184   3.202   5.193
 3545WAT     H111154   2.149   3.248   5.269
 3545WAT     H211155   2.151   3.113   5.201
 3546WAT      O11156   2.345   4.520   5.609
 3546WAT     H111157   2.340   4.483   5.697
 3546WAT     H211158   2.358   4.613   5.623
 3547WAT      O11159   2.715   4.675   5.169
 3547WAT     H111160   2.691   4.702   5.081
 3547WAT     H211161   2.809   4.692   5.175
 3548WAT      O11162   2.935   3.322   5.545
 3548WAT     H111163   2.929   3.381   5.620
 3548WAT     H211164   3.029   3.311   5.530
 3549WAT      O11165   3.199   3.287   5.509
 3549WAT     H111166   3.260   3.319   5.443
 3549WAT     H211167   3.254   3.239   5.571
 3550WAT      O11168   3.841   4.877   5.249
 3550WAT     H111169   3.791   4.917   5.178
 3550WAT     H211170   3.780   4.815   5.289
 3551WAT      O11171   2.251   3.155   5.520
 3551WAT     H111172   2.306   3.137   5.444
 3551WAT     H211173   2.258   3.076   5.574
 3552WAT      O11174   2.329   4.814   5.321
 3552WAT     H111175   2.269   4.801   5.395
 3552WAT     H211176   2.328   4.731   5.275
 3553WAT      O11177   3.273   3.144   5.142
 3553WAT     H111178   3.186   3.177   5.121
 3553WAT     H211179   3.262   3.096   5.224
 3554WAT      O11180   3.364   3.364   5.280
 3554WAT     H111181   3.331   3.283   5.242
 3554WAT     H211182   3.459   3.360   5.268
 3555WAT      O11183   3.609   4.941   4.977
 3555WAT     H111184   3.563   5.017   4.940
 3555WAT     H211185   3.546   4.869   4.972
 3556WAT      O11186   2.292   4.551   5.216
 3556WAT     H111187   2.219   4.489   5.210
 3556WAT     H211188   2.298   4.590   5.129
 3557WAT      O11189   2.652   4.772   4.895
 3557WAT     H111190   2.704   4.711   4.842
 3557WAT     H211191   2.717   4.823   4.944
 3558WAT      O11192   2.926   4.861   4.978
 3558WAT     H111193   2.955   4.836   4.890
 3558WAT     H211194   2.977   4.806   5.037
 3559WAT      O11195   3.048   3.235   5.035
 3559WAT     H111196   2.970   3.283   5.063
 3559WAT     H211197   3.018   3.145   5.025
 3560WAT      O11198   3.503   3.305   4.840
 3560WAT     H111199   3.547   3.300   4.755
 3560WAT     H211200   3.476   3.397   4.847
 3561WAT      O11201   3.689   3.269   4.641
 3561WAT     H111202   3.683   3.174   4.626
 3561WAT     H211203   3.767   3.279   4.696
 3562WAT      O11204   2.120   4.883   4.537
 3562WAT     H111205   2.103   4.819   4.607
 3562WAT     H211206   2.033   4.903   4.502
 3563WAT      O11207   2.182   3.266   4.288
 3563WAT     H111208   2.258   3.277   4.230
 3563WAT     H211209   2.136   3.349   4.283
 3564WAT      O11210   2.836   3.477   4.587
 3564WAT     H111211   2.755   3.440   4.553
 3564WAT     H211212   2.887   3.402   4.617
 3565WAT      O11213   3.287   3.144   4.710
 3565WAT     H111214   3.347   3.201   4.758
 3565WAT     H211215   3.213   3.200   4.688
 3566WAT      O11216   3.601   3.184   4.238
 3566WAT     H111217   3.620   3.274   4.265
 3566WAT     H211218   3.522   3.161   4.287
 3567WAT      O11219   2.281   4.752   4.282
 3567WAT     H111220   2.228   4.790   4.211
 3567WAT     H211221   2.273   4.814   4.354
 3568WAT      O11222   2.639   3.292   4.447
 3568WAT     H111223   2.576   3.222   4.464
 3568WAT     H211224   2.585   3.368   4.425
 3569WAT      O11225   2.933   4.953   5.714
 3569WAT     H111226   3.025   4.930   5.719
 3569WAT     H211227   2.931   5.036   5.666
 3570WAT      O11228   3.756   4.908   4.414
 3570WAT     H111229   3.774   4.839   4.350
 3570WAT     H211230   3.686   4.960   4.375
 3571WAT      O11231   2.651   3.220   5.691
 3571WAT     H111232   2.623   3.270   5.614
 3571WAT     H211233   2.690   3.140   5.654
 3572WAT      O11234   2.541   4.947   4.169
 3572WAT     H111235   2.614   4.918   4.115
 3572WAT     H211236   2.566   4.923   4.258
 3573WAT      O11237   2.457   4.558   4.170
 3573WAT     H111238   2.394   4.605   4.225
 3573WAT     H211239   2.468   4.474   4.213
 3574WAT      O11240   3.202   3.963   2.785
 3574WAT     H111241   3.194   3.872   2.758
 3574WAT     H211242   3.161   4.013   2.714
 3575WAT      O11243   2.179   3.469   3.206
 3575WAT     H111244   2.161   3.380   3.234
 3575WAT     H211245   2.138   3.524   3.274
 3576WAT      O11246   3.441   3.439   2.690
 3576WAT     H111247   3.523   3.390   2.694
 3576WAT     H211248   3.444   3.498   2.765
 3577WAT      O11249   3.127   4.299   2.552
 3577WAT     H111250   3.065   4.345   2.496
 3577WAT     H211251   3.178   4.368   2.594
 3578WAT      O11252   3.626   4.595   3.193
 3578WAT     H111253   3.558   4.662   3.192
 3578WAT     H211254   3.680   4.615   3.117
 3579WAT      O11255   3.509   4.451   2.573
 3579WAT     H111256   3.498   4.357   2.586
 3579WAT     H211257   3.509   4.487   2.662
 3580WAT      O11258   3.319   4.269   3.197
 3580WAT     H111259   3.361   4.248   3.114
 3580WAT     H211260   3.392   4.295   3.254
 3581WAT      O11261   3.063   4.014   2.509
 3581WAT     H111262   2.971   4.007   2.532
 3581WAT     H211263   3.078   4.108   2.498
 3582WAT      O11264   3.714   4.109   3.207
 3582WAT     H111265   3.631   4.116   3.159
 3582WAT     H211266   3.774   4.168   3.160
 3583WAT      O11267   3.466   4.170   2.559
 3583WAT     H111268   3.404   4.136   2.495
 3583WAT     H211269   3.464   4.106   2.630
 3584WAT      O11270   3.410   3.788   3.301
 3584WAT     H111271   3.369   3.871   3.326
 3584WAT     H211272   3.337   3.729   3.282
 3585WAT      O11273   3.479   4.793   3.370
 3585WAT     H111274   3.432   4.873   3.351
 3585WAT     H211275   3.411   4.727   3.385
 3586WAT      O11276   2.580   4.409   3.669
 3586WAT     H111277   2.490   4.432   3.693
 3586WAT     H211278   2.582   4.421   3.574
 3587WAT      O11279   3.284   4.094   2.260
 3587WAT     H111280   3.328   4.010   2.246
 3587WAT     H211281   3.355   4.157   2.269
 3588WAT      O11282   2.463   4.096   3.526
 3588WAT     H111283   2.449   4.183   3.563
 3588WAT     H211284   2.374   4.062   3.512
 3589WAT      O11285   2.642   4.690   3.747
 3589WAT     H111286   2.639   4.731   3.660
 3589WAT     H211287   2.626   4.598   3.731
 3590WAT      O11288   3.642   3.219   2.092
 3590WAT     H111289   3.611   3.229   2.182
 3590WAT     H211290   3.718   3.277   2.087
 3591WAT      O11291   3.837   4.769   3.877
 3591WAT     H111292   3.885   4.817   3.945
 3591WAT     H211293   3.900   4.762   3.804
 3592WAT      O11294   3.778   4.488   3.593
 3592WAT     H111295   3.790   4.464   3.501
 3592WAT     H211296   3.782   4.405   3.640
 3593WAT      O11297   3.164   4.858   3.450
 3593WAT     H111298   3.215   4.849   3.530
 3593WAT     H211299   3.080   4.893   3.479
 3594WAT      O11300   3.362   4.887   2.393
 3594WAT     H111301   3.346   4.858   2.482
 3594WAT     H211302   3.345   4.809   2.339
 3595WAT      O11303   3.332   4.638   2.249
 3595WAT     H111304   3.262   4.637   2.183
 3595WAT     H211305   3.406   4.595   2.206
 3596WAT      O11306   3.469   3.699   3.549
 3596WAT     H111307   3.384   3.669   3.581
 3596WAT     H211308   3.453   3.724   3.458
 3597WAT      O11309   3.179   3.849   3.759
 3597WAT     H111310   3.211   3.766   3.725
 3597WAT     H211311   3.258   3.902   3.774
 3598WAT      O11312   3.243   3.803   2.508
 3598WAT     H111313   3.183   3.876   2.490
 3598WAT     H211314   3.297   3.797   2.430
 3599WAT      O11315   2.764   3.893   3.715
 3599WAT     H111316   2.754   3.799   3.700
 3599WAT     H211317   2.848   3.915   3.675
 3600WAT      O11318   2.277   3.534   3.530
 3600WAT     H111319   2.237   3.619   3.551
 3600WAT     H211320   2.208   3.470   3.549
 3601WAT      O11321   2.026   3.720   2.055
 3601WAT     H111322   2.017   3.815   2.069
 3601WAT     H211323   1.990   3.706   1.967
 3602WAT      O11324   2.221   4.315   3.588
 3602WAT     H111325   2.182   4.251   3.648
 3602WAT     H211326   2.252   4.385   3.645
 3603WAT      O11327   2.615   3.904   3.368
 3603WAT     H111328   2.584   3.992   3.390
 3603WAT     H211329   2.710   3.910   3.371
 3604WAT      O11330   3.543   4.224   3.007
 3604WAT     H111331   3.615   4.274   2.968
 3604WAT     H211332   3.523   4.156   2.942
 3605WAT      O11333   3.089   3.363   2.421
 3605WAT     H111334   3.008   3.314   2.414
 3605WAT     H211335   3.070   3.447   2.379
 3606WAT      O11336   3.082   4.231   3.595
 3606WAT     H111337   3.075   4.139   3.570
 3606WAT     H211338   3.019   4.241   3.667
 3607WAT      O11339   3.361   3.801   2.251
 3607WAT     H111340   3.450   3.832   2.233
 3607WAT     H211341   3.358   3.713   2.212
 3608WAT      O11342   2.220   3.988   3.483
 3608WAT     H111343   2.184   4.054   3.541
 3608WAT     H211344   2.191   3.905   3.520
 3609WAT      O11345   2.540   4.034   3.771
 3609WAT     H111346   2.510   4.048   3.681
 3609WAT     H211347   2.618   3.978   3.762
 3610WAT      O11348   3.075   4.513   3.571
 3610WAT     H111349   3.076   4.420   3.549
 3610WAT     H211350   3.004   4.522   3.634
 3611WAT      O11351   3.588   3.932   2.198
 3611WAT     H111352   3.580   3.975   2.112
 3611WAT     H211353   3.660   3.978   2.241
 3612WAT      O11354   3.696   4.177   3.505
 3612WAT     H111355   3.623   4.237   3.485
 3612WAT     H211356   3.749   4.177   3.425
 3613WAT      O11357   3.691   4.617   2.470
 3613WAT     H111358   3.627   4.552   2.498
 3613WAT     H211359   3.652   4.658   2.393
 3614WAT      O11360   3.249   4.350   2.855
 3614WAT     H111361   3.284   4.290   2.789
 3614WAT     H211362   3.160   4.317   2.872
 3615WAT      O11363   2.071   3.988   2.145
 3615WAT     H111364   2.158   4.016   2.173
 3615WAT     H211365   2.022   4.069   2.133
 3616WAT      O11366   3.018   4.677   3.280
 3616WAT     H111367   3.082   4.698   3.348
 3616WAT     H211368   3.054   4.601   3.235
 3617WAT      O11369   3.145   4.478   3.152
 3617WAT     H111370   3.210   4.408   3.163
 3617WAT     H211371   3.198   4.556   3.134
 3618WAT      O11372   3.530   4.506   2.124
 3618WAT     H111373   3.507   4.435   2.183
 3618WAT     H211374   3.491   4.481   2.040
 3619WAT      O11375   3.323   4.558   3.472
 3619WAT     H111376   3.356   4.616   3.540
 3619WAT     H211377   3.231   4.545   3.495
 3620WAT      O11378   2.108   4.909   2.202
 3620WAT     H111379   2.144   4.969   2.136
 3620WAT     H211380   2.094   4.964   2.279
 3621WAT      O11381   2.078   3.337   3.550
 3621WAT     H111382   2.006   3.357   3.611
 3621WAT     H211383   2.120   3.259   3.587
 3622WAT      O11384   3.488   4.298   2.290
 3622WAT     H111385   3.459   4.344   2.369
 3622WAT     H211386   3.568   4.252   2.317
 3623WAT      O11387   2.906   4.563   3.789
 3623WAT     H111388   2.874   4.491   3.843
 3623WAT     H211389   2.838   4.630   3.796
 3624WAT      O11390   3.564   3.481   2.406
 3624WAT     H111391   3.501   3.492   2.335
 3624WAT     H211392   3.514   3.503   2.485
 3625WAT      O11393   3.008   4.654   2.150
 3625WAT     H111394   3.018   4.633   2.057
 3625WAT     H211395   2.918   4.628   2.170
 3626WAT      O11396   3.473   3.997   2.777
 3626WAT     H111397   3.379   3.999   2.794
 3626WAT     H211398   3.505   3.919   2.821
 3627WAT      O11399   3.673   4.714   2.944
 3627WAT     H111400   3.686   4.797   2.991
 3627WAT     H211401   3.760   4.693   2.909
 3628WAT      O11402   2.321   4.842   3.830
 3628WAT     H111403   2.401   4.874   3.872
 3628WAT     H211404   2.270   4.806   3.902
 3629WAT      O11405   2.732   4.841   2.094
 3629WAT     H111406   2.811   4.870   2.048
 3629WAT     H211407   2.680   4.798   2.026
 3630WAT      O11408   3.205   4.453   3.825
 3630WAT     H111409   3.144   4.455   3.751
 3630WAT     H211410   3.174   4.380   3.879
 3631WAT      O11411   3.348   4.826   3.686
 3631WAT     H111412   3.443   4.817   3.681
 3631WAT     H211413   3.333   4.892   3.753
 3632WAT      O11414   3.637   4.764   2.236
 3632WAT     H111415   3.608   4.722   2.154
 3632WAT     H211416   3.617   4.857   2.224
 3633WAT      O11417   2.093   4.091   3.725
 3633WAT     H111418   2.143   4.033   3.782
 3633WAT     H211419   2.019   4.119   3.778
 3634WAT      O11420   2.798   4.232   3.678
 3634WAT     H111421   2.722   4.288   3.669
 3634WAT     H211422   2.817   4.202   3.589
 3635WAT      O11423   3.513   4.405   3.734
 3635WAT     H111424   3.587   4.438   3.683
 3635WAT     H211425   3.436   4.422   3.678
 3636WAT      O11426   2.296   3.905   3.814
 3636WAT     H111427   2.300   3.875   3.905
 3636WAT     H211428   2.382   3.945   3.798
 3637WAT      O11429   3.380   4.210   3.587
 3637WAT     H111430   3.422   4.225   3.672
 3637WAT     H211431   3.287   4.222   3.603
 3638WAT      O11432   3.427   3.944   3.788
 3638WAT     H111433   3.486   3.868   3.779
 3638WAT     H211434   3.445   3.997   3.710
 3639WAT      O11435   2.856   4.205   3.384
 3639WAT     H111436   2.898   4.289   3.367
 3639WAT     H211437   2.764   4.219   3.361
 3640WAT      O11438   3.090   3.978   3.523
 3640WAT     H111439   3.102   3.919   3.596
 3640WAT     H211440   3.176   3.982   3.481
 3641WAT      O11441   3.324   4.034   3.380
 3641WAT     H111442   3.271   4.086   3.320
 3641WAT     H211443   3.358   4.097   3.443
 3642WAT      O11444   3.249   3.594   3.672
 3642WAT     H111445   3.180   3.528   3.665
 3642WAT     H211446   3.321   3.549   3.716
 3643WAT      O11447   3.312   3.254   2.278
 3643WAT     H111448   3.340   3.169   2.313
 3643WAT     H211449   3.234   3.277   2.329
 3644WAT      O11450   2.927   4.959   3.522
 3644WAT     H111451   2.920   5.049   3.552
 3644WAT     H211452   2.837   4.927   3.519
 3645WAT      O11453   3.680   4.729   3.555
 3645WAT     H111454   3.620   4.735   3.480
 3645WAT     H211455   3.693   4.635   3.567
 3646WAT      O11456   3.804   4.503   2.088
 3646WAT     H111457   3.721   4.510   2.135
 3646WAT     H211458   3.822   4.592   2.058
 3647WAT      O11459   3.749   4.177   2.339
 3647WAT     H111460   3.826   4.234   2.349
 3647WAT     H211461   3.751   4.121   2.416
 3648WAT      O11462   3.850   4.263   2.823
 3648WAT     H111463   3.887   4.185   2.782
 3648WAT     H211464   3.914   4.332   2.805
 3649WAT      O11465   3.548   4.401   3.364
 3649WAT     H111466   3.467   4.444   3.391
 3649WAT     H211467   3.589   4.462   3.303
 3650WAT      O11468   3.755   4.207   2.054
 3650WAT     H111469   3.782   4.297   2.041
 3650WAT     H211470   3.736   4.200   2.148
 3651WAT      O11471   3.394   3.509   2.184
 3651WAT     H111472   3.436   3.490   2.100
 3651WAT     H211473   3.364   3.424   2.215
 3652WAT      O11474   3.744   4.000   2.554
 3652WAT     H111475   3.707   3.924   2.510
 3652WAT     H211476   3.671   4.039   2.602
 3653WAT      O11477   3.683   3.915   3.517
 3653WAT     H111478   3.660   3.892   3.427
 3653WAT     H211479   3.709   4.007   3.512
 3654WAT      O11480   2.158   3.759   3.606
 3654WAT     H111481   2.069   3.756   3.640
 3654WAT     H211482   2.212   3.779   3.683
 3655WAT      O11483   3.527   3.438   3.795
 3655WAT     H111484   3.615   3.439   3.833
 3655WAT     H211485   3.528   3.364   3.734
 3656WAT      O11486   2.021   3.751   2.356
 3656WAT     H111487   1.930   3.777   2.338
 3656WAT     H211488   2.069   3.778   2.278
 3657WAT      O11489   3.672   3.823   2.884
 3657WAT     H111490   3.724   3.774   2.821
 3657WAT     H211491   3.730   3.836   2.958
 3658WAT      O11492   3.690   3.831   3.236
 3658WAT     H111493   3.595   3.828   3.247
 3658WAT     H211494   3.708   3.922   3.212
 3659WAT      O11495   3.621   3.749   2.478
 3659WAT     H111496   3.670   3.725   2.556
 3659WAT     H211497   3.601   3.665   2.436
 3660WAT      O11498   3.764   3.612   2.731
 3660WAT     H111499   3.753   3.597   2.825
 3660WAT     H211500   3.840   3.560   2.707
 3661WAT      O11501   3.852   3.395   2.055
 3661WAT     H111502   3.945   3.382   2.034
 3661WAT     H211503   3.850   3.403   2.150
 3662WAT      O11504   3.860   3.472   2.318
 3662WAT     H111505   3.780   3.466   2.370
 3662WAT     H211506   3.880   3.566   2.316
 3663WAT      O11507   2.345   4.520   3.732
 3663WAT     H111508   2.340   4.483   3.820
 3663WAT     H211509   2.358   4.613   3.746
 3664WAT      O11510   3.841   4.877   3.372
 3664WAT     H111511   3.791   4.917   3.300
 3664WAT     H211512   3.780   4.815   3.411
 3665WAT      O11513   3.609   4.941   3.100
 3665WAT     H111514   3.563   5.017   3.063
 3665WAT     H211515   3.546   4.869   3.094
 3666WAT      O11516   3.689   3.269   2.764
 3666WAT     H111517   3.683   3.174   2.749
 3666WAT     H211518   3.767   3.279   2.818
 3667WAT      O11519   2.120   4.883   2.660
 3667WAT     H111520   2.103   4.819   2.730
 3667WAT     H211521   2.033   4.903   2.625
 3668WAT      O11522   3.601   3.184   2.360
 3668WAT     H111523   3.620   3.274   2.387
 3668WAT     H211524   3.522   3.161   2.410
 3669WAT      O11525   2.933   4.953   3.837
 3669WAT     H111526   3.025   4.930   3.841
 3669WAT     H211527   2.931   5.036   3.789
 3670WAT      O11528   3.756   4.908   2.537
 3670WAT     H111529   3.774   4.839   2.472
 3670WAT     H211530   3.686   4.960   2.497
 3671WAT      O11531   3.590   4.876   3.819
 3671WAT     H111532   3.669   4.827   3.798
 3671WAT     H211533   3.619   4.944   3.880
 3672WAT      O11534   3.202   3.963   0.907
 3672WAT     H111535   3.194   3.872   0.880
 3672WAT     H211536   3.161   4.013   0.837
 3673WAT      O11537   3.015   4.141   1.095
 3673WAT     H111538   2.938   4.093   1.124
 3673WAT     H211539   3.080   4.073   1.078
 3674WAT      O11540   2.417   4.172   1.183
 3674WAT     H111541   2.334   4.147   1.223
 3674WAT     H211542   2.478   4.179   1.257
 3675WAT      O11543   3.417   4.582   0.973
 3675WAT     H111544   3.371   4.505   1.006
 3675WAT     H211545   3.499   4.584   1.024
 3676WAT      O11546   2.415   4.576   1.203
 3676WAT     H111547   2.445   4.487   1.185
 3676WAT     H211548   2.489   4.631   1.180
 3677WAT      O11549   2.258   3.668   0.562
 3677WAT     H111550   2.169   3.703   0.551
 3677WAT     H211551   2.286   3.648   0.472
 3678WAT      O11552   2.054   3.928   1.150
 3678WAT     H111553   2.111   3.852   1.150
 3678WAT     H211554   2.054   3.958   1.059
 3679WAT      O11555   3.040   4.810   0.935
 3679WAT     H111556   2.978   4.856   0.878
 3679WAT     H211557   3.126   4.826   0.895
 3680WAT      O11558   2.959   4.409   1.096
 3680WAT     H111559   2.953   4.315   1.080
 3680WAT     H211560   3.036   4.418   1.153
 3681WAT      O11561   2.179   3.469   1.329
 3681WAT     H111562   2.161   3.380   1.357
 3681WAT     H211563   2.138   3.524   1.396
 3682WAT      O11564   3.062   3.689   1.119
 3682WAT     H111565   3.100   3.602   1.108
 3682WAT     H211566   3.053   3.723   1.030
 3683WAT      O11567   2.476   3.527   0.665
 3683WAT     H111568   2.486   3.617   0.696
 3683WAT     H211569   2.384   3.522   0.636
 3684WAT      O11570   3.441   3.439   0.812
 3684WAT     H111571   3.523   3.390   0.816
 3684WAT     H211572   3.444   3.498   0.887
 3685WAT      O11573   2.240   3.719   1.190
 3685WAT     H111574   2.308   3.745   1.251
 3685WAT     H211575   2.209   3.635   1.223
 3686WAT      O11576   2.660   3.824   1.098
 3686WAT     H111577   2.710   3.873   1.162
 3686WAT     H211578   2.713   3.746   1.081
 3687WAT      O11579   3.870   3.641   1.469
 3687WAT     H111580   3.799   3.679   1.417
 3687WAT     H211581   3.896   3.710   1.529
 3688WAT      O11582   2.488   3.288   1.525
 3688WAT     H111583   2.488   3.339   1.444
 3688WAT     H211584   2.405   3.240   1.523
 3689WAT      O11585   3.127   4.299   0.675
 3689WAT     H111586   3.065   4.345   0.618
 3689WAT     H211587   3.178   4.368   0.716
 3690WAT      O11588   2.613   4.252   1.343
 3690WAT     H111589   2.580   4.314   1.407
 3690WAT     H211590   2.631   4.304   1.265
 3691WAT      O11591   3.464   3.633   1.089
 3691WAT     H111592   3.394   3.662   1.147
 3691WAT     H211593   3.500   3.714   1.053
 3692WAT      O11594   2.456   3.459   1.326
 3692WAT     H111595   2.490   3.543   1.296
 3692WAT     H211596   2.362   3.474   1.337
 3693WAT      O11597   2.534   4.448   1.524
 3693WAT     H111598   2.596   4.516   1.496
 3693WAT     H211599   2.448   4.489   1.515
 3694WAT      O11600   2.064   4.367   0.412
 3694WAT     H111601   2.026   4.416   0.339
 3694WAT     H211602   2.089   4.435   0.475
 3695WAT      O11603   3.626   4.595   1.316
 3695WAT     H111604   3.558   4.662   1.315
 3695WAT     H211605   3.680   4.615   1.239
 3696WAT      O11606   3.771   3.578   1.128
 3696WAT     H111607   3.676   3.581   1.142
 3696WAT     H211608   3.804   3.659   1.167
 3697WAT      O11609   2.824   3.207   0.958
 3697WAT     H111610   2.855   3.152   0.886
 3697WAT     H211611   2.731   3.221   0.940
 3698WAT      O11612   3.380   4.779   1.187
 3698WAT     H111613   3.381   4.739   1.100
 3698WAT     H211614   3.324   4.857   1.177
 3699WAT      O11615   3.509   4.451   0.696
 3699WAT     H111616   3.498   4.357   0.709
 3699WAT     H211617   3.509   4.487   0.785
 3700WAT      O11618   3.319   4.269   1.320
 3700WAT     H111619   3.361   4.248   1.236
 3700WAT     H211620   3.392   4.295   1.377
 3701WAT      O11621   3.063   4.014   0.632
 3701WAT     H111622   2.971   4.007   0.655
 3701WAT     H211623   3.078   4.108   0.620
 3702WAT      O11624   3.062   3.641   0.331
 3702WAT     H111625   2.968   3.657   0.340
 3702WAT     H211626   3.094   3.713   0.277
 3703WAT      O11627   3.714   4.109   1.329
 3703WAT     H111628   3.631   4.116   1.282
 3703WAT     H211629   3.774   4.168   1.282
 3704WAT      O11630   3.466   4.170   0.682
 3704WAT     H111631   3.404   4.136   0.617
 3704WAT     H211632   3.464   4.106   0.753
 3705WAT      O11633   3.410   3.788   1.424
 3705WAT     H111634   3.369   3.871   1.449
 3705WAT     H211635   3.337   3.729   1.404
 3706WAT      O11636   2.624   4.067   0.910
 3706WAT     H111637   2.583   3.995   0.860
 3706WAT     H211638   2.632   4.032   0.999
 3707WAT      O11639   2.671   4.435   1.126
 3707WAT     H111640   2.641   4.375   1.058
 3707WAT     H211641   2.766   4.439   1.115
 3708WAT      O11642   2.495   3.744   1.288
 3708WAT     H111643   2.550   3.755   1.210
 3708WAT     H211644   2.547   3.781   1.359
 3709WAT      O11645   3.479   4.793   1.492
 3709WAT     H111646   3.432   4.873   1.473
 3709WAT     H211647   3.411   4.727   1.508
 3710WAT      O11648   2.580   4.409   1.791
 3710WAT     H111649   2.490   4.432   1.816
 3710WAT     H211650   2.582   4.421   1.696
 3711WAT      O11651   3.284   4.094   0.383
 3711WAT     H111652   3.328   4.010   0.368
 3711WAT     H211653   3.355   4.157   0.391
 3712WAT      O11654   2.463   4.096   1.649
 3712WAT     H111655   2.449   4.183   1.686
 3712WAT     H211656   2.374   4.062   1.634
 3713WAT      O11657   3.095   4.588   0.780
 3713WAT     H111658   3.139   4.662   0.738
 3713WAT     H211659   3.089   4.612   0.872
 3714WAT      O11660   2.642   4.690   1.870
 3714WAT     H111661   2.639   4.731   1.783
 3714WAT     H211662   2.626   4.598   1.853
 3715WAT      O11663   3.642   3.219   0.214
 3715WAT     H111664   3.611   3.229   0.304
 3715WAT     H211665   3.718   3.277   0.209
 3716WAT      O11666   2.294   3.956   0.660
 3716WAT     H111667   2.282   4.029   0.599
 3716WAT     H211668   2.263   3.879   0.612
 3717WAT      O11669   3.837   4.769   1.999
 3717WAT     H111670   3.885   4.817   2.067
 3717WAT     H211671   3.900   4.762   1.927
 3718WAT      O11672   2.058   4.273   1.241
 3718WAT     H111673   2.065   4.287   1.146
 3718WAT     H211674   2.119   4.202   1.260
 3719WAT      O11675   2.182   4.443   0.882
 3719WAT     H111676   2.141   4.457   0.796
 3719WAT     H211677   2.271   4.415   0.861
 3720WAT      O11678   3.778   4.488   1.715
 3720WAT     H111679   3.790   4.464   1.624
 3720WAT     H211680   3.782   4.405   1.763
 3721WAT      O11681   3.164   4.858   1.572
 3721WAT     H111682   3.215   4.849   1.653
 3721WAT     H211683   3.080   4.893   1.602
 3722WAT      O11684   3.362   4.887   0.515
 3722WAT     H111685   3.346   4.858   0.605
 3722WAT     H211686   3.345   4.809   0.462
 3723WAT      O11687   2.609   4.865   0.693
 3723WAT     H111688   2.592   4.773   0.672
 3723WAT     H211689   2.524   4.901   0.717
 3724WAT      O11690   3.332   4.638   0.371
 3724WAT     H111691   3.262   4.637   0.305
 3724WAT     H211692   3.406   4.595   0.328
 3725WAT      O11693   3.288   4.800   0.779
 3725WAT     H111694   3.334   4.722   0.810
 3725WAT     H211695   3.322   4.871   0.833
 3726WAT      O11696   3.763   3.693   1.812
 3726WAT     H111697   3.701   3.744   1.759
 3726WAT     H211698   3.731   3.603   1.806
 3727WAT      O11699   2.063   4.377   1.495
 3727WAT     H111700   2.080   4.330   1.413
 3727WAT     H211701   2.110   4.327   1.561
 3728WAT      O11702   2.540   3.290   0.998
 3728WAT     H111703   2.496   3.369   0.965
 3728WAT     H211704   2.596   3.323   1.069
 3729WAT      O11705   2.969   3.577   1.558
 3729WAT     H111706   2.923   3.598   1.640
 3729WAT     H211707   2.929   3.496   1.528
 3730WAT      O11708   3.469   3.699   1.671
 3730WAT     H111709   3.384   3.669   1.704
 3730WAT     H211710   3.453   3.724   1.580
 3731WAT      O11711   2.852   3.253   0.486
 3731WAT     H111712   2.790   3.252   0.559
 3731WAT     H211713   2.843   3.166   0.447
 3732WAT      O11714   2.744   3.345   1.184
 3732WAT     H111715   2.774   3.436   1.176
 3732WAT     H211716   2.799   3.296   1.123
 3733WAT      O11717   2.520   3.803   0.771
 3733WAT     H111718   2.497   3.781   0.861
 3733WAT     H211719   2.442   3.846   0.736
 3734WAT      O11720   3.243   3.803   0.631
 3734WAT     H111721   3.183   3.876   0.612
 3734WAT     H211722   3.297   3.797   0.553
 3735WAT      O11723   3.103   3.667   0.834
 3735WAT     H111724   3.143   3.699   0.753
 3735WAT     H211725   3.139   3.579   0.845
 3736WAT      O11726   2.277   3.534   1.653
 3736WAT     H111727   2.237   3.619   1.674
 3736WAT     H211728   2.208   3.470   1.672
 3737WAT      O11729   2.007   3.326   1.056
 3737WAT     H111730   1.978   3.383   1.127
 3737WAT     H211731   2.081   3.278   1.093
 3738WAT      O11732   3.162   3.926   1.243
 3738WAT     H111733   3.089   3.977   1.278
 3738WAT     H211734   3.122   3.844   1.213
 3739WAT      O11735   2.806   3.594   1.084
 3739WAT     H111736   2.806   3.550   0.999
 3739WAT     H211737   2.895   3.626   1.095
 3740WAT      O11738   2.391   3.582   0.980
 3740WAT     H111739   2.357   3.630   1.056
 3740WAT     H211740   2.314   3.537   0.944
 3741WAT      O11741   2.812   3.694   0.383
 3741WAT     H111742   2.824   3.690   0.478
 3741WAT     H211743   2.773   3.780   0.367
 3742WAT      O11744   3.208   3.471   1.185
 3742WAT     H111745   3.210   3.517   1.269
 3742WAT     H211746   3.183   3.381   1.206
 3743WAT      O11747   2.713   3.925   0.323
 3743WAT     H111748   2.656   3.880   0.260
 3743WAT     H211749   2.784   3.961   0.269
 3744WAT      O11750   3.551   3.213   1.768
 3744WAT     H111751   3.583   3.140   1.821
 3744WAT     H211752   3.554   3.181   1.678
 3745WAT      O11753   2.221   4.315   1.710
 3745WAT     H111754   2.182   4.251   1.770
 3745WAT     H211755   2.252   4.385   1.767
 3746WAT      O11756   2.836   4.000   1.259
 3746WAT     H111757   2.872   3.952   1.333
 3746WAT     H211758   2.817   4.087   1.293
 3747WAT      O11759   2.122   3.474   0.872
 3747WAT     H111760   2.094   3.438   0.955
 3747WAT     H211761   2.116   3.401   0.810
 3748WAT      O11762   2.615   3.904   1.490
 3748WAT     H111763   2.584   3.992   1.513
 3748WAT     H211764   2.710   3.910   1.494
 3749WAT      O11765   2.467   4.324   0.550
 3749WAT     H111766   2.390   4.270   0.534
 3749WAT     H211767   2.540   4.272   0.516
 3750WAT      O11768   3.543   4.224   1.129
 3750WAT     H111769   3.615   4.274   1.090
 3750WAT     H211770   3.523   4.156   1.065
 3751WAT      O11771   3.089   3.363   0.544
 3751WAT     H111772   3.008   3.314   0.536
 3751WAT     H211773   3.070   3.447   0.502
 3752WAT      O11774   3.082   4.231   1.718
 3752WAT     H111775   3.075   4.139   1.693
 3752WAT     H211776   3.019   4.241   1.789
 3753WAT      O11777   3.361   3.801   0.373
 3753WAT     H111778   3.450   3.832   0.356
 3753WAT     H211779   3.358   3.713   0.334
 3754WAT      O11780   2.472   4.291   0.914
 3754WAT     H111781   2.524   4.211   0.908
 3754WAT     H211782   2.427   4.285   0.998
 3755WAT      O11783   2.961   4.418   0.441
 3755WAT     H111784   2.995   4.492   0.392
 3755WAT     H211785   2.878   4.449   0.477
 3756WAT      O11786   2.220   3.988   1.605
 3756WAT     H111787   2.184   4.054   1.664
 3756WAT     H211788   2.191   3.905   1.642
 3757WAT      O11789   3.075   4.513   1.693
 3757WAT     H111790   3.076   4.420   1.671
 3757WAT     H211791   3.004   4.522   1.757
 3758WAT      O11792   3.588   3.932   0.320
 3758WAT     H111793   3.580   3.975   0.235
 3758WAT     H211794   3.660   3.978   0.363
 3759WAT      O11795   3.696   4.177   1.628
 3759WAT     H111796   3.623   4.237   1.608
 3759WAT     H211797   3.749   4.177   1.548
 3760WAT      O11798   3.691   4.617   0.593
 3760WAT     H111799   3.627   4.552   0.620
 3760WAT     H211800   3.652   4.658   0.515
 3761WAT      O11801   3.249   4.350   0.978
 3761WAT     H111802   3.284   4.290   0.912
 3761WAT     H211803   3.160   4.317   0.995
 3762WAT      O11804   2.857   4.426   0.718
 3762WAT     H111805   2.926   4.481   0.756
 3762WAT     H211806   2.779   4.480   0.722
 3763WAT      O11807   2.071   3.988   0.267
 3763WAT     H111808   2.158   4.016   0.296
 3763WAT     H211809   2.022   4.069   0.256
 3764WAT      O11810   2.788   4.126   0.680
 3764WAT     H111811   2.833   4.207   0.702
 3764WAT     H211812   2.753   4.095   0.763
 3765WAT      O11813   3.018   4.677   1.402
 3765WAT     H111814   3.082   4.698   1.470
 3765WAT     H211815   3.054   4.601   1.357
 3766WAT      O11816   2.378   3.161   0.727
 3766WAT     H111817   2.365   3.160   0.822
 3766WAT     H211818   2.295   3.195   0.692
 3767WAT      O11819   3.145   4.478   1.274
 3767WAT     H111820   3.210   4.408   1.286
 3767WAT     H211821   3.198   4.556   1.256
 3768WAT      O11822   3.530   4.506   0.247
 3768WAT     H111823   3.507   4.435   0.306
 3768WAT     H211824   3.491   4.481   0.163
 3769WAT      O11825   3.323   4.558   1.595
 3769WAT     H111826   3.356   4.616   1.662
 3769WAT     H211827   3.231   4.545   1.618
 3770WAT      O11828   2.108   4.909   0.324
 3770WAT     H111829   2.144   4.969   0.259
 3770WAT     H211830   2.094   4.964   0.401
 3771WAT      O11831   2.078   3.337   1.673
 3771WAT     H111832   2.006   3.357   1.733
 3771WAT     H211833   2.120   3.259   1.710
 3772WAT      O11834   3.488   4.298   0.413
 3772WAT     H111835   3.459   4.344   0.492
 3772WAT     H211836   3.568   4.252   0.440
 3773WAT      O11837   2.106   4.736   1.772
 3773WAT     H111838   2.117   4.641   1.757
 3773WAT     H211839   2.041   4.762   1.707
 3774WAT      O11840   2.906   4.563   1.912
 3774WAT     H111841   2.874   4.491   1.966
 3774WAT     H211842   2.838   4.630   1.919
 3775WAT      O11843   2.710   4.647   0.406
 3775WAT     H111844   2.709   4.721   0.344
 3775WAT     H211845   2.618   4.623   0.415
 3776WAT      O11846   2.270   4.169   0.480
 3776WAT     H111847   2.209   4.243   0.481
 3776WAT     H211848   2.317   4.178   0.398
 3777WAT      O11849   3.227   3.586   1.448
 3777WAT     H111850   3.264   3.504   1.481
 3777WAT     H211851   3.141   3.592   1.489
 3778WAT      O11852   3.564   3.481   0.529
 3778WAT     H111853   3.501   3.492   0.457
 3778WAT     H211854   3.514   3.503   0.608
 3779WAT      O11855   3.008   4.654   0.272
 3779WAT     H111856   3.018   4.633   0.179
 3779WAT     H211857   2.918   4.628   0.293
 3780WAT      O11858   2.761   3.709   0.670
 3780WAT     H111859   2.690   3.756   0.714
 3780WAT     H211860   2.789   3.644   0.734
 3781WAT      O11861   2.923   3.851   1.470
 3781WAT     H111862   2.973   3.899   1.537
 3781WAT     H211863   2.937   3.759   1.491
 3782WAT      O11864   3.164   3.382   0.814
 3782WAT     H111865   3.151   3.384   0.719
 3782WAT     H211866   3.259   3.387   0.826
 3783WAT      O11867   2.873   4.905   0.742
 3783WAT     H111868   2.898   4.902   0.649
 3783WAT     H211869   2.778   4.893   0.741
 3784WAT      O11870   2.581   3.540   0.408
 3784WAT     H111871   2.666   3.584   0.401
 3784WAT     H211872   2.544   3.571   0.491
 3785WAT      O11873   3.644   3.473   1.555
 3785WAT     H111874   3.594   3.547   1.588
 3785WAT     H211875   3.725   3.512   1.523
 3786WAT      O11876   3.473   3.997   0.899
 3786WAT     H111877   3.379   3.999   0.917
 3786WAT     H211878   3.505   3.919   0.944
 3787WAT      O11879   2.471   4.166   0.255
 3787WAT     H111880   2.548   4.154   0.311
 3787WAT     H211881   2.479   4.096   0.190
 3788WAT      O11882   2.340   3.909   0.324
 3788WAT     H111883   2.348   3.814   0.335
 3788WAT     H211884   2.430   3.942   0.334
 3789WAT      O11885   3.673   4.714   1.067
 3789WAT     H111886   3.686   4.797   1.114
 3789WAT     H211887   3.760   4.693   1.032
 3790WAT      O11888   2.420   4.924   1.034
 3790WAT     H111889   2.494   4.869   1.061
 3790WAT     H211890   2.459   5.010   1.020
 3791WAT      O11891   2.109   4.530   0.621
 3791WAT     H111892   2.016   4.555   0.620
 3791WAT     H211893   2.156   4.613   0.609
 3792WAT      O11894   2.321   4.842   1.953
 3792WAT     H111895   2.401   4.874   1.994
 3792WAT     H211896   2.270   4.806   2.025
 3793WAT      O11897   2.732   4.841   0.216
 3793WAT     H111898   2.811   4.870   0.171
 3793WAT     H211899   2.680   4.798   0.148
 3794WAT      O11900   3.205   4.453   1.947
 3794WAT     H111901   3.144   4.455   1.873
 3794WAT     H211902   3.174   4.380   2.001
 3795WAT      O11903   3.348   4.826   1.809
 3795WAT     H111904   3.443   4.817   1.804
 3795WAT     H211905   3.333   4.892   1.876
 3796WAT      O11906   3.637   4.764   0.358
 3796WAT     H111907   3.608   4.722   0.277
 3796WAT     H211908   3.617   4.857   0.346
 3797WAT      O11909   2.093   4.091   1.847
 3797WAT     H111910   2.143   4.033   1.904
 3797WAT     H211911   2.019   4.119   1.901
 3798WAT      O11912   3.107   4.269   0.263
 3798WAT     H111913   3.052   4.314   0.327
 3798WAT     H211914   3.170   4.219   0.315
 3799WAT      O11915   3.513   4.405   1.856
 3799WAT     H111916   3.587   4.438   1.806
 3799WAT     H211917   3.436   4.422   1.801
 3800WAT      O11918   2.296   3.905   1.937
 3800WAT     H111919   2.300   3.875   2.027
 3800WAT     H211920   2.382   3.945   1.921
 3801WAT      O11921   2.674   4.165   0.453
 3801WAT     H111922   2.716   4.149   0.537
 3801WAT     H211923   2.687   4.084   0.403
 3802WAT      O11924   2.490   3.763   1.733
 3802WAT     H111925   2.437   3.714   1.671
 3802WAT     H211926   2.557   3.806   1.680
 3803WAT      O11927   3.380   4.210   1.710
 3803WAT     H111928   3.422   4.225   1.795
 3803WAT     H211929   3.287   4.222   1.726
 3804WAT      O11930   3.427   3.944   1.910
 3804WAT     H111931   3.486   3.868   1.901
 3804WAT     H211932   3.445   3.997   1.832
 3805WAT      O11933   2.539   3.460   1.741
 3805WAT     H111934   2.530   3.398   1.669
 3805WAT     H211935   2.481   3.532   1.719
 3806WAT      O11936   2.816   3.316   1.445
 3806WAT     H111937   2.771   3.318   1.360
 3806WAT     H211938   2.752   3.276   1.504
 3807WAT      O11939   2.856   4.205   1.507
 3807WAT     H111940   2.898   4.289   1.489
 3807WAT     H211941   2.764   4.219   1.484
 3808WAT      O11942   3.090   3.978   1.645
 3808WAT     H111943   3.102   3.919   1.719
 3808WAT     H211944   3.176   3.982   1.603
 3809WAT      O11945   3.324   4.034   1.503
 3809WAT     H111946   3.271   4.086   1.442
 3809WAT     H211947   3.358   4.097   1.566
 3810WAT      O11948   2.641   4.836   1.618
 3810WAT     H111949   2.588   4.908   1.586
 3810WAT     H211950   2.667   4.788   1.539
 3811WAT      O11951   2.767   3.632   1.771
 3811WAT     H111952   2.826   3.602   1.840
 3811WAT     H211953   2.685   3.585   1.786
 3812WAT      O11954   3.249   3.594   1.794
 3812WAT     H111955   3.180   3.528   1.788
 3812WAT     H211956   3.321   3.549   1.839
 3813WAT      O11957   3.312   3.254   0.400
 3813WAT     H111958   3.340   3.169   0.436
 3813WAT     H211959   3.234   3.277   0.451
 3814WAT      O11960   2.927   4.959   1.644
 3814WAT     H111961   2.920   5.049   1.675
 3814WAT     H211962   2.837   4.927   1.641
 3815WAT      O11963   2.765   3.377   0.245
 3815WAT     H111964   2.731   3.309   0.187
 3815WAT     H211965   2.785   3.331   0.326
 3816WAT      O11966   2.982   4.876   0.406
 3816WAT     H111967   3.071   4.910   0.409
 3816WAT     H211968   2.985   4.803   0.344
 3817WAT      O11969   2.346   4.413   0.229
 3817WAT     H111970   2.390   4.467   0.295
 3817WAT     H211971   2.394   4.330   0.230
 3818WAT      O11972   2.067   4.692   0.974
 3818WAT     H111973   2.100   4.605   0.951
 3818WAT     H211974   2.110   4.712   1.058
 3819WAT      O11975   2.527   4.525   0.740
 3819WAT     H111976   2.497   4.513   0.831
 3819WAT     H211977   2.516   4.439   0.700
 3820WAT      O11978   2.116   4.779   1.248
 3820WAT     H111979   2.072   4.797   1.332
 3820WAT     H211980   2.173   4.854   1.234
 3821WAT      O11981   3.680   4.729   1.677
 3821WAT     H111982   3.620   4.735   1.603
 3821WAT     H211983   3.693   4.635   1.690
 3822WAT      O11984   3.804   4.503   0.211
 3822WAT     H111985   3.721   4.510   0.258
 3822WAT     H211986   3.822   4.592   0.180
 3823WAT      O11987   3.749   4.177   0.461
 3823WAT     H111988   3.826   4.234   0.472
 3823WAT     H211989   3.751   4.121   0.538
 3824WAT      O11990   2.099   4.030   0.884
 3824WAT     H111991   2.034   4.003   0.820
 3824WAT     H211992   2.183   4.019   0.839
 3825WAT      O11993   3.850   4.263   0.946
 3825WAT     H111994   3.887   4.185   0.905
 3825WAT     H211995   3.914   4.332   0.928
 3826WAT      O11996   3.548   4.401   1.487
 3826WAT     H111997   3.467   4.444   1.513
 3826WAT     H211998   3.589   4.462   1.426
 3827WAT      O11999   3.755   4.207   0.177
 3827WAT     H112000   3.782   4.297   0.164
 3827WAT     H212001   3.736   4.200   0.270
 3828WAT      O12002   3.394   3.509   0.306
 3828WAT     H112003   3.436   3.490   0.222
 3828WAT     H212004   3.364   3.424   0.337
 3829WAT      O12005   3.744   4.000   0.676
 3829WAT     H112006   3.707   3.924   0.633
 3829WAT     H212007   3.671   4.039   0.725
 3830WAT      O12008   2.203   4.068   1.338
 3830WAT     H112009   2.240   4.060   1.426
 3830WAT     H212010   2.146   3.992   1.328
 3831WAT      O12011   3.683   3.915   1.640
 3831WAT     H112012   3.660   3.892   1.549
 3831WAT     H212013   3.709   4.007   1.635
 3832WAT      O12014   2.158   3.759   1.729
 3832WAT     H112015   2.069   3.756   1.763
 3832WAT     H212016   2.212   3.779   1.805
 3833WAT      O12017   3.527   3.438   1.917
 3833WAT     H112018   3.615   3.439   1.956
 3833WAT     H212019   3.528   3.364   1.856
 3834WAT      O12020   2.021   3.751   0.478
 3834WAT     H112021   1.930   3.777   0.461
 3834WAT     H212022   2.069   3.778   0.400
 3835WAT      O12023   3.672   3.823   1.006
 3835WAT     H112024   3.724   3.774   0.943
 3835WAT     H212025   3.730   3.836   1.081
 3836WAT      O12026   3.690   3.831   1.358
 3836WAT     H112027   3.595   3.828   1.370
 3836WAT     H212028   3.708   3.922   1.335
 3837WAT      O12029   2.275   3.656   0.269
 3837WAT     H112030   2.346   3.614   0.221
 3837WAT     H212031   2.203   3.663   0.206
 3838WAT      O12032   3.621   3.749   0.600
 3838WAT     H112033   3.670   3.725   0.679
 3838WAT     H212034   3.601   3.665   0.558
 3839WAT      O12035   2.209   3.187   1.164
 3839WAT     H112036   2.273   3.132   1.120
 3839WAT     H212037   2.251   3.212   1.246
 3840WAT      O12038   3.764   3.612   0.853
 3840WAT     H112039   3.753   3.597   0.947
 3840WAT     H212040   3.840   3.560   0.829
 3841WAT      O12041   3.598   3.206   1.499
 3841WAT     H112042   3.662   3.268   1.536
 3841WAT     H212043   3.613   3.210   1.405
 3842WAT      O12044   3.852   3.395   0.178
 3842WAT     H112045   3.945   3.382   0.157
 3842WAT     H212046   3.850   3.403   0.273
 3843WAT      O12047   3.860   3.472   0.440
 3843WAT     H112048   3.780   3.466   0.493
 3843WAT     H212049   3.880   3.566   0.439
 3844WAT      O12050   3.554   4.876   0.840
 3844WAT     H112051   3.614   4.844   0.772
 3844WAT     H212052   3.580   4.829   0.919
 3845WAT      O12053   2.184   3.202   1.438
 3845WAT     H112054   2.149   3.248   1.514
 3845WAT     H212055   2.151   3.113   1.446
 3846WAT      O12056   2.345   4.520   1.854
 3846WAT     H112057   2.340   4.483   1.943
 3846WAT     H212058   2.358   4.613   1.868
 3847WAT      O12059   2.715   4.675   1.415
 3847WAT     H112060   2.691   4.702   1.326
 3847WAT     H212061   2.809   4.692   1.420
 3848WAT      O12062   2.935   3.322   1.790
 3848WAT     H112063   2.929   3.381   1.865
 3848WAT     H212064   3.029   3.311   1.776
 3849WAT      O12065   3.199   3.287   1.754
 3849WAT     H112066   3.260   3.319   1.688
 3849WAT     H212067   3.254   3.239   1.816
 3850WAT      O12068   3.841   4.877   1.495
 3850WAT     H112069   3.791   4.917   1.423
 3850WAT     H212070   3.780   4.815   1.534
 3851WAT      O12071   2.329   4.814   1.566
 3851WAT     H112072   2.269   4.801   1.640
 3851WAT     H212073   2.328   4.731   1.520
 3852WAT      O12074   3.273   3.144   1.387
 3852WAT     H112075   3.186   3.177   1.366
 3852WAT     H212076   3.262   3.096   1.469
 3853WAT      O12077   3.364   3.364   1.525
 3853WAT     H112078   3.331   3.283   1.487
 3853WAT     H212079   3.459   3.360   1.513
 3854WAT      O12080   3.609   4.941   1.222
 3854WAT     H112081   3.563   5.017   1.185
 3854WAT     H212082   3.546   4.869   1.217
 3855WAT      O12083   2.292   4.551   1.461
 3855WAT     H112084   2.219   4.489   1.455
 3855WAT     H212085   2.298   4.590   1.374
 3856WAT      O12086   2.652   4.772   1.140
 3856WAT     H112087   2.704   4.711   1.087
 3856WAT     H212088   2.717   4.823   1.189
 3857WAT      O12089   2.926   4.861   1.223
 3857WAT     H112090   2.955   4.836   1.135
 3857WAT     H212091   2.977   4.806   1.282
 3858WAT      O12092   3.048   3.235   1.281
 3858WAT     H112093   2.970   3.283   1.309
 3858WAT     H212094   3.018   3.145   1.270
 3859WAT      O12095   3.503   3.305   1.085
 3859WAT     H112096   3.547   3.300   1.000
 3859WAT     H212097   3.476   3.397   1.092
 3860WAT      O12098   3.689   3.269   0.886
 3860WAT     H112099   3.683   3.174   0.872
 3860WAT     H212100   3.767   3.279   0.941
 3861WAT      O12101   2.120   4.883   0.782
 3861WAT     H112102   2.103   4.819   0.852
 3861WAT     H212103   2.033   4.903   0.747
 3862WAT      O12104   2.182   3.266   0.533
 3862WAT     H112105   2.258   3.277   0.475
 3862WAT     H212106   2.136   3.349   0.528
 3863WAT      O12107   2.836   3.477   0.832
 3863WAT     H112108   2.755   3.440   0.798
 3863WAT     H212109   2.887   3.402   0.862
 3864WAT      O12110   3.287   3.144   0.956
 3864WAT     H112111   3.347   3.201   1.003
 3864WAT     H212112   3.213   3.200   0.933
 3865WAT      O12113   3.601   3.184   0.483
 3865WAT     H112114   3.620   3.274   0.510
 3865WAT     H212115   3.522   3.161   0.532
 3866WAT      O12116   2.281   4.752   0.527
 3866WAT     H112117   2.228   4.790   0.457
 3866WAT     H212118   2.273   4.814   0.599
 3867WAT      O12119   2.420   3.318   0.387
 3867WAT     H112120   2.472   3.240   0.374
 3867WAT     H212121   2.483   3.386   0.410
 3868WAT      O12122   2.639   3.292   0.692
 3868WAT     H112123   2.576   3.222   0.709
 3868WAT     H212124   2.585   3.368   0.671
 3869WAT      O12125   2.933   4.953   1.959
 3869WAT     H112126   3.025   4.930   1.964
 3869WAT     H212127   2.931   5.036   1.911
 3870WAT      O12128   3.756   4.908   0.659
 3870WAT     H112129   3.774   4.839   0.595
 3870WAT     H212130   3.686   4.960   0.620
 3871WAT      O12131   2.651   3.220   1.936
 3871WAT     H112132   2.623   3.270   1.859
 3871WAT     H212133   2.690   3.140   1.899
 3872WAT      O12134   2.541   4.947   0.414
 3872WAT     H112135   2.614   4.918   0.360
 3872WAT     H212136   2.566   4.923   0.503
 3873WAT      O12137   2.457   4.558   0.415
 3873WAT     H112138   2.394   4.605   0.470
 3873WAT     H212139   2.468   4.474   0.458
 3874WAT      O12140   3.312   3.161   1.994
 3874WAT     H112141   3.300   3.193   2.083
 3874WAT     H212142   3.393   3.202   1.964
 3875WAT      O12143   3.590   4.876   1.942
 3875WAT     H112144   3.669   4.827   1.921
 3875WAT     H212145   3.619   4.944   2.003
 3876WAT      O12146   3.202   2.086   4.662
 3876WAT     H112147   3.194   1.995   4.635
 3876WAT     H212148   3.161   2.136   4.592
 3877WAT      O12149   3.015   2.264   4.850
 3877WAT     H112150   2.938   2.216   4.879
 3877WAT     H212151   3.080   2.196   4.833
 3878WAT      O12152   2.417   2.295   4.938
 3878WAT     H112153   2.334   2.269   4.978
 3878WAT     H212154   2.478   2.302   5.012
 3879WAT      O12155   3.417   2.704   4.728
 3879WAT     H112156   3.371   2.627   4.761
 3879WAT     H212157   3.499   2.707   4.779
 3880WAT      O12158   2.415   2.698   4.958
 3880WAT     H112159   2.445   2.609   4.940
 3880WAT     H212160   2.489   2.754   4.935
 3881WAT      O12161   2.258   1.791   4.316
 3881WAT     H112162   2.169   1.825   4.306
 3881WAT     H212163   2.286   1.771   4.227
 3882WAT      O12164   2.054   2.051   4.905
 3882WAT     H112165   2.111   1.974   4.905
 3882WAT     H212166   2.054   2.081   4.814
 3883WAT      O12167   3.040   2.933   4.690
 3883WAT     H112168   2.978   2.979   4.633
 3883WAT     H212169   3.126   2.948   4.650
 3884WAT      O12170   2.959   2.531   4.851
 3884WAT     H112171   2.953   2.437   4.835
 3884WAT     H212172   3.036   2.540   4.908
 3885WAT      O12173   2.179   1.592   5.084
 3885WAT     H112174   2.161   1.502   5.112
 3885WAT     H212175   2.138   1.647   5.151
 3886WAT      O12176   3.062   1.812   4.874
 3886WAT     H112177   3.100   1.725   4.862
 3886WAT     H212178   3.053   1.846   4.785
 3887WAT      O12179   2.476   1.649   4.420
 3887WAT     H112180   2.486   1.739   4.451
 3887WAT     H212181   2.384   1.644   4.391
 3888WAT      O12182   3.441   1.562   4.567
 3888WAT     H112183   3.523   1.513   4.571
 3888WAT     H212184   3.444   1.621   4.642
 3889WAT      O12185   2.240   1.841   4.944
 3889WAT     H112186   2.308   1.868   5.006
 3889WAT     H212187   2.209   1.757   4.978
 3890WAT      O12188   2.660   1.946   4.853
 3890WAT     H112189   2.710   1.996   4.917
 3890WAT     H212190   2.713   1.869   4.836
 3891WAT      O12191   3.870   1.763   5.223
 3891WAT     H112192   3.799   1.802   5.172
 3891WAT     H212193   3.896   1.833   5.284
 3892WAT      O12194   2.488   1.410   5.280
 3892WAT     H112195   2.488   1.462   5.199
 3892WAT     H212196   2.405   1.362   5.277
 3893WAT      O12197   3.127   2.421   4.430
 3893WAT     H112198   3.065   2.468   4.373
 3893WAT     H212199   3.178   2.491   4.471
 3894WAT      O12200   2.613   2.374   5.097
 3894WAT     H112201   2.580   2.437   5.162
 3894WAT     H212202   2.631   2.427   5.020
 3895WAT      O12203   3.464   1.756   4.844
 3895WAT     H112204   3.394   1.784   4.902
 3895WAT     H212205   3.500   1.837   4.808
 3896WAT      O12206   2.456   1.581   5.080
 3896WAT     H112207   2.490   1.666   5.051
 3896WAT     H212208   2.362   1.596   5.092
 3897WAT      O12209   2.534   2.571   5.279
 3897WAT     H112210   2.596   2.638   5.251
 3897WAT     H212211   2.448   2.612   5.270
 3898WAT      O12212   2.064   2.490   4.167
 3898WAT     H112213   2.026   2.539   4.094
 3898WAT     H212214   2.089   2.557   4.230
 3899WAT      O12215   3.626   2.717   5.071
 3899WAT     H112216   3.558   2.784   5.070
 3899WAT     H212217   3.680   2.737   4.994
 3900WAT      O12218   3.771   1.700   4.883
 3900WAT     H112219   3.676   1.703   4.897
 3900WAT     H212220   3.804   1.781   4.922
 3901WAT      O12221   2.824   1.330   4.713
 3901WAT     H112222   2.855   1.275   4.641
 3901WAT     H212223   2.731   1.344   4.695
 3902WAT      O12224   3.380   2.902   4.942
 3902WAT     H112225   3.381   2.861   4.855
 3902WAT     H212226   3.324   2.979   4.932
 3903WAT      O12227   3.509   2.574   4.451
 3903WAT     H112228   3.498   2.480   4.463
 3903WAT     H212229   3.509   2.610   4.540
 3904WAT      O12230   3.319   2.392   5.075
 3904WAT     H112231   3.361   2.371   4.991
 3904WAT     H212232   3.392   2.418   5.132
 3905WAT      O12233   3.063   2.137   4.387
 3905WAT     H112234   2.971   2.130   4.409
 3905WAT     H212235   3.078   2.230   4.375
 3906WAT      O12236   3.062   1.764   4.086
 3906WAT     H112237   2.968   1.780   4.095
 3906WAT     H212238   3.094   1.836   4.032
 3907WAT      O12239   3.714   2.232   5.084
 3907WAT     H112240   3.631   2.239   5.036
 3907WAT     H212241   3.774   2.290   5.037
 3908WAT      O12242   3.466   2.293   4.437
 3908WAT     H112243   3.404   2.259   4.372
 3908WAT     H212244   3.464   2.228   4.508
 3909WAT      O12245   3.410   1.911   5.179
 3909WAT     H112246   3.369   1.993   5.204
 3909WAT     H212247   3.337   1.852   5.159
 3910WAT      O12248   2.624   2.189   4.665
 3910WAT     H112249   2.583   2.118   4.615
 3910WAT     H212250   2.632   2.155   4.754
 3911WAT      O12251   2.671   2.558   4.881
 3911WAT     H112252   2.641   2.497   4.813
 3911WAT     H212253   2.766   2.562   4.870
 3912WAT      O12254   2.495   1.867   5.043
 3912WAT     H112255   2.550   1.878   4.965
 3912WAT     H212256   2.547   1.904   5.114
 3913WAT      O12257   3.479   2.915   5.247
 3913WAT     H112258   3.432   2.996   5.228
 3913WAT     H212259   3.411   2.850   5.263
 3914WAT      O12260   2.580   2.532   5.546
 3914WAT     H112261   2.490   2.554   5.571
 3914WAT     H212262   2.582   2.544   5.451
 3915WAT      O12263   3.284   2.217   4.138
 3915WAT     H112264   3.328   2.133   4.123
 3915WAT     H212265   3.355   2.280   4.146
 3916WAT      O12266   2.463   2.219   5.404
 3916WAT     H112267   2.449   2.306   5.441
 3916WAT     H212268   2.374   2.185   5.389
 3917WAT      O12269   3.095   2.711   4.534
 3917WAT     H112270   3.139   2.785   4.493
 3917WAT     H212271   3.089   2.735   4.627
 3918WAT      O12272   2.642   2.813   5.625
 3918WAT     H112273   2.639   2.853   5.538
 3918WAT     H212274   2.626   2.720   5.608
 3919WAT      O12275   3.642   1.342   3.969
 3919WAT     H112276   3.611   1.351   4.059
 3919WAT     H212277   3.718   1.400   3.964
 3920WAT      O12278   2.294   2.079   4.415
 3920WAT     H112279   2.282   2.151   4.354
 3920WAT     H212280   2.263   2.002   4.367
 3921WAT      O12281   2.058   2.396   4.995
 3921WAT     H112282   2.065   2.409   4.901
 3921WAT     H212283   2.119   2.325   5.015
 3922WAT      O12284   2.182   2.566   4.637
 3922WAT     H112285   2.141   2.580   4.551
 3922WAT     H212286   2.271   2.537   4.616
 3923WAT      O12287   3.778   2.610   5.470
 3923WAT     H112288   3.790   2.587   5.378
 3923WAT     H212289   3.782   2.527   5.517
 3924WAT      O12290   3.164   2.981   5.327
 3924WAT     H112291   3.215   2.972   5.407
 3924WAT     H212292   3.080   3.015   5.356
 3925WAT      O12293   3.362   3.009   4.270
 3925WAT     H112294   3.346   2.980   4.360
 3925WAT     H212295   3.345   2.932   4.216
 3926WAT      O12296   2.609   2.987   4.448
 3926WAT     H112297   2.592   2.896   4.426
 3926WAT     H212298   2.524   3.023   4.472
 3927WAT      O12299   3.332   2.760   4.126
 3927WAT     H112300   3.262   2.760   4.060
 3927WAT     H212301   3.406   2.718   4.083
 3928WAT      O12302   3.288   2.923   4.533
 3928WAT     H112303   3.334   2.845   4.565
 3928WAT     H212304   3.322   2.994   4.588
 3929WAT      O12305   3.763   1.816   5.567
 3929WAT     H112306   3.701   1.867   5.514
 3929WAT     H212307   3.731   1.726   5.561
 3930WAT      O12308   2.063   2.500   5.249
 3930WAT     H112309   2.080   2.453   5.168
 3930WAT     H212310   2.110   2.449   5.316
 3931WAT      O12311   2.540   1.413   4.753
 3931WAT     H112312   2.496   1.491   4.720
 3931WAT     H212313   2.596   1.445   4.824
 3932WAT      O12314   2.969   1.700   5.313
 3932WAT     H112315   2.923   1.721   5.395
 3932WAT     H212316   2.929   1.618   5.283
 3933WAT      O12317   3.469   1.822   5.426
 3933WAT     H112318   3.384   1.792   5.458
 3933WAT     H212319   3.453   1.846   5.335
 3934WAT      O12320   3.179   1.972   5.636
 3934WAT     H112321   3.211   1.888   5.602
 3934WAT     H212322   3.258   2.024   5.651
 3935WAT      O12323   2.852   1.375   4.241
 3935WAT     H112324   2.790   1.375   4.314
 3935WAT     H212325   2.843   1.288   4.201
 3936WAT      O12326   2.744   1.467   4.939
 3936WAT     H112327   2.774   1.558   4.931
 3936WAT     H212328   2.799   1.419   4.878
 3937WAT      O12329   2.520   1.925   4.526
 3937WAT     H112330   2.497   1.904   4.616
 3937WAT     H212331   2.442   1.969   4.491
 3938WAT      O12332   3.243   1.926   4.386
 3938WAT     H112333   3.183   1.998   4.367
 3938WAT     H212334   3.297   1.920   4.307
 3939WAT      O12335   2.764   2.015   5.592
 3939WAT     H112336   2.754   1.921   5.577
 3939WAT     H212337   2.848   2.037   5.553
 3940WAT      O12338   3.103   1.790   4.589
 3940WAT     H112339   3.143   1.821   4.507
 3940WAT     H212340   3.139   1.702   4.600
 3941WAT      O12341   2.277   1.656   5.408
 3941WAT     H112342   2.237   1.741   5.428
 3941WAT     H212343   2.208   1.593   5.427
 3942WAT      O12344   2.007   1.449   4.811
 3942WAT     H112345   1.978   1.506   4.882
 3942WAT     H212346   2.081   1.401   4.847
 3943WAT      O12347   2.026   1.843   3.932
 3943WAT     H112348   2.017   1.937   3.946
 3943WAT     H212349   1.990   1.829   3.844
 3944WAT      O12350   3.162   2.049   4.998
 3944WAT     H112351   3.089   2.100   5.033
 3944WAT     H212352   3.122   1.967   4.968
 3945WAT      O12353   2.806   1.716   4.839
 3945WAT     H112354   2.806   1.672   4.754
 3945WAT     H212355   2.895   1.748   4.850
 3946WAT      O12356   2.391   1.704   4.735
 3946WAT     H112357   2.357   1.752   4.810
 3946WAT     H212358   2.314   1.659   4.699
 3947WAT      O12359   2.812   1.816   4.138
 3947WAT     H112360   2.824   1.812   4.233
 3947WAT     H212361   2.773   1.903   4.122
 3948WAT      O12362   3.208   1.594   4.940
 3948WAT     H112363   3.210   1.639   5.024
 3948WAT     H212364   3.183   1.504   4.961
 3949WAT      O12365   2.713   2.047   4.078
 3949WAT     H112366   2.656   2.003   4.015
 3949WAT     H212367   2.784   2.083   4.024
 3950WAT      O12368   3.551   1.335   5.523
 3950WAT     H112369   3.583   1.262   5.576
 3950WAT     H212370   3.554   1.303   5.433
 3951WAT      O12371   2.221   2.437   5.465
 3951WAT     H112372   2.182   2.373   5.525
 3951WAT     H212373   2.252   2.508   5.522
 3952WAT      O12374   2.836   2.122   5.013
 3952WAT     H112375   2.872   2.075   5.088
 3952WAT     H212376   2.817   2.210   5.048
 3953WAT      O12377   2.122   1.597   4.626
 3953WAT     H112378   2.094   1.560   4.710
 3953WAT     H212379   2.116   1.523   4.565
 3954WAT      O12380   2.615   2.026   5.245
 3954WAT     H112381   2.584   2.114   5.268
 3954WAT     H212382   2.710   2.032   5.249
 3955WAT      O12383   2.467   2.447   4.305
 3955WAT     H112384   2.390   2.393   4.289
 3955WAT     H212385   2.540   2.395   4.271
 3956WAT      O12386   3.543   2.347   4.884
 3956WAT     H112387   3.615   2.396   4.845
 3956WAT     H212388   3.523   2.279   4.820
 3957WAT      O12389   3.089   1.486   4.299
 3957WAT     H112390   3.008   1.436   4.291
 3957WAT     H212391   3.070   1.570   4.257
 3958WAT      O12392   3.082   2.354   5.473
 3958WAT     H112393   3.075   2.262   5.447
 3958WAT     H212394   3.019   2.363   5.544
 3959WAT      O12395   3.361   1.923   4.128
 3959WAT     H112396   3.450   1.954   4.111
 3959WAT     H212397   3.358   1.836   4.089
 3960WAT      O12398   2.472   2.414   4.669
 3960WAT     H112399   2.524   2.333   4.663
 3960WAT     H212400   2.427   2.408   4.753
 3961WAT      O12401   2.961   2.540   4.196
 3961WAT     H112402   2.995   2.615   4.146
 3961WAT     H212403   2.878   2.572   4.232
 3962WAT      O12404   2.220   2.110   5.360
 3962WAT     H112405   2.184   2.177   5.419
 3962WAT     H212406   2.191   2.027   5.397
 3963WAT      O12407   2.540   2.156   5.648
 3963WAT     H112408   2.510   2.171   5.559
 3963WAT     H212409   2.618   2.100   5.639
 3964WAT      O12410   3.075   2.636   5.448
 3964WAT     H112411   3.076   2.543   5.426
 3964WAT     H212412   3.004   2.644   5.512
 3965WAT      O12413   3.588   2.054   4.075
 3965WAT     H112414   3.580   2.097   3.990
 3965WAT     H212415   3.660   2.100   4.118
 3966WAT      O12416   3.696   2.300   5.383
 3966WAT     H112417   3.623   2.359   5.363
 3966WAT     H212418   3.749   2.299   5.303
 3967WAT      O12419   3.691   2.740   4.348
 3967WAT     H112420   3.627   2.674   4.375
 3967WAT     H212421   3.652   2.780   4.270
 3968WAT      O12422   3.249   2.473   4.732
 3968WAT     H112423   3.284   2.413   4.666
 3968WAT     H212424   3.160   2.440   4.750
 3969WAT      O12425   2.857   2.549   4.473
 3969WAT     H112426   2.926   2.603   4.511
 3969WAT     H212427   2.779   2.603   4.477
 3970WAT      O12428   2.071   2.110   4.022
 3970WAT     H112429   2.158   2.138   4.051
 3970WAT     H212430   2.022   2.192   4.011
 3971WAT      O12431   2.788   2.249   4.434
 3971WAT     H112432   2.833   2.330   4.457
 3971WAT     H212433   2.753   2.217   4.518
 3972WAT      O12434   3.018   2.800   5.157
 3972WAT     H112435   3.082   2.821   5.225
 3972WAT     H212436   3.054   2.724   5.112
 3973WAT      O12437   2.378   1.283   4.482
 3973WAT     H112438   2.365   1.283   4.577
 3973WAT     H212439   2.295   1.317   4.447
 3974WAT      O12440   3.145   2.600   5.029
 3974WAT     H112441   3.210   2.530   5.040
 3974WAT     H212442   3.198   2.678   5.011
 3975WAT      O12443   3.530   2.629   4.002
 3975WAT     H112444   3.507   2.557   4.061
 3975WAT     H212445   3.491   2.604   3.918
 3976WAT      O12446   3.323   2.680   5.349
 3976WAT     H112447   3.356   2.739   5.417
 3976WAT     H212448   3.231   2.667   5.372
 3977WAT      O12449   2.108   3.032   4.079
 3977WAT     H112450   2.144   3.091   4.014
 3977WAT     H212451   2.094   3.086   4.156
 3978WAT      O12452   2.078   1.459   5.428
 3978WAT     H112453   2.006   1.479   5.488
 3978WAT     H212454   2.120   1.382   5.465
 3979WAT      O12455   3.488   2.421   4.168
 3979WAT     H112456   3.459   2.467   4.246
 3979WAT     H212457   3.568   2.375   4.195
 3980WAT      O12458   2.106   2.858   5.526
 3980WAT     H112459   2.117   2.764   5.512
 3980WAT     H212460   2.041   2.885   5.462
 3981WAT      O12461   2.906   2.685   5.666
 3981WAT     H112462   2.874   2.613   5.721
 3981WAT     H212463   2.838   2.753   5.674
 3982WAT      O12464   2.710   2.770   4.161
 3982WAT     H112465   2.709   2.843   4.099
 3982WAT     H212466   2.618   2.745   4.170
 3983WAT      O12467   2.270   2.292   4.235
 3983WAT     H112468   2.209   2.366   4.236
 3983WAT     H212469   2.317   2.301   4.153
 3984WAT      O12470   3.227   1.708   5.203
 3984WAT     H112471   3.264   1.626   5.236
 3984WAT     H212472   3.141   1.715   5.244
 3985WAT      O12473   3.564   1.604   4.284
 3985WAT     H112474   3.501   1.615   4.212
 3985WAT     H212475   3.514   1.626   4.363
 3986WAT      O12476   3.008   2.776   4.027
 3986WAT     H112477   3.018   2.756   3.934
 3986WAT     H212478   2.918   2.751   4.047
 3987WAT      O12479   2.761   1.832   4.425
 3987WAT     H112480   2.690   1.879   4.469
 3987WAT     H212481   2.789   1.766   4.489
 3988WAT      O12482   2.923   1.974   5.225
 3988WAT     H112483   2.973   2.021   5.292
 3988WAT     H212484   2.937   1.882   5.246
 3989WAT      O12485   3.164   1.504   4.569
 3989WAT     H112486   3.151   1.506   4.474
 3989WAT     H212487   3.259   1.509   4.581
 3990WAT      O12488   2.873   3.028   4.496
 3990WAT     H112489   2.898   3.024   4.404
 3990WAT     H212490   2.778   3.015   4.496
 3991WAT      O12491   2.581   1.663   4.163
 3991WAT     H112492   2.666   1.706   4.156
 3991WAT     H212493   2.544   1.694   4.245
 3992WAT      O12494   3.644   1.596   5.309
 3992WAT     H112495   3.594   1.670   5.343
 3992WAT     H212496   3.725   1.634   5.278
 3993WAT      O12497   3.473   2.120   4.654
 3993WAT     H112498   3.379   2.121   4.671
 3993WAT     H212499   3.505   2.041   4.699
 3994WAT      O12500   2.471   2.288   4.010
 3994WAT     H112501   2.548   2.277   4.066
 3994WAT     H212502   2.479   2.218   3.945
 3995WAT      O12503   2.340   2.031   4.078
 3995WAT     H112504   2.348   1.937   4.090
 3995WAT     H212505   2.430   2.064   4.089
 3996WAT      O12506   3.673   2.837   4.822
 3996WAT     H112507   3.686   2.919   4.869
 3996WAT     H212508   3.760   2.816   4.787
 3997WAT      O12509   2.420   3.046   4.789
 3997WAT     H112510   2.494   2.991   4.816
 3997WAT     H212511   2.459   3.133   4.775
 3998WAT      O12512   2.109   2.653   4.376
 3998WAT     H112513   2.016   2.677   4.375
 3998WAT     H212514   2.156   2.736   4.364
 3999WAT      O12515   3.348   2.948   5.563
 3999WAT     H112516   3.443   2.940   5.558
 3999WAT     H212517   3.333   3.015   5.631
 4000WAT      O12518   3.637   2.886   4.113
 4000WAT     H112519   3.608   2.845   4.032
 4000WAT     H212520   3.617   2.979   4.101
 4001WAT      O12521   2.093   2.213   5.602
 4001WAT     H112522   2.143   2.156   5.659
 4001WAT     H212523   2.019   2.242   5.656
 4002WAT      O12524   2.798   2.354   5.555
 4002WAT     H112525   2.722   2.411   5.547
 4002WAT     H212526   2.817   2.325   5.466
 4003WAT      O12527   3.107   2.392   4.018
 4003WAT     H112528   3.052   2.437   4.082
 4003WAT     H212529   3.170   2.341   4.070
 4004WAT      O12530   3.513   2.527   5.611
 4004WAT     H112531   3.587   2.561   5.561
 4004WAT     H212532   3.436   2.544   5.556
 4005WAT      O12533   2.674   2.288   4.207
 4005WAT     H112534   2.716   2.271   4.292
 4005WAT     H212535   2.687   2.207   4.158
 4006WAT      O12536   2.490   1.886   5.488
 4006WAT     H112537   2.437   1.837   5.425
 4006WAT     H212538   2.557   1.929   5.435
 4007WAT      O12539   3.380   2.332   5.465
 4007WAT     H112540   3.422   2.348   5.550
 4007WAT     H212541   3.287   2.345   5.481
 4008WAT      O12542   3.427   2.066   5.665
 4008WAT     H112543   3.486   1.991   5.656
 4008WAT     H212544   3.445   2.119   5.587
 4009WAT      O12545   2.539   1.582   5.496
 4009WAT     H112546   2.530   1.521   5.424
 4009WAT     H212547   2.481   1.655   5.473
 4010WAT      O12548   2.816   1.438   5.199
 4010WAT     H112549   2.771   1.440   5.115
 4010WAT     H212550   2.752   1.398   5.259
 4011WAT      O12551   2.856   2.328   5.262
 4011WAT     H112552   2.898   2.412   5.244
 4011WAT     H212553   2.764   2.341   5.239
 4012WAT      O12554   3.090   2.101   5.400
 4012WAT     H112555   3.102   2.041   5.474
 4012WAT     H212556   3.176   2.104   5.358
 4013WAT      O12557   3.324   2.156   5.258
 4013WAT     H112558   3.271   2.209   5.197
 4013WAT     H212559   3.358   2.219   5.321
 4014WAT      O12560   2.641   2.958   5.373
 4014WAT     H112561   2.588   3.031   5.341
 4014WAT     H212562   2.667   2.910   5.294
 4015WAT      O12563   2.767   1.755   5.526
 4015WAT     H112564   2.826   1.724   5.594
 4015WAT     H212565   2.685   1.708   5.541
 4016WAT      O12566   3.249   1.717   5.549
 4016WAT     H112567   3.180   1.650   5.543
 4016WAT     H212568   3.321   1.672   5.594
 4017WAT      O12569   3.312   1.376   4.155
 4017WAT     H112570   3.340   1.292   4.191
 4017WAT     H212571   3.234   1.399   4.206
 4018WAT      O12572   2.443   1.605   3.901
 4018WAT     H112573   2.474   1.606   3.810
 4018WAT     H212574   2.517   1.570   3.951
 4019WAT      O12575   2.927   3.082   5.399
 4019WAT     H112576   2.920   3.172   5.430
 4019WAT     H212577   2.837   3.050   5.396
 4020WAT      O12578   2.765   1.499   3.999
 4020WAT     H112579   2.731   1.432   3.941
 4020WAT     H212580   2.785   1.453   4.081
 4021WAT      O12581   2.346   2.536   3.984
 4021WAT     H112582   2.390   2.590   4.050
 4021WAT     H212583   2.394   2.453   3.985
 4022WAT      O12584   2.067   2.814   4.729
 4022WAT     H112585   2.100   2.728   4.706
 4022WAT     H212586   2.110   2.835   4.812
 4023WAT      O12587   2.527   2.647   4.495
 4023WAT     H112588   2.497   2.635   4.585
 4023WAT     H212589   2.516   2.562   4.455
 4024WAT      O12590   2.116   2.901   5.003
 4024WAT     H112591   2.072   2.919   5.086
 4024WAT     H212592   2.173   2.977   4.989
 4025WAT      O12593   3.680   2.851   5.432
 4025WAT     H112594   3.620   2.857   5.358
 4025WAT     H212595   3.693   2.757   5.445
 4026WAT      O12596   3.804   2.625   3.966
 4026WAT     H112597   3.721   2.632   4.013
 4026WAT     H212598   3.822   2.714   3.935
 4027WAT      O12599   3.749   2.300   4.216
 4027WAT     H112600   3.826   2.357   4.227
 4027WAT     H212601   3.751   2.243   4.293
 4028WAT      O12602   2.099   2.152   4.639
 4028WAT     H112603   2.034   2.125   4.575
 4028WAT     H212604   2.183   2.141   4.594
 4029WAT      O12605   3.850   2.385   4.700
 4029WAT     H112606   3.887   2.307   4.660
 4029WAT     H212607   3.914   2.454   4.683
 4030WAT      O12608   3.548   2.524   5.242
 4030WAT     H112609   3.467   2.567   5.268
 4030WAT     H212610   3.589   2.585   5.180
 4031WAT      O12611   3.755   2.329   3.932
 4031WAT     H112612   3.782   2.420   3.919
 4031WAT     H212613   3.736   2.323   4.025
 4032WAT      O12614   3.394   1.632   4.061
 4032WAT     H112615   3.436   1.613   3.977
 4032WAT     H212616   3.364   1.547   4.092
 4033WAT      O12617   3.744   2.123   4.431
 4033WAT     H112618   3.707   2.046   4.388
 4033WAT     H212619   3.671   2.161   4.480
 4034WAT      O12620   2.203   2.191   5.093
 4034WAT     H112621   2.240   2.182   5.181
 4034WAT     H212622   2.146   2.114   5.083
 4035WAT      O12623   3.683   2.038   5.394
 4035WAT     H112624   3.660   2.015   5.304
 4035WAT     H212625   3.709   2.130   5.390
 4036WAT      O12626   2.158   1.882   5.484
 4036WAT     H112627   2.069   1.879   5.518
 4036WAT     H212628   2.212   1.902   5.560
 4037WAT      O12629   3.527   1.560   5.672
 4037WAT     H112630   3.615   1.561   5.711
 4037WAT     H212631   3.528   1.487   5.611
 4038WAT      O12632   2.021   1.873   4.233
 4038WAT     H112633   1.930   1.900   4.216
 4038WAT     H212634   2.069   1.900   4.155
 4039WAT      O12635   3.672   1.946   4.761
 4039WAT     H112636   3.724   1.896   4.698
 4039WAT     H212637   3.730   1.959   4.836
 4040WAT      O12638   3.690   1.954   5.113
 4040WAT     H112639   3.595   1.951   5.125
 4040WAT     H212640   3.708   2.045   5.090
 4041WAT      O12641   2.275   1.779   4.024
 4041WAT     H112642   2.346   1.737   3.976
 4041WAT     H212643   2.203   1.786   3.961
 4042WAT      O12644   2.240   1.384   3.928
 4042WAT     H112645   2.312   1.438   3.960
 4042WAT     H212646   2.267   1.357   3.841
 4043WAT      O12647   3.621   1.871   4.355
 4043WAT     H112648   3.670   1.848   4.433
 4043WAT     H212649   3.601   1.787   4.313
 4044WAT      O12650   2.209   1.309   4.919
 4044WAT     H112651   2.273   1.254   4.874
 4044WAT     H212652   2.251   1.335   5.001
 4045WAT      O12653   3.764   1.735   4.608
 4045WAT     H112654   3.753   1.719   4.702
 4045WAT     H212655   3.840   1.682   4.584
 4046WAT      O12656   3.598   1.329   5.254
 4046WAT     H112657   3.662   1.390   5.291
 4046WAT     H212658   3.613   1.332   5.160
 4047WAT      O12659   3.852   1.518   3.932
 4047WAT     H112660   3.945   1.505   3.912
 4047WAT     H212661   3.850   1.526   4.028
 4048WAT      O12662   3.860   1.595   4.195
 4048WAT     H112663   3.780   1.589   4.248
 4048WAT     H212664   3.880   1.689   4.194
 4049WAT      O12665   3.554   2.999   4.594
 4049WAT     H112666   3.614   2.967   4.527
 4049WAT     H212667   3.580   2.952   4.674
 4050WAT      O12668   2.184   1.325   5.193
 4050WAT     H112669   2.149   1.371   5.269
 4050WAT     H212670   2.151   1.236   5.201
 4051WAT      O12671   2.345   2.642   5.609
 4051WAT     H112672   2.340   2.605   5.697
 4051WAT     H212673   2.358   2.736   5.623
 4052WAT      O12674   2.715   2.798   5.169
 4052WAT     H112675   2.691   2.824   5.081
 4052WAT     H212676   2.809   2.815   5.175
 4053WAT      O12677   2.935   1.444   5.545
 4053WAT     H112678   2.929   1.503   5.620
 4053WAT     H212679   3.029   1.433   5.530
 4054WAT      O12680   3.199   1.410   5.509
 4054WAT     H112681   3.260   1.442   5.443
 4054WAT     H212682   3.254   1.361   5.571
 4055WAT      O12683   3.841   3.000   5.249
 4055WAT     H112684   3.791   3.039   5.178
 4055WAT     H212685   3.780   2.937   5.289
 4056WAT      O12686   2.251   1.278   5.520
 4056WAT     H112687   2.306   1.260   5.444
 4056WAT     H212688   2.258   1.199   5.574
 4057WAT      O12689   2.329   2.937   5.321
 4057WAT     H112690   2.269   2.924   5.395
 4057WAT     H212691   2.328   2.853   5.275
 4058WAT      O12692   3.273   1.266   5.142
 4058WAT     H112693   3.186   1.299   5.121
 4058WAT     H212694   3.262   1.219   5.224
 4059WAT      O12695   3.364   1.487   5.280
 4059WAT     H112696   3.331   1.405   5.242
 4059WAT     H212697   3.459   1.483   5.268
 4060WAT      O12698   3.609   3.064   4.977
 4060WAT     H112699   3.563   3.139   4.940
 4060WAT     H212700   3.546   2.992   4.972
 4061WAT      O12701   2.292   2.673   5.216
 4061WAT     H112702   2.219   2.611   5.210
 4061WAT     H212703   2.298   2.713   5.129
 4062WAT      O12704   2.652   2.895   4.895
 4062WAT     H112705   2.704   2.834   4.842
 4062WAT     H212706   2.717   2.945   4.944
 4063WAT      O12707   2.926   2.984   4.978
 4063WAT     H112708   2.955   2.958   4.890
 4063WAT     H212709   2.977   2.929   5.037
 4064WAT      O12710   3.048   1.358   5.035
 4064WAT     H112711   2.970   1.405   5.063
 4064WAT     H212712   3.018   1.267   5.025
 4065WAT      O12713   3.503   1.428   4.840
 4065WAT     H112714   3.547   1.422   4.755
 4065WAT     H212715   3.476   1.520   4.847
 4066WAT      O12716   3.689   1.391   4.641
 4066WAT     H112717   3.683   1.297   4.626
 4066WAT     H212718   3.767   1.402   4.696
 4067WAT      O12719   2.120   3.005   4.537
 4067WAT     H112720   2.103   2.942   4.607
 4067WAT     H212721   2.033   3.026   4.502
 4068WAT      O12722   2.182   1.388   4.288
 4068WAT     H112723   2.258   1.400   4.230
 4068WAT     H212724   2.136   1.472   4.283
 4069WAT      O12725   2.836   1.600   4.587
 4069WAT     H112726   2.755   1.562   4.553
 4069WAT     H212727   2.887   1.524   4.617
 4070WAT      O12728   3.287   1.266   4.710
 4070WAT     H112729   3.347   1.323   4.758
 4070WAT     H212730   3.213   1.322   4.688
 4071WAT      O12731   3.601   1.306   4.238
 4071WAT     H112732   3.620   1.396   4.265
 4071WAT     H212733   3.522   1.283   4.287
 4072WAT      O12734   2.281   2.874   4.282
 4072WAT     H112735   2.228   2.913   4.211
 4072WAT     H212736   2.273   2.937   4.354
 4073WAT      O12737   2.420   1.441   4.142
 4073WAT     H112738   2.472   1.362   4.129
 4073WAT     H212739   2.483   1.509   4.165
 4074WAT      O12740   2.639   1.415   4.447
 4074WAT     H112741   2.576   1.345   4.464
 4074WAT     H212742   2.585   1.491   4.425
 4075WAT      O12743   2.933   3.076   5.714
 4075WAT     H112744   3.025   3.053   5.719
 4075WAT     H212745   2.931   3.159   5.666
 4076WAT      O12746   3.756   3.030   4.414
 4076WAT     H112747   3.774   2.962   4.350
 4076WAT     H212748   3.686   3.083   4.375
 4077WAT      O12749   2.651   1.343   5.691
 4077WAT     H112750   2.623   1.393   5.614
 4077WAT     H212751   2.690   1.263   5.654
 4078WAT      O12752   2.541   3.069   4.169
 4078WAT     H112753   2.614   3.041   4.115
 4078WAT     H212754   2.566   3.045   4.258
 4079WAT      O12755   2.457   2.681   4.170
 4079WAT     H112756   2.394   2.728   4.225
 4079WAT     H212757   2.468   2.596   4.213
 4080WAT      O12758   3.417   2.704   2.851
 4080WAT     H112759   3.371   2.627   2.884
 4080WAT     H212760   3.499   2.707   2.901
 4081WAT      O12761   2.258   1.791   2.439
 4081WAT     H112762   2.169   1.825   2.429
 4081WAT     H212763   2.286   1.771   2.350
 4082WAT      O12764   2.054   2.051   3.027
 4082WAT     H112765   2.111   1.974   3.027
 4082WAT     H212766   2.054   2.081   2.937
 4083WAT      O12767   2.179   1.592   3.206
 4083WAT     H112768   2.161   1.502   3.234
 4083WAT     H212769   2.138   1.647   3.274
 4084WAT      O12770   3.062   1.812   2.996
 4084WAT     H112771   3.100   1.725   2.985
 4084WAT     H212772   3.053   1.846   2.907
 4085WAT      O12773   2.476   1.649   2.542
 4085WAT     H112774   2.486   1.739   2.573
 4085WAT     H212775   2.384   1.644   2.513
 4086WAT      O12776   3.441   1.562   2.690
 4086WAT     H112777   3.523   1.513   2.694
 4086WAT     H212778   3.444   1.621   2.765
 4087WAT      O12779   3.870   1.763   3.346
 4087WAT     H112780   3.799   1.802   3.294
 4087WAT     H212781   3.896   1.833   3.406
 4088WAT      O12782   2.488   1.410   3.402
 4088WAT     H112783   2.488   1.462   3.322
 4088WAT     H212784   2.405   1.362   3.400
 4089WAT      O12785   3.464   1.756   2.967
 4089WAT     H112786   3.394   1.784   3.025
 4089WAT     H212787   3.500   1.837   2.931
 4090WAT      O12788   2.456   1.581   3.203
 4090WAT     H112789   2.490   1.666   3.174
 4090WAT     H212790   2.362   1.596   3.215
 4091WAT      O12791   3.771   1.700   3.006
 4091WAT     H112792   3.676   1.703   3.019
 4091WAT     H212793   3.804   1.781   3.044
 4092WAT      O12794   2.824   1.330   2.835
 4092WAT     H112795   2.855   1.275   2.764
 4092WAT     H212796   2.731   1.344   2.817
 4093WAT      O12797   3.509   2.574   2.573
 4093WAT     H112798   3.498   2.480   2.586
 4093WAT     H212799   3.509   2.610   2.662
 4094WAT      O12800   3.319   2.392   3.197
 4094WAT     H112801   3.361   2.371   3.114
 4094WAT     H212802   3.392   2.418   3.254
 4095WAT      O12803   3.714   2.232   3.207
 4095WAT     H112804   3.631   2.239   3.159
 4095WAT     H212805   3.774   2.290   3.160
 4096WAT      O12806   3.410   1.911   3.301
 4096WAT     H112807   3.369   1.993   3.326
 4096WAT     H212808   3.337   1.852   3.282
 4097WAT      O12809   3.642   1.342   2.092
 4097WAT     H112810   3.611   1.351   2.182
 4097WAT     H212811   3.718   1.400   2.087
 4098WAT      O12812   2.294   2.079   2.537
 4098WAT     H112813   2.282   2.151   2.476
 4098WAT     H212814   2.263   2.002   2.490
 4099WAT      O12815   3.837   2.891   3.877
 4099WAT     H112816   3.885   2.939   3.945
 4099WAT     H212817   3.900   2.884   3.804
 4100WAT      O12818   2.058   2.396   3.118
 4100WAT     H112819   2.065   2.409   3.024
 4100WAT     H212820   2.119   2.325   3.137
 4101WAT      O12821   3.778   2.610   3.593
 4101WAT     H112822   3.790   2.587   3.501
 4101WAT     H212823   3.782   2.527   3.640
 4102WAT      O12824   3.362   3.009   2.393
 4102WAT     H112825   3.346   2.980   2.482
 4102WAT     H212826   3.345   2.932   2.339
 4103WAT      O12827   3.763   1.816   3.689
 4103WAT     H112828   3.701   1.867   3.636
 4103WAT     H212829   3.731   1.726   3.684
 4104WAT      O12830   2.063   2.500   3.372
 4104WAT     H112831   2.080   2.453   3.290
 4104WAT     H212832   2.110   2.449   3.438
 4105WAT      O12833   2.540   1.413   2.876
 4105WAT     H112834   2.496   1.491   2.842
 4105WAT     H212835   2.596   1.445   2.946
 4106WAT      O12836   2.969   1.700   3.436
 4106WAT     H112837   2.923   1.721   3.517
 4106WAT     H212838   2.929   1.618   3.406
 4107WAT      O12839   3.469   1.822   3.549
 4107WAT     H112840   3.384   1.792   3.581
 4107WAT     H212841   3.453   1.846   3.458
 4108WAT      O12842   3.179   1.972   3.759
 4108WAT     H112843   3.211   1.888   3.725
 4108WAT     H212844   3.258   2.024   3.774
 4109WAT      O12845   2.852   1.375   2.364
 4109WAT     H112846   2.790   1.375   2.436
 4109WAT     H212847   2.843   1.288   2.324
 4110WAT      O12848   2.744   1.467   3.061
 4110WAT     H112849   2.774   1.558   3.053
 4110WAT     H212850   2.799   1.419   3.000
 4111WAT      O12851   2.934   1.665   3.837
 4111WAT     H112852   2.865   1.645   3.901
 4111WAT     H212853   3.008   1.693   3.891
 4112WAT      O12854   2.007   1.449   2.934
 4112WAT     H112855   1.978   1.506   3.005
 4112WAT     H212856   2.081   1.401   2.970
 4113WAT      O12857   2.026   1.843   2.055
 4113WAT     H112858   2.017   1.937   2.069
 4113WAT     H212859   1.990   1.829   1.967
 4114WAT      O12860   3.162   2.049   3.121
 4114WAT     H112861   3.089   2.100   3.156
 4114WAT     H212862   3.122   1.967   3.091
 4115WAT      O12863   2.391   1.704   2.857
 4115WAT     H112864   2.357   1.752   2.933
 4115WAT     H212865   2.314   1.659   2.821
 4116WAT      O12866   3.208   1.594   3.062
 4116WAT     H112867   3.210   1.639   3.146
 4116WAT     H212868   3.183   1.504   3.083
 4117WAT      O12869   3.551   1.335   3.646
 4117WAT     H112870   3.583   1.262   3.699
 4117WAT     H212871   3.554   1.303   3.556
 4118WAT      O12872   2.221   2.437   3.588
 4118WAT     H112873   2.182   2.373   3.648
 4118WAT     H212874   2.252   2.508   3.645
 4119WAT      O12875   2.122   1.597   2.749
 4119WAT     H112876   2.094   1.560   2.833
 4119WAT     H212877   2.116   1.523   2.688
 4120WAT      O12878   3.089   1.486   2.421
 4120WAT     H112879   3.008   1.436   2.414
 4120WAT     H212880   3.070   1.570   2.379
 4121WAT      O12881   3.588   2.054   2.198
 4121WAT     H112882   3.580   2.097   2.112
 4121WAT     H212883   3.660   2.100   2.241
 4122WAT      O12884   3.696   2.300   3.505
 4122WAT     H112885   3.623   2.359   3.485
 4122WAT     H212886   3.749   2.299   3.425
 4123WAT      O12887   3.691   2.740   2.470
 4123WAT     H112888   3.627   2.674   2.498
 4123WAT     H212889   3.652   2.780   2.393
 4124WAT      O12890   2.071   2.110   2.145
 4124WAT     H112891   2.158   2.138   2.173
 4124WAT     H212892   2.022   2.192   2.133
 4125WAT      O12893   2.378   1.283   2.604
 4125WAT     H112894   2.365   1.283   2.699
 4125WAT     H212895   2.295   1.317   2.569
 4126WAT      O12896   3.145   2.600   3.152
 4126WAT     H112897   3.210   2.530   3.163
 4126WAT     H212898   3.198   2.678   3.134
 4127WAT      O12899   3.530   2.629   2.124
 4127WAT     H112900   3.507   2.557   2.183
 4127WAT     H212901   3.491   2.604   2.040
 4128WAT      O12902   2.078   1.459   3.550
 4128WAT     H112903   2.006   1.479   3.611
 4128WAT     H212904   2.120   1.382   3.587
 4129WAT      O12905   3.488   2.421   2.290
 4129WAT     H112906   3.459   2.467   2.369
 4129WAT     H212907   3.568   2.375   2.317
 4130WAT      O12908   2.270   2.292   2.358
 4130WAT     H112909   2.209   2.366   2.359
 4130WAT     H212910   2.317   2.301   2.275
 4131WAT      O12911   3.227   1.708   3.325
 4131WAT     H112912   3.264   1.626   3.358
 4131WAT     H212913   3.141   1.715   3.367
 4132WAT      O12914   3.564   1.604   2.406
 4132WAT     H112915   3.501   1.615   2.335
 4132WAT     H212916   3.514   1.626   2.485
 4133WAT      O12917   3.164   1.504   2.692
 4133WAT     H112918   3.151   1.506   2.597
 4133WAT     H212919   3.259   1.509   2.704
 4134WAT      O12920   2.581   1.663   2.285
 4134WAT     H112921   2.666   1.706   2.279
 4134WAT     H212922   2.544   1.694   2.368
 4135WAT      O12923   3.644   1.596   3.432
 4135WAT     H112924   3.594   1.670   3.466
 4135WAT     H212925   3.725   1.634   3.400
 4136WAT      O12926   2.340   2.031   2.201
 4136WAT     H112927   2.348   1.937   2.212
 4136WAT     H212928   2.430   2.064   2.212
 4137WAT      O12929   3.205   2.576   3.825
 4137WAT     H112930   3.144   2.578   3.751
 4137WAT     H212931   3.174   2.502   3.879
 4138WAT      O12932   3.637   2.886   2.236
 4138WAT     H112933   3.608   2.845   2.154
 4138WAT     H212934   3.617   2.979   2.224
 4139WAT      O12935   2.093   2.213   3.725
 4139WAT     H112936   2.143   2.156   3.782
 4139WAT     H212937   2.019   2.242   3.778
 4140WAT      O12938   3.513   2.527   3.734
 4140WAT     H112939   3.587   2.561   3.683
 4140WAT     H212940   3.436   2.544   3.678
 4141WAT      O12941   3.380   2.332   3.587
 4141WAT     H112942   3.422   2.348   3.672
 4141WAT     H212943   3.287   2.345   3.603
 4142WAT      O12944   3.427   2.066   3.788
 4142WAT     H112945   3.486   1.991   3.779
 4142WAT     H212946   3.445   2.119   3.710
 4143WAT      O12947   2.816   1.438   3.322
 4143WAT     H112948   2.771   1.440   3.237
 4143WAT     H212949   2.752   1.398   3.382
 4144WAT      O12950   3.324   2.156   3.380
 4144WAT     H112951   3.271   2.209   3.320
 4144WAT     H212952   3.358   2.219   3.443
 4145WAT      O12953   2.564   1.895   2.025
 4145WAT     H112954   2.544   1.809   2.061
 4145WAT     H212955   2.547   1.886   1.931
 4146WAT      O12956   3.249   1.717   3.672
 4146WAT     H112957   3.180   1.650   3.665
 4146WAT     H212958   3.321   1.672   3.716
 4147WAT      O12959   3.312   1.376   2.278
 4147WAT     H112960   3.340   1.292   2.313
 4147WAT     H212961   3.234   1.399   2.329
 4148WAT      O12962   2.443   1.605   2.023
 4148WAT     H112963   2.474   1.606   1.933
 4148WAT     H212964   2.517   1.570   2.073
 4149WAT      O12965   2.765   1.499   2.122
 4149WAT     H112966   2.731   1.432   2.064
 4149WAT     H212967   2.785   1.453   2.203
 4150WAT      O12968   2.116   2.901   3.126
 4150WAT     H112969   2.072   2.919   3.209
 4150WAT     H212970   2.173   2.977   3.112
 4151WAT      O12971   3.804   2.625   2.088
 4151WAT     H112972   3.721   2.632   2.135
 4151WAT     H212973   3.822   2.714   2.058
 4152WAT      O12974   3.749   2.300   2.339
 4152WAT     H112975   3.826   2.357   2.349
 4152WAT     H212976   3.751   2.243   2.416
 4153WAT      O12977   2.099   2.152   2.762
 4153WAT     H112978   2.034   2.125   2.697
 4153WAT     H212979   2.183   2.141   2.717
 4154WAT      O12980   3.850   2.385   2.823
 4154WAT     H112981   3.887   2.307   2.782
 4154WAT     H212982   3.914   2.454   2.805
 4155WAT      O12983   3.548   2.524   3.364
 4155WAT     H112984   3.467   2.567   3.391
 4155WAT     H212985   3.589   2.585   3.303
 4156WAT      O12986   3.755   2.329   2.054
 4156WAT     H112987   3.782   2.420   2.041
 4156WAT     H212988   3.736   2.323   2.148
 4157WAT      O12989   3.394   1.632   2.184
 4157WAT     H112990   3.436   1.613   2.100
 4157WAT     H212991   3.364   1.547   2.215
 4158WAT      O12992   3.744   2.123   2.554
 4158WAT     H112993   3.707   2.046   2.510
 4158WAT     H212994   3.671   2.161   2.602
 4159WAT      O12995   3.683   2.038   3.517
 4159WAT     H112996   3.660   2.015   3.427
 4159WAT     H212997   3.709   2.130   3.512
 4160WAT      O12998   2.158   1.882   3.606
 4160WAT     H112999   2.069   1.879   3.640
 4160WAT     H213000   2.212   1.902   3.683
 4161WAT      O13001   3.527   1.560   3.795
 4161WAT     H113002   3.615   1.561   3.833
 4161WAT     H213003   3.528   1.487   3.734
 4162WAT      O13004   2.021   1.873   2.356
 4162WAT     H113005   1.930   1.900   2.338
 4162WAT     H213006   2.069   1.900   2.278
 4163WAT      O13007   3.672   1.946   2.884
 4163WAT     H113008   3.724   1.896   2.821
 4163WAT     H213009   3.730   1.959   2.958
 4164WAT      O13010   3.690   1.954   3.236
 4164WAT     H113011   3.595   1.951   3.247
 4164WAT     H213012   3.708   2.045   3.212
 4165WAT      O13013   2.275   1.779   2.147
 4165WAT     H113014   2.346   1.737   2.098
 4165WAT     H213015   2.203   1.786   2.084
 4166WAT      O13016   2.240   1.384   2.051
 4166WAT     H113017   2.312   1.438   2.083
 4166WAT     H213018   2.267   1.357   1.963
 4167WAT      O13019   3.621   1.871   2.478
 4167WAT     H113020   3.670   1.848   2.556
 4167WAT     H213021   3.601   1.787   2.436
 4168WAT      O13022   2.209   1.309   3.041
 4168WAT     H113023   2.273   1.254   2.997
 4168WAT     H213024   2.251   1.335   3.123
 4169WAT      O13025   3.764   1.735   2.731
 4169WAT     H113026   3.753   1.719   2.825
 4169WAT     H213027   3.840   1.682   2.707
 4170WAT      O13028   3.598   1.329   3.377
 4170WAT     H113029   3.662   1.390   3.413
 4170WAT     H213030   3.613   1.332   3.282
 4171WAT      O13031   3.852   1.518   2.055
 4171WAT     H113032   3.945   1.505   2.034
 4171WAT     H213033   3.850   1.526   2.150
 4172WAT      O13034   3.860   1.595   2.318
 4172WAT     H113035   3.780   1.589   2.370
 4172WAT     H213036   3.880   1.689   2.316
 4173WAT      O13037   3.554   2.999   2.717
 4173WAT     H113038   3.614   2.967   2.649
 4173WAT     H213039   3.580   2.952   2.796
 4174WAT      O13040   2.184   1.325   3.315
 4174WAT     H113041   2.149   1.371   3.392
 4174WAT     H213042   2.151   1.236   3.324
 4175WAT      O13043   2.935   1.444   3.668
 4175WAT     H113044   2.929   1.503   3.742
 4175WAT     H213045   3.029   1.433   3.653
 4176WAT      O13046   3.199   1.410   3.631
 4176WAT     H113047   3.260   1.442   3.565
 4176WAT     H213048   3.254   1.361   3.693
 4177WAT      O13049   2.251   1.278   3.643
 4177WAT     H113050   2.306   1.260   3.566
 4177WAT     H213051   2.258   1.199   3.696
 4178WAT      O13052   3.273   1.266   3.264
 4178WAT     H113053   3.186   1.299   3.244
 4178WAT     H213054   3.262   1.219   3.347
 4179WAT      O13055   3.364   1.487   3.403
 4179WAT     H113056   3.331   1.405   3.365
 4179WAT     H213057   3.459   1.483   3.390
 4180WAT      O13058   3.048   1.358   3.158
 4180WAT     H113059   2.970   1.405   3.186
 4180WAT     H213060   3.018   1.267   3.147
 4181WAT      O13061   3.503   1.428   2.963
 4181WAT     H113062   3.547   1.422   2.878
 4181WAT     H213063   3.476   1.520   2.970
 4182WAT      O13064   3.689   1.391   2.764
 4182WAT     H113065   3.683   1.297   2.749
 4182WAT     H213066   3.767   1.402   2.818
 4183WAT      O13067   2.182   1.388   2.410
 4183WAT     H113068   2.258   1.400   2.353
 4183WAT     H213069   2.136   1.472   2.406
 4184WAT      O13070   2.836   1.600   2.709
 4184WAT     H113071   2.755   1.562   2.675
 4184WAT     H213072   2.887   1.524   2.739
 4185WAT      O13073   3.287   1.266   2.833
 4185WAT     H113074   3.347   1.323   2.881
 4185WAT     H213075   3.213   1.322   2.811
 4186WAT      O13076   3.601   1.306   2.360
 4186WAT     H113077   3.620   1.396   2.387
 4186WAT     H213078   3.522   1.283   2.410
 4187WAT      O13079   2.420   1.441   2.264
 4187WAT     H113080   2.472   1.362   2.251
 4187WAT     H213081   2.483   1.509   2.288
 4188WAT      O13082   2.639   1.415   2.570
 4188WAT     H113083   2.576   1.345   2.586
 4188WAT     H213084   2.585   1.491   2.548
 4189WAT      O13085   3.756   3.030   2.537
 4189WAT     H113086   3.774   2.962   2.472
 4189WAT     H213087   3.686   3.083   2.497
 4190WAT      O13088   2.651   1.343   3.813
 4190WAT     H113089   2.623   1.393   3.737
 4190WAT     H213090   2.690   1.263   3.777
 4191WAT      O13091   3.312   1.284   3.871
 4191WAT     H113092   3.300   1.316   3.961
 4191WAT     H213093   3.393   1.324   3.841
 4192WAT      O13094   3.202   2.086   0.907
 4192WAT     H113095   3.194   1.995   0.880
 4192WAT     H213096   3.161   2.136   0.837
 4193WAT      O13097   3.015   2.264   1.095
 4193WAT     H113098   2.938   2.216   1.124
 4193WAT     H213099   3.080   2.196   1.078
 4194WAT      O13100   2.417   2.295   1.183
 4194WAT     H113101   2.334   2.269   1.223
 4194WAT     H213102   2.478   2.302   1.257
 4195WAT      O13103   3.417   2.704   0.973
 4195WAT     H113104   3.371   2.627   1.006
 4195WAT     H213105   3.499   2.707   1.024
 4196WAT      O13106   2.415   2.698   1.203
 4196WAT     H113107   2.445   2.609   1.185
 4196WAT     H213108   2.489   2.754   1.180
 4197WAT      O13109   2.258   1.791   0.562
 4197WAT     H113110   2.169   1.825   0.551
 4197WAT     H213111   2.286   1.771   0.472
 4198WAT      O13112   2.054   2.051   1.150
 4198WAT     H113113   2.111   1.974   1.150
 4198WAT     H213114   2.054   2.081   1.059
 4199WAT      O13115   3.040   2.933   0.935
 4199WAT     H113116   2.978   2.979   0.878
 4199WAT     H213117   3.126   2.948   0.895
 4200WAT      O13118   2.959   2.531   1.096
 4200WAT     H113119   2.953   2.437   1.080
 4200WAT     H213120   3.036   2.540   1.153
 4201WAT      O13121   2.179   1.592   1.329
 4201WAT     H113122   2.161   1.502   1.357
 4201WAT     H213123   2.138   1.647   1.396
 4202WAT      O13124   3.062   1.812   1.119
 4202WAT     H113125   3.100   1.725   1.108
 4202WAT     H213126   3.053   1.846   1.030
 4203WAT      O13127   2.476   1.649   0.665
 4203WAT     H113128   2.486   1.739   0.696
 4203WAT     H213129   2.384   1.644   0.636
 4204WAT      O13130   3.441   1.562   0.812
 4204WAT     H113131   3.523   1.513   0.816
 4204WAT     H213132   3.444   1.621   0.887
 4205WAT      O13133   2.240   1.841   1.190
 4205WAT     H113134   2.308   1.868   1.251
 4205WAT     H213135   2.209   1.757   1.223
 4206WAT      O13136   2.660   1.946   1.098
 4206WAT     H113137   2.710   1.996   1.162
 4206WAT     H213138   2.713   1.869   1.081
 4207WAT      O13139   3.870   1.763   1.469
 4207WAT     H113140   3.799   1.802   1.417
 4207WAT     H213141   3.896   1.833   1.529
 4208WAT      O13142   2.488   1.410   1.525
 4208WAT     H113143   2.488   1.462   1.444
 4208WAT     H213144   2.405   1.362   1.523
 4209WAT      O13145   3.127   2.421   0.675
 4209WAT     H113146   3.065   2.468   0.618
 4209WAT     H213147   3.178   2.491   0.716
 4210WAT      O13148   2.613   2.374   1.343
 4210WAT     H113149   2.580   2.437   1.407
 4210WAT     H213150   2.631   2.427   1.265
 4211WAT      O13151   3.464   1.756   1.089
 4211WAT     H113152   3.394   1.784   1.147
 4211WAT     H213153   3.500   1.837   1.053
 4212WAT      O13154   2.456   1.581   1.326
 4212WAT     H113155   2.490   1.666   1.296
 4212WAT     H213156   2.362   1.596   1.337
 4213WAT      O13157   2.534   2.571   1.524
 4213WAT     H113158   2.596   2.638   1.496
 4213WAT     H213159   2.448   2.612   1.515
 4214WAT      O13160   2.064   2.490   0.412
 4214WAT     H113161   2.026   2.539   0.339
 4214WAT     H213162   2.089   2.557   0.475
 4215WAT      O13163   3.626   2.717   1.316
 4215WAT     H113164   3.558   2.784   1.315
 4215WAT     H213165   3.680   2.737   1.239
 4216WAT      O13166   3.771   1.700   1.128
 4216WAT     H113167   3.676   1.703   1.142
 4216WAT     H213168   3.804   1.781   1.167
 4217WAT      O13169   2.824   1.330   0.958
 4217WAT     H113170   2.855   1.275   0.886
 4217WAT     H213171   2.731   1.344   0.940
 4218WAT      O13172   3.380   2.902   1.187
 4218WAT     H113173   3.381   2.861   1.100
 4218WAT     H213174   3.324   2.979   1.177
 4219WAT      O13175   3.509   2.574   0.696
 4219WAT     H113176   3.498   2.480   0.709
 4219WAT     H213177   3.509   2.610   0.785
 4220WAT      O13178   3.319   2.392   1.320
 4220WAT     H113179   3.361   2.371   1.236
 4220WAT     H213180   3.392   2.418   1.377
 4221WAT      O13181   3.063   2.137   0.632
 4221WAT     H113182   2.971   2.130   0.655
 4221WAT     H213183   3.078   2.230   0.620
 4222WAT      O13184   3.062   1.764   0.331
 4222WAT     H113185   2.968   1.780   0.340
 4222WAT     H213186   3.094   1.836   0.277
 4223WAT      O13187   3.714   2.232   1.329
 4223WAT     H113188   3.631   2.239   1.282
 4223WAT     H213189   3.774   2.290   1.282
 4224WAT      O13190   3.466   2.293   0.682
 4224WAT     H113191   3.404   2.259   0.617
 4224WAT     H213192   3.464   2.228   0.753
 4225WAT      O13193   3.410   1.911   1.424
 4225WAT     H113194   3.369   1.993   1.449
 4225WAT     H213195   3.337   1.852   1.404
 4226WAT      O13196   2.624   2.189   0.910
 4226WAT     H113197   2.583   2.118   0.860
 4226WAT     H213198   2.632   2.155   0.999
 4227WAT      O13199   2.671   2.558   1.126
 4227WAT     H113200   2.641   2.497   1.058
 4227WAT     H213201   2.766   2.562   1.115
 4228WAT      O13202   2.495   1.867   1.288
 4228WAT     H113203   2.550   1.878   1.210
 4228WAT     H213204   2.547   1.904   1.359
 4229WAT      O13205   3.479   2.915   1.492
 4229WAT     H113206   3.432   2.996   1.473
 4229WAT     H213207   3.411   2.850   1.508
 4230WAT      O13208   3.284   2.217   0.383
 4230WAT     H113209   3.328   2.133   0.368
 4230WAT     H213210   3.355   2.280   0.391
 4231WAT      O13211   2.463   2.219   1.649
 4231WAT     H113212   2.449   2.306   1.686
 4231WAT     H213213   2.374   2.185   1.634
 4232WAT      O13214   3.095   2.711   0.780
 4232WAT     H113215   3.139   2.785   0.738
 4232WAT     H213216   3.089   2.735   0.872
 4233WAT      O13217   3.642   1.342   0.214
 4233WAT     H113218   3.611   1.351   0.304
 4233WAT     H213219   3.718   1.400   0.209
 4234WAT      O13220   2.294   2.079   0.660
 4234WAT     H113221   2.282   2.151   0.599
 4234WAT     H213222   2.263   2.002   0.612
 4235WAT      O13223   3.837   2.891   1.999
 4235WAT     H113224   3.885   2.939   2.067
 4235WAT     H213225   3.900   2.884   1.927
 4236WAT      O13226   2.058   2.396   1.241
 4236WAT     H113227   2.065   2.409   1.146
 4236WAT     H213228   2.119   2.325   1.260
 4237WAT      O13229   2.182   2.566   0.882
 4237WAT     H113230   2.141   2.580   0.796
 4237WAT     H213231   2.271   2.537   0.861
 4238WAT      O13232   3.778   2.610   1.715
 4238WAT     H113233   3.790   2.587   1.624
 4238WAT     H213234   3.782   2.527   1.763
 4239WAT      O13235   3.164   2.981   1.572
 4239WAT     H113236   3.215   2.972   1.653
 4239WAT     H213237   3.080   3.015   1.602
 4240WAT      O13238   3.362   3.009   0.515
 4240WAT     H113239   3.346   2.980   0.605
 4240WAT     H213240   3.345   2.932   0.462
 4241WAT      O13241   2.609   2.987   0.693
 4241WAT     H113242   2.592   2.896   0.672
 4241WAT     H213243   2.524   3.023   0.717
 4242WAT      O13244   3.332   2.760   0.371
 4242WAT     H113245   3.262   2.760   0.305
 4242WAT     H213246   3.406   2.718   0.328
 4243WAT      O13247   3.288   2.923   0.779
 4243WAT     H113248   3.334   2.845   0.810
 4243WAT     H213249   3.322   2.994   0.833
 4244WAT      O13250   3.763   1.816   1.812
 4244WAT     H113251   3.701   1.867   1.759
 4244WAT     H213252   3.731   1.726   1.806
 4245WAT      O13253   2.063   2.500   1.495
 4245WAT     H113254   2.080   2.453   1.413
 4245WAT     H213255   2.110   2.449   1.561
 4246WAT      O13256   2.540   1.413   0.998
 4246WAT     H113257   2.496   1.491   0.965
 4246WAT     H213258   2.596   1.445   1.069
 4247WAT      O13259   2.969   1.700   1.558
 4247WAT     H113260   2.923   1.721   1.640
 4247WAT     H213261   2.929   1.618   1.528
 4248WAT      O13262   3.469   1.822   1.671
 4248WAT     H113263   3.384   1.792   1.704
 4248WAT     H213264   3.453   1.846   1.580
 4249WAT      O13265   3.179   1.972   1.881
 4249WAT     H113266   3.211   1.888   1.847
 4249WAT     H213267   3.258   2.024   1.896
 4250WAT      O13268   2.852   1.375   0.486
 4250WAT     H113269   2.790   1.375   0.559
 4250WAT     H213270   2.843   1.288   0.447
 4251WAT      O13271   2.744   1.467   1.184
 4251WAT     H113272   2.774   1.558   1.176
 4251WAT     H213273   2.799   1.419   1.123
 4252WAT      O13274   2.520   1.925   0.771
 4252WAT     H113275   2.497   1.904   0.861
 4252WAT     H213276   2.442   1.969   0.736
 4253WAT      O13277   3.243   1.926   0.631
 4253WAT     H113278   3.183   1.998   0.612
 4253WAT     H213279   3.297   1.920   0.553
 4254WAT      O13280   2.764   2.015   1.838
 4254WAT     H113281   2.754   1.921   1.823
 4254WAT     H213282   2.848   2.037   1.798
 4255WAT      O13283   3.103   1.790   0.834
 4255WAT     H113284   3.143   1.821   0.753
 4255WAT     H213285   3.139   1.702   0.845
 4256WAT      O13286   2.277   1.656   1.653
 4256WAT     H113287   2.237   1.741   1.674
 4256WAT     H213288   2.208   1.593   1.672
 4257WAT      O13289   2.934   1.665   1.960
 4257WAT     H113290   2.865   1.645   2.023
 4257WAT     H213291   3.008   1.693   2.013
 4258WAT      O13292   2.007   1.449   1.056
 4258WAT     H113293   1.978   1.506   1.127
 4258WAT     H213294   2.081   1.401   1.093
 4259WAT      O13295   3.162   2.049   1.243
 4259WAT     H113296   3.089   2.100   1.278
 4259WAT     H213297   3.122   1.967   1.213
 4260WAT      O13298   2.806   1.716   1.084
 4260WAT     H113299   2.806   1.672   0.999
 4260WAT     H213300   2.895   1.748   1.095
 4261WAT      O13301   2.391   1.704   0.980
 4261WAT     H113302   2.357   1.752   1.056
 4261WAT     H213303   2.314   1.659   0.944
 4262WAT      O13304   2.812   1.816   0.383
 4262WAT     H113305   2.824   1.812   0.478
 4262WAT     H213306   2.773   1.903   0.367
 4263WAT      O13307   3.208   1.594   1.185
 4263WAT     H113308   3.210   1.639   1.269
 4263WAT     H213309   3.183   1.504   1.206
 4264WAT      O13310   2.713   2.047   0.323
 4264WAT     H113311   2.656   2.003   0.260
 4264WAT     H213312   2.784   2.083   0.269
 4265WAT      O13313   3.551   1.335   1.768
 4265WAT     H113314   3.583   1.262   1.821
 4265WAT     H213315   3.554   1.303   1.678
 4266WAT      O13316   2.221   2.437   1.710
 4266WAT     H113317   2.182   2.373   1.770
 4266WAT     H213318   2.252   2.508   1.767
 4267WAT      O13319   2.836   2.122   1.259
 4267WAT     H113320   2.872   2.075   1.333
 4267WAT     H213321   2.817   2.210   1.293
 4268WAT      O13322   2.122   1.597   0.872
 4268WAT     H113323   2.094   1.560   0.955
 4268WAT     H213324   2.116   1.523   0.810
 4269WAT      O13325   2.615   2.026   1.490
 4269WAT     H113326   2.584   2.114   1.513
 4269WAT     H213327   2.710   2.032   1.494
 4270WAT      O13328   2.467   2.447   0.550
 4270WAT     H113329   2.390   2.393   0.534
 4270WAT     H213330   2.540   2.395   0.516
 4271WAT      O13331   3.543   2.347   1.129
 4271WAT     H113332   3.615   2.396   1.090
 4271WAT     H213333   3.523   2.279   1.065
 4272WAT      O13334   3.089   1.486   0.544
 4272WAT     H113335   3.008   1.436   0.536
 4272WAT     H213336   3.070   1.570   0.502
 4273WAT      O13337   3.082   2.354   1.718
 4273WAT     H113338   3.075   2.262   1.693
 4273WAT     H213339   3.019   2.363   1.789
 4274WAT      O13340   3.361   1.923   0.373
 4274WAT     H113341   3.450   1.954   0.356
 4274WAT     H213342   3.358   1.836   0.334
 4275WAT      O13343   2.472   2.414   0.914
 4275WAT     H113344   2.524   2.333   0.908
 4275WAT     H213345   2.427   2.408   0.998
 4276WAT      O13346   2.961   2.540   0.441
 4276WAT     H113347   2.995   2.615   0.392
 4276WAT     H213348   2.878   2.572   0.477
 4277WAT      O13349   2.220   2.110   1.605
 4277WAT     H113350   2.184   2.177   1.664
 4277WAT     H213351   2.191   2.027   1.642
 4278WAT      O13352   2.540   2.156   1.894
 4278WAT     H113353   2.510   2.171   1.804
 4278WAT     H213354   2.618   2.100   1.884
 4279WAT      O13355   3.075   2.636   1.693
 4279WAT     H113356   3.076   2.543   1.671
 4279WAT     H213357   3.004   2.644   1.757
 4280WAT      O13358   3.588   2.054   0.320
 4280WAT     H113359   3.580   2.097   0.235
 4280WAT     H213360   3.660   2.100   0.363
 4281WAT      O13361   3.696   2.300   1.628
 4281WAT     H113362   3.623   2.359   1.608
 4281WAT     H213363   3.749   2.299   1.548
 4282WAT      O13364   3.691   2.740   0.593
 4282WAT     H113365   3.627   2.674   0.620
 4282WAT     H213366   3.652   2.780   0.515
 4283WAT      O13367   3.249   2.473   0.978
 4283WAT     H113368   3.284   2.413   0.912
 4283WAT     H213369   3.160   2.440   0.995
 4284WAT      O13370   2.857   2.549   0.718
 4284WAT     H113371   2.926   2.603   0.756
 4284WAT     H213372   2.779   2.603   0.722
 4285WAT      O13373   2.071   2.110   0.267
 4285WAT     H113374   2.158   2.138   0.296
 4285WAT     H213375   2.022   2.192   0.256
 4286WAT      O13376   2.788   2.249   0.680
 4286WAT     H113377   2.833   2.330   0.702
 4286WAT     H213378   2.753   2.217   0.763
 4287WAT      O13379   3.018   2.800   1.402
 4287WAT     H113380   3.082   2.821   1.470
 4287WAT     H213381   3.054   2.724   1.357
 4288WAT      O13382   2.378   1.283   0.727
 4288WAT     H113383   2.365   1.283   0.822
 4288WAT     H213384   2.295   1.317   0.692
 4289WAT      O13385   3.145   2.600   1.274
 4289WAT     H113386   3.210   2.530   1.286
 4289WAT     H213387   3.198   2.678   1.256
 4290WAT      O13388   3.530   2.629   0.247
 4290WAT     H113389   3.507   2.557   0.306
 4290WAT     H213390   3.491   2.604   0.163
 4291WAT      O13391   3.323   2.680   1.595
 4291WAT     H113392   3.356   2.739   1.662
 4291WAT     H213393   3.231   2.667   1.618
 4292WAT      O13394   2.108   3.032   0.324
 4292WAT     H113395   2.144   3.091   0.259
 4292WAT     H213396   2.094   3.086   0.401
 4293WAT      O13397   2.078   1.459   1.673
 4293WAT     H113398   2.006   1.479   1.733
 4293WAT     H213399   2.120   1.382   1.710
 4294WAT      O13400   3.488   2.421   0.413
 4294WAT     H113401   3.459   2.467   0.492
 4294WAT     H213402   3.568   2.375   0.440
 4295WAT      O13403   2.710   2.770   0.406
 4295WAT     H113404   2.709   2.843   0.344
 4295WAT     H213405   2.618   2.745   0.415
 4296WAT      O13406   2.270   2.292   0.480
 4296WAT     H113407   2.209   2.366   0.481
 4296WAT     H213408   2.317   2.301   0.398
 4297WAT      O13409   3.227   1.708   1.448
 4297WAT     H113410   3.264   1.626   1.481
 4297WAT     H213411   3.141   1.715   1.489
 4298WAT      O13412   3.564   1.604   0.529
 4298WAT     H113413   3.501   1.615   0.457
 4298WAT     H213414   3.514   1.626   0.608
 4299WAT      O13415   3.008   2.776   0.272
 4299WAT     H113416   3.018   2.756   0.179
 4299WAT     H213417   2.918   2.751   0.293
 4300WAT      O13418   2.761   1.832   0.670
 4300WAT     H113419   2.690   1.879   0.714
 4300WAT     H213420   2.789   1.766   0.734
 4301WAT      O13421   2.923   1.974   1.470
 4301WAT     H113422   2.973   2.021   1.537
 4301WAT     H213423   2.937   1.882   1.491
 4302WAT      O13424   3.164   1.504   0.814
 4302WAT     H113425   3.151   1.506   0.719
 4302WAT     H213426   3.259   1.509   0.826
 4303WAT      O13427   2.873   3.028   0.742
 4303WAT     H113428   2.898   3.024   0.649
 4303WAT     H213429   2.778   3.015   0.741
 4304WAT      O13430   2.581   1.663   0.408
 4304WAT     H113431   2.666   1.706   0.401
 4304WAT     H213432   2.544   1.694   0.491
 4305WAT      O13433   3.644   1.596   1.555
 4305WAT     H113434   3.594   1.670   1.588
 4305WAT     H213435   3.725   1.634   1.523
 4306WAT      O13436   3.473   2.120   0.899
 4306WAT     H113437   3.379   2.121   0.917
 4306WAT     H213438   3.505   2.041   0.944
 4307WAT      O13439   2.471   2.288   0.255
 4307WAT     H113440   2.548   2.277   0.311
 4307WAT     H213441   2.479   2.218   0.190
 4308WAT      O13442   2.340   2.031   0.324
 4308WAT     H113443   2.348   1.937   0.335
 4308WAT     H213444   2.430   2.064   0.334
 4309WAT      O13445   3.673   2.837   1.067
 4309WAT     H113446   3.686   2.919   1.114
 4309WAT     H213447   3.760   2.816   1.032
 4310WAT      O13448   2.420   3.046   1.034
 4310WAT     H113449   2.494   2.991   1.061
 4310WAT     H213450   2.459   3.133   1.020
 4311WAT      O13451   2.109   2.653   0.621
 4311WAT     H113452   2.016   2.677   0.620
 4311WAT     H213453   2.156   2.736   0.609
 4312WAT      O13454   2.732   2.964   0.216
 4312WAT     H113455   2.811   2.992   0.171
 4312WAT     H213456   2.680   2.921   0.148
 4313WAT      O13457   3.205   2.576   1.947
 4313WAT     H113458   3.144   2.578   1.873
 4313WAT     H213459   3.174   2.502   2.001
 4314WAT      O13460   3.348   2.948   1.809
 4314WAT     H113461   3.443   2.940   1.804
 4314WAT     H213462   3.333   3.015   1.876
 4315WAT      O13463   3.637   2.886   0.358
 4315WAT     H113464   3.608   2.845   0.277
 4315WAT     H213465   3.617   2.979   0.346
 4316WAT      O13466   2.093   2.213   1.847
 4316WAT     H113467   2.143   2.156   1.904
 4316WAT     H213468   2.019   2.242   1.901
 4317WAT      O13469   2.798   2.354   1.800
 4317WAT     H113470   2.722   2.411   1.792
 4317WAT     H213471   2.817   2.325   1.711
 4318WAT      O13472   3.107   2.392   0.263
 4318WAT     H113473   3.052   2.437   0.327
 4318WAT     H213474   3.170   2.341   0.315
 4319WAT      O13475   3.513   2.527   1.856
 4319WAT     H113476   3.587   2.561   1.806
 4319WAT     H213477   3.436   2.544   1.801
 4320WAT      O13478   2.296   2.028   1.937
 4320WAT     H113479   2.300   1.998   2.027
 4320WAT     H213480   2.382   2.068   1.921
 4321WAT      O13481   2.674   2.288   0.453
 4321WAT     H113482   2.716   2.271   0.537
 4321WAT     H213483   2.687   2.207   0.403
 4322WAT      O13484   2.490   1.886   1.733
 4322WAT     H113485   2.437   1.837   1.671
 4322WAT     H213486   2.557   1.929   1.680
 4323WAT      O13487   3.380   2.332   1.710
 4323WAT     H113488   3.422   2.348   1.795
 4323WAT     H213489   3.287   2.345   1.726
 4324WAT      O13490   3.427   2.066   1.910
 4324WAT     H113491   3.486   1.991   1.901
 4324WAT     H213492   3.445   2.119   1.832
 4325WAT      O13493   2.539   1.582   1.741
 4325WAT     H113494   2.530   1.521   1.669
 4325WAT     H213495   2.481   1.655   1.719
 4326WAT      O13496   2.816   1.438   1.445
 4326WAT     H113497   2.771   1.440   1.360
 4326WAT     H213498   2.752   1.398   1.504
 4327WAT      O13499   2.856   2.328   1.507
 4327WAT     H113500   2.898   2.412   1.489
 4327WAT     H213501   2.764   2.341   1.484
 4328WAT      O13502   3.090   2.101   1.645
 4328WAT     H113503   3.102   2.041   1.719
 4328WAT     H213504   3.176   2.104   1.603
 4329WAT      O13505   3.324   2.156   1.503
 4329WAT     H113506   3.271   2.209   1.442
 4329WAT     H213507   3.358   2.219   1.566
 4330WAT      O13508   2.641   2.958   1.618
 4330WAT     H113509   2.588   3.031   1.586
 4330WAT     H213510   2.667   2.910   1.539
 4331WAT      O13511   2.767   1.755   1.771
 4331WAT     H113512   2.826   1.724   1.840
 4331WAT     H213513   2.685   1.708   1.786
 4332WAT      O13514   3.249   1.717   1.794
 4332WAT     H113515   3.180   1.650   1.788
 4332WAT     H213516   3.321   1.672   1.839
 4333WAT      O13517   3.312   1.376   0.400
 4333WAT     H113518   3.340   1.292   0.436
 4333WAT     H213519   3.234   1.399   0.451
 4334WAT      O13520   2.927   3.082   1.644
 4334WAT     H113521   2.920   3.172   1.675
 4334WAT     H213522   2.837   3.050   1.641
 4335WAT      O13523   2.765   1.499   0.245
 4335WAT     H113524   2.731   1.432   0.187
 4335WAT     H213525   2.785   1.453   0.326
 4336WAT      O13526   2.982   2.998   0.406
 4336WAT     H113527   3.071   3.032   0.409
 4336WAT     H213528   2.985   2.926   0.344
 4337WAT      O13529   2.346   2.536   0.229
 4337WAT     H113530   2.390   2.590   0.295
 4337WAT     H213531   2.394   2.453   0.230
 4338WAT      O13532   2.067   2.814   0.974
 4338WAT     H113533   2.100   2.728   0.951
 4338WAT     H213534   2.110   2.835   1.058
 4339WAT      O13535   2.527   2.647   0.740
 4339WAT     H113536   2.497   2.635   0.831
 4339WAT     H213537   2.516   2.562   0.700
 4340WAT      O13538   2.116   2.901   1.248
 4340WAT     H113539   2.072   2.919   1.332
 4340WAT     H213540   2.173   2.977   1.234
 4341WAT      O13541   3.680   2.851   1.677
 4341WAT     H113542   3.620   2.857   1.603
 4341WAT     H213543   3.693   2.757   1.690
 4342WAT      O13544   3.804   2.625   0.211
 4342WAT     H113545   3.721   2.632   0.258
 4342WAT     H213546   3.822   2.714   0.180
 4343WAT      O13547   3.749   2.300   0.461
 4343WAT     H113548   3.826   2.357   0.472
 4343WAT     H213549   3.751   2.243   0.538
 4344WAT      O13550   2.099   2.152   0.884
 4344WAT     H113551   2.034   2.125   0.820
 4344WAT     H213552   2.183   2.141   0.839
 4345WAT      O13553   3.850   2.385   0.946
 4345WAT     H113554   3.887   2.307   0.905
 4345WAT     H213555   3.914   2.454   0.928
 4346WAT      O13556   3.548   2.524   1.487
 4346WAT     H113557   3.467   2.567   1.513
 4346WAT     H213558   3.589   2.585   1.426
 4347WAT      O13559   3.755   2.329   0.177
 4347WAT     H113560   3.782   2.420   0.164
 4347WAT     H213561   3.736   2.323   0.270
 4348WAT      O13562   3.394   1.632   0.306
 4348WAT     H113563   3.436   1.613   0.222
 4348WAT     H213564   3.364   1.547   0.337
 4349WAT      O13565   3.744   2.123   0.676
 4349WAT     H113566   3.707   2.046   0.633
 4349WAT     H213567   3.671   2.161   0.725
 4350WAT      O13568   2.203   2.191   1.338
 4350WAT     H113569   2.240   2.182   1.426
 4350WAT     H213570   2.146   2.114   1.328
 4351WAT      O13571   3.683   2.038   1.640
 4351WAT     H113572   3.660   2.015   1.549
 4351WAT     H213573   3.709   2.130   1.635
 4352WAT      O13574   2.158   1.882   1.729
 4352WAT     H113575   2.069   1.879   1.763
 4352WAT     H213576   2.212   1.902   1.805
 4353WAT      O13577   3.527   1.560   1.917
 4353WAT     H113578   3.615   1.561   1.956
 4353WAT     H213579   3.528   1.487   1.856
 4354WAT      O13580   2.021   1.873   0.478
 4354WAT     H113581   1.930   1.900   0.461
 4354WAT     H213582   2.069   1.900   0.400
 4355WAT      O13583   3.672   1.946   1.006
 4355WAT     H113584   3.724   1.896   0.943
 4355WAT     H213585   3.730   1.959   1.081
 4356WAT      O13586   3.690   1.954   1.358
 4356WAT     H113587   3.595   1.951   1.370
 4356WAT     H213588   3.708   2.045   1.335
 4357WAT      O13589   2.275   1.779   0.269
 4357WAT     H113590   2.346   1.737   0.221
 4357WAT     H213591   2.203   1.786   0.206
 4358WAT      O13592   3.621   1.871   0.600
 4358WAT     H113593   3.670   1.848   0.679
 4358WAT     H213594   3.601   1.787   0.558
 4359WAT      O13595   2.209   1.309   1.164
 4359WAT     H113596   2.273   1.254   1.120
 4359WAT     H213597   2.251   1.335   1.246
 4360WAT      O13598   3.764   1.735   0.853
 4360WAT     H113599   3.753   1.719   0.947
 4360WAT     H213600   3.840   1.682   0.829
 4361WAT      O13601   3.598   1.329   1.499
 4361WAT     H113602   3.662   1.390   1.536
 4361WAT     H213603   3.613   1.332   1.405
 4362WAT      O13604   3.852   1.518   0.178
 4362WAT     H113605   3.945   1.505   0.157
 4362WAT     H213606   3.850   1.526   0.273
 4363WAT      O13607   3.860   1.595   0.440
 4363WAT     H113608   3.780   1.589   0.493
 4363WAT     H213609   3.880   1.689   0.439
 4364WAT      O13610   3.554   2.999   0.840
 4364WAT     H113611   3.614   2.967   0.772
 4364WAT     H213612   3.580   2.952   0.919
 4365WAT      O13613   2.184   1.325   1.438
 4365WAT     H113614   2.149   1.371   1.514
 4365WAT     H213615   2.151   1.236   1.446
 4366WAT      O13616   2.715   2.798   1.415
 4366WAT     H113617   2.691   2.824   1.326
 4366WAT     H213618   2.809   2.815   1.420
 4367WAT      O13619   2.935   1.444   1.790
 4367WAT     H113620   2.929   1.503   1.865
 4367WAT     H213621   3.029   1.433   1.776
 4368WAT      O13622   3.199   1.410   1.754
 4368WAT     H113623   3.260   1.442   1.688
 4368WAT     H213624   3.254   1.361   1.816
 4369WAT      O13625   3.841   3.000   1.495
 4369WAT     H113626   3.791   3.039   1.423
 4369WAT     H213627   3.780   2.937   1.534
 4370WAT      O13628   2.251   1.278   1.765
 4370WAT     H113629   2.306   1.260   1.689
 4370WAT     H213630   2.258   1.199   1.819
 4371WAT      O13631   3.273   1.266   1.387
 4371WAT     H113632   3.186   1.299   1.366
 4371WAT     H213633   3.262   1.219   1.469
 4372WAT      O13634   3.364   1.487   1.525
 4372WAT     H113635   3.331   1.405   1.487
 4372WAT     H213636   3.459   1.483   1.513
 4373WAT      O13637   3.609   3.064   1.222
 4373WAT     H113638   3.563   3.139   1.185
 4373WAT     H213639   3.546   2.992   1.217
 4374WAT      O13640   2.292   2.673   1.461
 4374WAT     H113641   2.219   2.611   1.455
 4374WAT     H213642   2.298   2.713   1.374
 4375WAT      O13643   2.652   2.895   1.140
 4375WAT     H113644   2.704   2.834   1.087
 4375WAT     H213645   2.717   2.945   1.189
 4376WAT      O13646   2.926   2.984   1.223
 4376WAT     H113647   2.955   2.958   1.135
 4376WAT     H213648   2.977   2.929   1.282
 4377WAT      O13649   3.048   1.358   1.281
 4377WAT     H113650   2.970   1.405   1.309
 4377WAT     H213651   3.018   1.267   1.270
 4378WAT      O13652   3.503   1.428   1.085
 4378WAT     H113653   3.547   1.422   1.000
 4378WAT     H213654   3.476   1.520   1.092
 4379WAT      O13655   3.689   1.391   0.886
 4379WAT     H113656   3.683   1.297   0.872
 4379WAT     H213657   3.767   1.402   0.941
 4380WAT      O13658   2.120   3.005   0.782
 4380WAT     H113659   2.103   2.942   0.852
 4380WAT     H213660   2.033   3.026   0.747
 4381WAT      O13661   2.182   1.388   0.533
 4381WAT     H113662   2.258   1.400   0.475
 4381WAT     H213663   2.136   1.472   0.528
 4382WAT      O13664   2.836   1.600   0.832
 4382WAT     H113665   2.755   1.562   0.798
 4382WAT     H213666   2.887   1.524   0.862
 4383WAT      O13667   3.287   1.266   0.956
 4383WAT     H113668   3.347   1.323   1.003
 4383WAT     H213669   3.213   1.322   0.933
 4384WAT      O13670   3.601   1.306   0.483
 4384WAT     H113671   3.620   1.396   0.510
 4384WAT     H213672   3.522   1.283   0.532
 4385WAT      O13673   2.281   2.874   0.527
 4385WAT     H113674   2.228   2.913   0.457
 4385WAT     H213675   2.273   2.937   0.599
 4386WAT      O13676   2.420   1.441   0.387
 4386WAT     H113677   2.472   1.362   0.374
 4386WAT     H213678   2.483   1.509   0.410
 4387WAT      O13679   2.639   1.415   0.692
 4387WAT     H113680   2.576   1.345   0.709
 4387WAT     H213681   2.585   1.491   0.671
 4388WAT      O13682   3.756   3.030   0.659
 4388WAT     H113683   3.774   2.962   0.595
 4388WAT     H213684   3.686   3.083   0.620
 4389WAT      O13685   2.651   1.343   1.936
 4389WAT     H113686   2.623   1.393   1.859
 4389WAT     H213687   2.690   1.263   1.899
 4390WAT      O13688   2.541   3.069   0.414
 4390WAT     H113689   2.614   3.041   0.360
 4390WAT     H213690   2.566   3.045   0.503
 4391WAT      O13691   2.457   2.681   0.415
 4391WAT     H113692   2.394   2.728   0.470
 4391WAT     H213693   2.468   2.596   0.458
 4392WAT      O13694   3.312   1.284   1.994
 4392WAT     H113695   3.300   1.316   2.083
 4392WAT     H213696   3.393   1.324   1.964
 4393WAT      O13697   3.590   2.999   1.942
 4393WAT     H113698   3.669   2.949   1.921
 4393WAT     H213699   3.619   3.067   2.003
 4394WAT      O13700   3.015   0.386   4.850
 4394WAT     H113701   2.938   0.338   4.879
 4394WAT     H213702   3.080   0.318   4.833
 4395WAT      O13703   2.417   0.418   4.938
 4395WAT     H113704   2.334   0.392   4.978
 4395WAT     H213705   2.478   0.425   5.012
 4396WAT      O13706   3.417   0.827   4.728
 4396WAT     H113707   3.371   0.750   4.761
 4396WAT     H213708   3.499   0.830   4.779
 4397WAT      O13709   2.415   0.821   4.958
 4397WAT     H113710   2.445   0.732   4.940
 4397WAT     H213711   2.489   0.877   4.935
 4398WAT      O13712   3.040   1.056   4.690
 4398WAT     H113713   2.978   1.101   4.633
 4398WAT     H213714   3.126   1.071   4.650
 4399WAT      O13715   2.959   0.654   4.851
 4399WAT     H113716   2.953   0.560   4.835
 4399WAT     H213717   3.036   0.663   4.908
 4400WAT      O13718   3.127   0.544   4.430
 4400WAT     H113719   3.065   0.590   4.373
 4400WAT     H213720   3.178   0.613   4.471
 4401WAT      O13721   2.613   0.497   5.097
 4401WAT     H113722   2.580   0.559   5.162
 4401WAT     H213723   2.631   0.549   5.020
 4402WAT      O13724   2.534   0.693   5.279
 4402WAT     H113725   2.596   0.761   5.251
 4402WAT     H213726   2.448   0.734   5.270
 4403WAT      O13727   2.064   0.612   4.167
 4403WAT     H113728   2.026   0.661   4.094
 4403WAT     H213729   2.089   0.680   4.230
 4404WAT      O13730   3.626   0.840   5.071
 4404WAT     H113731   3.558   0.907   5.070
 4404WAT     H213732   3.680   0.860   4.994
 4405WAT      O13733   3.380   1.024   4.942
 4405WAT     H113734   3.381   0.984   4.855
 4405WAT     H213735   3.324   1.102   4.932
 4406WAT      O13736   3.509   0.696   4.451
 4406WAT     H113737   3.498   0.602   4.463
 4406WAT     H213738   3.509   0.733   4.540
 4407WAT      O13739   3.319   0.515   5.075
 4407WAT     H113740   3.361   0.493   4.991
 4407WAT     H213741   3.392   0.540   5.132
 4408WAT      O13742   3.063   0.259   4.387
 4408WAT     H113743   2.971   0.252   4.409
 4408WAT     H213744   3.078   0.353   4.375
 4409WAT      O13745   3.714   0.354   5.084
 4409WAT     H113746   3.631   0.361   5.036
 4409WAT     H213747   3.774   0.413   5.037
 4410WAT      O13748   3.466   0.415   4.437
 4410WAT     H113749   3.404   0.382   4.372
 4410WAT     H213750   3.464   0.351   4.508
 4411WAT      O13751   2.624   0.312   4.665
 4411WAT     H113752   2.583   0.241   4.615
 4411WAT     H213753   2.632   0.277   4.754
 4412WAT      O13754   2.671   0.680   4.881
 4412WAT     H113755   2.641   0.620   4.813
 4412WAT     H213756   2.766   0.684   4.870
 4413WAT      O13757   3.479   1.038   5.247
 4413WAT     H113758   3.432   1.118   5.228
 4413WAT     H213759   3.411   0.973   5.263
 4414WAT      O13760   2.580   0.654   5.546
 4414WAT     H113761   2.490   0.677   5.571
 4414WAT     H213762   2.582   0.667   5.451
 4415WAT      O13763   3.284   0.339   4.138
 4415WAT     H113764   3.328   0.255   4.123
 4415WAT     H213765   3.355   0.402   4.146
 4416WAT      O13766   2.463   0.341   5.404
 4416WAT     H113767   2.449   0.429   5.441
 4416WAT     H213768   2.374   0.307   5.389
 4417WAT      O13769   3.095   0.833   4.534
 4417WAT     H113770   3.139   0.907   4.493
 4417WAT     H213771   3.089   0.857   4.627
 4418WAT      O13772   2.642   0.936   5.625
 4418WAT     H113773   2.639   0.976   5.538
 4418WAT     H213774   2.626   0.843   5.608
 4419WAT      O13775   2.058   0.518   4.995
 4419WAT     H113776   2.065   0.532   4.901
 4419WAT     H213777   2.119   0.448   5.015
 4420WAT      O13778   2.182   0.688   4.637
 4420WAT     H113779   2.141   0.703   4.551
 4420WAT     H213780   2.271   0.660   4.616
 4421WAT      O13781   3.778   0.733   5.470
 4421WAT     H113782   3.790   0.709   5.378
 4421WAT     H213783   3.782   0.650   5.517
 4422WAT      O13784   3.164   1.103   5.327
 4422WAT     H113785   3.215   1.094   5.407
 4422WAT     H213786   3.080   1.138   5.356
 4423WAT      O13787   3.362   1.132   4.270
 4423WAT     H113788   3.346   1.103   4.360
 4423WAT     H213789   3.345   1.054   4.216
 4424WAT      O13790   2.609   1.110   4.448
 4424WAT     H113791   2.592   1.018   4.426
 4424WAT     H213792   2.524   1.146   4.472
 4425WAT      O13793   3.332   0.883   4.126
 4425WAT     H113794   3.262   0.882   4.060
 4425WAT     H213795   3.406   0.840   4.083
 4426WAT      O13796   3.288   1.045   4.533
 4426WAT     H113797   3.334   0.967   4.565
 4426WAT     H213798   3.322   1.116   4.588
 4427WAT      O13799   2.063   0.623   5.249
 4427WAT     H113800   2.080   0.576   5.168
 4427WAT     H213801   2.110   0.572   5.316
 4428WAT      O13802   2.221   0.560   5.465
 4428WAT     H113803   2.182   0.496   5.525
 4428WAT     H213804   2.252   0.630   5.522
 4429WAT      O13805   2.836   0.245   5.013
 4429WAT     H113806   2.872   0.197   5.088
 4429WAT     H213807   2.817   0.332   5.048
 4430WAT      O13808   2.467   0.569   4.305
 4430WAT     H113809   2.390   0.515   4.289
 4430WAT     H213810   2.540   0.518   4.271
 4431WAT      O13811   3.543   0.469   4.884
 4431WAT     H113812   3.615   0.519   4.845
 4431WAT     H213813   3.523   0.401   4.820
 4432WAT      O13814   3.082   0.476   5.473
 4432WAT     H113815   3.075   0.384   5.447
 4432WAT     H213816   3.019   0.486   5.544
 4433WAT      O13817   2.472   0.536   4.669
 4433WAT     H113818   2.524   0.456   4.663
 4433WAT     H213819   2.427   0.530   4.753
 4434WAT      O13820   2.961   0.663   4.196
 4434WAT     H113821   2.995   0.737   4.146
 4434WAT     H213822   2.878   0.694   4.232
 4435WAT      O13823   2.540   0.279   5.648
 4435WAT     H113824   2.510   0.293   5.559
 4435WAT     H213825   2.618   0.223   5.639
 4436WAT      O13826   3.075   0.758   5.448
 4436WAT     H113827   3.076   0.665   5.426
 4436WAT     H213828   3.004   0.767   5.512
 4437WAT      O13829   3.588   0.177   4.075
 4437WAT     H113830   3.580   0.220   3.990
 4437WAT     H213831   3.660   0.223   4.118
 4438WAT      O13832   3.696   0.423   5.383
 4438WAT     H113833   3.623   0.482   5.363
 4438WAT     H213834   3.749   0.422   5.303
 4439WAT      O13835   3.691   0.862   4.348
 4439WAT     H113836   3.627   0.797   4.375
 4439WAT     H213837   3.652   0.903   4.270
 4440WAT      O13838   3.249   0.595   4.732
 4440WAT     H113839   3.284   0.535   4.666
 4440WAT     H213840   3.160   0.563   4.750
 4441WAT      O13841   2.857   0.671   4.473
 4441WAT     H113842   2.926   0.726   4.511
 4441WAT     H213843   2.779   0.725   4.477
 4442WAT      O13844   2.071   0.233   4.022
 4442WAT     H113845   2.158   0.261   4.051
 4442WAT     H213846   2.022   0.314   4.011
 4443WAT      O13847   2.788   0.372   4.434
 4443WAT     H113848   2.833   0.453   4.457
 4443WAT     H213849   2.753   0.340   4.518
 4444WAT      O13850   3.018   0.923   5.157
 4444WAT     H113851   3.082   0.943   5.225
 4444WAT     H213852   3.054   0.846   5.112
 4445WAT      O13853   3.145   0.723   5.029
 4445WAT     H113854   3.210   0.653   5.040
 4445WAT     H213855   3.198   0.801   5.011
 4446WAT      O13856   3.530   0.751   4.002
 4446WAT     H113857   3.507   0.680   4.061
 4446WAT     H213858   3.491   0.727   3.918
 4447WAT      O13859   3.323   0.803   5.349
 4447WAT     H113860   3.356   0.862   5.417
 4447WAT     H213861   3.231   0.790   5.372
 4448WAT      O13862   2.108   1.154   4.079
 4448WAT     H113863   2.144   1.214   4.014
 4448WAT     H213864   2.094   1.209   4.156
 4449WAT      O13865   3.488   0.543   4.168
 4449WAT     H113866   3.459   0.589   4.246
 4449WAT     H213867   3.568   0.497   4.195
 4450WAT      O13868   2.106   0.981   5.526
 4450WAT     H113869   2.117   0.887   5.512
 4450WAT     H213870   2.041   1.007   5.462
 4451WAT      O13871   2.906   0.808   5.666
 4451WAT     H113872   2.874   0.736   5.721
 4451WAT     H213873   2.838   0.875   5.674
 4452WAT      O13874   2.710   0.892   4.161
 4452WAT     H113875   2.709   0.966   4.099
 4452WAT     H213876   2.618   0.868   4.170
 4453WAT      O13877   2.270   0.415   4.235
 4453WAT     H113878   2.209   0.489   4.236
 4453WAT     H213879   2.317   0.424   4.153
 4454WAT      O13880   3.008   0.899   4.027
 4454WAT     H113881   3.018   0.878   3.934
 4454WAT     H213882   2.918   0.873   4.047
 4455WAT      O13883   2.873   1.151   4.496
 4455WAT     H113884   2.898   1.147   4.404
 4455WAT     H213885   2.778   1.138   4.496
 4456WAT      O13886   2.471   0.411   4.010
 4456WAT     H113887   2.548   0.399   4.066
 4456WAT     H213888   2.479   0.341   3.945
 4457WAT      O13889   3.673   0.960   4.822
 4457WAT     H113890   3.686   1.042   4.869
 4457WAT     H213891   3.760   0.938   4.787
 4458WAT      O13892   2.420   1.169   4.789
 4458WAT     H113893   2.494   1.114   4.816
 4458WAT     H213894   2.459   1.255   4.775
 4459WAT      O13895   2.109   0.776   4.376
 4459WAT     H113896   2.016   0.800   4.375
 4459WAT     H213897   2.156   0.858   4.364
 4460WAT      O13898   2.732   1.086   3.971
 4460WAT     H113899   2.811   1.115   3.926
 4460WAT     H213900   2.680   1.043   3.903
 4461WAT      O13901   3.348   1.071   5.563
 4461WAT     H113902   3.443   1.063   5.558
 4461WAT     H213903   3.333   1.137   5.631
 4462WAT      O13904   3.637   1.009   4.113
 4462WAT     H113905   3.608   0.968   4.032
 4462WAT     H213906   3.617   1.102   4.101
 4463WAT      O13907   2.093   0.336   5.602
 4463WAT     H113908   2.143   0.278   5.659
 4463WAT     H213909   2.019   0.364   5.656
 4464WAT      O13910   2.783   0.608   3.957
 4464WAT     H113911   2.773   0.547   4.030
 4464WAT     H213912   2.767   0.556   3.879
 4465WAT      O13913   2.798   0.477   5.555
 4465WAT     H113914   2.722   0.534   5.547
 4465WAT     H213915   2.817   0.448   5.466
 4466WAT      O13916   3.107   0.514   4.018
 4466WAT     H113917   3.052   0.559   4.082
 4466WAT     H213918   3.170   0.464   4.070
 4467WAT      O13919   3.513   0.650   5.611
 4467WAT     H113920   3.587   0.684   5.561
 4467WAT     H213921   3.436   0.667   5.556
 4468WAT      O13922   2.674   0.410   4.207
 4468WAT     H113923   2.716   0.394   4.292
 4468WAT     H213924   2.687   0.329   4.158
 4469WAT      O13925   2.925   0.313   3.932
 4469WAT     H113926   2.977   0.241   3.896
 4469WAT     H213927   2.990   0.377   3.962
 4470WAT      O13928   3.380   0.455   5.465
 4470WAT     H113929   3.422   0.470   5.550
 4470WAT     H213930   3.287   0.468   5.481
 4471WAT      O13931   2.856   0.450   5.262
 4471WAT     H113932   2.898   0.535   5.244
 4471WAT     H213933   2.764   0.464   5.239
 4472WAT      O13934   3.324   0.279   5.258
 4472WAT     H113935   3.271   0.331   5.197
 4472WAT     H213936   3.358   0.342   5.321
 4473WAT      O13937   2.641   1.081   5.373
 4473WAT     H113938   2.588   1.153   5.341
 4473WAT     H213939   2.667   1.033   5.294
 4474WAT      O13940   2.927   1.204   5.399
 4474WAT     H113941   2.920   1.295   5.430
 4474WAT     H213942   2.837   1.172   5.396
 4475WAT      O13943   2.982   1.121   4.161
 4475WAT     H113944   3.071   1.155   4.163
 4475WAT     H213945   2.985   1.049   4.099
 4476WAT      O13946   2.346   0.658   3.984
 4476WAT     H113947   2.390   0.712   4.050
 4476WAT     H213948   2.394   0.576   3.985
 4477WAT      O13949   2.067   0.937   4.729
 4477WAT     H113950   2.100   0.850   4.706
 4477WAT     H213951   2.110   0.958   4.812
 4478WAT      O13952   2.527   0.770   4.495
 4478WAT     H113953   2.497   0.758   4.585
 4478WAT     H213954   2.516   0.684   4.455
 4479WAT      O13955   2.116   1.024   5.003
 4479WAT     H113956   2.072   1.042   5.086
 4479WAT     H213957   2.173   1.099   4.989
 4480WAT      O13958   3.680   0.974   5.432
 4480WAT     H113959   3.620   0.980   5.358
 4480WAT     H213960   3.693   0.880   5.445
 4481WAT      O13961   3.804   0.748   3.966
 4481WAT     H113962   3.721   0.755   4.013
 4481WAT     H213963   3.822   0.837   3.935
 4482WAT      O13964   3.749   0.422   4.216
 4482WAT     H113965   3.826   0.479   4.227
 4482WAT     H213966   3.751   0.366   4.293
 4483WAT      O13967   2.099   0.275   4.639
 4483WAT     H113968   2.034   0.248   4.575
 4483WAT     H213969   2.183   0.264   4.594
 4484WAT      O13970   3.850   0.508   4.700
 4484WAT     H113971   3.887   0.430   4.660
 4484WAT     H213972   3.914   0.577   4.683
 4485WAT      O13973   3.548   0.646   5.242
 4485WAT     H113974   3.467   0.689   5.268
 4485WAT     H213975   3.589   0.708   5.180
 4486WAT      O13976   3.755   0.452   3.932
 4486WAT     H113977   3.782   0.543   3.919
 4486WAT     H213978   3.736   0.445   4.025
 4487WAT      O13979   3.744   0.246   4.431
 4487WAT     H113980   3.707   0.169   4.388
 4487WAT     H213981   3.671   0.284   4.480
 4488WAT      O13982   2.203   0.313   5.093
 4488WAT     H113983   2.240   0.305   5.181
 4488WAT     H213984   2.146   0.237   5.083
 4489WAT      O13985   3.554   1.122   4.594
 4489WAT     H113986   3.614   1.089   4.527
 4489WAT     H213987   3.580   1.074   4.674
 4490WAT      O13988   2.345   0.765   5.609
 4490WAT     H113989   2.340   0.728   5.697
 4490WAT     H213990   2.358   0.858   5.623
 4491WAT      O13991   2.715   0.920   5.169
 4491WAT     H113992   2.691   0.947   5.081
 4491WAT     H213993   2.809   0.937   5.175
 4492WAT      O13994   3.841   1.122   5.249
 4492WAT     H113995   3.791   1.162   5.178
 4492WAT     H213996   3.780   1.060   5.289
 4493WAT      O13997   2.329   1.059   5.321
 4493WAT     H113998   2.269   1.046   5.395
 4493WAT     H213999   2.328   0.976   5.275
 4494WAT      O14000   3.609   1.186   4.977
 4494WAT     H114001   3.563   1.262   4.940
 4494WAT     H214002   3.546   1.115   4.972
 4495WAT      O14003   2.292   0.796   5.216
 4495WAT     H114004   2.219   0.734   5.210
 4495WAT     H214005   2.298   0.835   5.129
 4496WAT      O14006   2.652   1.017   4.895
 4496WAT     H114007   2.704   0.956   4.842
 4496WAT     H214008   2.717   1.068   4.944
 4497WAT      O14009   2.926   1.106   4.978
 4497WAT     H114010   2.955   1.081   4.890
 4497WAT     H214011   2.977   1.051   5.037
 4498WAT      O14012   2.120   1.128   4.537
 4498WAT     H114013   2.103   1.064   4.607
 4498WAT     H214014   2.033   1.148   4.502
 4499WAT      O14015   2.281   0.997   4.282
 4499WAT     H114016   2.228   1.035   4.211
 4499WAT     H214017   2.273   1.060   4.354
 4500WAT      O14018   2.933   1.199   5.714
 4500WAT     H114019   3.025   1.175   5.719
 4500WAT     H214020   2.931   1.281   5.666
 4501WAT      O14021   3.756   1.153   4.414
 4501WAT     H114022   3.774   1.084   4.350
 4501WAT     H214023   3.686   1.205   4.375
 4502WAT      O14024   2.541   1.192   4.169
 4502WAT     H114025   2.614   1.163   4.115
 4502WAT     H214026   2.566   1.168   4.258
 4503WAT      O14027   2.457   0.803   4.170
 4503WAT     H114028   2.394   0.850   4.225
 4503WAT     H214029   2.468   0.719   4.213
 4504WAT      O14030   3.015   0.386   2.973
 4504WAT     H114031   2.938   0.338   3.002
 4504WAT     H214032   3.080   0.318   2.955
 4505WAT      O14033   2.417   0.418   3.061
 4505WAT     H114034   2.334   0.392   3.101
 4505WAT     H214035   2.478   0.425   3.134
 4506WAT      O14036   3.417   0.827   2.851
 4506WAT     H114037   3.371   0.750   2.884
 4506WAT     H214038   3.499   0.830   2.901
 4507WAT      O14039   2.415   0.821   3.080
 4507WAT     H114040   2.445   0.732   3.062
 4507WAT     H214041   2.489   0.877   3.057
 4508WAT      O14042   3.040   1.056   2.813
 4508WAT     H114043   2.978   1.101   2.756
 4508WAT     H214044   3.126   1.071   2.773
 4509WAT      O14045   2.959   0.654   2.974
 4509WAT     H114046   2.953   0.560   2.957
 4509WAT     H214047   3.036   0.663   3.031
 4510WAT      O14048   3.127   0.544   2.552
 4510WAT     H114049   3.065   0.590   2.496
 4510WAT     H214050   3.178   0.613   2.594
 4511WAT      O14051   2.613   0.497   3.220
 4511WAT     H114052   2.580   0.559   3.284
 4511WAT     H214053   2.631   0.549   3.142
 4512WAT      O14054   2.534   0.693   3.402
 4512WAT     H114055   2.596   0.761   3.373
 4512WAT     H214056   2.448   0.734   3.392
 4513WAT      O14057   2.064   0.612   2.290
 4513WAT     H114058   2.026   0.661   2.216
 4513WAT     H214059   2.089   0.680   2.353
 4514WAT      O14060   3.626   0.840   3.193
 4514WAT     H114061   3.558   0.907   3.192
 4514WAT     H214062   3.680   0.860   3.117
 4515WAT      O14063   3.380   1.024   3.065
 4515WAT     H114064   3.381   0.984   2.978
 4515WAT     H214065   3.324   1.102   3.054
 4516WAT      O14066   3.509   0.696   2.573
 4516WAT     H114067   3.498   0.602   2.586
 4516WAT     H214068   3.509   0.733   2.662
 4517WAT      O14069   3.319   0.515   3.197
 4517WAT     H114070   3.361   0.493   3.114
 4517WAT     H214071   3.392   0.540   3.254
 4518WAT      O14072   3.063   0.259   2.509
 4518WAT     H114073   2.971   0.252   2.532
 4518WAT     H214074   3.078   0.353   2.498
 4519WAT      O14075   3.714   0.354   3.207
 4519WAT     H114076   3.631   0.361   3.159
 4519WAT     H214077   3.774   0.413   3.160
 4520WAT      O14078   3.466   0.415   2.559
 4520WAT     H114079   3.404   0.382   2.495
 4520WAT     H214080   3.464   0.351   2.630
 4521WAT      O14081   2.624   0.312   2.787
 4521WAT     H114082   2.583   0.241   2.738
 4521WAT     H214083   2.632   0.277   2.876
 4522WAT      O14084   2.671   0.680   3.004
 4522WAT     H114085   2.641   0.620   2.936
 4522WAT     H214086   2.766   0.684   2.993
 4523WAT      O14087   3.479   1.038   3.370
 4523WAT     H114088   3.432   1.118   3.351
 4523WAT     H214089   3.411   0.973   3.385
 4524WAT      O14090   2.580   0.654   3.669
 4524WAT     H114091   2.490   0.677   3.693
 4524WAT     H214092   2.582   0.667   3.574
 4525WAT      O14093   3.284   0.339   2.260
 4525WAT     H114094   3.328   0.255   2.246
 4525WAT     H214095   3.355   0.402   2.269
 4526WAT      O14096   2.463   0.341   3.526
 4526WAT     H114097   2.449   0.429   3.563
 4526WAT     H214098   2.374   0.307   3.512
 4527WAT      O14099   3.095   0.833   2.657
 4527WAT     H114100   3.139   0.907   2.616
 4527WAT     H214101   3.089   0.857   2.749
 4528WAT      O14102   2.642   0.936   3.747
 4528WAT     H114103   2.639   0.976   3.660
 4528WAT     H214104   2.626   0.843   3.731
 4529WAT      O14105   3.837   1.014   3.877
 4529WAT     H114106   3.885   1.062   3.945
 4529WAT     H214107   3.900   1.007   3.804
 4530WAT      O14108   2.058   0.518   3.118
 4530WAT     H114109   2.065   0.532   3.024
 4530WAT     H214110   2.119   0.448   3.137
 4531WAT      O14111   2.182   0.688   2.759
 4531WAT     H114112   2.141   0.703   2.674
 4531WAT     H214113   2.271   0.660   2.739
 4532WAT      O14114   3.778   0.733   3.593
 4532WAT     H114115   3.790   0.709   3.501
 4532WAT     H214116   3.782   0.650   3.640
 4533WAT      O14117   3.164   1.103   3.450
 4533WAT     H114118   3.215   1.094   3.530
 4533WAT     H214119   3.080   1.138   3.479
 4534WAT      O14120   3.362   1.132   2.393
 4534WAT     H114121   3.346   1.103   2.482
 4534WAT     H214122   3.345   1.054   2.339
 4535WAT      O14123   2.609   1.110   2.570
 4535WAT     H114124   2.592   1.018   2.549
 4535WAT     H214125   2.524   1.146   2.594
 4536WAT      O14126   3.332   0.883   2.249
 4536WAT     H114127   3.262   0.882   2.183
 4536WAT     H214128   3.406   0.840   2.206
 4537WAT      O14129   3.288   1.045   2.656
 4537WAT     H114130   3.334   0.967   2.687
 4537WAT     H214131   3.322   1.116   2.710
 4538WAT      O14132   2.063   0.623   3.372
 4538WAT     H114133   2.080   0.576   3.290
 4538WAT     H214134   2.110   0.572   3.438
 4539WAT      O14135   2.221   0.560   3.588
 4539WAT     H114136   2.182   0.496   3.648
 4539WAT     H214137   2.252   0.630   3.645
 4540WAT      O14138   2.836   0.245   3.136
 4540WAT     H114139   2.872   0.197   3.211
 4540WAT     H214140   2.817   0.332   3.170
 4541WAT      O14141   2.467   0.569   2.428
 4541WAT     H114142   2.390   0.515   2.412
 4541WAT     H214143   2.540   0.518   2.394
 4542WAT      O14144   3.543   0.469   3.007
 4542WAT     H114145   3.615   0.519   2.968
 4542WAT     H214146   3.523   0.401   2.942
 4543WAT      O14147   3.082   0.476   3.595
 4543WAT     H114148   3.075   0.384   3.570
 4543WAT     H214149   3.019   0.486   3.667
 4544WAT      O14150   2.472   0.536   2.791
 4544WAT     H114151   2.524   0.456   2.786
 4544WAT     H214152   2.427   0.530   2.875
 4545WAT      O14153   2.961   0.663   2.319
 4545WAT     H114154   2.995   0.737   2.269
 4545WAT     H214155   2.878   0.694   2.355
 4546WAT      O14156   2.540   0.279   3.771
 4546WAT     H114157   2.510   0.293   3.681
 4546WAT     H214158   2.618   0.223   3.762
 4547WAT      O14159   3.075   0.758   3.571
 4547WAT     H114160   3.076   0.665   3.549
 4547WAT     H214161   3.004   0.767   3.634
 4548WAT      O14162   3.588   0.177   2.198
 4548WAT     H114163   3.580   0.220   2.112
 4548WAT     H214164   3.660   0.223   2.241
 4549WAT      O14165   3.696   0.423   3.505
 4549WAT     H114166   3.623   0.482   3.485
 4549WAT     H214167   3.749   0.422   3.425
 4550WAT      O14168   3.691   0.862   2.470
 4550WAT     H114169   3.627   0.797   2.498
 4550WAT     H214170   3.652   0.903   2.393
 4551WAT      O14171   3.249   0.595   2.855
 4551WAT     H114172   3.284   0.535   2.789
 4551WAT     H214173   3.160   0.563   2.872
 4552WAT      O14174   2.857   0.671   2.596
 4552WAT     H114175   2.926   0.726   2.634
 4552WAT     H214176   2.779   0.725   2.599
 4553WAT      O14177   2.071   0.233   2.145
 4553WAT     H114178   2.158   0.261   2.173
 4553WAT     H214179   2.022   0.314   2.133
 4554WAT      O14180   2.788   0.372   2.557
 4554WAT     H114181   2.833   0.453   2.580
 4554WAT     H214182   2.753   0.340   2.640
 4555WAT      O14183   3.018   0.923   3.280
 4555WAT     H114184   3.082   0.943   3.348
 4555WAT     H214185   3.054   0.846   3.235
 4556WAT      O14186   3.145   0.723   3.152
 4556WAT     H114187   3.210   0.653   3.163
 4556WAT     H214188   3.198   0.801   3.134
 4557WAT      O14189   3.530   0.751   2.124
 4557WAT     H114190   3.507   0.680   2.183
 4557WAT     H214191   3.491   0.727   2.040
 4558WAT      O14192   3.323   0.803   3.472
 4558WAT     H114193   3.356   0.862   3.540
 4558WAT     H214194   3.231   0.790   3.495
 4559WAT      O14195   2.108   1.154   2.202
 4559WAT     H114196   2.144   1.214   2.136
 4559WAT     H214197   2.094   1.209   2.279
 4560WAT      O14198   3.488   0.543   2.290
 4560WAT     H114199   3.459   0.589   2.369
 4560WAT     H214200   3.568   0.497   2.317
 4561WAT      O14201   2.106   0.981   3.649
 4561WAT     H114202   2.117   0.887   3.635
 4561WAT     H214203   2.041   1.007   3.584
 4562WAT      O14204   2.906   0.808   3.789
 4562WAT     H114205   2.874   0.736   3.843
 4562WAT     H214206   2.838   0.875   3.796
 4563WAT      O14207   2.710   0.892   2.283
 4563WAT     H114208   2.709   0.966   2.222
 4563WAT     H214209   2.618   0.868   2.293
 4564WAT      O14210   2.270   0.415   2.358
 4564WAT     H114211   2.209   0.489   2.359
 4564WAT     H214212   2.317   0.424   2.275
 4565WAT      O14213   3.008   0.899   2.150
 4565WAT     H114214   3.018   0.878   2.057
 4565WAT     H214215   2.918   0.873   2.170
 4566WAT      O14216   2.873   1.151   2.619
 4566WAT     H114217   2.898   1.147   2.527
 4566WAT     H214218   2.778   1.138   2.618
 4567WAT      O14219   2.471   0.411   2.133
 4567WAT     H114220   2.548   0.399   2.189
 4567WAT     H214221   2.479   0.341   2.067
 4568WAT      O14222   3.673   0.960   2.944
 4568WAT     H114223   3.686   1.042   2.991
 4568WAT     H214224   3.760   0.938   2.909
 4569WAT      O14225   2.420   1.169   2.911
 4569WAT     H114226   2.494   1.114   2.938
 4569WAT     H214227   2.459   1.255   2.897
 4570WAT      O14228   2.109   0.776   2.499
 4570WAT     H114229   2.016   0.800   2.498
 4570WAT     H214230   2.156   0.858   2.487
 4571WAT      O14231   2.321   1.087   3.830
 4571WAT     H114232   2.401   1.119   3.872
 4571WAT     H214233   2.270   1.051   3.902
 4572WAT      O14234   2.732   1.086   2.094
 4572WAT     H114235   2.811   1.115   2.048
 4572WAT     H214236   2.680   1.043   2.026
 4573WAT      O14237   3.205   0.698   3.825
 4573WAT     H114238   3.144   0.700   3.751
 4573WAT     H214239   3.174   0.625   3.879
 4574WAT      O14240   3.348   1.071   3.686
 4574WAT     H114241   3.443   1.063   3.681
 4574WAT     H214242   3.333   1.137   3.753
 4575WAT      O14243   3.637   1.009   2.236
 4575WAT     H114244   3.608   0.968   2.154
 4575WAT     H214245   3.617   1.102   2.224
 4576WAT      O14246   2.093   0.336   3.725
 4576WAT     H114247   2.143   0.278   3.782
 4576WAT     H214248   2.019   0.364   3.778
 4577WAT      O14249   2.783   0.608   2.080
 4577WAT     H114250   2.773   0.547   2.153
 4577WAT     H214251   2.767   0.556   2.002
 4578WAT      O14252   2.798   0.477   3.678
 4578WAT     H114253   2.722   0.534   3.669
 4578WAT     H214254   2.817   0.448   3.589
 4579WAT      O14255   3.107   0.514   2.140
 4579WAT     H114256   3.052   0.559   2.205
 4579WAT     H214257   3.170   0.464   2.193
 4580WAT      O14258   3.513   0.650   3.734
 4580WAT     H114259   3.587   0.684   3.683
 4580WAT     H214260   3.436   0.667   3.678
 4581WAT      O14261   2.674   0.410   2.330
 4581WAT     H114262   2.716   0.394   2.414
 4581WAT     H214263   2.687   0.329   2.281
 4582WAT      O14264   2.925   0.313   2.055
 4582WAT     H114265   2.977   0.241   2.018
 4582WAT     H214266   2.990   0.377   2.085
 4583WAT      O14267   3.380   0.455   3.587
 4583WAT     H114268   3.422   0.470   3.672
 4583WAT     H214269   3.287   0.468   3.603
 4584WAT      O14270   2.856   0.450   3.384
 4584WAT     H114271   2.898   0.535   3.367
 4584WAT     H214272   2.764   0.464   3.361
 4585WAT      O14273   3.324   0.279   3.380
 4585WAT     H114274   3.271   0.331   3.320
 4585WAT     H214275   3.358   0.342   3.443
 4586WAT      O14276   2.641   1.081   3.496
 4586WAT     H114277   2.588   1.153   3.464
 4586WAT     H214278   2.667   1.033   3.417
 4587WAT      O14279   2.927   1.204   3.522
 4587WAT     H114280   2.920   1.295   3.552
 4587WAT     H214281   2.837   1.172   3.519
 4588WAT      O14282   2.982   1.121   2.284
 4588WAT     H114283   3.071   1.155   2.286
 4588WAT     H214284   2.985   1.049   2.221
 4589WAT      O14285   2.346   0.658   2.107
 4589WAT     H114286   2.390   0.712   2.172
 4589WAT     H214287   2.394   0.576   2.108
 4590WAT      O14288   2.067   0.937   2.852
 4590WAT     H114289   2.100   0.850   2.829
 4590WAT     H214290   2.110   0.958   2.935
 4591WAT      O14291   2.527   0.770   2.618
 4591WAT     H114292   2.497   0.758   2.708
 4591WAT     H214293   2.516   0.684   2.577
 4592WAT      O14294   2.116   1.024   3.126
 4592WAT     H114295   2.072   1.042   3.209
 4592WAT     H214296   2.173   1.099   3.112
 4593WAT      O14297   3.680   0.974   3.555
 4593WAT     H114298   3.620   0.980   3.480
 4593WAT     H214299   3.693   0.880   3.567
 4594WAT      O14300   3.804   0.748   2.088
 4594WAT     H114301   3.721   0.755   2.135
 4594WAT     H214302   3.822   0.837   2.058
 4595WAT      O14303   3.749   0.422   2.339
 4595WAT     H114304   3.826   0.479   2.349
 4595WAT     H214305   3.751   0.366   2.416
 4596WAT      O14306   2.099   0.275   2.762
 4596WAT     H114307   2.034   0.248   2.697
 4596WAT     H214308   2.183   0.264   2.717
 4597WAT      O14309   3.850   0.508   2.823
 4597WAT     H114310   3.887   0.430   2.782
 4597WAT     H214311   3.914   0.577   2.805
 4598WAT      O14312   3.548   0.646   3.364
 4598WAT     H114313   3.467   0.689   3.391
 4598WAT     H214314   3.589   0.708   3.303
 4599WAT      O14315   3.755   0.452   2.054
 4599WAT     H114316   3.782   0.543   2.041
 4599WAT     H214317   3.736   0.445   2.148
 4600WAT      O14318   3.744   0.246   2.554
 4600WAT     H114319   3.707   0.169   2.510
 4600WAT     H214320   3.671   0.284   2.602
 4601WAT      O14321   2.203   0.313   3.216
 4601WAT     H114322   2.240   0.305   3.304
 4601WAT     H214323   2.146   0.237   3.206
 4602WAT      O14324   3.554   1.122   2.717
 4602WAT     H114325   3.614   1.089   2.649
 4602WAT     H214326   3.580   1.074   2.796
 4603WAT      O14327   2.345   0.765   3.732
 4603WAT     H114328   2.340   0.728   3.820
 4603WAT     H214329   2.358   0.858   3.746
 4604WAT      O14330   2.715   0.920   3.292
 4604WAT     H114331   2.691   0.947   3.203
 4604WAT     H214332   2.809   0.937   3.297
 4605WAT      O14333   3.841   1.122   3.372
 4605WAT     H114334   3.791   1.162   3.300
 4605WAT     H214335   3.780   1.060   3.411
 4606WAT      O14336   2.329   1.059   3.444
 4606WAT     H114337   2.269   1.046   3.518
 4606WAT     H214338   2.328   0.976   3.397
 4607WAT      O14339   3.609   1.186   3.100
 4607WAT     H114340   3.563   1.262   3.063
 4607WAT     H214341   3.546   1.115   3.094
 4608WAT      O14342   2.292   0.796   3.339
 4608WAT     H114343   2.219   0.734   3.332
 4608WAT     H214344   2.298   0.835   3.252
 4609WAT      O14345   2.652   1.017   3.017
 4609WAT     H114346   2.704   0.956   2.965
 4609WAT     H214347   2.717   1.068   3.067
 4610WAT      O14348   2.926   1.106   3.100
 4610WAT     H114349   2.955   1.081   3.012
 4610WAT     H214350   2.977   1.051   3.159
 4611WAT      O14351   2.120   1.128   2.660
 4611WAT     H114352   2.103   1.064   2.730
 4611WAT     H214353   2.033   1.148   2.625
 4612WAT      O14354   2.281   0.997   2.404
 4612WAT     H114355   2.228   1.035   2.334
 4612WAT     H214356   2.273   1.060   2.476
 4613WAT      O14357   2.933   1.199   3.837
 4613WAT     H114358   3.025   1.175   3.841
 4613WAT     H214359   2.931   1.281   3.789
 4614WAT      O14360   3.756   1.153   2.537
 4614WAT     H114361   3.774   1.084   2.472
 4614WAT     H214362   3.686   1.205   2.497
 4615WAT      O14363   2.541   1.192   2.292
 4615WAT     H114364   2.614   1.163   2.237
 4615WAT     H214365   2.566   1.168   2.381
 4616WAT      O14366   2.457   0.803   2.292
 4616WAT     H114367   2.394   0.850   2.347
 4616WAT     H214368   2.468   0.719   2.336
 4617WAT      O14369   3.590   1.121   3.819
 4617WAT     H114370   3.669   1.072   3.798
 4617WAT     H214371   3.619   1.189   3.880
 4618WAT      O14372   3.015   0.386   1.095
 4618WAT     H114373   2.938   0.338   1.124
 4618WAT     H214374   3.080   0.318   1.078
 4619WAT      O14375   2.417   0.418   1.183
 4619WAT     H114376   2.334   0.392   1.223
 4619WAT     H214377   2.478   0.425   1.257
 4620WAT      O14378   3.417   0.827   0.973
 4620WAT     H114379   3.371   0.750   1.006
 4620WAT     H214380   3.499   0.830   1.024
 4621WAT      O14381   2.415   0.821   1.203
 4621WAT     H114382   2.445   0.732   1.185
 4621WAT     H214383   2.489   0.877   1.180
 4622WAT      O14384   3.040   1.056   0.935
 4622WAT     H114385   2.978   1.101   0.878
 4622WAT     H214386   3.126   1.071   0.895
 4623WAT      O14387   2.959   0.654   1.096
 4623WAT     H114388   2.953   0.560   1.080
 4623WAT     H214389   3.036   0.663   1.153
 4624WAT      O14390   3.127   0.544   0.675
 4624WAT     H114391   3.065   0.590   0.618
 4624WAT     H214392   3.178   0.613   0.716
 4625WAT      O14393   2.613   0.497   1.343
 4625WAT     H114394   2.580   0.559   1.407
 4625WAT     H214395   2.631   0.549   1.265
 4626WAT      O14396   2.534   0.693   1.524
 4626WAT     H114397   2.596   0.761   1.496
 4626WAT     H214398   2.448   0.734   1.515
 4627WAT      O14399   2.064   0.612   0.412
 4627WAT     H114400   2.026   0.661   0.339
 4627WAT     H214401   2.089   0.680   0.475
 4628WAT      O14402   3.626   0.840   1.316
 4628WAT     H114403   3.558   0.907   1.315
 4628WAT     H214404   3.680   0.860   1.239
 4629WAT      O14405   3.380   1.024   1.187
 4629WAT     H114406   3.381   0.984   1.100
 4629WAT     H214407   3.324   1.102   1.177
 4630WAT      O14408   3.509   0.696   0.696
 4630WAT     H114409   3.498   0.602   0.709
 4630WAT     H214410   3.509   0.733   0.785
 4631WAT      O14411   3.319   0.515   1.320
 4631WAT     H114412   3.361   0.493   1.236
 4631WAT     H214413   3.392   0.540   1.377
 4632WAT      O14414   3.063   0.259   0.632
 4632WAT     H114415   2.971   0.252   0.655
 4632WAT     H214416   3.078   0.353   0.620
 4633WAT      O14417   3.714   0.354   1.329
 4633WAT     H114418   3.631   0.361   1.282
 4633WAT     H214419   3.774   0.413   1.282
 4634WAT      O14420   3.466   0.415   0.682
 4634WAT     H114421   3.404   0.382   0.617
 4634WAT     H214422   3.464   0.351   0.753
 4635WAT      O14423   2.624   0.312   0.910
 4635WAT     H114424   2.583   0.241   0.860
 4635WAT     H214425   2.632   0.277   0.999
 4636WAT      O14426   2.671   0.680   1.126
 4636WAT     H114427   2.641   0.620   1.058
 4636WAT     H214428   2.766   0.684   1.115
 4637WAT      O14429   3.479   1.038   1.492
 4637WAT     H114430   3.432   1.118   1.473
 4637WAT     H214431   3.411   0.973   1.508
 4638WAT      O14432   2.580   0.654   1.791
 4638WAT     H114433   2.490   0.677   1.816
 4638WAT     H214434   2.582   0.667   1.696
 4639WAT      O14435   3.284   0.339   0.383
 4639WAT     H114436   3.328   0.255   0.368
 4639WAT     H214437   3.355   0.402   0.391
 4640WAT      O14438   2.463   0.341   1.649
 4640WAT     H114439   2.449   0.429   1.686
 4640WAT     H214440   2.374   0.307   1.634
 4641WAT      O14441   3.095   0.833   0.780
 4641WAT     H114442   3.139   0.907   0.738
 4641WAT     H214443   3.089   0.857   0.872
 4642WAT      O14444   2.642   0.936   1.870
 4642WAT     H114445   2.639   0.976   1.783
 4642WAT     H214446   2.626   0.843   1.853
 4643WAT      O14447   3.837   1.014   1.999
 4643WAT     H114448   3.885   1.062   2.067
 4643WAT     H214449   3.900   1.007   1.927
 4644WAT      O14450   2.058   0.518   1.241
 4644WAT     H114451   2.065   0.532   1.146
 4644WAT     H214452   2.119   0.448   1.260
 4645WAT      O14453   2.182   0.688   0.882
 4645WAT     H114454   2.141   0.703   0.796
 4645WAT     H214455   2.271   0.660   0.861
 4646WAT      O14456   3.778   0.733   1.715
 4646WAT     H114457   3.790   0.709   1.624
 4646WAT     H214458   3.782   0.650   1.763
 4647WAT      O14459   3.164   1.103   1.572
 4647WAT     H114460   3.215   1.094   1.653
 4647WAT     H214461   3.080   1.138   1.602
 4648WAT      O14462   3.362   1.132   0.515
 4648WAT     H114463   3.346   1.103   0.605
 4648WAT     H214464   3.345   1.054   0.462
 4649WAT      O14465   2.609   1.110   0.693
 4649WAT     H114466   2.592   1.018   0.672
 4649WAT     H214467   2.524   1.146   0.717
 4650WAT      O14468   3.332   0.883   0.371
 4650WAT     H114469   3.262   0.882   0.305
 4650WAT     H214470   3.406   0.840   0.328
 4651WAT      O14471   3.288   1.045   0.779
 4651WAT     H114472   3.334   0.967   0.810
 4651WAT     H214473   3.322   1.116   0.833
 4652WAT      O14474   2.063   0.623   1.495
 4652WAT     H114475   2.080   0.576   1.413
 4652WAT     H214476   2.110   0.572   1.561
 4653WAT      O14477   2.221   0.560   1.710
 4653WAT     H114478   2.182   0.496   1.770
 4653WAT     H214479   2.252   0.630   1.767
 4654WAT      O14480   2.836   0.245   1.259
 4654WAT     H114481   2.872   0.197   1.333
 4654WAT     H214482   2.817   0.332   1.293
 4655WAT      O14483   2.467   0.569   0.550
 4655WAT     H114484   2.390   0.515   0.534
 4655WAT     H214485   2.540   0.518   0.516
 4656WAT      O14486   3.543   0.469   1.129
 4656WAT     H114487   3.615   0.519   1.090
 4656WAT     H214488   3.523   0.401   1.065
 4657WAT      O14489   3.082   0.476   1.718
 4657WAT     H114490   3.075   0.384   1.693
 4657WAT     H214491   3.019   0.486   1.789
 4658WAT      O14492   2.472   0.536   0.914
 4658WAT     H114493   2.524   0.456   0.908
 4658WAT     H214494   2.427   0.530   0.998
 4659WAT      O14495   2.961   0.663   0.441
 4659WAT     H114496   2.995   0.737   0.392
 4659WAT     H214497   2.878   0.694   0.477
 4660WAT      O14498   2.540   0.279   1.894
 4660WAT     H114499   2.510   0.293   1.804
 4660WAT     H214500   2.618   0.223   1.884
 4661WAT      O14501   3.075   0.758   1.693
 4661WAT     H114502   3.076   0.665   1.671
 4661WAT     H214503   3.004   0.767   1.757
 4662WAT      O14504   3.588   0.177   0.320
 4662WAT     H114505   3.580   0.220   0.235
 4662WAT     H214506   3.660   0.223   0.363
 4663WAT      O14507   3.696   0.423   1.628
 4663WAT     H114508   3.623   0.482   1.608
 4663WAT     H214509   3.749   0.422   1.548
 4664WAT      O14510   3.691   0.862   0.593
 4664WAT     H114511   3.627   0.797   0.620
 4664WAT     H214512   3.652   0.903   0.515
 4665WAT      O14513   3.249   0.595   0.978
 4665WAT     H114514   3.284   0.535   0.912
 4665WAT     H214515   3.160   0.563   0.995
 4666WAT      O14516   2.857   0.671   0.718
 4666WAT     H114517   2.926   0.726   0.756
 4666WAT     H214518   2.779   0.725   0.722
 4667WAT      O14519   2.071   0.233   0.267
 4667WAT     H114520   2.158   0.261   0.296
 4667WAT     H214521   2.022   0.314   0.256
 4668WAT      O14522   2.788   0.372   0.680
 4668WAT     H114523   2.833   0.453   0.702
 4668WAT     H214524   2.753   0.340   0.763
 4669WAT      O14525   3.018   0.923   1.402
 4669WAT     H114526   3.082   0.943   1.470
 4669WAT     H214527   3.054   0.846   1.357
 4670WAT      O14528   3.145   0.723   1.274
 4670WAT     H114529   3.210   0.653   1.286
 4670WAT     H214530   3.198   0.801   1.256
 4671WAT      O14531   3.530   0.751   0.247
 4671WAT     H114532   3.507   0.680   0.306
 4671WAT     H214533   3.491   0.727   0.163
 4672WAT      O14534   3.323   0.803   1.595
 4672WAT     H114535   3.356   0.862   1.662
 4672WAT     H214536   3.231   0.790   1.618
 4673WAT      O14537   2.108   1.154   0.324
 4673WAT     H114538   2.144   1.214   0.259
 4673WAT     H214539   2.094   1.209   0.401
 4674WAT      O14540   3.488   0.543   0.413
 4674WAT     H114541   3.459   0.589   0.492
 4674WAT     H214542   3.568   0.497   0.440
 4675WAT      O14543   2.106   0.981   1.772
 4675WAT     H114544   2.117   0.887   1.757
 4675WAT     H214545   2.041   1.007   1.707
 4676WAT      O14546   2.906   0.808   1.912
 4676WAT     H114547   2.874   0.736   1.966
 4676WAT     H214548   2.838   0.875   1.919
 4677WAT      O14549   2.710   0.892   0.406
 4677WAT     H114550   2.709   0.966   0.344
 4677WAT     H214551   2.618   0.868   0.415
 4678WAT      O14552   2.270   0.415   0.480
 4678WAT     H114553   2.209   0.489   0.481
 4678WAT     H214554   2.317   0.424   0.398
 4679WAT      O14555   3.008   0.899   0.272
 4679WAT     H114556   3.018   0.878   0.179
 4679WAT     H214557   2.918   0.873   0.293
 4680WAT      O14558   2.873   1.151   0.742
 4680WAT     H114559   2.898   1.147   0.649
 4680WAT     H214560   2.778   1.138   0.741
 4681WAT      O14561   2.471   0.411   0.255
 4681WAT     H114562   2.548   0.399   0.311
 4681WAT     H214563   2.479   0.341   0.190
 4682WAT      O14564   3.673   0.960   1.067
 4682WAT     H114565   3.686   1.042   1.114
 4682WAT     H214566   3.760   0.938   1.032
 4683WAT      O14567   2.420   1.169   1.034
 4683WAT     H114568   2.494   1.114   1.061
 4683WAT     H214569   2.459   1.255   1.020
 4684WAT      O14570   2.109   0.776   0.621
 4684WAT     H114571   2.016   0.800   0.620
 4684WAT     H214572   2.156   0.858   0.609
 4685WAT      O14573   2.321   1.087   1.953
 4685WAT     H114574   2.401   1.119   1.994
 4685WAT     H214575   2.270   1.051   2.025
 4686WAT      O14576   2.732   1.086   0.216
 4686WAT     H114577   2.811   1.115   0.171
 4686WAT     H214578   2.680   1.043   0.148
 4687WAT      O14579   3.205   0.698   1.947
 4687WAT     H114580   3.144   0.700   1.873
 4687WAT     H214581   3.174   0.625   2.001
 4688WAT      O14582   3.348   1.071   1.809
 4688WAT     H114583   3.443   1.063   1.804
 4688WAT     H214584   3.333   1.137   1.876
 4689WAT      O14585   3.637   1.009   0.358
 4689WAT     H114586   3.608   0.968   0.277
 4689WAT     H214587   3.617   1.102   0.346
 4690WAT      O14588   2.093   0.336   1.847
 4690WAT     H114589   2.143   0.278   1.904
 4690WAT     H214590   2.019   0.364   1.901
 4691WAT      O14591   2.798   0.477   1.800
 4691WAT     H114592   2.722   0.534   1.792
 4691WAT     H214593   2.817   0.448   1.711
 4692WAT      O14594   3.107   0.514   0.263
 4692WAT     H114595   3.052   0.559   0.327
 4692WAT     H214596   3.170   0.464   0.315
 4693WAT      O14597   3.513   0.650   1.856
 4693WAT     H114598   3.587   0.684   1.806
 4693WAT     H214599   3.436   0.667   1.801
 4694WAT      O14600   2.674   0.410   0.453
 4694WAT     H114601   2.716   0.394   0.537
 4694WAT     H214602   2.687   0.329   0.403
 4695WAT      O14603   3.380   0.455   1.710
 4695WAT     H114604   3.422   0.470   1.795
 4695WAT     H214605   3.287   0.468   1.726
 4696WAT      O14606   2.856   0.450   1.507
 4696WAT     H114607   2.898   0.535   1.489
 4696WAT     H214608   2.764   0.464   1.484
 4697WAT      O14609   3.324   0.279   1.503
 4697WAT     H114610   3.271   0.331   1.442
 4697WAT     H214611   3.358   0.342   1.566
 4698WAT      O14612   2.641   1.081   1.618
 4698WAT     H114613   2.588   1.153   1.586
 4698WAT     H214614   2.667   1.033   1.539
 4699WAT      O14615   2.927   1.204   1.644
 4699WAT     H114616   2.920   1.295   1.675
 4699WAT     H214617   2.837   1.172   1.641
 4700WAT      O14618   2.982   1.121   0.406
 4700WAT     H114619   3.071   1.155   0.409
 4700WAT     H214620   2.985   1.049   0.344
 4701WAT      O14621   2.346   0.658   0.229
 4701WAT     H114622   2.390   0.712   0.295
 4701WAT     H214623   2.394   0.576   0.230
 4702WAT      O14624   2.067   0.937   0.974
 4702WAT     H114625   2.100   0.850   0.951
 4702WAT     H214626   2.110   0.958   1.058
 4703WAT      O14627   2.527   0.770   0.740
 4703WAT     H114628   2.497   0.758   0.831
 4703WAT     H214629   2.516   0.684   0.700
 4704WAT      O14630   2.116   1.024   1.248
 4704WAT     H114631   2.072   1.042   1.332
 4704WAT     H214632   2.173   1.099   1.234
 4705WAT      O14633   3.680   0.974   1.677
 4705WAT     H114634   3.620   0.980   1.603
 4705WAT     H214635   3.693   0.880   1.690
 4706WAT      O14636   3.804   0.748   0.211
 4706WAT     H114637   3.721   0.755   0.258
 4706WAT     H214638   3.822   0.837   0.180
 4707WAT      O14639   3.749   0.422   0.461
 4707WAT     H114640   3.826   0.479   0.472
 4707WAT     H214641   3.751   0.366   0.538
 4708WAT      O14642   2.099   0.275   0.884
 4708WAT     H114643   2.034   0.248   0.820
 4708WAT     H214644   2.183   0.264   0.839
 4709WAT      O14645   3.850   0.508   0.946
 4709WAT     H114646   3.887   0.430   0.905
 4709WAT     H214647   3.914   0.577   0.928
 4710WAT      O14648   3.548   0.646   1.487
 4710WAT     H114649   3.467   0.689   1.513
 4710WAT     H214650   3.589   0.708   1.426
 4711WAT      O14651   3.755   0.452   0.177
 4711WAT     H114652   3.782   0.543   0.164
 4711WAT     H214653   3.736   0.445   0.270
 4712WAT      O14654   3.744   0.246   0.676
 4712WAT     H114655   3.707   0.169   0.633
 4712WAT     H214656   3.671   0.284   0.725
 4713WAT      O14657   2.203   0.313   1.338
 4713WAT     H114658   2.240   0.305   1.426
 4713WAT     H214659   2.146   0.237   1.328
 4714WAT      O14660   3.554   1.122   0.840
 4714WAT     H114661   3.614   1.089   0.772
 4714WAT     H214662   3.580   1.074   0.919
 4715WAT      O14663   2.345   0.765   1.854
 4715WAT     H114664   2.340   0.728   1.943
 4715WAT     H214665   2.358   0.858   1.868
 4716WAT      O14666   2.715   0.920   1.415
 4716WAT     H114667   2.691   0.947   1.326
 4716WAT     H214668   2.809   0.937   1.420
 4717WAT      O14669   3.841   1.122   1.495
 4717WAT     H114670   3.791   1.162   1.423
 4717WAT     H214671   3.780   1.060   1.534
 4718WAT      O14672   2.329   1.059   1.566
 4718WAT     H114673   2.269   1.046   1.640
 4718WAT     H214674   2.328   0.976   1.520
 4719WAT      O14675   3.609   1.186   1.222
 4719WAT     H114676   3.563   1.262   1.185
 4719WAT     H214677   3.546   1.115   1.217
 4720WAT      O14678   2.292   0.796   1.461
 4720WAT     H114679   2.219   0.734   1.455
 4720WAT     H214680   2.298   0.835   1.374
 4721WAT      O14681   2.652   1.017   1.140
 4721WAT     H114682   2.704   0.956   1.087
 4721WAT     H214683   2.717   1.068   1.189
 4722WAT      O14684   2.926   1.106   1.223
 4722WAT     H114685   2.955   1.081   1.135
 4722WAT     H214686   2.977   1.051   1.282
 4723WAT      O14687   2.120   1.128   0.782
 4723WAT     H114688   2.103   1.064   0.852
 4723WAT     H214689   2.033   1.148   0.747
 4724WAT      O14690   2.281   0.997   0.527
 4724WAT     H114691   2.228   1.035   0.457
 4724WAT     H214692   2.273   1.060   0.599
 4725WAT      O14693   2.933   1.199   1.959
 4725WAT     H114694   3.025   1.175   1.964
 4725WAT     H214695   2.931   1.281   1.911
 4726WAT      O14696   3.756   1.153   0.659
 4726WAT     H114697   3.774   1.084   0.595
 4726WAT     H214698   3.686   1.205   0.620
 4727WAT      O14699   2.541   1.192   0.414
 4727WAT     H114700   2.614   1.163   0.360
 4727WAT     H214701   2.566   1.168   0.503
 4728WAT      O14702   2.457   0.803   0.415
 4728WAT     H114703   2.394   0.850   0.470
 4728WAT     H214704   2.468   0.719   0.458
 4729WAT      O14705   3.590   1.121   1.942
 4729WAT     H114706   3.669   1.072   1.921
 4729WAT     H214707   3.619   1.189   2.003
 4730WAT      O14708   1.325   7.718   4.662
 4730WAT     H114709   1.317   7.627   4.635
 4730WAT     H214710   1.283   7.768   4.592
 4731WAT      O14711   1.138   7.896   4.850
 4731WAT     H114712   1.060   7.848   4.879
 4731WAT     H214713   1.203   7.828   4.833
 4732WAT      O14714   0.380   7.423   4.316
 4732WAT     H114715   0.292   7.457   4.306
 4732WAT     H214716   0.409   7.403   4.227
 4733WAT      O14717   0.177   7.683   4.905
 4733WAT     H114718   0.234   7.607   4.905
 4733WAT     H214719   0.177   7.713   4.814
 4734WAT      O14720   0.301   7.224   5.084
 4734WAT     H114721   0.283   7.134   5.112
 4734WAT     H214722   0.261   7.279   5.151
 4735WAT      O14723   1.185   7.444   4.874
 4735WAT     H114724   1.223   7.357   4.862
 4735WAT     H214725   1.175   7.478   4.785
 4736WAT      O14726   0.598   7.282   4.420
 4736WAT     H114727   0.609   7.372   4.451
 4736WAT     H214728   0.507   7.277   4.391
 4737WAT      O14729   1.563   7.194   4.567
 4737WAT     H114730   1.645   7.145   4.571
 4737WAT     H214731   1.567   7.253   4.642
 4738WAT      O14732   0.363   7.474   4.944
 4738WAT     H114733   0.431   7.500   5.006
 4738WAT     H214734   0.331   7.390   4.978
 4739WAT      O14735   0.782   7.578   4.853
 4739WAT     H114736   0.833   7.628   4.917
 4739WAT     H214737   0.835   7.501   4.836
 4740WAT      O14738   1.992   7.396   5.223
 4740WAT     H114739   1.922   7.434   5.172
 4740WAT     H214740   2.019   7.465   5.284
 4741WAT      O14741   0.611   7.042   5.280
 4741WAT     H114742   0.611   7.094   5.199
 4741WAT     H214743   0.528   6.995   5.277
 4742WAT      O14744   1.587   7.388   4.844
 4742WAT     H114745   1.516   7.417   4.902
 4742WAT     H214746   1.623   7.469   4.808
 4743WAT      O14747   0.579   7.214   5.080
 4743WAT     H114748   0.613   7.298   5.051
 4743WAT     H214749   0.485   7.228   5.092
 4744WAT      O14750   1.894   7.332   4.883
 4744WAT     H114751   1.799   7.336   4.897
 4744WAT     H214752   1.926   7.414   4.922
 4745WAT      O14753   0.947   6.962   4.713
 4745WAT     H114754   0.978   6.907   4.641
 4745WAT     H214755   0.854   6.976   4.695
 4746WAT      O14756   1.186   7.769   4.387
 4746WAT     H114757   1.093   7.762   4.409
 4746WAT     H214758   1.201   7.863   4.375
 4747WAT      O14759   1.184   7.396   4.086
 4747WAT     H114760   1.091   7.412   4.095
 4747WAT     H214761   1.216   7.468   4.032
 4748WAT      O14762   1.533   7.543   5.179
 4748WAT     H114763   1.492   7.625   5.204
 4748WAT     H214764   1.460   7.484   5.159
 4749WAT      O14765   0.746   7.822   4.665
 4749WAT     H114766   0.706   7.750   4.615
 4749WAT     H214767   0.755   7.787   4.754
 4750WAT      O14768   0.618   7.499   5.043
 4750WAT     H114769   0.673   7.510   4.965
 4750WAT     H214770   0.669   7.536   5.114
 4751WAT      O14771   1.406   7.849   4.138
 4751WAT     H114772   1.450   7.765   4.123
 4751WAT     H214773   1.478   7.912   4.146
 4752WAT      O14774   1.765   6.974   3.969
 4752WAT     H114775   1.733   6.984   4.059
 4752WAT     H214776   1.841   7.032   3.964
 4753WAT      O14777   0.416   7.711   4.415
 4753WAT     H114778   0.404   7.784   4.354
 4753WAT     H214779   0.385   7.634   4.367
 4754WAT      O14780   1.886   7.448   5.567
 4754WAT     H114781   1.824   7.499   5.514
 4754WAT     H214782   1.854   7.358   5.561
 4755WAT      O14783   0.663   7.045   4.753
 4755WAT     H114784   0.619   7.123   4.720
 4755WAT     H214785   0.719   7.078   4.824
 4756WAT      O14786   1.092   7.332   5.313
 4756WAT     H114787   1.046   7.353   5.395
 4756WAT     H214788   1.052   7.251   5.283
 4757WAT      O14789   1.592   7.454   5.426
 4757WAT     H114790   1.507   7.424   5.458
 4757WAT     H214791   1.576   7.478   5.335
 4758WAT      O14792   1.301   7.604   5.636
 4758WAT     H114793   1.334   7.521   5.602
 4758WAT     H214794   1.380   7.656   5.651
 4759WAT      O14795   0.975   7.007   4.241
 4759WAT     H114796   0.912   7.007   4.314
 4759WAT     H214797   0.966   6.921   4.201
 4760WAT      O14798   0.867   7.100   4.939
 4760WAT     H114799   0.897   7.190   4.931
 4760WAT     H214800   0.922   7.051   4.878
 4761WAT      O14801   0.642   7.558   4.526
 4761WAT     H114802   0.620   7.536   4.616
 4761WAT     H214803   0.564   7.601   4.491
 4762WAT      O14804   1.365   7.558   4.386
 4762WAT     H114805   1.305   7.631   4.367
 4762WAT     H214806   1.420   7.552   4.307
 4763WAT      O14807   0.886   7.647   5.592
 4763WAT     H114808   0.877   7.553   5.577
 4763WAT     H214809   0.970   7.670   5.553
 4764WAT      O14810   1.226   7.422   4.589
 4764WAT     H114811   1.265   7.454   4.507
 4764WAT     H214812   1.262   7.334   4.600
 4765WAT      O14813   0.399   7.289   5.408
 4765WAT     H114814   0.360   7.373   5.428
 4765WAT     H214815   0.330   7.225   5.427
 4766WAT      O14816   1.284   7.681   4.998
 4766WAT     H114817   1.211   7.732   5.033
 4766WAT     H214818   1.245   7.599   4.968
 4767WAT      O14819   0.928   7.349   4.839
 4767WAT     H114820   0.928   7.304   4.754
 4767WAT     H214821   1.018   7.381   4.850
 4768WAT      O14822   0.513   7.337   4.735
 4768WAT     H114823   0.479   7.385   4.810
 4768WAT     H214824   0.437   7.291   4.699
 4769WAT      O14825   0.934   7.449   4.138
 4769WAT     H114826   0.946   7.444   4.233
 4769WAT     H214827   0.896   7.535   4.122
 4770WAT      O14828   1.331   7.226   4.940
 4770WAT     H114829   1.332   7.271   5.024
 4770WAT     H214830   1.306   7.136   4.961
 4771WAT      O14831   0.836   7.680   4.078
 4771WAT     H114832   0.779   7.635   4.015
 4771WAT     H214833   0.906   7.716   4.024
 4772WAT      O14834   1.673   6.968   5.523
 4772WAT     H114835   1.706   6.895   5.576
 4772WAT     H214836   1.677   6.936   5.433
 4773WAT      O14837   0.958   7.755   5.013
 4773WAT     H114838   0.995   7.707   5.088
 4773WAT     H214839   0.939   7.842   5.048
 4774WAT      O14840   0.245   7.229   4.626
 4774WAT     H114841   0.216   7.193   4.710
 4774WAT     H214842   0.238   7.156   4.565
 4775WAT      O14843   0.737   7.659   5.245
 4775WAT     H114844   0.707   7.747   5.268
 4775WAT     H214845   0.833   7.665   5.249
 4776WAT      O14846   1.212   7.118   4.299
 4776WAT     H114847   1.131   7.068   4.291
 4776WAT     H214848   1.193   7.202   4.257
 4777WAT      O14849   1.483   7.555   4.128
 4777WAT     H114850   1.572   7.587   4.111
 4777WAT     H214851   1.481   7.468   4.089
 4778WAT      O14852   0.343   7.743   5.360
 4778WAT     H114853   0.307   7.809   5.419
 4778WAT     H214854   0.313   7.659   5.397
 4779WAT      O14855   0.663   7.788   5.648
 4779WAT     H114856   0.633   7.803   5.559
 4779WAT     H214857   0.740   7.733   5.639
 4780WAT      O14858   1.711   7.687   4.075
 4780WAT     H114859   1.702   7.730   3.990
 4780WAT     H214860   1.783   7.733   4.118
 4781WAT      O14861   0.500   6.916   4.482
 4781WAT     H114862   0.488   6.915   4.577
 4781WAT     H214863   0.418   6.949   4.447
 4782WAT      O14864   1.350   7.341   5.203
 4782WAT     H114865   1.387   7.259   5.236
 4782WAT     H214866   1.264   7.347   5.244
 4783WAT      O14867   1.686   7.236   4.284
 4783WAT     H114868   1.623   7.247   4.212
 4783WAT     H214869   1.637   7.258   4.363
 4784WAT      O14870   0.883   7.464   4.425
 4784WAT     H114871   0.812   7.511   4.469
 4784WAT     H214872   0.912   7.398   4.489
 4785WAT      O14873   1.046   7.606   5.225
 4785WAT     H114874   1.096   7.654   5.292
 4785WAT     H214875   1.060   7.514   5.246
 4786WAT      O14876   1.286   7.137   4.569
 4786WAT     H114877   1.274   7.139   4.474
 4786WAT     H214878   1.381   7.142   4.581
 4787WAT      O14879   0.704   7.295   4.163
 4787WAT     H114880   0.788   7.339   4.156
 4787WAT     H214881   0.667   7.326   4.245
 4788WAT      O14882   1.766   7.228   5.309
 4788WAT     H114883   1.716   7.302   5.343
 4788WAT     H214884   1.848   7.267   5.278
 4789WAT      O14885   1.596   7.752   4.654
 4789WAT     H114886   1.502   7.754   4.671
 4789WAT     H214887   1.627   7.674   4.699
 4790WAT      O14888   0.463   7.664   4.078
 4790WAT     H114889   0.471   7.569   4.090
 4790WAT     H214890   0.552   7.697   4.089
 4791WAT      O14891   0.613   7.518   5.488
 4791WAT     H114892   0.560   7.469   5.425
 4791WAT     H214893   0.680   7.561   5.435
 4792WAT      O14894   1.048   7.822   3.932
 4792WAT     H114895   1.100   7.751   3.896
 4792WAT     H214896   1.113   7.886   3.962
 4793WAT      O14897   1.550   7.699   5.665
 4793WAT     H114898   1.608   7.623   5.656
 4793WAT     H214899   1.568   7.752   5.587
 4794WAT      O14900   0.662   7.215   5.496
 4794WAT     H114901   0.652   7.153   5.424
 4794WAT     H214902   0.604   7.287   5.473
 4795WAT      O14903   0.938   7.070   5.199
 4795WAT     H114904   0.893   7.073   5.115
 4795WAT     H214905   0.875   7.031   5.259
 4796WAT      O14906   1.212   7.733   5.400
 4796WAT     H114907   1.224   7.673   5.474
 4796WAT     H214908   1.298   7.737   5.358
 4797WAT      O14909   1.446   7.788   5.258
 4797WAT     H114910   1.394   7.841   5.197
 4797WAT     H214911   1.481   7.852   5.321
 4798WAT      O14912   0.686   7.527   3.902
 4798WAT     H114913   0.666   7.441   3.938
 4798WAT     H214914   0.669   7.519   3.808
 4799WAT      O14915   0.889   7.387   5.526
 4799WAT     H114916   0.948   7.356   5.594
 4799WAT     H214917   0.807   7.340   5.541
 4800WAT      O14918   1.371   7.349   5.549
 4800WAT     H114919   1.302   7.283   5.543
 4800WAT     H214920   1.443   7.304   5.594
 4801WAT      O14921   1.434   7.008   4.155
 4801WAT     H114922   1.462   6.924   4.191
 4801WAT     H214923   1.357   7.032   4.206
 4802WAT      O14924   0.566   7.237   3.901
 4802WAT     H114925   0.596   7.238   3.810
 4802WAT     H214926   0.640   7.202   3.951
 4803WAT      O14927   0.888   7.132   3.999
 4803WAT     H114928   0.853   7.064   3.941
 4803WAT     H214929   0.908   7.086   4.081
 4804WAT      O14930   1.517   7.264   4.061
 4804WAT     H114931   1.559   7.245   3.977
 4804WAT     H214932   1.486   7.179   4.092
 4805WAT      O14933   1.867   7.755   4.431
 4805WAT     H114934   1.829   7.679   4.388
 4805WAT     H214935   1.794   7.793   4.480
 4806WAT      O14936   0.326   7.823   5.093
 4806WAT     H114937   0.362   7.814   5.181
 4806WAT     H214938   0.269   7.747   5.083
 4807WAT      O14939   1.806   7.670   5.394
 4807WAT     H114940   1.783   7.647   5.304
 4807WAT     H214941   1.832   7.762   5.390
 4808WAT      O14942   0.281   7.514   5.484
 4808WAT     H114943   0.191   7.511   5.518
 4808WAT     H214944   0.335   7.534   5.560
 4809WAT      O14945   1.650   7.193   5.672
 4809WAT     H114946   1.737   7.193   5.711
 4809WAT     H214947   1.651   7.119   5.611
 4810WAT      O14948   1.794   7.578   4.761
 4810WAT     H114949   1.847   7.528   4.698
 4810WAT     H214950   1.853   7.591   4.836
 4811WAT      O14951   1.812   7.586   5.113
 4811WAT     H114952   1.717   7.583   5.125
 4811WAT     H214953   1.830   7.677   5.090
 4812WAT      O14954   0.398   7.411   4.024
 4812WAT     H114955   0.469   7.369   3.976
 4812WAT     H214956   0.326   7.418   3.961
 4813WAT      O14957   0.362   7.017   3.928
 4813WAT     H114958   0.435   7.071   3.960
 4813WAT     H214959   0.390   6.989   3.841
 4814WAT      O14960   1.743   7.504   4.355
 4814WAT     H114961   1.793   7.480   4.433
 4814WAT     H214962   1.723   7.420   4.313
 4815WAT      O14963   0.331   6.942   4.919
 4815WAT     H114964   0.396   6.887   4.874
 4815WAT     H214965   0.373   6.967   5.001
 4816WAT      O14966   1.886   7.367   4.608
 4816WAT     H114967   1.875   7.352   4.702
 4816WAT     H214968   1.962   7.314   4.584
 4817WAT      O14969   1.721   6.961   5.254
 4817WAT     H114970   1.785   7.022   5.291
 4817WAT     H214971   1.736   6.965   5.160
 4818WAT      O14972   1.975   7.150   3.932
 4818WAT     H114973   2.068   7.137   3.912
 4818WAT     H214974   1.973   7.158   4.028
 4819WAT      O14975   1.982   7.227   4.195
 4819WAT     H114976   1.903   7.221   4.248
 4819WAT     H214977   2.003   7.321   4.194
 4820WAT      O14978   0.307   6.957   5.193
 4820WAT     H114979   0.272   7.003   5.269
 4820WAT     H214980   0.273   6.868   5.201
 4821WAT      O14981   1.058   7.076   5.545
 4821WAT     H114982   1.052   7.136   5.620
 4821WAT     H214983   1.152   7.066   5.530
 4822WAT      O14984   1.322   7.042   5.509
 4822WAT     H114985   1.383   7.074   5.443
 4822WAT     H214986   1.376   6.994   5.571
 4823WAT      O14987   0.374   6.910   5.520
 4823WAT     H114988   0.429   6.892   5.444
 4823WAT     H214989   0.380   6.831   5.574
 4824WAT      O14990   1.396   6.898   5.142
 4824WAT     H114991   1.308   6.932   5.121
 4824WAT     H214992   1.385   6.851   5.224
 4825WAT      O14993   1.486   7.119   5.280
 4825WAT     H114994   1.454   7.038   5.242
 4825WAT     H214995   1.581   7.115   5.268
 4826WAT      O14996   1.170   6.990   5.035
 4826WAT     H114997   1.092   7.038   5.063
 4826WAT     H214998   1.141   6.900   5.025
 4827WAT      O14999   1.626   7.060   4.840
 4827WAT     H115000   1.670   7.055   4.755
 4827WAT     H215001   1.599   7.152   4.847
 4828WAT      O15002   1.812   7.023   4.641
 4828WAT     H115003   1.806   6.929   4.626
 4828WAT     H215004   1.890   7.034   4.696
 4829WAT      O15005   0.305   7.021   4.288
 4829WAT     H115006   0.381   7.032   4.230
 4829WAT     H215007   0.259   7.104   4.283
 4830WAT      O15008   0.959   7.232   4.587
 4830WAT     H115009   0.878   7.195   4.553
 4830WAT     H215010   1.009   7.156   4.617
 4831WAT      O15011   1.409   6.898   4.710
 4831WAT     H115012   1.470   6.956   4.758
 4831WAT     H215013   1.335   6.955   4.688
 4832WAT      O15014   1.724   6.939   4.238
 4832WAT     H115015   1.743   7.028   4.265
 4832WAT     H215016   1.645   6.915   4.287
 4833WAT      O15017   0.542   7.073   4.142
 4833WAT     H115018   0.595   6.995   4.129
 4833WAT     H215019   0.605   7.141   4.165
 4834WAT      O15020   0.761   7.047   4.447
 4834WAT     H115021   0.698   6.977   4.464
 4834WAT     H215022   0.708   7.123   4.425
 4835WAT      O15023   0.774   6.975   5.691
 4835WAT     H115024   0.746   7.025   5.614
 4835WAT     H215025   0.812   6.895   5.654
 4836WAT      O15026   1.325   7.718   2.785
 4836WAT     H115027   1.317   7.627   2.758
 4836WAT     H215028   1.283   7.768   2.714
 4837WAT      O15029   1.138   7.896   2.973
 4837WAT     H115030   1.060   7.848   3.002
 4837WAT     H215031   1.203   7.828   2.955
 4838WAT      O15032   0.380   7.423   2.439
 4838WAT     H115033   0.292   7.457   2.429
 4838WAT     H215034   0.409   7.403   2.350
 4839WAT      O15035   0.177   7.683   3.027
 4839WAT     H115036   0.234   7.607   3.027
 4839WAT     H215037   0.177   7.713   2.937
 4840WAT      O15038   0.301   7.224   3.206
 4840WAT     H115039   0.283   7.134   3.234
 4840WAT     H215040   0.261   7.279   3.274
 4841WAT      O15041   1.185   7.444   2.996
 4841WAT     H115042   1.223   7.357   2.985
 4841WAT     H215043   1.175   7.478   2.907
 4842WAT      O15044   0.598   7.282   2.542
 4842WAT     H115045   0.609   7.372   2.573
 4842WAT     H215046   0.507   7.277   2.513
 4843WAT      O15047   1.563   7.194   2.690
 4843WAT     H115048   1.645   7.145   2.694
 4843WAT     H215049   1.567   7.253   2.765
 4844WAT      O15050   0.363   7.474   3.067
 4844WAT     H115051   0.431   7.500   3.129
 4844WAT     H215052   0.331   7.390   3.100
 4845WAT      O15053   0.782   7.578   2.976
 4845WAT     H115054   0.833   7.628   3.040
 4845WAT     H215055   0.835   7.501   2.958
 4846WAT      O15056   1.992   7.396   3.346
 4846WAT     H115057   1.922   7.434   3.294
 4846WAT     H215058   2.019   7.465   3.406
 4847WAT      O15059   0.611   7.042   3.402
 4847WAT     H115060   0.611   7.094   3.322
 4847WAT     H215061   0.528   6.995   3.400
 4848WAT      O15062   1.587   7.388   2.967
 4848WAT     H115063   1.516   7.417   3.025
 4848WAT     H215064   1.623   7.469   2.931
 4849WAT      O15065   0.579   7.214   3.203
 4849WAT     H115066   0.613   7.298   3.174
 4849WAT     H215067   0.485   7.228   3.215
 4850WAT      O15068   1.894   7.332   3.006
 4850WAT     H115069   1.799   7.336   3.019
 4850WAT     H215070   1.926   7.414   3.044
 4851WAT      O15071   0.947   6.962   2.835
 4851WAT     H115072   0.978   6.907   2.764
 4851WAT     H215073   0.854   6.976   2.817
 4852WAT      O15074   1.186   7.769   2.509
 4852WAT     H115075   1.093   7.762   2.532
 4852WAT     H215076   1.201   7.863   2.498
 4853WAT      O15077   1.184   7.396   2.209
 4853WAT     H115078   1.091   7.412   2.217
 4853WAT     H215079   1.216   7.468   2.154
 4854WAT      O15080   1.533   7.543   3.301
 4854WAT     H115081   1.492   7.625   3.326
 4854WAT     H215082   1.460   7.484   3.282
 4855WAT      O15083   0.746   7.822   2.787
 4855WAT     H115084   0.706   7.750   2.738
 4855WAT     H215085   0.755   7.787   2.876
 4856WAT      O15086   0.618   7.499   3.165
 4856WAT     H115087   0.673   7.510   3.088
 4856WAT     H215088   0.669   7.536   3.237
 4857WAT      O15089   1.406   7.849   2.260
 4857WAT     H115090   1.450   7.765   2.246
 4857WAT     H215091   1.478   7.912   2.269
 4858WAT      O15092   1.765   6.974   2.092
 4858WAT     H115093   1.733   6.984   2.182
 4858WAT     H215094   1.841   7.032   2.087
 4859WAT      O15095   0.416   7.711   2.537
 4859WAT     H115096   0.404   7.784   2.476
 4859WAT     H215097   0.385   7.634   2.490
 4860WAT      O15098   1.886   7.448   3.689
 4860WAT     H115099   1.824   7.499   3.636
 4860WAT     H215100   1.854   7.358   3.684
 4861WAT      O15101   0.663   7.045   2.876
 4861WAT     H115102   0.619   7.123   2.842
 4861WAT     H215103   0.719   7.078   2.946
 4862WAT      O15104   1.092   7.332   3.436
 4862WAT     H115105   1.046   7.353   3.517
 4862WAT     H215106   1.052   7.251   3.406
 4863WAT      O15107   1.592   7.454   3.549
 4863WAT     H115108   1.507   7.424   3.581
 4863WAT     H215109   1.576   7.478   3.458
 4864WAT      O15110   1.301   7.604   3.759
 4864WAT     H115111   1.334   7.521   3.725
 4864WAT     H215112   1.380   7.656   3.774
 4865WAT      O15113   0.975   7.007   2.364
 4865WAT     H115114   0.912   7.007   2.436
 4865WAT     H215115   0.966   6.921   2.324
 4866WAT      O15116   0.867   7.100   3.061
 4866WAT     H115117   0.897   7.190   3.053
 4866WAT     H215118   0.922   7.051   3.000
 4867WAT      O15119   0.642   7.558   2.648
 4867WAT     H115120   0.620   7.536   2.739
 4867WAT     H215121   0.564   7.601   2.614
 4868WAT      O15122   1.365   7.558   2.508
 4868WAT     H115123   1.305   7.631   2.490
 4868WAT     H215124   1.420   7.552   2.430
 4869WAT      O15125   0.886   7.647   3.715
 4869WAT     H115126   0.877   7.553   3.700
 4869WAT     H215127   0.970   7.670   3.675
 4870WAT      O15128   1.226   7.422   2.711
 4870WAT     H115129   1.265   7.454   2.630
 4870WAT     H215130   1.262   7.334   2.723
 4871WAT      O15131   0.399   7.289   3.530
 4871WAT     H115132   0.360   7.373   3.551
 4871WAT     H215133   0.330   7.225   3.549
 4872WAT      O15134   1.057   7.297   3.837
 4872WAT     H115135   0.988   7.278   3.901
 4872WAT     H215136   1.131   7.325   3.891
 4873WAT      O15137   1.284   7.681   3.121
 4873WAT     H115138   1.211   7.732   3.156
 4873WAT     H215139   1.245   7.599   3.091
 4874WAT      O15140   0.928   7.349   2.961
 4874WAT     H115141   0.928   7.304   2.876
 4874WAT     H215142   1.018   7.381   2.972
 4875WAT      O15143   0.513   7.337   2.857
 4875WAT     H115144   0.479   7.385   2.933
 4875WAT     H215145   0.437   7.291   2.821
 4876WAT      O15146   0.934   7.449   2.260
 4876WAT     H115147   0.946   7.444   2.355
 4876WAT     H215148   0.896   7.535   2.245
 4877WAT      O15149   1.331   7.226   3.062
 4877WAT     H115150   1.332   7.271   3.146
 4877WAT     H215151   1.306   7.136   3.083
 4878WAT      O15152   0.836   7.680   2.200
 4878WAT     H115153   0.779   7.635   2.138
 4878WAT     H215154   0.906   7.716   2.147
 4879WAT      O15155   1.673   6.968   3.646
 4879WAT     H115156   1.706   6.895   3.699
 4879WAT     H215157   1.677   6.936   3.556
 4880WAT      O15158   0.958   7.755   3.136
 4880WAT     H115159   0.995   7.707   3.211
 4880WAT     H215160   0.939   7.842   3.170
 4881WAT      O15161   0.245   7.229   2.749
 4881WAT     H115162   0.216   7.193   2.833
 4881WAT     H215163   0.238   7.156   2.688
 4882WAT      O15164   0.737   7.659   3.368
 4882WAT     H115165   0.707   7.747   3.390
 4882WAT     H215166   0.833   7.665   3.371
 4883WAT      O15167   1.212   7.118   2.421
 4883WAT     H115168   1.131   7.068   2.414
 4883WAT     H215169   1.193   7.202   2.379
 4884WAT      O15170   1.483   7.555   2.251
 4884WAT     H115171   1.572   7.587   2.233
 4884WAT     H215172   1.481   7.468   2.212
 4885WAT      O15173   0.343   7.743   3.483
 4885WAT     H115174   0.307   7.809   3.541
 4885WAT     H215175   0.313   7.659   3.520
 4886WAT      O15176   0.663   7.788   3.771
 4886WAT     H115177   0.633   7.803   3.681
 4886WAT     H215178   0.740   7.733   3.762
 4887WAT      O15179   1.711   7.687   2.198
 4887WAT     H115180   1.702   7.730   2.112
 4887WAT     H215181   1.783   7.733   2.241
 4888WAT      O15182   0.500   6.916   2.604
 4888WAT     H115183   0.488   6.915   2.699
 4888WAT     H215184   0.418   6.949   2.569
 4889WAT      O15185   1.350   7.341   3.325
 4889WAT     H115186   1.387   7.259   3.358
 4889WAT     H215187   1.264   7.347   3.367
 4890WAT      O15188   1.686   7.236   2.406
 4890WAT     H115189   1.623   7.247   2.335
 4890WAT     H215190   1.637   7.258   2.485
 4891WAT      O15191   0.883   7.464   2.548
 4891WAT     H115192   0.812   7.511   2.592
 4891WAT     H215193   0.912   7.398   2.611
 4892WAT      O15194   1.046   7.606   3.348
 4892WAT     H115195   1.096   7.654   3.414
 4892WAT     H215196   1.060   7.514   3.368
 4893WAT      O15197   1.286   7.137   2.692
 4893WAT     H115198   1.274   7.139   2.597
 4893WAT     H215199   1.381   7.142   2.704
 4894WAT      O15200   0.704   7.295   2.285
 4894WAT     H115201   0.788   7.339   2.279
 4894WAT     H215202   0.667   7.326   2.368
 4895WAT      O15203   1.766   7.228   3.432
 4895WAT     H115204   1.716   7.302   3.466
 4895WAT     H215205   1.848   7.267   3.400
 4896WAT      O15206   1.596   7.752   2.777
 4896WAT     H115207   1.502   7.754   2.794
 4896WAT     H215208   1.627   7.674   2.821
 4897WAT      O15209   0.463   7.664   2.201
 4897WAT     H115210   0.471   7.569   2.212
 4897WAT     H215211   0.552   7.697   2.212
 4898WAT      O15212   0.419   7.660   3.814
 4898WAT     H115213   0.423   7.630   3.905
 4898WAT     H215214   0.504   7.700   3.798
 4899WAT      O15215   0.613   7.518   3.611
 4899WAT     H115216   0.560   7.469   3.548
 4899WAT     H215217   0.680   7.561   3.557
 4900WAT      O15218   1.048   7.822   2.055
 4900WAT     H115219   1.100   7.751   2.018
 4900WAT     H215220   1.113   7.886   2.085
 4901WAT      O15221   1.550   7.699   3.788
 4901WAT     H115222   1.608   7.623   3.779
 4901WAT     H215223   1.568   7.752   3.710
 4902WAT      O15224   0.662   7.215   3.619
 4902WAT     H115225   0.652   7.153   3.546
 4902WAT     H215226   0.604   7.287   3.596
 4903WAT      O15227   0.938   7.070   3.322
 4903WAT     H115228   0.893   7.073   3.237
 4903WAT     H215229   0.875   7.031   3.382
 4904WAT      O15230   1.212   7.733   3.523
 4904WAT     H115231   1.224   7.673   3.596
 4904WAT     H215232   1.298   7.737   3.481
 4905WAT      O15233   1.446   7.788   3.380
 4905WAT     H115234   1.394   7.841   3.320
 4905WAT     H215235   1.481   7.852   3.443
 4906WAT      O15236   0.686   7.527   2.025
 4906WAT     H115237   0.666   7.441   2.061
 4906WAT     H215238   0.669   7.519   1.931
 4907WAT      O15239   0.889   7.387   3.648
 4907WAT     H115240   0.948   7.356   3.717
 4907WAT     H215241   0.807   7.340   3.664
 4908WAT      O15242   1.371   7.349   3.672
 4908WAT     H115243   1.302   7.283   3.665
 4908WAT     H215244   1.443   7.304   3.716
 4909WAT      O15245   1.434   7.008   2.278
 4909WAT     H115246   1.462   6.924   2.313
 4909WAT     H215247   1.357   7.032   2.329
 4910WAT      O15248   0.566   7.237   2.023
 4910WAT     H115249   0.596   7.238   1.933
 4910WAT     H215250   0.640   7.202   2.073
 4911WAT      O15251   0.888   7.132   2.122
 4911WAT     H115252   0.853   7.064   2.064
 4911WAT     H215253   0.908   7.086   2.203
 4912WAT      O15254   1.517   7.264   2.184
 4912WAT     H115255   1.559   7.245   2.100
 4912WAT     H215256   1.486   7.179   2.215
 4913WAT      O15257   1.867   7.755   2.554
 4913WAT     H115258   1.829   7.679   2.510
 4913WAT     H215259   1.794   7.793   2.602
 4914WAT      O15260   0.326   7.823   3.216
 4914WAT     H115261   0.362   7.814   3.304
 4914WAT     H215262   0.269   7.747   3.206
 4915WAT      O15263   1.806   7.670   3.517
 4915WAT     H115264   1.783   7.647   3.427
 4915WAT     H215265   1.832   7.762   3.512
 4916WAT      O15266   0.281   7.514   3.606
 4916WAT     H115267   0.191   7.511   3.640
 4916WAT     H215268   0.335   7.534   3.683
 4917WAT      O15269   1.650   7.193   3.795
 4917WAT     H115270   1.737   7.193   3.833
 4917WAT     H215271   1.651   7.119   3.734
 4918WAT      O15272   1.794   7.578   2.884
 4918WAT     H115273   1.847   7.528   2.821
 4918WAT     H215274   1.853   7.591   2.958
 4919WAT      O15275   1.812   7.586   3.236
 4919WAT     H115276   1.717   7.583   3.247
 4919WAT     H215277   1.830   7.677   3.212
 4920WAT      O15278   0.398   7.411   2.147
 4920WAT     H115279   0.469   7.369   2.098
 4920WAT     H215280   0.326   7.418   2.084
 4921WAT      O15281   0.362   7.017   2.051
 4921WAT     H115282   0.435   7.071   2.083
 4921WAT     H215283   0.390   6.989   1.963
 4922WAT      O15284   1.743   7.504   2.478
 4922WAT     H115285   1.793   7.480   2.556
 4922WAT     H215286   1.723   7.420   2.436
 4923WAT      O15287   0.331   6.942   3.041
 4923WAT     H115288   0.396   6.887   2.997
 4923WAT     H215289   0.373   6.967   3.123
 4924WAT      O15290   1.886   7.367   2.731
 4924WAT     H115291   1.875   7.352   2.825
 4924WAT     H215292   1.962   7.314   2.707
 4925WAT      O15293   1.721   6.961   3.377
 4925WAT     H115294   1.785   7.022   3.413
 4925WAT     H215295   1.736   6.965   3.282
 4926WAT      O15296   1.975   7.150   2.055
 4926WAT     H115297   2.068   7.137   2.034
 4926WAT     H215298   1.973   7.158   2.150
 4927WAT      O15299   1.982   7.227   2.318
 4927WAT     H115300   1.903   7.221   2.370
 4927WAT     H215301   2.003   7.321   2.316
 4928WAT      O15302   0.307   6.957   3.315
 4928WAT     H115303   0.272   7.003   3.392
 4928WAT     H215304   0.273   6.868   3.324
 4929WAT      O15305   1.058   7.076   3.668
 4929WAT     H115306   1.052   7.136   3.742
 4929WAT     H215307   1.152   7.066   3.653
 4930WAT      O15308   1.322   7.042   3.631
 4930WAT     H115309   1.383   7.074   3.565
 4930WAT     H215310   1.376   6.994   3.693
 4931WAT      O15311   0.374   6.910   3.643
 4931WAT     H115312   0.429   6.892   3.566
 4931WAT     H215313   0.380   6.831   3.696
 4932WAT      O15314   1.396   6.898   3.264
 4932WAT     H115315   1.308   6.932   3.244
 4932WAT     H215316   1.385   6.851   3.347
 4933WAT      O15317   1.486   7.119   3.403
 4933WAT     H115318   1.454   7.038   3.365
 4933WAT     H215319   1.581   7.115   3.390
 4934WAT      O15320   1.170   6.990   3.158
 4934WAT     H115321   1.092   7.038   3.186
 4934WAT     H215322   1.141   6.900   3.147
 4935WAT      O15323   1.626   7.060   2.963
 4935WAT     H115324   1.670   7.055   2.878
 4935WAT     H215325   1.599   7.152   2.970
 4936WAT      O15326   1.812   7.023   2.764
 4936WAT     H115327   1.806   6.929   2.749
 4936WAT     H215328   1.890   7.034   2.818
 4937WAT      O15329   0.305   7.021   2.410
 4937WAT     H115330   0.381   7.032   2.353
 4937WAT     H215331   0.259   7.104   2.406
 4938WAT      O15332   0.959   7.232   2.709
 4938WAT     H115333   0.878   7.195   2.675
 4938WAT     H215334   1.009   7.156   2.739
 4939WAT      O15335   1.409   6.898   2.833
 4939WAT     H115336   1.470   6.956   2.881
 4939WAT     H215337   1.335   6.955   2.811
 4940WAT      O15338   1.724   6.939   2.360
 4940WAT     H115339   1.743   7.028   2.387
 4940WAT     H215340   1.645   6.915   2.410
 4941WAT      O15341   0.542   7.073   2.264
 4941WAT     H115342   0.595   6.995   2.251
 4941WAT     H215343   0.605   7.141   2.288
 4942WAT      O15344   0.761   7.047   2.570
 4942WAT     H115345   0.698   6.977   2.586
 4942WAT     H215346   0.708   7.123   2.548
 4943WAT      O15347   0.774   6.975   3.813
 4943WAT     H115348   0.746   7.025   3.737
 4943WAT     H215349   0.812   6.895   3.777
 4944WAT      O15350   1.434   6.916   3.871
 4944WAT     H115351   1.423   6.948   3.961
 4944WAT     H215352   1.516   6.956   3.841
 4945WAT      O15353   1.325   7.718   0.907
 4945WAT     H115354   1.317   7.627   0.880
 4945WAT     H215355   1.283   7.768   0.837
 4946WAT      O15356   1.138   7.896   1.095
 4946WAT     H115357   1.060   7.848   1.124
 4946WAT     H215358   1.203   7.828   1.078
 4947WAT      O15359   0.380   7.423   0.562
 4947WAT     H115360   0.292   7.457   0.551
 4947WAT     H215361   0.409   7.403   0.472
 4948WAT      O15362   0.177   7.683   1.150
 4948WAT     H115363   0.234   7.607   1.150
 4948WAT     H215364   0.177   7.713   1.059
 4949WAT      O15365   0.301   7.224   1.329
 4949WAT     H115366   0.283   7.134   1.357
 4949WAT     H215367   0.261   7.279   1.396
 4950WAT      O15368   1.185   7.444   1.119
 4950WAT     H115369   1.223   7.357   1.108
 4950WAT     H215370   1.175   7.478   1.030
 4951WAT      O15371   0.598   7.282   0.665
 4951WAT     H115372   0.609   7.372   0.696
 4951WAT     H215373   0.507   7.277   0.636
 4952WAT      O15374   1.563   7.194   0.812
 4952WAT     H115375   1.645   7.145   0.816
 4952WAT     H215376   1.567   7.253   0.887
 4953WAT      O15377   0.363   7.474   1.190
 4953WAT     H115378   0.431   7.500   1.251
 4953WAT     H215379   0.331   7.390   1.223
 4954WAT      O15380   0.782   7.578   1.098
 4954WAT     H115381   0.833   7.628   1.162
 4954WAT     H215382   0.835   7.501   1.081
 4955WAT      O15383   1.992   7.396   1.469
 4955WAT     H115384   1.922   7.434   1.417
 4955WAT     H215385   2.019   7.465   1.529
 4956WAT      O15386   0.611   7.042   1.525
 4956WAT     H115387   0.611   7.094   1.444
 4956WAT     H215388   0.528   6.995   1.523
 4957WAT      O15389   1.587   7.388   1.089
 4957WAT     H115390   1.516   7.417   1.147
 4957WAT     H215391   1.623   7.469   1.053
 4958WAT      O15392   0.579   7.214   1.326
 4958WAT     H115393   0.613   7.298   1.296
 4958WAT     H215394   0.485   7.228   1.337
 4959WAT      O15395   1.894   7.332   1.128
 4959WAT     H115396   1.799   7.336   1.142
 4959WAT     H215397   1.926   7.414   1.167
 4960WAT      O15398   0.947   6.962   0.958
 4960WAT     H115399   0.978   6.907   0.886
 4960WAT     H215400   0.854   6.976   0.940
 4961WAT      O15401   1.186   7.769   0.632
 4961WAT     H115402   1.093   7.762   0.655
 4961WAT     H215403   1.201   7.863   0.620
 4962WAT      O15404   1.184   7.396   0.331
 4962WAT     H115405   1.091   7.412   0.340
 4962WAT     H215406   1.216   7.468   0.277
 4963WAT      O15407   1.533   7.543   1.424
 4963WAT     H115408   1.492   7.625   1.449
 4963WAT     H215409   1.460   7.484   1.404
 4964WAT      O15410   0.746   7.822   0.910
 4964WAT     H115411   0.706   7.750   0.860
 4964WAT     H215412   0.755   7.787   0.999
 4965WAT      O15413   0.618   7.499   1.288
 4965WAT     H115414   0.673   7.510   1.210
 4965WAT     H215415   0.669   7.536   1.359
 4966WAT      O15416   1.406   7.849   0.383
 4966WAT     H115417   1.450   7.765   0.368
 4966WAT     H215418   1.478   7.912   0.391
 4967WAT      O15419   1.765   6.974   0.214
 4967WAT     H115420   1.733   6.984   0.304
 4967WAT     H215421   1.841   7.032   0.209
 4968WAT      O15422   0.416   7.711   0.660
 4968WAT     H115423   0.404   7.784   0.599
 4968WAT     H215424   0.385   7.634   0.612
 4969WAT      O15425   1.886   7.448   1.812
 4969WAT     H115426   1.824   7.499   1.759
 4969WAT     H215427   1.854   7.358   1.806
 4970WAT      O15428   0.663   7.045   0.998
 4970WAT     H115429   0.619   7.123   0.965
 4970WAT     H215430   0.719   7.078   1.069
 4971WAT      O15431   1.092   7.332   1.558
 4971WAT     H115432   1.046   7.353   1.640
 4971WAT     H215433   1.052   7.251   1.528
 4972WAT      O15434   1.592   7.454   1.671
 4972WAT     H115435   1.507   7.424   1.704
 4972WAT     H215436   1.576   7.478   1.580
 4973WAT      O15437   1.301   7.604   1.881
 4973WAT     H115438   1.334   7.521   1.847
 4973WAT     H215439   1.380   7.656   1.896
 4974WAT      O15440   0.975   7.007   0.486
 4974WAT     H115441   0.912   7.007   0.559
 4974WAT     H215442   0.966   6.921   0.447
 4975WAT      O15443   0.867   7.100   1.184
 4975WAT     H115444   0.897   7.190   1.176
 4975WAT     H215445   0.922   7.051   1.123
 4976WAT      O15446   0.642   7.558   0.771
 4976WAT     H115447   0.620   7.536   0.861
 4976WAT     H215448   0.564   7.601   0.736
 4977WAT      O15449   1.365   7.558   0.631
 4977WAT     H115450   1.305   7.631   0.612
 4977WAT     H215451   1.420   7.552   0.553
 4978WAT      O15452   0.886   7.647   1.838
 4978WAT     H115453   0.877   7.553   1.823
 4978WAT     H215454   0.970   7.670   1.798
 4979WAT      O15455   1.226   7.422   0.834
 4979WAT     H115456   1.265   7.454   0.753
 4979WAT     H215457   1.262   7.334   0.845
 4980WAT      O15458   0.399   7.289   1.653
 4980WAT     H115459   0.360   7.373   1.674
 4980WAT     H215460   0.330   7.225   1.672
 4981WAT      O15461   1.057   7.297   1.960
 4981WAT     H115462   0.988   7.278   2.023
 4981WAT     H215463   1.131   7.325   2.013
 4982WAT      O15464   1.284   7.681   1.243
 4982WAT     H115465   1.211   7.732   1.278
 4982WAT     H215466   1.245   7.599   1.213
 4983WAT      O15467   0.928   7.349   1.084
 4983WAT     H115468   0.928   7.304   0.999
 4983WAT     H215469   1.018   7.381   1.095
 4984WAT      O15470   0.513   7.337   0.980
 4984WAT     H115471   0.479   7.385   1.056
 4984WAT     H215472   0.437   7.291   0.944
 4985WAT      O15473   0.934   7.449   0.383
 4985WAT     H115474   0.946   7.444   0.478
 4985WAT     H215475   0.896   7.535   0.367
 4986WAT      O15476   1.331   7.226   1.185
 4986WAT     H115477   1.332   7.271   1.269
 4986WAT     H215478   1.306   7.136   1.206
 4987WAT      O15479   0.836   7.680   0.323
 4987WAT     H115480   0.779   7.635   0.260
 4987WAT     H215481   0.906   7.716   0.269
 4988WAT      O15482   1.673   6.968   1.768
 4988WAT     H115483   1.706   6.895   1.821
 4988WAT     H215484   1.677   6.936   1.678
 4989WAT      O15485   0.958   7.755   1.259
 4989WAT     H115486   0.995   7.707   1.333
 4989WAT     H215487   0.939   7.842   1.293
 4990WAT      O15488   0.245   7.229   0.872
 4990WAT     H115489   0.216   7.193   0.955
 4990WAT     H215490   0.238   7.156   0.810
 4991WAT      O15491   0.737   7.659   1.490
 4991WAT     H115492   0.707   7.747   1.513
 4991WAT     H215493   0.833   7.665   1.494
 4992WAT      O15494   1.212   7.118   0.544
 4992WAT     H115495   1.131   7.068   0.536
 4992WAT     H215496   1.193   7.202   0.502
 4993WAT      O15497   1.483   7.555   0.373
 4993WAT     H115498   1.572   7.587   0.356
 4993WAT     H215499   1.481   7.468   0.334
 4994WAT      O15500   0.343   7.743   1.605
 4994WAT     H115501   0.307   7.809   1.664
 4994WAT     H215502   0.313   7.659   1.642
 4995WAT      O15503   0.663   7.788   1.894
 4995WAT     H115504   0.633   7.803   1.804
 4995WAT     H215505   0.740   7.733   1.884
 4996WAT      O15506   1.711   7.687   0.320
 4996WAT     H115507   1.702   7.730   0.235
 4996WAT     H215508   1.783   7.733   0.363
 4997WAT      O15509   0.500   6.916   0.727
 4997WAT     H115510   0.488   6.915   0.822
 4997WAT     H215511   0.418   6.949   0.692
 4998WAT      O15512   1.350   7.341   1.448
 4998WAT     H115513   1.387   7.259   1.481
 4998WAT     H215514   1.264   7.347   1.489
 4999WAT      O15515   1.686   7.236   0.529
 4999WAT     H115516   1.623   7.247   0.457
 4999WAT     H215517   1.637   7.258   0.608
 5000WAT      O15518   0.883   7.464   0.670
 5000WAT     H115519   0.812   7.511   0.714
 5000WAT     H215520   0.912   7.398   0.734
 5001WAT      O15521   1.046   7.606   1.470
 5001WAT     H115522   1.096   7.654   1.537
 5001WAT     H215523   1.060   7.514   1.491
 5002WAT      O15524   1.286   7.137   0.814
 5002WAT     H115525   1.274   7.139   0.719
 5002WAT     H215526   1.381   7.142   0.826
 5003WAT      O15527   0.704   7.295   0.408
 5003WAT     H115528   0.788   7.339   0.401
 5003WAT     H215529   0.667   7.326   0.491
 5004WAT      O15530   1.766   7.228   1.555
 5004WAT     H115531   1.716   7.302   1.588
 5004WAT     H215532   1.848   7.267   1.523
 5005WAT      O15533   1.596   7.752   0.899
 5005WAT     H115534   1.502   7.754   0.917
 5005WAT     H215535   1.627   7.674   0.944
 5006WAT      O15536   0.463   7.664   0.324
 5006WAT     H115537   0.471   7.569   0.335
 5006WAT     H215538   0.552   7.697   0.334
 5007WAT      O15539   0.419   7.660   1.937
 5007WAT     H115540   0.423   7.630   2.027
 5007WAT     H215541   0.504   7.700   1.921
 5008WAT      O15542   0.613   7.518   1.733
 5008WAT     H115543   0.560   7.469   1.671
 5008WAT     H215544   0.680   7.561   1.680
 5009WAT      O15545   1.550   7.699   1.910
 5009WAT     H115546   1.608   7.623   1.901
 5009WAT     H215547   1.568   7.752   1.832
 5010WAT      O15548   0.662   7.215   1.741
 5010WAT     H115549   0.652   7.153   1.669
 5010WAT     H215550   0.604   7.287   1.719
 5011WAT      O15551   0.938   7.070   1.445
 5011WAT     H115552   0.893   7.073   1.360
 5011WAT     H215553   0.875   7.031   1.504
 5012WAT      O15554   1.212   7.733   1.645
 5012WAT     H115555   1.224   7.673   1.719
 5012WAT     H215556   1.298   7.737   1.603
 5013WAT      O15557   1.446   7.788   1.503
 5013WAT     H115558   1.394   7.841   1.442
 5013WAT     H215559   1.481   7.852   1.566
 5014WAT      O15560   0.889   7.387   1.771
 5014WAT     H115561   0.948   7.356   1.840
 5014WAT     H215562   0.807   7.340   1.786
 5015WAT      O15563   1.371   7.349   1.794
 5015WAT     H115564   1.302   7.283   1.788
 5015WAT     H215565   1.443   7.304   1.839
 5016WAT      O15566   1.434   7.008   0.400
 5016WAT     H115567   1.462   6.924   0.436
 5016WAT     H215568   1.357   7.032   0.451
 5017WAT      O15569   0.888   7.132   0.245
 5017WAT     H115570   0.853   7.064   0.187
 5017WAT     H215571   0.908   7.086   0.326
 5018WAT      O15572   1.517   7.264   0.306
 5018WAT     H115573   1.559   7.245   0.222
 5018WAT     H215574   1.486   7.179   0.337
 5019WAT      O15575   1.867   7.755   0.676
 5019WAT     H115576   1.829   7.679   0.633
 5019WAT     H215577   1.794   7.793   0.725
 5020WAT      O15578   0.326   7.823   1.338
 5020WAT     H115579   0.362   7.814   1.426
 5020WAT     H215580   0.269   7.747   1.328
 5021WAT      O15581   1.806   7.670   1.640
 5021WAT     H115582   1.783   7.647   1.549
 5021WAT     H215583   1.832   7.762   1.635
 5022WAT      O15584   0.281   7.514   1.729
 5022WAT     H115585   0.191   7.511   1.763
 5022WAT     H215586   0.335   7.534   1.805
 5023WAT      O15587   1.650   7.193   1.917
 5023WAT     H115588   1.737   7.193   1.956
 5023WAT     H215589   1.651   7.119   1.856
 5024WAT      O15590   1.794   7.578   1.006
 5024WAT     H115591   1.847   7.528   0.943
 5024WAT     H215592   1.853   7.591   1.081
 5025WAT      O15593   1.812   7.586   1.358
 5025WAT     H115594   1.717   7.583   1.370
 5025WAT     H215595   1.830   7.677   1.335
 5026WAT      O15596   0.398   7.411   0.269
 5026WAT     H115597   0.469   7.369   0.221
 5026WAT     H215598   0.326   7.418   0.206
 5027WAT      O15599   1.743   7.504   0.600
 5027WAT     H115600   1.793   7.480   0.679
 5027WAT     H215601   1.723   7.420   0.558
 5028WAT      O15602   0.331   6.942   1.164
 5028WAT     H115603   0.396   6.887   1.120
 5028WAT     H215604   0.373   6.967   1.246
 5029WAT      O15605   1.886   7.367   0.853
 5029WAT     H115606   1.875   7.352   0.947
 5029WAT     H215607   1.962   7.314   0.829
 5030WAT      O15608   1.721   6.961   1.499
 5030WAT     H115609   1.785   7.022   1.536
 5030WAT     H215610   1.736   6.965   1.405
 5031WAT      O15611   1.975   7.150   0.178
 5031WAT     H115612   2.068   7.137   0.157
 5031WAT     H215613   1.973   7.158   0.273
 5032WAT      O15614   1.982   7.227   0.440
 5032WAT     H115615   1.903   7.221   0.493
 5032WAT     H215616   2.003   7.321   0.439
 5033WAT      O15617   0.307   6.957   1.438
 5033WAT     H115618   0.272   7.003   1.514
 5033WAT     H215619   0.273   6.868   1.446
 5034WAT      O15620   1.058   7.076   1.790
 5034WAT     H115621   1.052   7.136   1.865
 5034WAT     H215622   1.152   7.066   1.776
 5035WAT      O15623   1.322   7.042   1.754
 5035WAT     H115624   1.383   7.074   1.688
 5035WAT     H215625   1.376   6.994   1.816
 5036WAT      O15626   0.374   6.910   1.765
 5036WAT     H115627   0.429   6.892   1.689
 5036WAT     H215628   0.380   6.831   1.819
 5037WAT      O15629   1.396   6.898   1.387
 5037WAT     H115630   1.308   6.932   1.366
 5037WAT     H215631   1.385   6.851   1.469
 5038WAT      O15632   1.486   7.119   1.525
 5038WAT     H115633   1.454   7.038   1.487
 5038WAT     H215634   1.581   7.115   1.513
 5039WAT      O15635   1.170   6.990   1.281
 5039WAT     H115636   1.092   7.038   1.309
 5039WAT     H215637   1.141   6.900   1.270
 5040WAT      O15638   1.626   7.060   1.085
 5040WAT     H115639   1.670   7.055   1.000
 5040WAT     H215640   1.599   7.152   1.092
 5041WAT      O15641   1.812   7.023   0.886
 5041WAT     H115642   1.806   6.929   0.872
 5041WAT     H215643   1.890   7.034   0.941
 5042WAT      O15644   0.305   7.021   0.533
 5042WAT     H115645   0.381   7.032   0.475
 5042WAT     H215646   0.259   7.104   0.528
 5043WAT      O15647   0.959   7.232   0.832
 5043WAT     H115648   0.878   7.195   0.798
 5043WAT     H215649   1.009   7.156   0.862
 5044WAT      O15650   1.409   6.898   0.956
 5044WAT     H115651   1.470   6.956   1.003
 5044WAT     H215652   1.335   6.955   0.933
 5045WAT      O15653   1.724   6.939   0.483
 5045WAT     H115654   1.743   7.028   0.510
 5045WAT     H215655   1.645   6.915   0.532
 5046WAT      O15656   0.542   7.073   0.387
 5046WAT     H115657   0.595   6.995   0.374
 5046WAT     H215658   0.605   7.141   0.410
 5047WAT      O15659   0.761   7.047   0.692
 5047WAT     H115660   0.698   6.977   0.709
 5047WAT     H215661   0.708   7.123   0.671
 5048WAT      O15662   0.774   6.975   1.936
 5048WAT     H115663   0.746   7.025   1.859
 5048WAT     H215664   0.812   6.895   1.899
 5049WAT      O15665   1.434   6.916   1.994
 5049WAT     H115666   1.423   6.948   2.083
 5049WAT     H215667   1.516   6.956   1.964
 5050WAT      O15668   1.325   5.841   4.662
 5050WAT     H115669   1.317   5.749   4.635
 5050WAT     H215670   1.283   5.891   4.592
 5051WAT      O15671   1.138   6.019   4.850
 5051WAT     H115672   1.060   5.971   4.879
 5051WAT     H215673   1.203   5.951   4.833
 5052WAT      O15674   0.540   6.050   4.938
 5052WAT     H115675   0.456   6.024   4.978
 5052WAT     H215676   0.600   6.057   5.012
 5053WAT      O15677   1.540   6.459   4.728
 5053WAT     H115678   1.494   6.382   4.761
 5053WAT     H215679   1.621   6.462   4.779
 5054WAT      O15680   0.538   6.453   4.958
 5054WAT     H115681   0.568   6.364   4.940
 5054WAT     H215682   0.612   6.509   4.935
 5055WAT      O15683   0.380   5.546   4.316
 5055WAT     H115684   0.292   5.580   4.306
 5055WAT     H215685   0.409   5.526   4.227
 5056WAT      O15686   0.177   5.806   4.905
 5056WAT     H115687   0.234   5.729   4.905
 5056WAT     H215688   0.177   5.836   4.814
 5057WAT      O15689   1.163   6.688   4.690
 5057WAT     H115690   1.101   6.733   4.633
 5057WAT     H215691   1.248   6.703   4.650
 5058WAT      O15692   1.082   6.286   4.851
 5058WAT     H115693   1.075   6.192   4.835
 5058WAT     H215694   1.158   6.295   4.908
 5059WAT      O15695   0.301   5.347   5.084
 5059WAT     H115696   0.283   5.257   5.112
 5059WAT     H215697   0.261   5.401   5.151
 5060WAT      O15698   1.185   5.567   4.874
 5060WAT     H115699   1.223   5.480   4.862
 5060WAT     H215700   1.175   5.600   4.785
 5061WAT      O15701   0.598   5.404   4.420
 5061WAT     H115702   0.609   5.494   4.451
 5061WAT     H215703   0.507   5.399   4.391
 5062WAT      O15704   1.563   5.316   4.567
 5062WAT     H115705   1.645   5.267   4.571
 5062WAT     H215706   1.567   5.375   4.642
 5063WAT      O15707   0.363   5.596   4.944
 5063WAT     H115708   0.431   5.623   5.006
 5063WAT     H215709   0.331   5.512   4.978
 5064WAT      O15710   0.782   5.701   4.853
 5064WAT     H115711   0.833   5.751   4.917
 5064WAT     H215712   0.835   5.623   4.836
 5065WAT      O15713   1.992   5.518   5.223
 5065WAT     H115714   1.922   5.557   5.172
 5065WAT     H215715   2.019   5.588   5.284
 5066WAT      O15716   0.611   5.165   5.280
 5066WAT     H115717   0.611   5.217   5.199
 5066WAT     H215718   0.528   5.117   5.277
 5067WAT      O15719   1.249   6.176   4.430
 5067WAT     H115720   1.187   6.223   4.373
 5067WAT     H215721   1.300   6.245   4.471
 5068WAT      O15722   0.736   6.129   5.097
 5068WAT     H115723   0.702   6.192   5.162
 5068WAT     H215724   0.753   6.182   5.020
 5069WAT      O15725   1.587   5.510   4.844
 5069WAT     H115726   1.516   5.539   4.902
 5069WAT     H215727   1.623   5.591   4.808
 5070WAT      O15728   0.579   5.336   5.080
 5070WAT     H115729   0.613   5.421   5.051
 5070WAT     H215730   0.485   5.351   5.092
 5071WAT      O15731   0.657   6.326   5.279
 5071WAT     H115732   0.719   6.393   5.251
 5071WAT     H215733   0.571   6.367   5.270
 5072WAT      O15734   1.749   6.472   5.071
 5072WAT     H115735   1.680   6.539   5.070
 5072WAT     H215736   1.802   6.492   4.994
 5073WAT      O15737   1.894   5.455   4.883
 5073WAT     H115738   1.799   5.458   4.897
 5073WAT     H215739   1.926   5.536   4.922
 5074WAT      O15740   0.947   5.085   4.713
 5074WAT     H115741   0.978   5.029   4.641
 5074WAT     H215742   0.854   5.098   4.695
 5075WAT      O15743   1.502   6.657   4.942
 5075WAT     H115744   1.503   6.616   4.855
 5075WAT     H215745   1.447   6.734   4.932
 5076WAT      O15746   1.632   6.329   4.451
 5076WAT     H115747   1.621   6.235   4.463
 5076WAT     H215748   1.631   6.365   4.540
 5077WAT      O15749   1.442   6.147   5.075
 5077WAT     H115750   1.484   6.126   4.991
 5077WAT     H215751   1.514   6.173   5.132
 5078WAT      O15752   1.186   5.891   4.387
 5078WAT     H115753   1.093   5.885   4.409
 5078WAT     H215754   1.201   5.985   4.375
 5079WAT      O15755   1.184   5.519   4.086
 5079WAT     H115756   1.091   5.535   4.095
 5079WAT     H215757   1.216   5.590   4.032
 5080WAT      O15758   1.837   5.987   5.084
 5080WAT     H115759   1.754   5.994   5.036
 5080WAT     H215760   1.896   6.045   5.037
 5081WAT      O15761   1.589   6.048   4.437
 5081WAT     H115762   1.527   6.014   4.372
 5081WAT     H215763   1.587   5.983   4.508
 5082WAT      O15764   1.533   5.665   5.179
 5082WAT     H115765   1.492   5.748   5.204
 5082WAT     H215766   1.460   5.607   5.159
 5083WAT      O15767   0.746   5.944   4.665
 5083WAT     H115768   0.706   5.873   4.615
 5083WAT     H215769   0.755   5.910   4.754
 5084WAT      O15770   0.793   6.313   4.881
 5084WAT     H115771   0.763   6.252   4.813
 5084WAT     H215772   0.888   6.317   4.870
 5085WAT      O15773   0.618   5.621   5.043
 5085WAT     H115774   0.673   5.632   4.965
 5085WAT     H215775   0.669   5.659   5.114
 5086WAT      O15776   1.602   6.670   5.247
 5086WAT     H115777   1.554   6.751   5.228
 5086WAT     H215778   1.534   6.605   5.263
 5087WAT      O15779   0.702   6.287   5.546
 5087WAT     H115780   0.613   6.309   5.571
 5087WAT     H215781   0.705   6.299   5.451
 5088WAT      O15782   1.406   5.971   4.138
 5088WAT     H115783   1.450   5.888   4.123
 5088WAT     H215784   1.478   6.035   4.146
 5089WAT      O15785   0.585   5.974   5.404
 5089WAT     H115786   0.571   6.061   5.441
 5089WAT     H215787   0.497   5.939   5.389
 5090WAT      O15788   1.217   6.465   4.534
 5090WAT     H115789   1.261   6.540   4.493
 5090WAT     H215790   1.211   6.490   4.627
 5091WAT      O15791   0.765   6.568   5.625
 5091WAT     H115792   0.762   6.608   5.538
 5091WAT     H215793   0.749   6.475   5.608
 5092WAT      O15794   1.765   5.097   3.969
 5092WAT     H115795   1.733   5.106   4.059
 5092WAT     H215796   1.841   5.155   3.964
 5093WAT      O15797   0.416   5.834   4.415
 5093WAT     H115798   0.404   5.906   4.354
 5093WAT     H215799   0.385   5.757   4.367
 5094WAT      O15800   0.180   6.151   4.995
 5094WAT     H115801   0.188   6.164   4.901
 5094WAT     H215802   0.242   6.080   5.015
 5095WAT      O15803   0.305   6.321   4.637
 5095WAT     H115804   0.264   6.335   4.551
 5095WAT     H215805   0.394   6.292   4.616
 5096WAT      O15806   1.900   6.365   5.470
 5096WAT     H115807   1.913   6.341   5.378
 5096WAT     H215808   1.905   6.282   5.517
 5097WAT      O15809   1.287   6.736   5.327
 5097WAT     H115810   1.338   6.727   5.407
 5097WAT     H215811   1.202   6.770   5.356
 5098WAT      O15812   1.484   6.764   4.270
 5098WAT     H115813   1.468   6.735   4.360
 5098WAT     H215814   1.468   6.687   4.216
 5099WAT      O15815   0.732   6.742   4.448
 5099WAT     H115816   0.714   6.650   4.426
 5099WAT     H215817   0.647   6.778   4.472
 5100WAT      O15818   1.454   6.515   4.126
 5100WAT     H115819   1.385   6.515   4.060
 5100WAT     H215820   1.529   6.473   4.083
 5101WAT      O15821   1.411   6.678   4.533
 5101WAT     H115822   1.456   6.600   4.565
 5101WAT     H215823   1.445   6.749   4.588
 5102WAT      O15824   1.886   5.571   5.567
 5102WAT     H115825   1.824   5.621   5.514
 5102WAT     H215826   1.854   5.481   5.561
 5103WAT      O15827   0.186   6.255   5.249
 5103WAT     H115828   0.202   6.208   5.168
 5103WAT     H215829   0.232   6.204   5.316
 5104WAT      O15830   0.663   5.168   4.753
 5104WAT     H115831   0.619   5.246   4.720
 5104WAT     H215832   0.719   5.200   4.824
 5105WAT      O15833   1.092   5.455   5.313
 5105WAT     H115834   1.046   5.475   5.395
 5105WAT     H215835   1.052   5.373   5.283
 5106WAT      O15836   1.592   5.577   5.426
 5106WAT     H115837   1.507   5.547   5.458
 5106WAT     H215838   1.576   5.601   5.335
 5107WAT      O15839   1.301   5.727   5.636
 5107WAT     H115840   1.334   5.643   5.602
 5107WAT     H215841   1.380   5.779   5.651
 5108WAT      O15842   0.975   5.130   4.241
 5108WAT     H115843   0.912   5.130   4.314
 5108WAT     H215844   0.966   5.043   4.201
 5109WAT      O15845   0.867   5.222   4.939
 5109WAT     H115846   0.897   5.313   4.931
 5109WAT     H215847   0.922   5.174   4.878
 5110WAT      O15848   0.642   5.680   4.526
 5110WAT     H115849   0.620   5.659   4.616
 5110WAT     H215850   0.564   5.723   4.491
 5111WAT      O15851   1.365   5.681   4.386
 5111WAT     H115852   1.305   5.753   4.367
 5111WAT     H215853   1.420   5.675   4.307
 5112WAT      O15854   0.886   5.770   5.592
 5112WAT     H115855   0.877   5.676   5.577
 5112WAT     H215856   0.970   5.792   5.553
 5113WAT      O15857   1.226   5.544   4.589
 5113WAT     H115858   1.265   5.576   4.507
 5113WAT     H215859   1.262   5.457   4.600
 5114WAT      O15860   0.399   5.411   5.408
 5114WAT     H115861   0.360   5.496   5.428
 5114WAT     H215862   0.330   5.347   5.427
 5115WAT      O15863   1.284   5.804   4.998
 5115WAT     H115864   1.211   5.854   5.033
 5115WAT     H215865   1.245   5.722   4.968
 5116WAT      O15866   0.928   5.471   4.839
 5116WAT     H115867   0.928   5.427   4.754
 5116WAT     H215868   1.018   5.503   4.850
 5117WAT      O15869   0.513   5.459   4.735
 5117WAT     H115870   0.479   5.507   4.810
 5117WAT     H215871   0.437   5.414   4.699
 5118WAT      O15872   0.934   5.571   4.138
 5118WAT     H115873   0.946   5.567   4.233
 5118WAT     H215874   0.896   5.657   4.122
 5119WAT      O15875   1.331   5.349   4.940
 5119WAT     H115876   1.332   5.394   5.024
 5119WAT     H215877   1.306   5.259   4.961
 5120WAT      O15878   0.836   5.802   4.078
 5120WAT     H115879   0.779   5.757   4.015
 5120WAT     H215880   0.906   5.838   4.024
 5121WAT      O15881   1.673   5.090   5.523
 5121WAT     H115882   1.706   5.017   5.576
 5121WAT     H215883   1.677   5.058   5.433
 5122WAT      O15884   0.343   6.192   5.465
 5122WAT     H115885   0.305   6.128   5.525
 5122WAT     H215886   0.374   6.263   5.522
 5123WAT      O15887   0.958   5.877   5.013
 5123WAT     H115888   0.995   5.830   5.088
 5123WAT     H215889   0.939   5.965   5.048
 5124WAT      O15890   0.245   5.352   4.626
 5124WAT     H115891   0.216   5.315   4.710
 5124WAT     H215892   0.238   5.278   4.565
 5125WAT      O15893   0.737   5.781   5.245
 5125WAT     H115894   0.707   5.869   5.268
 5125WAT     H215895   0.833   5.787   5.249
 5126WAT      O15896   0.590   6.202   4.305
 5126WAT     H115897   0.513   6.148   4.289
 5126WAT     H215898   0.663   6.150   4.271
 5127WAT      O15899   1.666   6.101   4.884
 5127WAT     H115900   1.738   6.151   4.845
 5127WAT     H215901   1.646   6.034   4.820
 5128WAT      O15902   1.212   5.241   4.299
 5128WAT     H115903   1.131   5.191   4.291
 5128WAT     H215904   1.193   5.325   4.257
 5129WAT      O15905   1.204   6.109   5.473
 5129WAT     H115906   1.197   6.016   5.447
 5129WAT     H215907   1.141   6.118   5.544
 5130WAT      O15908   1.483   5.678   4.128
 5130WAT     H115909   1.572   5.709   4.111
 5130WAT     H215910   1.481   5.591   4.089
 5131WAT      O15911   0.594   6.169   4.669
 5131WAT     H115912   0.646   6.088   4.663
 5131WAT     H215913   0.549   6.162   4.753
 5132WAT      O15914   1.083   6.295   4.196
 5132WAT     H115915   1.117   6.370   4.146
 5132WAT     H215916   1.000   6.327   4.232
 5133WAT      O15917   0.343   5.865   5.360
 5133WAT     H115918   0.307   5.932   5.419
 5133WAT     H215919   0.313   5.782   5.397
 5134WAT      O15920   0.663   5.911   5.648
 5134WAT     H115921   0.633   5.926   5.559
 5134WAT     H215922   0.740   5.855   5.639
 5135WAT      O15923   1.197   6.391   5.448
 5135WAT     H115924   1.199   6.298   5.426
 5135WAT     H215925   1.127   6.399   5.512
 5136WAT      O15926   1.711   5.809   4.075
 5136WAT     H115927   1.702   5.852   3.990
 5136WAT     H215928   1.783   5.855   4.118
 5137WAT      O15929   1.818   6.055   5.383
 5137WAT     H115930   1.746   6.114   5.363
 5137WAT     H215931   1.871   6.054   5.303
 5138WAT      O15932   1.814   6.495   4.348
 5138WAT     H115933   1.749   6.429   4.375
 5138WAT     H215934   1.775   6.535   4.270
 5139WAT      O15935   1.371   6.227   4.732
 5139WAT     H115936   1.407   6.168   4.666
 5139WAT     H215937   1.283   6.195   4.750
 5140WAT      O15938   0.980   6.303   4.473
 5140WAT     H115939   1.049   6.358   4.511
 5140WAT     H215940   0.901   6.358   4.477
 5141WAT      O15941   0.910   6.004   4.434
 5141WAT     H115942   0.956   6.085   4.457
 5141WAT     H215943   0.875   5.972   4.518
 5142WAT      O15944   1.141   6.555   5.157
 5142WAT     H115945   1.205   6.576   5.225
 5142WAT     H215946   1.177   6.479   5.112
 5143WAT      O15947   0.500   5.038   4.482
 5143WAT     H115948   0.488   5.037   4.577
 5143WAT     H215949   0.418   5.072   4.447
 5144WAT      O15950   1.268   6.355   5.029
 5144WAT     H115951   1.332   6.285   5.040
 5144WAT     H215952   1.320   6.433   5.011
 5145WAT      O15953   1.652   6.384   4.002
 5145WAT     H115954   1.630   6.312   4.061
 5145WAT     H215955   1.613   6.359   3.918
 5146WAT      O15956   1.445   6.435   5.349
 5146WAT     H115957   1.479   6.494   5.417
 5146WAT     H215958   1.353   6.422   5.372
 5147WAT      O15959   0.231   6.786   4.079
 5147WAT     H115960   0.267   6.846   4.014
 5147WAT     H215961   0.217   6.841   4.156
 5148WAT      O15962   1.611   6.175   4.168
 5148WAT     H115963   1.582   6.222   4.246
 5148WAT     H215964   1.690   6.129   4.195
 5149WAT      O15965   0.229   6.613   5.526
 5149WAT     H115966   0.240   6.519   5.512
 5149WAT     H215967   0.164   6.639   5.462
 5150WAT      O15968   1.028   6.440   5.666
 5150WAT     H115969   0.996   6.368   5.721
 5150WAT     H215970   0.961   6.508   5.674
 5151WAT      O15971   0.832   6.525   4.161
 5151WAT     H115972   0.831   6.598   4.099
 5151WAT     H215973   0.740   6.500   4.170
 5152WAT      O15974   0.392   6.047   4.235
 5152WAT     H115975   0.332   6.121   4.236
 5152WAT     H215976   0.440   6.056   4.153
 5153WAT      O15977   1.350   5.463   5.203
 5153WAT     H115978   1.387   5.381   5.236
 5153WAT     H215979   1.264   5.469   5.244
 5154WAT      O15980   1.686   5.359   4.284
 5154WAT     H115981   1.623   5.369   4.212
 5154WAT     H215982   1.637   5.381   4.363
 5155WAT      O15983   1.131   6.531   4.027
 5155WAT     H115984   1.141   6.511   3.934
 5155WAT     H215985   1.041   6.506   4.047
 5156WAT      O15986   0.883   5.587   4.425
 5156WAT     H115987   0.812   5.634   4.469
 5156WAT     H215988   0.912   5.521   4.489
 5157WAT      O15989   1.046   5.729   5.225
 5157WAT     H115990   1.096   5.776   5.292
 5157WAT     H215991   1.060   5.636   5.246
 5158WAT      O15992   1.286   5.259   4.569
 5158WAT     H115993   1.274   5.261   4.474
 5158WAT     H215994   1.381   5.264   4.581
 5159WAT      O15995   0.995   6.783   4.496
 5159WAT     H115996   1.021   6.779   4.404
 5159WAT     H215997   0.900   6.770   4.496
 5160WAT      O15998   0.704   5.418   4.163
 5160WAT     H115999   0.788   5.461   4.156
 5160WAT     H216000   0.667   5.449   4.245
 5161WAT      O16001   1.766   5.350   5.309
 5161WAT     H116002   1.716   5.424   5.343
 5161WAT     H216003   1.848   5.389   5.278
 5162WAT      O16004   1.596   5.875   4.654
 5162WAT     H116005   1.502   5.876   4.671
 5162WAT     H216006   1.627   5.796   4.699
 5163WAT      O16007   0.593   6.043   4.010
 5163WAT     H116008   0.670   6.032   4.066
 5163WAT     H216009   0.601   5.973   3.945
 5164WAT      O16010   0.463   5.786   4.078
 5164WAT     H116011   0.471   5.691   4.090
 5164WAT     H216012   0.552   5.819   4.089
 5165WAT      O16013   1.796   6.592   4.822
 5165WAT     H116014   1.808   6.674   4.869
 5165WAT     H216015   1.883   6.571   4.787
 5166WAT      O16016   0.543   6.801   4.789
 5166WAT     H116017   0.617   6.746   4.816
 5166WAT     H216018   0.581   6.888   4.775
 5167WAT      O16019   0.854   6.718   3.971
 5167WAT     H116020   0.933   6.747   3.926
 5167WAT     H216021   0.802   6.675   3.903
 5168WAT      O16022   1.470   6.703   5.563
 5168WAT     H116023   1.566   6.695   5.558
 5168WAT     H216024   1.456   6.770   5.631
 5169WAT      O16025   1.759   6.641   4.113
 5169WAT     H116026   1.731   6.600   4.032
 5169WAT     H216027   1.740   6.734   4.101
 5170WAT      O16028   0.906   6.241   3.957
 5170WAT     H116029   0.895   6.179   4.030
 5170WAT     H216030   0.889   6.188   3.879
 5171WAT      O16031   0.921   6.109   5.555
 5171WAT     H116032   0.844   6.166   5.547
 5171WAT     H216033   0.939   6.080   5.466
 5172WAT      O16034   1.230   6.147   4.018
 5172WAT     H116035   1.175   6.191   4.082
 5172WAT     H216036   1.292   6.096   4.070
 5173WAT      O16037   1.635   6.282   5.611
 5173WAT     H116038   1.709   6.316   5.561
 5173WAT     H216039   1.559   6.299   5.556
 5174WAT      O16040   0.797   6.043   4.207
 5174WAT     H116041   0.839   6.026   4.292
 5174WAT     H216042   0.809   5.962   4.158
 5175WAT      O16043   0.613   5.641   5.488
 5175WAT     H116044   0.560   5.591   5.425
 5175WAT     H216045   0.680   5.683   5.435
 5176WAT      O16046   1.048   5.945   3.932
 5176WAT     H116047   1.100   5.873   3.896
 5176WAT     H216048   1.113   6.009   3.962
 5177WAT      O16049   1.503   6.087   5.465
 5177WAT     H116050   1.544   6.103   5.550
 5177WAT     H216051   1.409   6.100   5.481
 5178WAT      O16052   1.550   5.821   5.665
 5178WAT     H116053   1.608   5.746   5.656
 5178WAT     H216054   1.568   5.874   5.587
 5179WAT      O16055   0.662   5.337   5.496
 5179WAT     H116056   0.652   5.275   5.424
 5179WAT     H216057   0.604   5.410   5.473
 5180WAT      O16058   0.938   5.193   5.199
 5180WAT     H116059   0.893   5.195   5.115
 5180WAT     H216060   0.875   5.153   5.259
 5181WAT      O16061   0.979   6.082   5.262
 5181WAT     H116062   1.021   6.167   5.244
 5181WAT     H216063   0.887   6.096   5.239
 5182WAT      O16064   1.212   5.856   5.400
 5182WAT     H116065   1.224   5.796   5.474
 5182WAT     H216066   1.298   5.859   5.358
 5183WAT      O16067   1.446   5.911   5.258
 5183WAT     H116068   1.394   5.963   5.197
 5183WAT     H216069   1.481   5.974   5.321
 5184WAT      O16070   0.686   5.650   3.902
 5184WAT     H116071   0.666   5.564   3.938
 5184WAT     H216072   0.669   5.641   3.808
 5185WAT      O16073   0.764   6.713   5.373
 5185WAT     H116074   0.710   6.785   5.341
 5185WAT     H216075   0.789   6.665   5.294
 5186WAT      O16076   0.889   5.510   5.526
 5186WAT     H116077   0.948   5.479   5.594
 5186WAT     H216078   0.807   5.463   5.541
 5187WAT      O16079   1.371   5.472   5.549
 5187WAT     H116080   1.302   5.405   5.543
 5187WAT     H216081   1.443   5.427   5.594
 5188WAT      O16082   1.434   5.131   4.155
 5188WAT     H116083   1.462   5.047   4.191
 5188WAT     H216084   1.357   5.154   4.206
 5189WAT      O16085   0.566   5.360   3.901
 5189WAT     H116086   0.596   5.361   3.810
 5189WAT     H216087   0.640   5.325   3.951
 5190WAT      O16088   1.050   6.837   5.399
 5190WAT     H116089   1.042   6.927   5.430
 5190WAT     H216090   0.959   6.805   5.396
 5191WAT      O16091   0.888   5.254   3.999
 5191WAT     H116092   0.853   5.187   3.941
 5191WAT     H216093   0.908   5.208   4.081
 5192WAT      O16094   1.104   6.753   4.161
 5192WAT     H116095   1.194   6.787   4.163
 5192WAT     H216096   1.108   6.681   4.099
 5193WAT      O16097   0.468   6.290   3.984
 5193WAT     H116098   0.512   6.345   4.050
 5193WAT     H216099   0.517   6.208   3.985
 5194WAT      O16100   0.190   6.569   4.729
 5194WAT     H116101   0.223   6.482   4.706
 5194WAT     H216102   0.233   6.590   4.812
 5195WAT      O16103   0.649   6.402   4.495
 5195WAT     H116104   0.619   6.390   4.585
 5195WAT     H216105   0.639   6.316   4.455
 5196WAT      O16106   0.239   6.656   5.003
 5196WAT     H116107   0.195   6.674   5.086
 5196WAT     H216108   0.295   6.732   4.989
 5197WAT      O16109   1.802   6.606   5.432
 5197WAT     H116110   1.742   6.612   5.358
 5197WAT     H216111   1.815   6.512   5.445
 5198WAT      O16112   1.926   6.380   3.966
 5198WAT     H116113   1.843   6.387   4.013
 5198WAT     H216114   1.944   6.469   3.935
 5199WAT      O16115   1.872   6.055   4.216
 5199WAT     H116116   1.948   6.112   4.227
 5199WAT     H216117   1.873   5.998   4.293
 5200WAT      O16118   1.973   6.140   4.700
 5200WAT     H116119   2.010   6.062   4.660
 5200WAT     H216120   2.037   6.209   4.683
 5201WAT      O16121   1.671   6.279   5.242
 5201WAT     H116122   1.589   6.322   5.268
 5201WAT     H216123   1.712   6.340   5.180
 5202WAT      O16124   1.877   6.084   3.932
 5202WAT     H116125   1.905   6.175   3.919
 5202WAT     H216126   1.858   6.078   4.025
 5203WAT      O16127   1.517   5.387   4.061
 5203WAT     H116128   1.559   5.368   3.977
 5203WAT     H216129   1.486   5.301   4.092
 5204WAT      O16130   1.867   5.878   4.431
 5204WAT     H116131   1.829   5.801   4.388
 5204WAT     H216132   1.794   5.916   4.480
 5205WAT      O16133   0.326   5.946   5.093
 5205WAT     H116134   0.362   5.937   5.181
 5205WAT     H216135   0.269   5.869   5.083
 5206WAT      O16136   1.806   5.793   5.394
 5206WAT     H116137   1.783   5.770   5.304
 5206WAT     H216138   1.832   5.885   5.390
 5207WAT      O16139   0.281   5.637   5.484
 5207WAT     H116140   0.191   5.633   5.518
 5207WAT     H216141   0.335   5.657   5.560
 5208WAT      O16142   1.650   5.315   5.672
 5208WAT     H116143   1.737   5.316   5.711
 5208WAT     H216144   1.651   5.241   5.611
 5209WAT      O16145   1.794   5.700   4.761
 5209WAT     H116146   1.847   5.651   4.698
 5209WAT     H216147   1.853   5.714   4.836
 5210WAT      O16148   1.812   5.709   5.113
 5210WAT     H116149   1.717   5.705   5.125
 5210WAT     H216150   1.830   5.800   5.090
 5211WAT      O16151   0.398   5.534   4.024
 5211WAT     H116152   0.469   5.492   3.976
 5211WAT     H216153   0.326   5.541   3.961
 5212WAT      O16154   0.362   5.139   3.928
 5212WAT     H116155   0.435   5.193   3.960
 5212WAT     H216156   0.390   5.112   3.841
 5213WAT      O16157   1.743   5.626   4.355
 5213WAT     H116158   1.793   5.603   4.433
 5213WAT     H216159   1.723   5.542   4.313
 5214WAT      O16160   0.331   5.064   4.919
 5214WAT     H116161   0.396   5.009   4.874
 5214WAT     H216162   0.373   5.090   5.001
 5215WAT      O16163   1.886   5.490   4.608
 5215WAT     H116164   1.875   5.474   4.702
 5215WAT     H216165   1.962   5.437   4.584
 5216WAT      O16166   1.721   5.084   5.254
 5216WAT     H116167   1.785   5.145   5.291
 5216WAT     H216168   1.736   5.087   5.160
 5217WAT      O16169   1.975   5.273   3.932
 5217WAT     H116170   2.068   5.260   3.912
 5217WAT     H216171   1.973   5.281   4.028
 5218WAT      O16172   1.982   5.350   4.195
 5218WAT     H116173   1.903   5.343   4.248
 5218WAT     H216174   2.003   5.443   4.194
 5219WAT      O16175   1.677   6.754   4.594
 5219WAT     H116176   1.736   6.722   4.527
 5219WAT     H216177   1.702   6.707   4.674
 5220WAT      O16178   0.307   5.080   5.193
 5220WAT     H116179   0.272   5.125   5.269
 5220WAT     H216180   0.273   4.990   5.201
 5221WAT      O16181   0.467   6.397   5.609
 5221WAT     H116182   0.463   6.360   5.697
 5221WAT     H216183   0.480   6.491   5.623
 5222WAT      O16184   0.837   6.553   5.169
 5222WAT     H116185   0.813   6.579   5.081
 5222WAT     H216186   0.931   6.570   5.175
 5223WAT      O16187   1.058   5.199   5.545
 5223WAT     H116188   1.052   5.258   5.620
 5223WAT     H216189   1.152   5.188   5.530
 5224WAT      O16190   1.322   5.165   5.509
 5224WAT     H116191   1.383   5.196   5.443
 5224WAT     H216192   1.376   5.116   5.571
 5225WAT      O16193   1.963   6.755   5.249
 5225WAT     H116194   1.914   6.794   5.178
 5225WAT     H216195   1.902   6.692   5.289
 5226WAT      O16196   0.374   5.033   5.520
 5226WAT     H116197   0.429   5.014   5.444
 5226WAT     H216198   0.380   4.954   5.574
 5227WAT      O16199   0.451   6.692   5.321
 5227WAT     H116200   0.392   6.678   5.395
 5227WAT     H216201   0.450   6.608   5.275
 5228WAT      O16202   1.396   5.021   5.142
 5228WAT     H116203   1.308   5.054   5.121
 5228WAT     H216204   1.385   4.974   5.224
 5229WAT      O16205   1.486   5.242   5.280
 5229WAT     H116206   1.454   5.160   5.242
 5229WAT     H216207   1.581   5.237   5.268
 5230WAT      O16208   1.732   6.819   4.977
 5230WAT     H116209   1.686   6.894   4.940
 5230WAT     H216210   1.669   6.747   4.972
 5231WAT      O16211   0.414   6.428   5.216
 5231WAT     H116212   0.342   6.366   5.210
 5231WAT     H216213   0.420   6.468   5.129
 5232WAT      O16214   0.775   6.650   4.895
 5232WAT     H116215   0.826   6.589   4.842
 5232WAT     H216216   0.840   6.700   4.944
 5233WAT      O16217   1.049   6.739   4.978
 5233WAT     H116218   1.077   6.713   4.890
 5233WAT     H216219   1.100   6.684   5.037
 5234WAT      O16220   1.170   5.113   5.035
 5234WAT     H116221   1.092   5.160   5.063
 5234WAT     H216222   1.141   5.022   5.025
 5235WAT      O16223   1.626   5.183   4.840
 5235WAT     H116224   1.670   5.177   4.755
 5235WAT     H216225   1.599   5.274   4.847
 5236WAT      O16226   1.812   5.146   4.641
 5236WAT     H116227   1.806   5.052   4.626
 5236WAT     H216228   1.890   5.157   4.696
 5237WAT      O16229   0.305   5.143   4.288
 5237WAT     H116230   0.381   5.154   4.230
 5237WAT     H216231   0.259   5.227   4.283
 5238WAT      O16232   0.959   5.355   4.587
 5238WAT     H116233   0.878   5.317   4.553
 5238WAT     H216234   1.009   5.279   4.617
 5239WAT      O16235   1.409   5.021   4.710
 5239WAT     H116236   1.470   5.078   4.758
 5239WAT     H216237   1.335   5.077   4.688
 5240WAT      O16238   1.724   5.061   4.238
 5240WAT     H116239   1.743   5.151   4.265
 5240WAT     H216240   1.645   5.038   4.287
 5241WAT      O16241   0.403   6.629   4.282
 5241WAT     H116242   0.351   6.667   4.211
 5241WAT     H216243   0.396   6.692   4.354
 5242WAT      O16244   0.542   5.196   4.142
 5242WAT     H116245   0.595   5.117   4.129
 5242WAT     H216246   0.605   5.264   4.165
 5243WAT      O16247   0.761   5.170   4.447
 5243WAT     H116248   0.698   5.099   4.464
 5243WAT     H216249   0.708   5.246   4.425
 5244WAT      O16250   1.055   6.831   5.714
 5244WAT     H116251   1.148   6.807   5.719
 5244WAT     H216252   1.054   6.914   5.666
 5245WAT      O16253   1.879   6.785   4.414
 5245WAT     H116254   1.896   6.717   4.350
 5245WAT     H216255   1.809   6.838   4.375
 5246WAT      O16256   0.774   5.097   5.691
 5246WAT     H116257   0.746   5.148   5.614
 5246WAT     H216258   0.812   5.018   5.654
 5247WAT      O16259   0.663   6.824   4.169
 5247WAT     H116260   0.736   6.796   4.115
 5247WAT     H216261   0.689   6.800   4.258
 5248WAT      O16262   0.579   6.436   4.170
 5248WAT     H116263   0.516   6.483   4.225
 5248WAT     H216264   0.591   6.351   4.213
 5249WAT      O16265   1.325   5.841   2.785
 5249WAT     H116266   1.317   5.749   2.758
 5249WAT     H216267   1.283   5.891   2.714
 5250WAT      O16268   1.138   6.019   2.973
 5250WAT     H116269   1.060   5.971   3.002
 5250WAT     H216270   1.203   5.951   2.955
 5251WAT      O16271   0.540   6.050   3.061
 5251WAT     H116272   0.456   6.024   3.101
 5251WAT     H216273   0.600   6.057   3.134
 5252WAT      O16274   1.540   6.459   2.851
 5252WAT     H116275   1.494   6.382   2.884
 5252WAT     H216276   1.621   6.462   2.901
 5253WAT      O16277   0.538   6.453   3.080
 5253WAT     H116278   0.568   6.364   3.062
 5253WAT     H216279   0.612   6.509   3.057
 5254WAT      O16280   0.380   5.546   2.439
 5254WAT     H116281   0.292   5.580   2.429
 5254WAT     H216282   0.409   5.526   2.350
 5255WAT      O16283   0.177   5.806   3.027
 5255WAT     H116284   0.234   5.729   3.027
 5255WAT     H216285   0.177   5.836   2.937
 5256WAT      O16286   1.163   6.688   2.813
 5256WAT     H116287   1.101   6.733   2.756
 5256WAT     H216288   1.248   6.703   2.773
 5257WAT      O16289   1.082   6.286   2.974
 5257WAT     H116290   1.075   6.192   2.957
 5257WAT     H216291   1.158   6.295   3.031
 5258WAT      O16292   0.301   5.347   3.206
 5258WAT     H116293   0.283   5.257   3.234
 5258WAT     H216294   0.261   5.401   3.274
 5259WAT      O16295   1.185   5.567   2.996
 5259WAT     H116296   1.223   5.480   2.985
 5259WAT     H216297   1.175   5.600   2.907
 5260WAT      O16298   0.598   5.404   2.542
 5260WAT     H116299   0.609   5.494   2.573
 5260WAT     H216300   0.507   5.399   2.513
 5261WAT      O16301   1.563   5.316   2.690
 5261WAT     H116302   1.645   5.267   2.694
 5261WAT     H216303   1.567   5.375   2.765
 5262WAT      O16304   0.363   5.596   3.067
 5262WAT     H116305   0.431   5.623   3.129
 5262WAT     H216306   0.331   5.512   3.100
 5263WAT      O16307   0.782   5.701   2.976
 5263WAT     H116308   0.833   5.751   3.040
 5263WAT     H216309   0.835   5.623   2.958
 5264WAT      O16310   0.611   5.165   3.402
 5264WAT     H116311   0.611   5.217   3.322
 5264WAT     H216312   0.528   5.117   3.400
 5265WAT      O16313   1.249   6.176   2.552
 5265WAT     H116314   1.187   6.223   2.496
 5265WAT     H216315   1.300   6.245   2.594
 5266WAT      O16316   0.736   6.129   3.220
 5266WAT     H116317   0.702   6.192   3.284
 5266WAT     H216318   0.753   6.182   3.142
 5267WAT      O16319   1.587   5.510   2.967
 5267WAT     H116320   1.516   5.539   3.025
 5267WAT     H216321   1.623   5.591   2.931
 5268WAT      O16322   0.579   5.336   3.203
 5268WAT     H116323   0.613   5.421   3.174
 5268WAT     H216324   0.485   5.351   3.215
 5269WAT      O16325   0.657   6.326   3.402
 5269WAT     H116326   0.719   6.393   3.373
 5269WAT     H216327   0.571   6.367   3.392
 5270WAT      O16328   1.749   6.472   3.193
 5270WAT     H116329   1.680   6.539   3.192
 5270WAT     H216330   1.802   6.492   3.117
 5271WAT      O16331   1.894   5.455   3.006
 5271WAT     H116332   1.799   5.458   3.019
 5271WAT     H216333   1.926   5.536   3.044
 5272WAT      O16334   0.947   5.085   2.835
 5272WAT     H116335   0.978   5.029   2.764
 5272WAT     H216336   0.854   5.098   2.817
 5273WAT      O16337   1.502   6.657   3.065
 5273WAT     H116338   1.503   6.616   2.978
 5273WAT     H216339   1.447   6.734   3.054
 5274WAT      O16340   1.632   6.329   2.573
 5274WAT     H116341   1.621   6.235   2.586
 5274WAT     H216342   1.631   6.365   2.662
 5275WAT      O16343   1.442   6.147   3.197
 5275WAT     H116344   1.484   6.126   3.114
 5275WAT     H216345   1.514   6.173   3.254
 5276WAT      O16346   1.186   5.891   2.509
 5276WAT     H116347   1.093   5.885   2.532
 5276WAT     H216348   1.201   5.985   2.498
 5277WAT      O16349   1.184   5.519   2.209
 5277WAT     H116350   1.091   5.535   2.217
 5277WAT     H216351   1.216   5.590   2.154
 5278WAT      O16352   1.589   6.048   2.559
 5278WAT     H116353   1.527   6.014   2.495
 5278WAT     H216354   1.587   5.983   2.630
 5279WAT      O16355   1.533   5.665   3.301
 5279WAT     H116356   1.492   5.748   3.326
 5279WAT     H216357   1.460   5.607   3.282
 5280WAT      O16358   0.746   5.944   2.787
 5280WAT     H116359   0.706   5.873   2.738
 5280WAT     H216360   0.755   5.910   2.876
 5281WAT      O16361   0.793   6.313   3.004
 5281WAT     H116362   0.763   6.252   2.936
 5281WAT     H216363   0.888   6.317   2.993
 5282WAT      O16364   0.618   5.621   3.165
 5282WAT     H116365   0.673   5.632   3.088
 5282WAT     H216366   0.669   5.659   3.237
 5283WAT      O16367   1.602   6.670   3.370
 5283WAT     H116368   1.554   6.751   3.351
 5283WAT     H216369   1.534   6.605   3.385
 5284WAT      O16370   0.702   6.287   3.669
 5284WAT     H116371   0.613   6.309   3.693
 5284WAT     H216372   0.705   6.299   3.574
 5285WAT      O16373   1.406   5.971   2.260
 5285WAT     H116374   1.450   5.888   2.246
 5285WAT     H216375   1.478   6.035   2.269
 5286WAT      O16376   0.585   5.974   3.526
 5286WAT     H116377   0.571   6.061   3.563
 5286WAT     H216378   0.497   5.939   3.512
 5287WAT      O16379   1.217   6.465   2.657
 5287WAT     H116380   1.261   6.540   2.616
 5287WAT     H216381   1.211   6.490   2.749
 5288WAT      O16382   0.765   6.568   3.747
 5288WAT     H116383   0.762   6.608   3.660
 5288WAT     H216384   0.749   6.475   3.731
 5289WAT      O16385   1.765   5.097   2.092
 5289WAT     H116386   1.733   5.106   2.182
 5289WAT     H216387   1.841   5.155   2.087
 5290WAT      O16388   0.416   5.834   2.537
 5290WAT     H116389   0.404   5.906   2.476
 5290WAT     H216390   0.385   5.757   2.490
 5291WAT      O16391   1.960   6.646   3.877
 5291WAT     H116392   2.008   6.694   3.945
 5291WAT     H216393   2.022   6.639   3.804
 5292WAT      O16394   0.180   6.151   3.118
 5292WAT     H116395   0.188   6.164   3.024
 5292WAT     H216396   0.242   6.080   3.137
 5293WAT      O16397   0.305   6.321   2.759
 5293WAT     H116398   0.264   6.335   2.674
 5293WAT     H216399   0.394   6.292   2.739
 5294WAT      O16400   1.900   6.365   3.593
 5294WAT     H116401   1.913   6.341   3.501
 5294WAT     H216402   1.905   6.282   3.640
 5295WAT      O16403   1.287   6.736   3.450
 5295WAT     H116404   1.338   6.727   3.530
 5295WAT     H216405   1.202   6.770   3.479
 5296WAT      O16406   1.484   6.764   2.393
 5296WAT     H116407   1.468   6.735   2.482
 5296WAT     H216408   1.468   6.687   2.339
 5297WAT      O16409   0.732   6.742   2.570
 5297WAT     H116410   0.714   6.650   2.549
 5297WAT     H216411   0.647   6.778   2.594
 5298WAT      O16412   1.454   6.515   2.249
 5298WAT     H116413   1.385   6.515   2.183
 5298WAT     H216414   1.529   6.473   2.206
 5299WAT      O16415   1.411   6.678   2.656
 5299WAT     H116416   1.456   6.600   2.687
 5299WAT     H216417   1.445   6.749   2.710
 5300WAT      O16418   1.886   5.571   3.689
 5300WAT     H116419   1.824   5.621   3.636
 5300WAT     H216420   1.854   5.481   3.684
 5301WAT      O16421   0.186   6.255   3.372
 5301WAT     H116422   0.202   6.208   3.290
 5301WAT     H216423   0.232   6.204   3.438
 5302WAT      O16424   0.663   5.168   2.876
 5302WAT     H116425   0.619   5.246   2.842
 5302WAT     H216426   0.719   5.200   2.946
 5303WAT      O16427   1.092   5.455   3.436
 5303WAT     H116428   1.046   5.475   3.517
 5303WAT     H216429   1.052   5.373   3.406
 5304WAT      O16430   1.592   5.577   3.549
 5304WAT     H116431   1.507   5.547   3.581
 5304WAT     H216432   1.576   5.601   3.458
 5305WAT      O16433   1.301   5.727   3.759
 5305WAT     H116434   1.334   5.643   3.725
 5305WAT     H216435   1.380   5.779   3.774
 5306WAT      O16436   0.975   5.130   2.364
 5306WAT     H116437   0.912   5.130   2.436
 5306WAT     H216438   0.966   5.043   2.324
 5307WAT      O16439   0.867   5.222   3.061
 5307WAT     H116440   0.897   5.313   3.053
 5307WAT     H216441   0.922   5.174   3.000
 5308WAT      O16442   0.642   5.680   2.648
 5308WAT     H116443   0.620   5.659   2.739
 5308WAT     H216444   0.564   5.723   2.614
 5309WAT      O16445   1.365   5.681   2.508
 5309WAT     H116446   1.305   5.753   2.490
 5309WAT     H216447   1.420   5.675   2.430
 5310WAT      O16448   0.886   5.770   3.715
 5310WAT     H116449   0.877   5.676   3.700
 5310WAT     H216450   0.970   5.792   3.675
 5311WAT      O16451   1.226   5.544   2.711
 5311WAT     H116452   1.265   5.576   2.630
 5311WAT     H216453   1.262   5.457   2.723
 5312WAT      O16454   0.399   5.411   3.530
 5312WAT     H116455   0.360   5.496   3.551
 5312WAT     H216456   0.330   5.347   3.549
 5313WAT      O16457   1.057   5.420   3.837
 5313WAT     H116458   0.988   5.400   3.901
 5313WAT     H216459   1.131   5.448   3.891
 5314WAT      O16460   1.284   5.804   3.121
 5314WAT     H116461   1.211   5.854   3.156
 5314WAT     H216462   1.245   5.722   3.091
 5315WAT      O16463   0.928   5.471   2.961
 5315WAT     H116464   0.928   5.427   2.876
 5315WAT     H216465   1.018   5.503   2.972
 5316WAT      O16466   0.513   5.459   2.857
 5316WAT     H116467   0.479   5.507   2.933
 5316WAT     H216468   0.437   5.414   2.821
 5317WAT      O16469   0.934   5.571   2.260
 5317WAT     H116470   0.946   5.567   2.355
 5317WAT     H216471   0.896   5.657   2.245
 5318WAT      O16472   1.331   5.349   3.062
 5318WAT     H116473   1.332   5.394   3.146
 5318WAT     H216474   1.306   5.259   3.083
 5319WAT      O16475   0.836   5.802   2.200
 5319WAT     H116476   0.779   5.757   2.138
 5319WAT     H216477   0.906   5.838   2.147
 5320WAT      O16478   1.673   5.090   3.646
 5320WAT     H116479   1.706   5.017   3.699
 5320WAT     H216480   1.677   5.058   3.556
 5321WAT      O16481   0.343   6.192   3.588
 5321WAT     H116482   0.305   6.128   3.648
 5321WAT     H216483   0.374   6.263   3.645
 5322WAT      O16484   0.958   5.877   3.136
 5322WAT     H116485   0.995   5.830   3.211
 5322WAT     H216486   0.939   5.965   3.170
 5323WAT      O16487   0.245   5.352   2.749
 5323WAT     H116488   0.216   5.315   2.833
 5323WAT     H216489   0.238   5.278   2.688
 5324WAT      O16490   0.737   5.781   3.368
 5324WAT     H116491   0.707   5.869   3.390
 5324WAT     H216492   0.833   5.787   3.371
 5325WAT      O16493   0.590   6.202   2.428
 5325WAT     H116494   0.513   6.148   2.412
 5325WAT     H216495   0.663   6.150   2.394
 5326WAT      O16496   1.666   6.101   3.007
 5326WAT     H116497   1.738   6.151   2.968
 5326WAT     H216498   1.646   6.034   2.942
 5327WAT      O16499   1.212   5.241   2.421
 5327WAT     H116500   1.131   5.191   2.414
 5327WAT     H216501   1.193   5.325   2.379
 5328WAT      O16502   1.204   6.109   3.595
 5328WAT     H116503   1.197   6.016   3.570
 5328WAT     H216504   1.141   6.118   3.667
 5329WAT      O16505   1.483   5.678   2.251
 5329WAT     H116506   1.572   5.709   2.233
 5329WAT     H216507   1.481   5.591   2.212
 5330WAT      O16508   0.594   6.169   2.791
 5330WAT     H116509   0.646   6.088   2.786
 5330WAT     H216510   0.549   6.162   2.875
 5331WAT      O16511   1.083   6.295   2.319
 5331WAT     H116512   1.117   6.370   2.269
 5331WAT     H216513   1.000   6.327   2.355
 5332WAT      O16514   0.343   5.865   3.483
 5332WAT     H116515   0.307   5.932   3.541
 5332WAT     H216516   0.313   5.782   3.520
 5333WAT      O16517   0.663   5.911   3.771
 5333WAT     H116518   0.633   5.926   3.681
 5333WAT     H216519   0.740   5.855   3.762
 5334WAT      O16520   1.197   6.391   3.571
 5334WAT     H116521   1.199   6.298   3.549
 5334WAT     H216522   1.127   6.399   3.634
 5335WAT      O16523   1.711   5.809   2.198
 5335WAT     H116524   1.702   5.852   2.112
 5335WAT     H216525   1.783   5.855   2.241
 5336WAT      O16526   1.814   6.495   2.470
 5336WAT     H116527   1.749   6.429   2.498
 5336WAT     H216528   1.775   6.535   2.393
 5337WAT      O16529   1.371   6.227   2.855
 5337WAT     H116530   1.407   6.168   2.789
 5337WAT     H216531   1.283   6.195   2.872
 5338WAT      O16532   0.980   6.303   2.596
 5338WAT     H116533   1.049   6.358   2.634
 5338WAT     H216534   0.901   6.358   2.599
 5339WAT      O16535   0.910   6.004   2.557
 5339WAT     H116536   0.956   6.085   2.580
 5339WAT     H216537   0.875   5.972   2.640
 5340WAT      O16538   1.141   6.555   3.280
 5340WAT     H116539   1.205   6.576   3.348
 5340WAT     H216540   1.177   6.479   3.235
 5341WAT      O16541   0.500   5.038   2.604
 5341WAT     H116542   0.488   5.037   2.699
 5341WAT     H216543   0.418   5.072   2.569
 5342WAT      O16544   1.268   6.355   3.152
 5342WAT     H116545   1.332   6.285   3.163
 5342WAT     H216546   1.320   6.433   3.134
 5343WAT      O16547   1.652   6.384   2.124
 5343WAT     H116548   1.630   6.312   2.183
 5343WAT     H216549   1.613   6.359   2.040
 5344WAT      O16550   1.445   6.435   3.472
 5344WAT     H116551   1.479   6.494   3.540
 5344WAT     H216552   1.353   6.422   3.495
 5345WAT      O16553   0.231   6.786   2.202
 5345WAT     H116554   0.267   6.846   2.136
 5345WAT     H216555   0.217   6.841   2.279
 5346WAT      O16556   1.611   6.175   2.290
 5346WAT     H116557   1.582   6.222   2.369
 5346WAT     H216558   1.690   6.129   2.317
 5347WAT      O16559   0.229   6.613   3.649
 5347WAT     H116560   0.240   6.519   3.635
 5347WAT     H216561   0.164   6.639   3.584
 5348WAT      O16562   1.028   6.440   3.789
 5348WAT     H116563   0.996   6.368   3.843
 5348WAT     H216564   0.961   6.508   3.796
 5349WAT      O16565   0.832   6.525   2.283
 5349WAT     H116566   0.831   6.598   2.222
 5349WAT     H216567   0.740   6.500   2.293
 5350WAT      O16568   0.392   6.047   2.358
 5350WAT     H116569   0.332   6.121   2.359
 5350WAT     H216570   0.440   6.056   2.275
 5351WAT      O16571   1.350   5.463   3.325
 5351WAT     H116572   1.387   5.381   3.358
 5351WAT     H216573   1.264   5.469   3.367
 5352WAT      O16574   1.686   5.359   2.406
 5352WAT     H116575   1.623   5.369   2.335
 5352WAT     H216576   1.637   5.381   2.485
 5353WAT      O16577   1.131   6.531   2.150
 5353WAT     H116578   1.141   6.511   2.057
 5353WAT     H216579   1.041   6.506   2.170
 5354WAT      O16580   0.883   5.587   2.548
 5354WAT     H116581   0.812   5.634   2.592
 5354WAT     H216582   0.912   5.521   2.611
 5355WAT      O16583   1.046   5.729   3.348
 5355WAT     H116584   1.096   5.776   3.414
 5355WAT     H216585   1.060   5.636   3.368
 5356WAT      O16586   1.286   5.259   2.692
 5356WAT     H116587   1.274   5.261   2.597
 5356WAT     H216588   1.381   5.264   2.704
 5357WAT      O16589   0.995   6.783   2.619
 5357WAT     H116590   1.021   6.779   2.527
 5357WAT     H216591   0.900   6.770   2.618
 5358WAT      O16592   0.704   5.418   2.285
 5358WAT     H116593   0.788   5.461   2.279
 5358WAT     H216594   0.667   5.449   2.368
 5359WAT      O16595   1.766   5.350   3.432
 5359WAT     H116596   1.716   5.424   3.466
 5359WAT     H216597   1.848   5.389   3.400
 5360WAT      O16598   1.596   5.875   2.777
 5360WAT     H116599   1.502   5.876   2.794
 5360WAT     H216600   1.627   5.796   2.821
 5361WAT      O16601   0.593   6.043   2.133
 5361WAT     H116602   0.670   6.032   2.189
 5361WAT     H216603   0.601   5.973   2.067
 5362WAT      O16604   0.463   5.786   2.201
 5362WAT     H116605   0.471   5.691   2.212
 5362WAT     H216606   0.552   5.819   2.212
 5363WAT      O16607   1.796   6.592   2.944
 5363WAT     H116608   1.808   6.674   2.991
 5363WAT     H216609   1.883   6.571   2.909
 5364WAT      O16610   0.543   6.801   2.911
 5364WAT     H116611   0.617   6.746   2.938
 5364WAT     H216612   0.581   6.888   2.897
 5365WAT      O16613   0.444   6.720   3.830
 5365WAT     H116614   0.524   6.752   3.872
 5365WAT     H216615   0.392   6.684   3.902
 5366WAT      O16616   0.854   6.718   2.094
 5366WAT     H116617   0.933   6.747   2.048
 5366WAT     H216618   0.802   6.675   2.026
 5367WAT      O16619   1.327   6.330   3.825
 5367WAT     H116620   1.267   6.333   3.751
 5367WAT     H216621   1.297   6.257   3.879
 5368WAT      O16622   1.470   6.703   3.686
 5368WAT     H116623   1.566   6.695   3.681
 5368WAT     H216624   1.456   6.770   3.753
 5369WAT      O16625   1.759   6.641   2.236
 5369WAT     H116626   1.731   6.600   2.154
 5369WAT     H216627   1.740   6.734   2.224
 5370WAT      O16628   0.906   6.241   2.080
 5370WAT     H116629   0.895   6.179   2.153
 5370WAT     H216630   0.889   6.188   2.002
 5371WAT      O16631   0.921   6.109   3.678
 5371WAT     H116632   0.844   6.166   3.669
 5371WAT     H216633   0.939   6.080   3.589
 5372WAT      O16634   1.230   6.147   2.140
 5372WAT     H116635   1.175   6.191   2.205
 5372WAT     H216636   1.292   6.096   2.193
 5373WAT      O16637   1.635   6.282   3.734
 5373WAT     H116638   1.709   6.316   3.683
 5373WAT     H216639   1.559   6.299   3.678
 5374WAT      O16640   0.419   5.783   3.814
 5374WAT     H116641   0.423   5.753   3.905
 5374WAT     H216642   0.504   5.823   3.798
 5375WAT      O16643   0.797   6.043   2.330
 5375WAT     H116644   0.839   6.026   2.414
 5375WAT     H216645   0.809   5.962   2.281
 5376WAT      O16646   0.613   5.641   3.611
 5376WAT     H116647   0.560   5.591   3.548
 5376WAT     H216648   0.680   5.683   3.557
 5377WAT      O16649   1.048   5.945   2.055
 5377WAT     H116650   1.100   5.873   2.018
 5377WAT     H216651   1.113   6.009   2.085
 5378WAT      O16652   1.503   6.087   3.587
 5378WAT     H116653   1.544   6.103   3.672
 5378WAT     H216654   1.409   6.100   3.603
 5379WAT      O16655   1.550   5.821   3.788
 5379WAT     H116656   1.608   5.746   3.779
 5379WAT     H216657   1.568   5.874   3.710
 5380WAT      O16658   0.662   5.337   3.619
 5380WAT     H116659   0.652   5.275   3.546
 5380WAT     H216660   0.604   5.410   3.596
 5381WAT      O16661   0.938   5.193   3.322
 5381WAT     H116662   0.893   5.195   3.237
 5381WAT     H216663   0.875   5.153   3.382
 5382WAT      O16664   0.979   6.082   3.384
 5382WAT     H116665   1.021   6.167   3.367
 5382WAT     H216666   0.887   6.096   3.361
 5383WAT      O16667   1.212   5.856   3.523
 5383WAT     H116668   1.224   5.796   3.596
 5383WAT     H216669   1.298   5.859   3.481
 5384WAT      O16670   1.446   5.911   3.380
 5384WAT     H116671   1.394   5.963   3.320
 5384WAT     H216672   1.481   5.974   3.443
 5385WAT      O16673   0.686   5.650   2.025
 5385WAT     H116674   0.666   5.564   2.061
 5385WAT     H216675   0.669   5.641   1.931
 5386WAT      O16676   0.764   6.713   3.496
 5386WAT     H116677   0.710   6.785   3.464
 5386WAT     H216678   0.789   6.665   3.417
 5387WAT      O16679   0.889   5.510   3.648
 5387WAT     H116680   0.948   5.479   3.717
 5387WAT     H216681   0.807   5.463   3.664
 5388WAT      O16682   1.371   5.472   3.672
 5388WAT     H116683   1.302   5.405   3.665
 5388WAT     H216684   1.443   5.427   3.716
 5389WAT      O16685   1.434   5.131   2.278
 5389WAT     H116686   1.462   5.047   2.313
 5389WAT     H216687   1.357   5.154   2.329
 5390WAT      O16688   0.566   5.360   2.023
 5390WAT     H116689   0.596   5.361   1.933
 5390WAT     H216690   0.640   5.325   2.073
 5391WAT      O16691   1.050   6.837   3.522
 5391WAT     H116692   1.042   6.927   3.552
 5391WAT     H216693   0.959   6.805   3.519
 5392WAT      O16694   0.888   5.254   2.122
 5392WAT     H116695   0.853   5.187   2.064
 5392WAT     H216696   0.908   5.208   2.203
 5393WAT      O16697   1.104   6.753   2.284
 5393WAT     H116698   1.194   6.787   2.286
 5393WAT     H216699   1.108   6.681   2.221
 5394WAT      O16700   0.468   6.290   2.107
 5394WAT     H116701   0.512   6.345   2.172
 5394WAT     H216702   0.517   6.208   2.108
 5395WAT      O16703   0.190   6.569   2.852
 5395WAT     H116704   0.223   6.482   2.829
 5395WAT     H216705   0.233   6.590   2.935
 5396WAT      O16706   0.649   6.402   2.618
 5396WAT     H116707   0.619   6.390   2.708
 5396WAT     H216708   0.639   6.316   2.577
 5397WAT      O16709   0.239   6.656   3.126
 5397WAT     H116710   0.195   6.674   3.209
 5397WAT     H216711   0.295   6.732   3.112
 5398WAT      O16712   1.802   6.606   3.555
 5398WAT     H116713   1.742   6.612   3.480
 5398WAT     H216714   1.815   6.512   3.567
 5399WAT      O16715   1.926   6.380   2.088
 5399WAT     H116716   1.843   6.387   2.135
 5399WAT     H216717   1.944   6.469   2.058
 5400WAT      O16718   1.872   6.055   2.339
 5400WAT     H116719   1.948   6.112   2.349
 5400WAT     H216720   1.873   5.998   2.416
 5401WAT      O16721   1.973   6.140   2.823
 5401WAT     H116722   2.010   6.062   2.782
 5401WAT     H216723   2.037   6.209   2.805
 5402WAT      O16724   1.671   6.279   3.364
 5402WAT     H116725   1.589   6.322   3.391
 5402WAT     H216726   1.712   6.340   3.303
 5403WAT      O16727   1.877   6.084   2.054
 5403WAT     H116728   1.905   6.175   2.041
 5403WAT     H216729   1.858   6.078   2.148
 5404WAT      O16730   1.517   5.387   2.184
 5404WAT     H116731   1.559   5.368   2.100
 5404WAT     H216732   1.486   5.301   2.215
 5405WAT      O16733   1.867   5.878   2.554
 5405WAT     H116734   1.829   5.801   2.510
 5405WAT     H216735   1.794   5.916   2.602
 5406WAT      O16736   0.326   5.946   3.216
 5406WAT     H116737   0.362   5.937   3.304
 5406WAT     H216738   0.269   5.869   3.206
 5407WAT      O16739   0.281   5.637   3.606
 5407WAT     H116740   0.191   5.633   3.640
 5407WAT     H216741   0.335   5.657   3.683
 5408WAT      O16742   1.650   5.315   3.795
 5408WAT     H116743   1.737   5.316   3.833
 5408WAT     H216744   1.651   5.241   3.734
 5409WAT      O16745   1.794   5.700   2.884
 5409WAT     H116746   1.847   5.651   2.821
 5409WAT     H216747   1.853   5.714   2.958
 5410WAT      O16748   0.398   5.534   2.147
 5410WAT     H116749   0.469   5.492   2.098
 5410WAT     H216750   0.326   5.541   2.084
 5411WAT      O16751   0.362   5.139   2.051
 5411WAT     H116752   0.435   5.193   2.083
 5411WAT     H216753   0.390   5.112   1.963
 5412WAT      O16754   1.743   5.626   2.478
 5412WAT     H116755   1.793   5.603   2.556
 5412WAT     H216756   1.723   5.542   2.436
 5413WAT      O16757   0.331   5.064   3.041
 5413WAT     H116758   0.396   5.009   2.997
 5413WAT     H216759   0.373   5.090   3.123
 5414WAT      O16760   1.886   5.490   2.731
 5414WAT     H116761   1.875   5.474   2.825
 5414WAT     H216762   1.962   5.437   2.707
 5415WAT      O16763   1.721   5.084   3.377
 5415WAT     H116764   1.785   5.145   3.413
 5415WAT     H216765   1.736   5.087   3.282
 5416WAT      O16766   1.975   5.273   2.055
 5416WAT     H116767   2.068   5.260   2.034
 5416WAT     H216768   1.973   5.281   2.150
 5417WAT      O16769   1.982   5.350   2.318
 5417WAT     H116770   1.903   5.343   2.370
 5417WAT     H216771   2.003   5.443   2.316
 5418WAT      O16772   1.677   6.754   2.717
 5418WAT     H116773   1.736   6.722   2.649
 5418WAT     H216774   1.702   6.707   2.796
 5419WAT      O16775   0.307   5.080   3.315
 5419WAT     H116776   0.272   5.125   3.392
 5419WAT     H216777   0.273   4.990   3.324
 5420WAT      O16778   0.467   6.397   3.732
 5420WAT     H116779   0.463   6.360   3.820
 5420WAT     H216780   0.480   6.491   3.746
 5421WAT      O16781   0.837   6.553   3.292
 5421WAT     H116782   0.813   6.579   3.203
 5421WAT     H216783   0.931   6.570   3.297
 5422WAT      O16784   1.058   5.199   3.668
 5422WAT     H116785   1.052   5.258   3.742
 5422WAT     H216786   1.152   5.188   3.653
 5423WAT      O16787   1.322   5.165   3.631
 5423WAT     H116788   1.383   5.196   3.565
 5423WAT     H216789   1.376   5.116   3.693
 5424WAT      O16790   1.963   6.755   3.372
 5424WAT     H116791   1.914   6.794   3.300
 5424WAT     H216792   1.902   6.692   3.411
 5425WAT      O16793   0.374   5.033   3.643
 5425WAT     H116794   0.429   5.014   3.566
 5425WAT     H216795   0.380   4.954   3.696
 5426WAT      O16796   0.451   6.692   3.444
 5426WAT     H116797   0.392   6.678   3.518
 5426WAT     H216798   0.450   6.608   3.397
 5427WAT      O16799   1.396   5.021   3.264
 5427WAT     H116800   1.308   5.054   3.244
 5427WAT     H216801   1.385   4.974   3.347
 5428WAT      O16802   1.486   5.242   3.403
 5428WAT     H116803   1.454   5.160   3.365
 5428WAT     H216804   1.581   5.237   3.390
 5429WAT      O16805   1.732   6.819   3.100
 5429WAT     H116806   1.686   6.894   3.063
 5429WAT     H216807   1.669   6.747   3.094
 5430WAT      O16808   0.414   6.428   3.339
 5430WAT     H116809   0.342   6.366   3.332
 5430WAT     H216810   0.420   6.468   3.252
 5431WAT      O16811   0.775   6.650   3.017
 5431WAT     H116812   0.826   6.589   2.965
 5431WAT     H216813   0.840   6.700   3.067
 5432WAT      O16814   1.049   6.739   3.100
 5432WAT     H116815   1.077   6.713   3.012
 5432WAT     H216816   1.100   6.684   3.159
 5433WAT      O16817   1.170   5.113   3.158
 5433WAT     H116818   1.092   5.160   3.186
 5433WAT     H216819   1.141   5.022   3.147
 5434WAT      O16820   1.626   5.183   2.963
 5434WAT     H116821   1.670   5.177   2.878
 5434WAT     H216822   1.599   5.274   2.970
 5435WAT      O16823   1.812   5.146   2.764
 5435WAT     H116824   1.806   5.052   2.749
 5435WAT     H216825   1.890   5.157   2.818
 5436WAT      O16826   0.305   5.143   2.410
 5436WAT     H116827   0.381   5.154   2.353
 5436WAT     H216828   0.259   5.227   2.406
 5437WAT      O16829   0.959   5.355   2.709
 5437WAT     H116830   0.878   5.317   2.675
 5437WAT     H216831   1.009   5.279   2.739
 5438WAT      O16832   1.409   5.021   2.833
 5438WAT     H116833   1.470   5.078   2.881
 5438WAT     H216834   1.335   5.077   2.811
 5439WAT      O16835   1.724   5.061   2.360
 5439WAT     H116836   1.743   5.151   2.387
 5439WAT     H216837   1.645   5.038   2.410
 5440WAT      O16838   0.403   6.629   2.404
 5440WAT     H116839   0.351   6.667   2.334
 5440WAT     H216840   0.396   6.692   2.476
 5441WAT      O16841   0.542   5.196   2.264
 5441WAT     H116842   0.595   5.117   2.251
 5441WAT     H216843   0.605   5.264   2.288
 5442WAT      O16844   0.761   5.170   2.570
 5442WAT     H116845   0.698   5.099   2.586
 5442WAT     H216846   0.708   5.246   2.548
 5443WAT      O16847   1.055   6.831   3.837
 5443WAT     H116848   1.148   6.807   3.841
 5443WAT     H216849   1.054   6.914   3.789
 5444WAT      O16850   1.879   6.785   2.537
 5444WAT     H116851   1.896   6.717   2.472
 5444WAT     H216852   1.809   6.838   2.497
 5445WAT      O16853   0.774   5.097   3.813
 5445WAT     H116854   0.746   5.148   3.737
 5445WAT     H216855   0.812   5.018   3.777
 5446WAT      O16856   0.663   6.824   2.292
 5446WAT     H116857   0.736   6.796   2.237
 5446WAT     H216858   0.689   6.800   2.381
 5447WAT      O16859   0.579   6.436   2.292
 5447WAT     H116860   0.516   6.483   2.347
 5447WAT     H216861   0.591   6.351   2.336
 5448WAT      O16862   1.434   5.039   3.871
 5448WAT     H116863   1.423   5.071   3.961
 5448WAT     H216864   1.516   5.079   3.841
 5449WAT      O16865   1.712   6.754   3.819
 5449WAT     H116866   1.791   6.704   3.798
 5449WAT     H216867   1.741   6.822   3.880
 5450WAT      O16868   1.325   5.841   0.907
 5450WAT     H116869   1.317   5.749   0.880
 5450WAT     H216870   1.283   5.891   0.837
 5451WAT      O16871   1.138   6.019   1.095
 5451WAT     H116872   1.060   5.971   1.124
 5451WAT     H216873   1.203   5.951   1.078
 5452WAT      O16874   0.540   6.050   1.183
 5452WAT     H116875   0.456   6.024   1.223
 5452WAT     H216876   0.600   6.057   1.257
 5453WAT      O16877   1.540   6.459   0.973
 5453WAT     H116878   1.494   6.382   1.006
 5453WAT     H216879   1.621   6.462   1.024
 5454WAT      O16880   0.538   6.453   1.203
 5454WAT     H116881   0.568   6.364   1.185
 5454WAT     H216882   0.612   6.509   1.180
 5455WAT      O16883   0.380   5.546   0.562
 5455WAT     H116884   0.292   5.580   0.551
 5455WAT     H216885   0.409   5.526   0.472
 5456WAT      O16886   0.177   5.806   1.150
 5456WAT     H116887   0.234   5.729   1.150
 5456WAT     H216888   0.177   5.836   1.059
 5457WAT      O16889   1.163   6.688   0.935
 5457WAT     H116890   1.101   6.733   0.878
 5457WAT     H216891   1.248   6.703   0.895
 5458WAT      O16892   1.082   6.286   1.096
 5458WAT     H116893   1.075   6.192   1.080
 5458WAT     H216894   1.158   6.295   1.153
 5459WAT      O16895   0.301   5.347   1.329
 5459WAT     H116896   0.283   5.257   1.357
 5459WAT     H216897   0.261   5.401   1.396
 5460WAT      O16898   1.185   5.567   1.119
 5460WAT     H116899   1.223   5.480   1.108
 5460WAT     H216900   1.175   5.600   1.030
 5461WAT      O16901   0.598   5.404   0.665
 5461WAT     H116902   0.609   5.494   0.696
 5461WAT     H216903   0.507   5.399   0.636
 5462WAT      O16904   1.563   5.316   0.812
 5462WAT     H116905   1.645   5.267   0.816
 5462WAT     H216906   1.567   5.375   0.887
 5463WAT      O16907   0.363   5.596   1.190
 5463WAT     H116908   0.431   5.623   1.251
 5463WAT     H216909   0.331   5.512   1.223
 5464WAT      O16910   0.782   5.701   1.098
 5464WAT     H116911   0.833   5.751   1.162
 5464WAT     H216912   0.835   5.623   1.081
 5465WAT      O16913   1.992   5.518   1.469
 5465WAT     H116914   1.922   5.557   1.417
 5465WAT     H216915   2.019   5.588   1.529
 5466WAT      O16916   0.611   5.165   1.525
 5466WAT     H116917   0.611   5.217   1.444
 5466WAT     H216918   0.528   5.117   1.523
 5467WAT      O16919   1.249   6.176   0.675
 5467WAT     H116920   1.187   6.223   0.618
 5467WAT     H216921   1.300   6.245   0.716
 5468WAT      O16922   0.736   6.129   1.343
 5468WAT     H116923   0.702   6.192   1.407
 5468WAT     H216924   0.753   6.182   1.265
 5469WAT      O16925   1.587   5.510   1.089
 5469WAT     H116926   1.516   5.539   1.147
 5469WAT     H216927   1.623   5.591   1.053
 5470WAT      O16928   0.579   5.336   1.326
 5470WAT     H116929   0.613   5.421   1.296
 5470WAT     H216930   0.485   5.351   1.337
 5471WAT      O16931   0.657   6.326   1.524
 5471WAT     H116932   0.719   6.393   1.496
 5471WAT     H216933   0.571   6.367   1.515
 5472WAT      O16934   1.749   6.472   1.316
 5472WAT     H116935   1.680   6.539   1.315
 5472WAT     H216936   1.802   6.492   1.239
 5473WAT      O16937   1.894   5.455   1.128
 5473WAT     H116938   1.799   5.458   1.142
 5473WAT     H216939   1.926   5.536   1.167
 5474WAT      O16940   0.947   5.085   0.958
 5474WAT     H116941   0.978   5.029   0.886
 5474WAT     H216942   0.854   5.098   0.940
 5475WAT      O16943   1.502   6.657   1.187
 5475WAT     H116944   1.503   6.616   1.100
 5475WAT     H216945   1.447   6.734   1.177
 5476WAT      O16946   1.632   6.329   0.696
 5476WAT     H116947   1.621   6.235   0.709
 5476WAT     H216948   1.631   6.365   0.785
 5477WAT      O16949   1.442   6.147   1.320
 5477WAT     H116950   1.484   6.126   1.236
 5477WAT     H216951   1.514   6.173   1.377
 5478WAT      O16952   1.186   5.891   0.632
 5478WAT     H116953   1.093   5.885   0.655
 5478WAT     H216954   1.201   5.985   0.620
 5479WAT      O16955   1.184   5.519   0.331
 5479WAT     H116956   1.091   5.535   0.340
 5479WAT     H216957   1.216   5.590   0.277
 5480WAT      O16958   1.837   5.987   1.329
 5480WAT     H116959   1.754   5.994   1.282
 5480WAT     H216960   1.896   6.045   1.282
 5481WAT      O16961   1.589   6.048   0.682
 5481WAT     H116962   1.527   6.014   0.617
 5481WAT     H216963   1.587   5.983   0.753
 5482WAT      O16964   1.533   5.665   1.424
 5482WAT     H116965   1.492   5.748   1.449
 5482WAT     H216966   1.460   5.607   1.404
 5483WAT      O16967   0.746   5.944   0.910
 5483WAT     H116968   0.706   5.873   0.860
 5483WAT     H216969   0.755   5.910   0.999
 5484WAT      O16970   0.793   6.313   1.126
 5484WAT     H116971   0.763   6.252   1.058
 5484WAT     H216972   0.888   6.317   1.115
 5485WAT      O16973   0.618   5.621   1.288
 5485WAT     H116974   0.673   5.632   1.210
 5485WAT     H216975   0.669   5.659   1.359
 5486WAT      O16976   1.602   6.670   1.492
 5486WAT     H116977   1.554   6.751   1.473
 5486WAT     H216978   1.534   6.605   1.508
 5487WAT      O16979   0.702   6.287   1.791
 5487WAT     H116980   0.613   6.309   1.816
 5487WAT     H216981   0.705   6.299   1.696
 5488WAT      O16982   1.406   5.971   0.383
 5488WAT     H116983   1.450   5.888   0.368
 5488WAT     H216984   1.478   6.035   0.391
 5489WAT      O16985   0.585   5.974   1.649
 5489WAT     H116986   0.571   6.061   1.686
 5489WAT     H216987   0.497   5.939   1.634
 5490WAT      O16988   1.217   6.465   0.780
 5490WAT     H116989   1.261   6.540   0.738
 5490WAT     H216990   1.211   6.490   0.872
 5491WAT      O16991   0.765   6.568   1.870
 5491WAT     H116992   0.762   6.608   1.783
 5491WAT     H216993   0.749   6.475   1.853
 5492WAT      O16994   1.765   5.097   0.214
 5492WAT     H116995   1.733   5.106   0.304
 5492WAT     H216996   1.841   5.155   0.209
 5493WAT      O16997   0.416   5.834   0.660
 5493WAT     H116998   0.404   5.906   0.599
 5493WAT     H216999   0.385   5.757   0.612
 5494WAT      O17000   1.960   6.646   1.999
 5494WAT     H117001   2.008   6.694   2.067
 5494WAT     H217002   2.022   6.639   1.927
 5495WAT      O17003   0.180   6.151   1.241
 5495WAT     H117004   0.188   6.164   1.146
 5495WAT     H217005   0.242   6.080   1.260
 5496WAT      O17006   0.305   6.321   0.882
 5496WAT     H117007   0.264   6.335   0.796
 5496WAT     H217008   0.394   6.292   0.861
 5497WAT      O17009   1.900   6.365   1.715
 5497WAT     H117010   1.913   6.341   1.624
 5497WAT     H217011   1.905   6.282   1.763
 5498WAT      O17012   1.287   6.736   1.572
 5498WAT     H117013   1.338   6.727   1.653
 5498WAT     H217014   1.202   6.770   1.602
 5499WAT      O17015   1.484   6.764   0.515
 5499WAT     H117016   1.468   6.735   0.605
 5499WAT     H217017   1.468   6.687   0.462
 5500WAT      O17018   0.732   6.742   0.693
 5500WAT     H117019   0.714   6.650   0.672
 5500WAT     H217020   0.647   6.778   0.717
 5501WAT      O17021   1.454   6.515   0.371
 5501WAT     H117022   1.385   6.515   0.305
 5501WAT     H217023   1.529   6.473   0.328
 5502WAT      O17024   1.411   6.678   0.779
 5502WAT     H117025   1.456   6.600   0.810
 5502WAT     H217026   1.445   6.749   0.833
 5503WAT      O17027   1.886   5.571   1.812
 5503WAT     H117028   1.824   5.621   1.759
 5503WAT     H217029   1.854   5.481   1.806
 5504WAT      O17030   0.186   6.255   1.495
 5504WAT     H117031   0.202   6.208   1.413
 5504WAT     H217032   0.232   6.204   1.561
 5505WAT      O17033   0.663   5.168   0.998
 5505WAT     H117034   0.619   5.246   0.965
 5505WAT     H217035   0.719   5.200   1.069
 5506WAT      O17036   1.092   5.455   1.558
 5506WAT     H117037   1.046   5.475   1.640
 5506WAT     H217038   1.052   5.373   1.528
 5507WAT      O17039   1.592   5.577   1.671
 5507WAT     H117040   1.507   5.547   1.704
 5507WAT     H217041   1.576   5.601   1.580
 5508WAT      O17042   1.301   5.727   1.881
 5508WAT     H117043   1.334   5.643   1.847
 5508WAT     H217044   1.380   5.779   1.896
 5509WAT      O17045   0.975   5.130   0.486
 5509WAT     H117046   0.912   5.130   0.559
 5509WAT     H217047   0.966   5.043   0.447
 5510WAT      O17048   0.867   5.222   1.184
 5510WAT     H117049   0.897   5.313   1.176
 5510WAT     H217050   0.922   5.174   1.123
 5511WAT      O17051   0.642   5.680   0.771
 5511WAT     H117052   0.620   5.659   0.861
 5511WAT     H217053   0.564   5.723   0.736
 5512WAT      O17054   1.365   5.681   0.631
 5512WAT     H117055   1.305   5.753   0.612
 5512WAT     H217056   1.420   5.675   0.553
 5513WAT      O17057   0.886   5.770   1.838
 5513WAT     H117058   0.877   5.676   1.823
 5513WAT     H217059   0.970   5.792   1.798
 5514WAT      O17060   1.226   5.544   0.834
 5514WAT     H117061   1.265   5.576   0.753
 5514WAT     H217062   1.262   5.457   0.845
 5515WAT      O17063   0.399   5.411   1.653
 5515WAT     H117064   0.360   5.496   1.674
 5515WAT     H217065   0.330   5.347   1.672
 5516WAT      O17066   1.057   5.420   1.960
 5516WAT     H117067   0.988   5.400   2.023
 5516WAT     H217068   1.131   5.448   2.013
 5517WAT      O17069   1.284   5.804   1.243
 5517WAT     H117070   1.211   5.854   1.278
 5517WAT     H217071   1.245   5.722   1.213
 5518WAT      O17072   0.928   5.471   1.084
 5518WAT     H117073   0.928   5.427   0.999
 5518WAT     H217074   1.018   5.503   1.095
 5519WAT      O17075   0.513   5.459   0.980
 5519WAT     H117076   0.479   5.507   1.056
 5519WAT     H217077   0.437   5.414   0.944
 5520WAT      O17078   0.934   5.571   0.383
 5520WAT     H117079   0.946   5.567   0.478
 5520WAT     H217080   0.896   5.657   0.367
 5521WAT      O17081   1.331   5.349   1.185
 5521WAT     H117082   1.332   5.394   1.269
 5521WAT     H217083   1.306   5.259   1.206
 5522WAT      O17084   0.836   5.802   0.323
 5522WAT     H117085   0.779   5.757   0.260
 5522WAT     H217086   0.906   5.838   0.269
 5523WAT      O17087   1.673   5.090   1.768
 5523WAT     H117088   1.706   5.017   1.821
 5523WAT     H217089   1.677   5.058   1.678
 5524WAT      O17090   0.343   6.192   1.710
 5524WAT     H117091   0.305   6.128   1.770
 5524WAT     H217092   0.374   6.263   1.767
 5525WAT      O17093   0.958   5.877   1.259
 5525WAT     H117094   0.995   5.830   1.333
 5525WAT     H217095   0.939   5.965   1.293
 5526WAT      O17096   0.245   5.352   0.872
 5526WAT     H117097   0.216   5.315   0.955
 5526WAT     H217098   0.238   5.278   0.810
 5527WAT      O17099   0.737   5.781   1.490
 5527WAT     H117100   0.707   5.869   1.513
 5527WAT     H217101   0.833   5.787   1.494
 5528WAT      O17102   0.590   6.202   0.550
 5528WAT     H117103   0.513   6.148   0.534
 5528WAT     H217104   0.663   6.150   0.516
 5529WAT      O17105   1.666   6.101   1.129
 5529WAT     H117106   1.738   6.151   1.090
 5529WAT     H217107   1.646   6.034   1.065
 5530WAT      O17108   1.212   5.241   0.544
 5530WAT     H117109   1.131   5.191   0.536
 5530WAT     H217110   1.193   5.325   0.502
 5531WAT      O17111   1.204   6.109   1.718
 5531WAT     H117112   1.197   6.016   1.693
 5531WAT     H217113   1.141   6.118   1.789
 5532WAT      O17114   1.483   5.678   0.373
 5532WAT     H117115   1.572   5.709   0.356
 5532WAT     H217116   1.481   5.591   0.334
 5533WAT      O17117   0.594   6.169   0.914
 5533WAT     H117118   0.646   6.088   0.908
 5533WAT     H217119   0.549   6.162   0.998
 5534WAT      O17120   1.083   6.295   0.441
 5534WAT     H117121   1.117   6.370   0.392
 5534WAT     H217122   1.000   6.327   0.477
 5535WAT      O17123   0.343   5.865   1.605
 5535WAT     H117124   0.307   5.932   1.664
 5535WAT     H217125   0.313   5.782   1.642
 5536WAT      O17126   0.663   5.911   1.894
 5536WAT     H117127   0.633   5.926   1.804
 5536WAT     H217128   0.740   5.855   1.884
 5537WAT      O17129   1.197   6.391   1.693
 5537WAT     H117130   1.199   6.298   1.671
 5537WAT     H217131   1.127   6.399   1.757
 5538WAT      O17132   1.711   5.809   0.320
 5538WAT     H117133   1.702   5.852   0.235
 5538WAT     H217134   1.783   5.855   0.363
 5539WAT      O17135   1.818   6.055   1.628
 5539WAT     H117136   1.746   6.114   1.608
 5539WAT     H217137   1.871   6.054   1.548
 5540WAT      O17138   1.814   6.495   0.593
 5540WAT     H117139   1.749   6.429   0.620
 5540WAT     H217140   1.775   6.535   0.515
 5541WAT      O17141   1.371   6.227   0.978
 5541WAT     H117142   1.407   6.168   0.912
 5541WAT     H217143   1.283   6.195   0.995
 5542WAT      O17144   0.980   6.303   0.718
 5542WAT     H117145   1.049   6.358   0.756
 5542WAT     H217146   0.901   6.358   0.722
 5543WAT      O17147   0.910   6.004   0.680
 5543WAT     H117148   0.956   6.085   0.702
 5543WAT     H217149   0.875   5.972   0.763
 5544WAT      O17150   1.141   6.555   1.402
 5544WAT     H117151   1.205   6.576   1.470
 5544WAT     H217152   1.177   6.479   1.357
 5545WAT      O17153   0.500   5.038   0.727
 5545WAT     H117154   0.488   5.037   0.822
 5545WAT     H217155   0.418   5.072   0.692
 5546WAT      O17156   1.268   6.355   1.274
 5546WAT     H117157   1.332   6.285   1.286
 5546WAT     H217158   1.320   6.433   1.256
 5547WAT      O17159   1.652   6.384   0.247
 5547WAT     H117160   1.630   6.312   0.306
 5547WAT     H217161   1.613   6.359   0.163
 5548WAT      O17162   1.445   6.435   1.595
 5548WAT     H117163   1.479   6.494   1.662
 5548WAT     H217164   1.353   6.422   1.618
 5549WAT      O17165   0.231   6.786   0.324
 5549WAT     H117166   0.267   6.846   0.259
 5549WAT     H217167   0.217   6.841   0.401
 5550WAT      O17168   1.611   6.175   0.413
 5550WAT     H117169   1.582   6.222   0.492
 5550WAT     H217170   1.690   6.129   0.440
 5551WAT      O17171   0.229   6.613   1.772
 5551WAT     H117172   0.240   6.519   1.757
 5551WAT     H217173   0.164   6.639   1.707
 5552WAT      O17174   1.028   6.440   1.912
 5552WAT     H117175   0.996   6.368   1.966
 5552WAT     H217176   0.961   6.508   1.919
 5553WAT      O17177   0.832   6.525   0.406
 5553WAT     H117178   0.831   6.598   0.344
 5553WAT     H217179   0.740   6.500   0.415
 5554WAT      O17180   0.392   6.047   0.480
 5554WAT     H117181   0.332   6.121   0.481
 5554WAT     H217182   0.440   6.056   0.398
 5555WAT      O17183   1.350   5.463   1.448
 5555WAT     H117184   1.387   5.381   1.481
 5555WAT     H217185   1.264   5.469   1.489
 5556WAT      O17186   1.686   5.359   0.529
 5556WAT     H117187   1.623   5.369   0.457
 5556WAT     H217188   1.637   5.381   0.608
 5557WAT      O17189   1.131   6.531   0.272
 5557WAT     H117190   1.141   6.511   0.179
 5557WAT     H217191   1.041   6.506   0.293
 5558WAT      O17192   0.883   5.587   0.670
 5558WAT     H117193   0.812   5.634   0.714
 5558WAT     H217194   0.912   5.521   0.734
 5559WAT      O17195   1.046   5.729   1.470
 5559WAT     H117196   1.096   5.776   1.537
 5559WAT     H217197   1.060   5.636   1.491
 5560WAT      O17198   1.286   5.259   0.814
 5560WAT     H117199   1.274   5.261   0.719
 5560WAT     H217200   1.381   5.264   0.826
 5561WAT      O17201   0.995   6.783   0.742
 5561WAT     H117202   1.021   6.779   0.649
 5561WAT     H217203   0.900   6.770   0.741
 5562WAT      O17204   0.704   5.418   0.408
 5562WAT     H117205   0.788   5.461   0.401
 5562WAT     H217206   0.667   5.449   0.491
 5563WAT      O17207   1.766   5.350   1.555
 5563WAT     H117208   1.716   5.424   1.588
 5563WAT     H217209   1.848   5.389   1.523
 5564WAT      O17210   1.596   5.875   0.899
 5564WAT     H117211   1.502   5.876   0.917
 5564WAT     H217212   1.627   5.796   0.944
 5565WAT      O17213   0.593   6.043   0.255
 5565WAT     H117214   0.670   6.032   0.311
 5565WAT     H217215   0.601   5.973   0.190
 5566WAT      O17216   0.463   5.786   0.324
 5566WAT     H117217   0.471   5.691   0.335
 5566WAT     H217218   0.552   5.819   0.334
 5567WAT      O17219   1.796   6.592   1.067
 5567WAT     H117220   1.808   6.674   1.114
 5567WAT     H217221   1.883   6.571   1.032
 5568WAT      O17222   0.543   6.801   1.034
 5568WAT     H117223   0.617   6.746   1.061
 5568WAT     H217224   0.581   6.888   1.020
 5569WAT      O17225   0.444   6.720   1.953
 5569WAT     H117226   0.524   6.752   1.994
 5569WAT     H217227   0.392   6.684   2.025
 5570WAT      O17228   0.854   6.718   0.216
 5570WAT     H117229   0.933   6.747   0.171
 5570WAT     H217230   0.802   6.675   0.148
 5571WAT      O17231   1.327   6.330   1.947
 5571WAT     H117232   1.267   6.333   1.873
 5571WAT     H217233   1.297   6.257   2.001
 5572WAT      O17234   1.470   6.703   1.809
 5572WAT     H117235   1.566   6.695   1.804
 5572WAT     H217236   1.456   6.770   1.876
 5573WAT      O17237   1.759   6.641   0.358
 5573WAT     H117238   1.731   6.600   0.277
 5573WAT     H217239   1.740   6.734   0.346
 5574WAT      O17240   0.921   6.109   1.800
 5574WAT     H117241   0.844   6.166   1.792
 5574WAT     H217242   0.939   6.080   1.711
 5575WAT      O17243   1.230   6.147   0.263
 5575WAT     H117244   1.175   6.191   0.327
 5575WAT     H217245   1.292   6.096   0.315
 5576WAT      O17246   1.635   6.282   1.856
 5576WAT     H117247   1.709   6.316   1.806
 5576WAT     H217248   1.559   6.299   1.801
 5577WAT      O17249   0.419   5.783   1.937
 5577WAT     H117250   0.423   5.753   2.027
 5577WAT     H217251   0.504   5.823   1.921
 5578WAT      O17252   0.797   6.043   0.453
 5578WAT     H117253   0.839   6.026   0.537
 5578WAT     H217254   0.809   5.962   0.403
 5579WAT      O17255   0.613   5.641   1.733
 5579WAT     H117256   0.560   5.591   1.671
 5579WAT     H217257   0.680   5.683   1.680
 5580WAT      O17258   1.503   6.087   1.710
 5580WAT     H117259   1.544   6.103   1.795
 5580WAT     H217260   1.409   6.100   1.726
 5581WAT      O17261   1.550   5.821   1.910
 5581WAT     H117262   1.608   5.746   1.901
 5581WAT     H217263   1.568   5.874   1.832
 5582WAT      O17264   0.662   5.337   1.741
 5582WAT     H117265   0.652   5.275   1.669
 5582WAT     H217266   0.604   5.410   1.719
 5583WAT      O17267   0.938   5.193   1.445
 5583WAT     H117268   0.893   5.195   1.360
 5583WAT     H217269   0.875   5.153   1.504
 5584WAT      O17270   0.979   6.082   1.507
 5584WAT     H117271   1.021   6.167   1.489
 5584WAT     H217272   0.887   6.096   1.484
 5585WAT      O17273   1.212   5.856   1.645
 5585WAT     H117274   1.224   5.796   1.719
 5585WAT     H217275   1.298   5.859   1.603
 5586WAT      O17276   1.446   5.911   1.503
 5586WAT     H117277   1.394   5.963   1.442
 5586WAT     H217278   1.481   5.974   1.566
 5587WAT      O17279   0.764   6.713   1.618
 5587WAT     H117280   0.710   6.785   1.586
 5587WAT     H217281   0.789   6.665   1.539
 5588WAT      O17282   0.889   5.510   1.771
 5588WAT     H117283   0.948   5.479   1.840
 5588WAT     H217284   0.807   5.463   1.786
 5589WAT      O17285   1.371   5.472   1.794
 5589WAT     H117286   1.302   5.405   1.788
 5589WAT     H217287   1.443   5.427   1.839
 5590WAT      O17288   1.434   5.131   0.400
 5590WAT     H117289   1.462   5.047   0.436
 5590WAT     H217290   1.357   5.154   0.451
 5591WAT      O17291   1.050   6.837   1.644
 5591WAT     H117292   1.042   6.927   1.675
 5591WAT     H217293   0.959   6.805   1.641
 5592WAT      O17294   0.888   5.254   0.245
 5592WAT     H117295   0.853   5.187   0.187
 5592WAT     H217296   0.908   5.208   0.326
 5593WAT      O17297   1.104   6.753   0.406
 5593WAT     H117298   1.194   6.787   0.409
 5593WAT     H217299   1.108   6.681   0.344
 5594WAT      O17300   0.468   6.290   0.229
 5594WAT     H117301   0.512   6.345   0.295
 5594WAT     H217302   0.517   6.208   0.230
 5595WAT      O17303   0.190   6.569   0.974
 5595WAT     H117304   0.223   6.482   0.951
 5595WAT     H217305   0.233   6.590   1.058
 5596WAT      O17306   0.649   6.402   0.740
 5596WAT     H117307   0.619   6.390   0.831
 5596WAT     H217308   0.639   6.316   0.700
 5597WAT      O17309   0.239   6.656   1.248
 5597WAT     H117310   0.195   6.674   1.332
 5597WAT     H217311   0.295   6.732   1.234
 5598WAT      O17312   1.802   6.606   1.677
 5598WAT     H117313   1.742   6.612   1.603
 5598WAT     H217314   1.815   6.512   1.690
 5599WAT      O17315   1.926   6.380   0.211
 5599WAT     H117316   1.843   6.387   0.258
 5599WAT     H217317   1.944   6.469   0.180
 5600WAT      O17318   1.872   6.055   0.461
 5600WAT     H117319   1.948   6.112   0.472
 5600WAT     H217320   1.873   5.998   0.538
 5601WAT      O17321   1.973   6.140   0.946
 5601WAT     H117322   2.010   6.062   0.905
 5601WAT     H217323   2.037   6.209   0.928
 5602WAT      O17324   1.671   6.279   1.487
 5602WAT     H117325   1.589   6.322   1.513
 5602WAT     H217326   1.712   6.340   1.426
 5603WAT      O17327   1.877   6.084   0.177
 5603WAT     H117328   1.905   6.175   0.164
 5603WAT     H217329   1.858   6.078   0.270
 5604WAT      O17330   1.517   5.387   0.306
 5604WAT     H117331   1.559   5.368   0.222
 5604WAT     H217332   1.486   5.301   0.337
 5605WAT      O17333   1.867   5.878   0.676
 5605WAT     H117334   1.829   5.801   0.633
 5605WAT     H217335   1.794   5.916   0.725
 5606WAT      O17336   0.326   5.946   1.338
 5606WAT     H117337   0.362   5.937   1.426
 5606WAT     H217338   0.269   5.869   1.328
 5607WAT      O17339   1.806   5.793   1.640
 5607WAT     H117340   1.783   5.770   1.549
 5607WAT     H217341   1.832   5.885   1.635
 5608WAT      O17342   0.281   5.637   1.729
 5608WAT     H117343   0.191   5.633   1.763
 5608WAT     H217344   0.335   5.657   1.805
 5609WAT      O17345   1.650   5.315   1.917
 5609WAT     H117346   1.737   5.316   1.956
 5609WAT     H217347   1.651   5.241   1.856
 5610WAT      O17348   1.794   5.700   1.006
 5610WAT     H117349   1.847   5.651   0.943
 5610WAT     H217350   1.853   5.714   1.081
 5611WAT      O17351   1.812   5.709   1.358
 5611WAT     H117352   1.717   5.705   1.370
 5611WAT     H217353   1.830   5.800   1.335
 5612WAT      O17354   0.398   5.534   0.269
 5612WAT     H117355   0.469   5.492   0.221
 5612WAT     H217356   0.326   5.541   0.206
 5613WAT      O17357   1.743   5.626   0.600
 5613WAT     H117358   1.793   5.603   0.679
 5613WAT     H217359   1.723   5.542   0.558
 5614WAT      O17360   0.331   5.064   1.164
 5614WAT     H117361   0.396   5.009   1.120
 5614WAT     H217362   0.373   5.090   1.246
 5615WAT      O17363   1.886   5.490   0.853
 5615WAT     H117364   1.875   5.474   0.947
 5615WAT     H217365   1.962   5.437   0.829
 5616WAT      O17366   1.721   5.084   1.499
 5616WAT     H117367   1.785   5.145   1.536
 5616WAT     H217368   1.736   5.087   1.405
 5617WAT      O17369   1.975   5.273   0.178
 5617WAT     H117370   2.068   5.260   0.157
 5617WAT     H217371   1.973   5.281   0.273
 5618WAT      O17372   1.982   5.350   0.440
 5618WAT     H117373   1.903   5.343   0.493
 5618WAT     H217374   2.003   5.443   0.439
 5619WAT      O17375   1.677   6.754   0.840
 5619WAT     H117376   1.736   6.722   0.772
 5619WAT     H217377   1.702   6.707   0.919
 5620WAT      O17378   0.307   5.080   1.438
 5620WAT     H117379   0.272   5.125   1.514
 5620WAT     H217380   0.273   4.990   1.446
 5621WAT      O17381   0.467   6.397   1.854
 5621WAT     H117382   0.463   6.360   1.943
 5621WAT     H217383   0.480   6.491   1.868
 5622WAT      O17384   0.837   6.553   1.415
 5622WAT     H117385   0.813   6.579   1.326
 5622WAT     H217386   0.931   6.570   1.420
 5623WAT      O17387   1.058   5.199   1.790
 5623WAT     H117388   1.052   5.258   1.865
 5623WAT     H217389   1.152   5.188   1.776
 5624WAT      O17390   1.322   5.165   1.754
 5624WAT     H117391   1.383   5.196   1.688
 5624WAT     H217392   1.376   5.116   1.816
 5625WAT      O17393   1.963   6.755   1.495
 5625WAT     H117394   1.914   6.794   1.423
 5625WAT     H217395   1.902   6.692   1.534
 5626WAT      O17396   0.374   5.033   1.765
 5626WAT     H117397   0.429   5.014   1.689
 5626WAT     H217398   0.380   4.954   1.819
 5627WAT      O17399   0.451   6.692   1.566
 5627WAT     H117400   0.392   6.678   1.640
 5627WAT     H217401   0.450   6.608   1.520
 5628WAT      O17402   1.396   5.021   1.387
 5628WAT     H117403   1.308   5.054   1.366
 5628WAT     H217404   1.385   4.974   1.469
 5629WAT      O17405   1.486   5.242   1.525
 5629WAT     H117406   1.454   5.160   1.487
 5629WAT     H217407   1.581   5.237   1.513
 5630WAT      O17408   1.732   6.819   1.222
 5630WAT     H117409   1.686   6.894   1.185
 5630WAT     H217410   1.669   6.747   1.217
 5631WAT      O17411   0.414   6.428   1.461
 5631WAT     H117412   0.342   6.366   1.455
 5631WAT     H217413   0.420   6.468   1.374
 5632WAT      O17414   0.775   6.650   1.140
 5632WAT     H117415   0.826   6.589   1.087
 5632WAT     H217416   0.840   6.700   1.189
 5633WAT      O17417   1.049   6.739   1.223
 5633WAT     H117418   1.077   6.713   1.135
 5633WAT     H217419   1.100   6.684   1.282
 5634WAT      O17420   1.170   5.113   1.281
 5634WAT     H117421   1.092   5.160   1.309
 5634WAT     H217422   1.141   5.022   1.270
 5635WAT      O17423   1.626   5.183   1.085
 5635WAT     H117424   1.670   5.177   1.000
 5635WAT     H217425   1.599   5.274   1.092
 5636WAT      O17426   1.812   5.146   0.886
 5636WAT     H117427   1.806   5.052   0.872
 5636WAT     H217428   1.890   5.157   0.941
 5637WAT      O17429   0.305   5.143   0.533
 5637WAT     H117430   0.381   5.154   0.475
 5637WAT     H217431   0.259   5.227   0.528
 5638WAT      O17432   0.959   5.355   0.832
 5638WAT     H117433   0.878   5.317   0.798
 5638WAT     H217434   1.009   5.279   0.862
 5639WAT      O17435   1.409   5.021   0.956
 5639WAT     H117436   1.470   5.078   1.003
 5639WAT     H217437   1.335   5.077   0.933
 5640WAT      O17438   1.724   5.061   0.483
 5640WAT     H117439   1.743   5.151   0.510
 5640WAT     H217440   1.645   5.038   0.532
 5641WAT      O17441   0.403   6.629   0.527
 5641WAT     H117442   0.351   6.667   0.457
 5641WAT     H217443   0.396   6.692   0.599
 5642WAT      O17444   0.542   5.196   0.387
 5642WAT     H117445   0.595   5.117   0.374
 5642WAT     H217446   0.605   5.264   0.410
 5643WAT      O17447   0.761   5.170   0.692
 5643WAT     H117448   0.698   5.099   0.709
 5643WAT     H217449   0.708   5.246   0.671
 5644WAT      O17450   1.055   6.831   1.959
 5644WAT     H117451   1.148   6.807   1.964
 5644WAT     H217452   1.054   6.914   1.911
 5645WAT      O17453   1.879   6.785   0.659
 5645WAT     H117454   1.896   6.717   0.595
 5645WAT     H217455   1.809   6.838   0.620
 5646WAT      O17456   0.774   5.097   1.936
 5646WAT     H117457   0.746   5.148   1.859
 5646WAT     H217458   0.812   5.018   1.899
 5647WAT      O17459   0.663   6.824   0.414
 5647WAT     H117460   0.736   6.796   0.360
 5647WAT     H217461   0.689   6.800   0.503
 5648WAT      O17462   0.579   6.436   0.415
 5648WAT     H117463   0.516   6.483   0.470
 5648WAT     H217464   0.591   6.351   0.458
 5649WAT      O17465   1.434   5.039   1.994
 5649WAT     H117466   1.423   5.071   2.083
 5649WAT     H217467   1.516   5.079   1.964
 5650WAT      O17468   1.712   6.754   1.942
 5650WAT     H117469   1.791   6.704   1.921
 5650WAT     H217470   1.741   6.822   2.003
 5651WAT      O17471   1.325   3.963   4.662
 5651WAT     H117472   1.317   3.872   4.635
 5651WAT     H217473   1.283   4.013   4.592
 5652WAT      O17474   1.138   4.141   4.850
 5652WAT     H117475   1.060   4.093   4.879
 5652WAT     H217476   1.203   4.073   4.833
 5653WAT      O17477   0.540   4.172   4.938
 5653WAT     H117478   0.456   4.147   4.978
 5653WAT     H217479   0.600   4.179   5.012
 5654WAT      O17480   1.540   4.582   4.728
 5654WAT     H117481   1.494   4.505   4.761
 5654WAT     H217482   1.621   4.584   4.779
 5655WAT      O17483   0.538   4.576   4.958
 5655WAT     H117484   0.568   4.487   4.940
 5655WAT     H217485   0.612   4.631   4.935
 5656WAT      O17486   0.380   3.668   4.316
 5656WAT     H117487   0.292   3.703   4.306
 5656WAT     H217488   0.409   3.648   4.227
 5657WAT      O17489   0.177   3.928   4.905
 5657WAT     H117490   0.234   3.852   4.905
 5657WAT     H217491   0.177   3.958   4.814
 5658WAT      O17492   1.163   4.810   4.690
 5658WAT     H117493   1.101   4.856   4.633
 5658WAT     H217494   1.248   4.826   4.650
 5659WAT      O17495   1.082   4.409   4.851
 5659WAT     H117496   1.075   4.315   4.835
 5659WAT     H217497   1.158   4.418   4.908
 5660WAT      O17498   0.301   3.469   5.084
 5660WAT     H117499   0.283   3.380   5.112
 5660WAT     H217500   0.261   3.524   5.151
 5661WAT      O17501   1.185   3.689   4.874
 5661WAT     H117502   1.223   3.602   4.862
 5661WAT     H217503   1.175   3.723   4.785
 5662WAT      O17504   0.598   3.527   4.420
 5662WAT     H117505   0.609   3.617   4.451
 5662WAT     H217506   0.507   3.522   4.391
 5663WAT      O17507   1.563   3.439   4.567
 5663WAT     H117508   1.645   3.390   4.571
 5663WAT     H217509   1.567   3.498   4.642
 5664WAT      O17510   0.363   3.719   4.944
 5664WAT     H117511   0.431   3.745   5.006
 5664WAT     H217512   0.331   3.635   4.978
 5665WAT      O17513   0.782   3.824   4.853
 5665WAT     H117514   0.833   3.873   4.917
 5665WAT     H217515   0.835   3.746   4.836
 5666WAT      O17516   1.992   3.641   5.223
 5666WAT     H117517   1.922   3.679   5.172
 5666WAT     H217518   2.019   3.710   5.284
 5667WAT      O17519   0.611   3.288   5.280
 5667WAT     H117520   0.611   3.339   5.199
 5667WAT     H217521   0.528   3.240   5.277
 5668WAT      O17522   1.249   4.299   4.430
 5668WAT     H117523   1.187   4.345   4.373
 5668WAT     H217524   1.300   4.368   4.471
 5669WAT      O17525   0.736   4.252   5.097
 5669WAT     H117526   0.702   4.314   5.162
 5669WAT     H217527   0.753   4.304   5.020
 5670WAT      O17528   1.587   3.633   4.844
 5670WAT     H117529   1.516   3.662   4.902
 5670WAT     H217530   1.623   3.714   4.808
 5671WAT      O17531   0.579   3.459   5.080
 5671WAT     H117532   0.613   3.543   5.051
 5671WAT     H217533   0.485   3.474   5.092
 5672WAT      O17534   0.657   4.448   5.279
 5672WAT     H117535   0.719   4.516   5.251
 5672WAT     H217536   0.571   4.489   5.270
 5673WAT      O17537   1.749   4.595   5.071
 5673WAT     H117538   1.680   4.662   5.070
 5673WAT     H217539   1.802   4.615   4.994
 5674WAT      O17540   1.894   3.578   4.883
 5674WAT     H117541   1.799   3.581   4.897
 5674WAT     H217542   1.926   3.659   4.922
 5675WAT      O17543   0.947   3.207   4.713
 5675WAT     H117544   0.978   3.152   4.641
 5675WAT     H217545   0.854   3.221   4.695
 5676WAT      O17546   1.502   4.779   4.942
 5676WAT     H117547   1.503   4.739   4.855
 5676WAT     H217548   1.447   4.857   4.932
 5677WAT      O17549   1.632   4.451   4.451
 5677WAT     H117550   1.621   4.357   4.463
 5677WAT     H217551   1.631   4.487   4.540
 5678WAT      O17552   1.442   4.269   5.075
 5678WAT     H117553   1.484   4.248   4.991
 5678WAT     H217554   1.514   4.295   5.132
 5679WAT      O17555   1.186   4.014   4.387
 5679WAT     H117556   1.093   4.007   4.409
 5679WAT     H217557   1.201   4.108   4.375
 5680WAT      O17558   1.184   3.641   4.086
 5680WAT     H117559   1.091   3.657   4.095
 5680WAT     H217560   1.216   3.713   4.032
 5681WAT      O17561   1.837   4.109   5.084
 5681WAT     H117562   1.754   4.116   5.036
 5681WAT     H217563   1.896   4.168   5.037
 5682WAT      O17564   1.589   4.170   4.437
 5682WAT     H117565   1.527   4.136   4.372
 5682WAT     H217566   1.587   4.106   4.508
 5683WAT      O17567   1.533   3.788   5.179
 5683WAT     H117568   1.492   3.871   5.204
 5683WAT     H217569   1.460   3.729   5.159
 5684WAT      O17570   0.746   4.067   4.665
 5684WAT     H117571   0.706   3.995   4.615
 5684WAT     H217572   0.755   4.032   4.754
 5685WAT      O17573   0.793   4.435   4.881
 5685WAT     H117574   0.763   4.375   4.813
 5685WAT     H217575   0.888   4.439   4.870
 5686WAT      O17576   0.618   3.744   5.043
 5686WAT     H117577   0.673   3.755   4.965
 5686WAT     H217578   0.669   3.781   5.114
 5687WAT      O17579   1.602   4.793   5.247
 5687WAT     H117580   1.554   4.873   5.228
 5687WAT     H217581   1.534   4.727   5.263
 5688WAT      O17582   0.702   4.409   5.546
 5688WAT     H117583   0.613   4.432   5.571
 5688WAT     H217584   0.705   4.421   5.451
 5689WAT      O17585   1.406   4.094   4.138
 5689WAT     H117586   1.450   4.010   4.123
 5689WAT     H217587   1.478   4.157   4.146
 5690WAT      O17588   0.585   4.096   5.404
 5690WAT     H117589   0.571   4.183   5.441
 5690WAT     H217590   0.497   4.062   5.389
 5691WAT      O17591   1.217   4.588   4.534
 5691WAT     H117592   1.261   4.662   4.493
 5691WAT     H217593   1.211   4.612   4.627
 5692WAT      O17594   0.765   4.690   5.625
 5692WAT     H117595   0.762   4.731   5.538
 5692WAT     H217596   0.749   4.598   5.608
 5693WAT      O17597   1.765   3.219   3.969
 5693WAT     H117598   1.733   3.229   4.059
 5693WAT     H217599   1.841   3.277   3.964
 5694WAT      O17600   0.416   3.956   4.415
 5694WAT     H117601   0.404   4.029   4.354
 5694WAT     H217602   0.385   3.879   4.367
 5695WAT      O17603   0.180   4.273   4.995
 5695WAT     H117604   0.188   4.287   4.901
 5695WAT     H217605   0.242   4.202   5.015
 5696WAT      O17606   0.305   4.443   4.637
 5696WAT     H117607   0.264   4.457   4.551
 5696WAT     H217608   0.394   4.415   4.616
 5697WAT      O17609   1.900   4.488   5.470
 5697WAT     H117610   1.913   4.464   5.378
 5697WAT     H217611   1.905   4.405   5.517
 5698WAT      O17612   1.287   4.858   5.327
 5698WAT     H117613   1.338   4.849   5.407
 5698WAT     H217614   1.202   4.893   5.356
 5699WAT      O17615   1.484   4.887   4.270
 5699WAT     H117616   1.468   4.858   4.360
 5699WAT     H217617   1.468   4.809   4.216
 5700WAT      O17618   0.732   4.865   4.448
 5700WAT     H117619   0.714   4.773   4.426
 5700WAT     H217620   0.647   4.901   4.472
 5701WAT      O17621   1.454   4.638   4.126
 5701WAT     H117622   1.385   4.637   4.060
 5701WAT     H217623   1.529   4.595   4.083
 5702WAT      O17624   1.411   4.800   4.533
 5702WAT     H117625   1.456   4.722   4.565
 5702WAT     H217626   1.445   4.871   4.588
 5703WAT      O17627   1.886   3.693   5.567
 5703WAT     H117628   1.824   3.744   5.514
 5703WAT     H217629   1.854   3.603   5.561
 5704WAT      O17630   0.186   4.377   5.249
 5704WAT     H117631   0.202   4.330   5.168
 5704WAT     H217632   0.232   4.327   5.316
 5705WAT      O17633   0.663   3.290   4.753
 5705WAT     H117634   0.619   3.369   4.720
 5705WAT     H217635   0.719   3.323   4.824
 5706WAT      O17636   1.092   3.577   5.313
 5706WAT     H117637   1.046   3.598   5.395
 5706WAT     H217638   1.052   3.496   5.283
 5707WAT      O17639   1.592   3.699   5.426
 5707WAT     H117640   1.507   3.669   5.458
 5707WAT     H217641   1.576   3.724   5.335
 5708WAT      O17642   1.301   3.849   5.636
 5708WAT     H117643   1.334   3.766   5.602
 5708WAT     H217644   1.380   3.902   5.651
 5709WAT      O17645   0.975   3.253   4.241
 5709WAT     H117646   0.912   3.252   4.314
 5709WAT     H217647   0.966   3.166   4.201
 5710WAT      O17648   0.867   3.345   4.939
 5710WAT     H117649   0.897   3.436   4.931
 5710WAT     H217650   0.922   3.296   4.878
 5711WAT      O17651   0.642   3.803   4.526
 5711WAT     H117652   0.620   3.781   4.616
 5711WAT     H217653   0.564   3.846   4.491
 5712WAT      O17654   1.365   3.803   4.386
 5712WAT     H117655   1.305   3.876   4.367
 5712WAT     H217656   1.420   3.797   4.307
 5713WAT      O17657   0.886   3.893   5.592
 5713WAT     H117658   0.877   3.799   5.577
 5713WAT     H217659   0.970   3.915   5.553
 5714WAT      O17660   1.226   3.667   4.589
 5714WAT     H117661   1.265   3.699   4.507
 5714WAT     H217662   1.262   3.579   4.600
 5715WAT      O17663   0.399   3.534   5.408
 5715WAT     H117664   0.360   3.619   5.428
 5715WAT     H217665   0.330   3.470   5.427
 5716WAT      O17666   1.284   3.926   4.998
 5716WAT     H117667   1.211   3.977   5.033
 5716WAT     H217668   1.245   3.844   4.968
 5717WAT      O17669   0.928   3.594   4.839
 5717WAT     H117670   0.928   3.550   4.754
 5717WAT     H217671   1.018   3.626   4.850
 5718WAT      O17672   0.513   3.582   4.735
 5718WAT     H117673   0.479   3.630   4.810
 5718WAT     H217674   0.437   3.537   4.699
 5719WAT      O17675   0.934   3.694   4.138
 5719WAT     H117676   0.946   3.690   4.233
 5719WAT     H217677   0.896   3.780   4.122
 5720WAT      O17678   1.331   3.471   4.940
 5720WAT     H117679   1.332   3.517   5.024
 5720WAT     H217680   1.306   3.381   4.961
 5721WAT      O17681   0.836   3.925   4.078
 5721WAT     H117682   0.779   3.880   4.015
 5721WAT     H217683   0.906   3.961   4.024
 5722WAT      O17684   1.673   3.213   5.523
 5722WAT     H117685   1.706   3.140   5.576
 5722WAT     H217686   1.677   3.181   5.433
 5723WAT      O17687   0.343   4.315   5.465
 5723WAT     H117688   0.305   4.251   5.525
 5723WAT     H217689   0.374   4.385   5.522
 5724WAT      O17690   0.958   4.000   5.013
 5724WAT     H117691   0.995   3.952   5.088
 5724WAT     H217692   0.939   4.087   5.048
 5725WAT      O17693   0.245   3.474   4.626
 5725WAT     H117694   0.216   3.438   4.710
 5725WAT     H217695   0.238   3.401   4.565
 5726WAT      O17696   0.737   3.904   5.245
 5726WAT     H117697   0.707   3.992   5.268
 5726WAT     H217698   0.833   3.910   5.249
 5727WAT      O17699   0.590   4.324   4.305
 5727WAT     H117700   0.513   4.270   4.289
 5727WAT     H217701   0.663   4.272   4.271
 5728WAT      O17702   1.666   4.224   4.884
 5728WAT     H117703   1.738   4.274   4.845
 5728WAT     H217704   1.646   4.156   4.820
 5729WAT      O17705   1.212   3.363   4.299
 5729WAT     H117706   1.131   3.314   4.291
 5729WAT     H217707   1.193   3.447   4.257
 5730WAT      O17708   1.204   4.231   5.473
 5730WAT     H117709   1.197   4.139   5.447
 5730WAT     H217710   1.141   4.241   5.544
 5731WAT      O17711   1.483   3.801   4.128
 5731WAT     H117712   1.572   3.832   4.111
 5731WAT     H217713   1.481   3.713   4.089
 5732WAT      O17714   0.594   4.291   4.669
 5732WAT     H117715   0.646   4.211   4.663
 5732WAT     H217716   0.549   4.285   4.753
 5733WAT      O17717   1.083   4.418   4.196
 5733WAT     H117718   1.117   4.492   4.146
 5733WAT     H217719   1.000   4.449   4.232
 5734WAT      O17720   0.343   3.988   5.360
 5734WAT     H117721   0.307   4.054   5.419
 5734WAT     H217722   0.313   3.905   5.397
 5735WAT      O17723   0.663   4.034   5.648
 5735WAT     H117724   0.633   4.048   5.559
 5735WAT     H217725   0.740   3.978   5.639
 5736WAT      O17726   1.197   4.513   5.448
 5736WAT     H117727   1.199   4.420   5.426
 5736WAT     H217728   1.127   4.522   5.512
 5737WAT      O17729   1.711   3.932   4.075
 5737WAT     H117730   1.702   3.975   3.990
 5737WAT     H217731   1.783   3.978   4.118
 5738WAT      O17732   1.818   4.177   5.383
 5738WAT     H117733   1.746   4.237   5.363
 5738WAT     H217734   1.871   4.177   5.303
 5739WAT      O17735   1.814   4.617   4.348
 5739WAT     H117736   1.749   4.552   4.375
 5739WAT     H217737   1.775   4.658   4.270
 5740WAT      O17738   1.371   4.350   4.732
 5740WAT     H117739   1.407   4.290   4.666
 5740WAT     H217740   1.283   4.317   4.750
 5741WAT      O17741   0.980   4.426   4.473
 5741WAT     H117742   1.049   4.481   4.511
 5741WAT     H217743   0.901   4.480   4.477
 5742WAT      O17744   0.910   4.126   4.434
 5742WAT     H117745   0.956   4.207   4.457
 5742WAT     H217746   0.875   4.095   4.518
 5743WAT      O17747   1.141   4.677   5.157
 5743WAT     H117748   1.205   4.698   5.225
 5743WAT     H217749   1.177   4.601   5.112
 5744WAT      O17750   0.500   3.161   4.482
 5744WAT     H117751   0.488   3.160   4.577
 5744WAT     H217752   0.418   3.195   4.447
 5745WAT      O17753   1.268   4.478   5.029
 5745WAT     H117754   1.332   4.408   5.040
 5745WAT     H217755   1.320   4.556   5.011
 5746WAT      O17756   1.652   4.506   4.002
 5746WAT     H117757   1.630   4.435   4.061
 5746WAT     H217758   1.613   4.481   3.918
 5747WAT      O17759   1.445   4.558   5.349
 5747WAT     H117760   1.479   4.616   5.417
 5747WAT     H217761   1.353   4.545   5.372
 5748WAT      O17762   0.231   4.909   4.079
 5748WAT     H117763   0.267   4.969   4.014
 5748WAT     H217764   0.217   4.964   4.156
 5749WAT      O17765   1.611   4.298   4.168
 5749WAT     H117766   1.582   4.344   4.246
 5749WAT     H217767   1.690   4.252   4.195
 5750WAT      O17768   0.229   4.736   5.526
 5750WAT     H117769   0.240   4.641   5.512
 5750WAT     H217770   0.164   4.762   5.462
 5751WAT      O17771   1.028   4.563   5.666
 5751WAT     H117772   0.996   4.491   5.721
 5751WAT     H217773   0.961   4.630   5.674
 5752WAT      O17774   0.832   4.647   4.161
 5752WAT     H117775   0.831   4.721   4.099
 5752WAT     H217776   0.740   4.623   4.170
 5753WAT      O17777   0.392   4.169   4.235
 5753WAT     H117778   0.332   4.243   4.236
 5753WAT     H217779   0.440   4.178   4.153
 5754WAT      O17780   1.350   3.586   5.203
 5754WAT     H117781   1.387   3.504   5.236
 5754WAT     H217782   1.264   3.592   5.244
 5755WAT      O17783   1.686   3.481   4.284
 5755WAT     H117784   1.623   3.492   4.212
 5755WAT     H217785   1.637   3.503   4.363
 5756WAT      O17786   1.131   4.654   4.027
 5756WAT     H117787   1.141   4.633   3.934
 5756WAT     H217788   1.041   4.628   4.047
 5757WAT      O17789   0.883   3.709   4.425
 5757WAT     H117790   0.812   3.756   4.469
 5757WAT     H217791   0.912   3.644   4.489
 5758WAT      O17792   1.046   3.851   5.225
 5758WAT     H117793   1.096   3.899   5.292
 5758WAT     H217794   1.060   3.759   5.246
 5759WAT      O17795   1.286   3.382   4.569
 5759WAT     H117796   1.274   3.384   4.474
 5759WAT     H217797   1.381   3.387   4.581
 5760WAT      O17798   0.995   4.905   4.496
 5760WAT     H117799   1.021   4.902   4.404
 5760WAT     H217800   0.900   4.893   4.496
 5761WAT      O17801   0.704   3.540   4.163
 5761WAT     H117802   0.788   3.584   4.156
 5761WAT     H217803   0.667   3.571   4.245
 5762WAT      O17804   1.766   3.473   5.309
 5762WAT     H117805   1.716   3.547   5.343
 5762WAT     H217806   1.848   3.512   5.278
 5763WAT      O17807   1.596   3.997   4.654
 5763WAT     H117808   1.502   3.999   4.671
 5763WAT     H217809   1.627   3.919   4.699
 5764WAT      O17810   0.593   4.166   4.010
 5764WAT     H117811   0.670   4.154   4.066
 5764WAT     H217812   0.601   4.096   3.945
 5765WAT      O17813   0.463   3.909   4.078
 5765WAT     H117814   0.471   3.814   4.090
 5765WAT     H217815   0.552   3.942   4.089
 5766WAT      O17816   1.796   4.714   4.822
 5766WAT     H117817   1.808   4.797   4.869
 5766WAT     H217818   1.883   4.693   4.787
 5767WAT      O17819   0.543   4.924   4.789
 5767WAT     H117820   0.617   4.869   4.816
 5767WAT     H217821   0.581   5.010   4.775
 5768WAT      O17822   0.854   4.841   3.971
 5768WAT     H117823   0.933   4.870   3.926
 5768WAT     H217824   0.802   4.798   3.903
 5769WAT      O17825   1.470   4.826   5.563
 5769WAT     H117826   1.566   4.817   5.558
 5769WAT     H217827   1.456   4.892   5.631
 5770WAT      O17828   1.759   4.764   4.113
 5770WAT     H117829   1.731   4.722   4.032
 5770WAT     H217830   1.740   4.857   4.101
 5771WAT      O17831   0.906   4.363   3.957
 5771WAT     H117832   0.895   4.302   4.030
 5771WAT     H217833   0.889   4.311   3.879
 5772WAT      O17834   0.921   4.232   5.555
 5772WAT     H117835   0.844   4.288   5.547
 5772WAT     H217836   0.939   4.202   5.466
 5773WAT      O17837   1.230   4.269   4.018
 5773WAT     H117838   1.175   4.314   4.082
 5773WAT     H217839   1.292   4.219   4.070
 5774WAT      O17840   1.635   4.405   5.611
 5774WAT     H117841   1.709   4.438   5.561
 5774WAT     H217842   1.559   4.422   5.556
 5775WAT      O17843   0.797   4.165   4.207
 5775WAT     H117844   0.839   4.149   4.292
 5775WAT     H217845   0.809   4.084   4.158
 5776WAT      O17846   0.613   3.763   5.488
 5776WAT     H117847   0.560   3.714   5.425
 5776WAT     H217848   0.680   3.806   5.435
 5777WAT      O17849   1.048   4.068   3.932
 5777WAT     H117850   1.100   3.996   3.896
 5777WAT     H217851   1.113   4.131   3.962
 5778WAT      O17852   1.503   4.210   5.465
 5778WAT     H117853   1.544   4.225   5.550
 5778WAT     H217854   1.409   4.222   5.481
 5779WAT      O17855   1.550   3.944   5.665
 5779WAT     H117856   1.608   3.868   5.656
 5779WAT     H217857   1.568   3.997   5.587
 5780WAT      O17858   0.662   3.460   5.496
 5780WAT     H117859   0.652   3.398   5.424
 5780WAT     H217860   0.604   3.532   5.473
 5781WAT      O17861   0.938   3.316   5.199
 5781WAT     H117862   0.893   3.318   5.115
 5781WAT     H217863   0.875   3.276   5.259
 5782WAT      O17864   0.979   4.205   5.262
 5782WAT     H117865   1.021   4.289   5.244
 5782WAT     H217866   0.887   4.219   5.239
 5783WAT      O17867   1.212   3.978   5.400
 5783WAT     H117868   1.224   3.919   5.474
 5783WAT     H217869   1.298   3.982   5.358
 5784WAT      O17870   1.446   4.034   5.258
 5784WAT     H117871   1.394   4.086   5.197
 5784WAT     H217872   1.481   4.097   5.321
 5785WAT      O17873   0.686   3.773   3.902
 5785WAT     H117874   0.666   3.686   3.938
 5785WAT     H217875   0.669   3.764   3.808
 5786WAT      O17876   0.764   4.836   5.373
 5786WAT     H117877   0.710   4.908   5.341
 5786WAT     H217878   0.789   4.788   5.294
 5787WAT      O17879   0.889   3.632   5.526
 5787WAT     H117880   0.948   3.602   5.594
 5787WAT     H217881   0.807   3.585   5.541
 5788WAT      O17882   1.371   3.594   5.549
 5788WAT     H117883   1.302   3.528   5.543
 5788WAT     H217884   1.443   3.549   5.594
 5789WAT      O17885   1.434   3.254   4.155
 5789WAT     H117886   1.462   3.169   4.191
 5789WAT     H217887   1.357   3.277   4.206
 5790WAT      O17888   0.566   3.483   3.901
 5790WAT     H117889   0.596   3.483   3.810
 5790WAT     H217890   0.640   3.447   3.951
 5791WAT      O17891   1.050   4.959   5.399
 5791WAT     H117892   1.042   5.049   5.430
 5791WAT     H217893   0.959   4.927   5.396
 5792WAT      O17894   0.888   3.377   3.999
 5792WAT     H117895   0.853   3.309   3.941
 5792WAT     H217896   0.908   3.331   4.081
 5793WAT      O17897   1.104   4.876   4.161
 5793WAT     H117898   1.194   4.910   4.163
 5793WAT     H217899   1.108   4.803   4.099
 5794WAT      O17900   0.468   4.413   3.984
 5794WAT     H117901   0.512   4.467   4.050
 5794WAT     H217902   0.517   4.330   3.985
 5795WAT      O17903   0.190   4.692   4.729
 5795WAT     H117904   0.223   4.605   4.706
 5795WAT     H217905   0.233   4.712   4.812
 5796WAT      O17906   0.649   4.525   4.495
 5796WAT     H117907   0.619   4.513   4.585
 5796WAT     H217908   0.639   4.439   4.455
 5797WAT      O17909   0.239   4.779   5.003
 5797WAT     H117910   0.195   4.797   5.086
 5797WAT     H217911   0.295   4.854   4.989
 5798WAT      O17912   1.802   4.729   5.432
 5798WAT     H117913   1.742   4.735   5.358
 5798WAT     H217914   1.815   4.635   5.445
 5799WAT      O17915   1.926   4.503   3.966
 5799WAT     H117916   1.843   4.510   4.013
 5799WAT     H217917   1.944   4.592   3.935
 5800WAT      O17918   1.872   4.177   4.216
 5800WAT     H117919   1.948   4.234   4.227
 5800WAT     H217920   1.873   4.121   4.293
 5801WAT      O17921   1.973   4.263   4.700
 5801WAT     H117922   2.010   4.185   4.660
 5801WAT     H217923   2.037   4.332   4.683
 5802WAT      O17924   1.671   4.401   5.242
 5802WAT     H117925   1.589   4.444   5.268
 5802WAT     H217926   1.712   4.462   5.180
 5803WAT      O17927   1.877   4.207   3.932
 5803WAT     H117928   1.905   4.297   3.919
 5803WAT     H217929   1.858   4.200   4.025
 5804WAT      O17930   1.517   3.509   4.061
 5804WAT     H117931   1.559   3.490   3.977
 5804WAT     H217932   1.486   3.424   4.092
 5805WAT      O17933   1.867   4.000   4.431
 5805WAT     H117934   1.829   3.924   4.388
 5805WAT     H217935   1.794   4.039   4.480
 5806WAT      O17936   0.326   4.068   5.093
 5806WAT     H117937   0.362   4.060   5.181
 5806WAT     H217938   0.269   3.992   5.083
 5807WAT      O17939   1.806   3.915   5.394
 5807WAT     H117940   1.783   3.892   5.304
 5807WAT     H217941   1.832   4.007   5.390
 5808WAT      O17942   0.281   3.759   5.484
 5808WAT     H117943   0.191   3.756   5.518
 5808WAT     H217944   0.335   3.779   5.560
 5809WAT      O17945   1.650   3.438   5.672
 5809WAT     H117946   1.737   3.439   5.711
 5809WAT     H217947   1.651   3.364   5.611
 5810WAT      O17948   1.794   3.823   4.761
 5810WAT     H117949   1.847   3.774   4.698
 5810WAT     H217950   1.853   3.836   4.836
 5811WAT      O17951   1.812   3.831   5.113
 5811WAT     H117952   1.717   3.828   5.125
 5811WAT     H217953   1.830   3.922   5.090
 5812WAT      O17954   0.398   3.656   4.024
 5812WAT     H117955   0.469   3.614   3.976
 5812WAT     H217956   0.326   3.663   3.961
 5813WAT      O17957   0.362   3.262   3.928
 5813WAT     H117958   0.435   3.316   3.960
 5813WAT     H217959   0.390   3.234   3.841
 5814WAT      O17960   1.743   3.749   4.355
 5814WAT     H117961   1.793   3.725   4.433
 5814WAT     H217962   1.723   3.665   4.313
 5815WAT      O17963   0.331   3.187   4.919
 5815WAT     H117964   0.396   3.132   4.874
 5815WAT     H217965   0.373   3.212   5.001
 5816WAT      O17966   1.886   3.612   4.608
 5816WAT     H117967   1.875   3.597   4.702
 5816WAT     H217968   1.962   3.560   4.584
 5817WAT      O17969   1.721   3.206   5.254
 5817WAT     H117970   1.785   3.268   5.291
 5817WAT     H217971   1.736   3.210   5.160
 5818WAT      O17972   1.975   3.395   3.932
 5818WAT     H117973   2.068   3.382   3.912
 5818WAT     H217974   1.973   3.403   4.028
 5819WAT      O17975   1.982   3.472   4.195
 5819WAT     H117976   1.903   3.466   4.248
 5819WAT     H217977   2.003   3.566   4.194
 5820WAT      O17978   1.677   4.876   4.594
 5820WAT     H117979   1.736   4.844   4.527
 5820WAT     H217980   1.702   4.829   4.674
 5821WAT      O17981   0.307   3.202   5.193
 5821WAT     H117982   0.272   3.248   5.269
 5821WAT     H217983   0.273   3.113   5.201
 5822WAT      O17984   0.467   4.520   5.609
 5822WAT     H117985   0.463   4.483   5.697
 5822WAT     H217986   0.480   4.613   5.623
 5823WAT      O17987   0.837   4.675   5.169
 5823WAT     H117988   0.813   4.702   5.081
 5823WAT     H217989   0.931   4.692   5.175
 5824WAT      O17990   1.058   3.322   5.545
 5824WAT     H117991   1.052   3.381   5.620
 5824WAT     H217992   1.152   3.311   5.530
 5825WAT      O17993   1.322   3.287   5.509
 5825WAT     H117994   1.383   3.319   5.443
 5825WAT     H217995   1.376   3.239   5.571
 5826WAT      O17996   1.963   4.877   5.249
 5826WAT     H117997   1.914   4.917   5.178
 5826WAT     H217998   1.902   4.815   5.289
 5827WAT      O17999   0.374   3.155   5.520
 5827WAT     H118000   0.429   3.137   5.444
 5827WAT     H218001   0.380   3.076   5.574
 5828WAT      O18002   0.451   4.814   5.321
 5828WAT     H118003   0.392   4.801   5.395
 5828WAT     H218004   0.450   4.731   5.275
 5829WAT      O18005   1.396   3.144   5.142
 5829WAT     H118006   1.308   3.177   5.121
 5829WAT     H218007   1.385   3.096   5.224
 5830WAT      O18008   1.486   3.364   5.280
 5830WAT     H118009   1.454   3.283   5.242
 5830WAT     H218010   1.581   3.360   5.268
 5831WAT      O18011   1.732   4.941   4.977
 5831WAT     H118012   1.686   5.017   4.940
 5831WAT     H218013   1.669   4.869   4.972
 5832WAT      O18014   0.414   4.551   5.216
 5832WAT     H118015   0.342   4.489   5.210
 5832WAT     H218016   0.420   4.590   5.129
 5833WAT      O18017   0.775   4.772   4.895
 5833WAT     H118018   0.826   4.711   4.842
 5833WAT     H218019   0.840   4.823   4.944
 5834WAT      O18020   1.049   4.861   4.978
 5834WAT     H118021   1.077   4.836   4.890
 5834WAT     H218022   1.100   4.806   5.037
 5835WAT      O18023   1.170   3.235   5.035
 5835WAT     H118024   1.092   3.283   5.063
 5835WAT     H218025   1.141   3.145   5.025
 5836WAT      O18026   1.626   3.305   4.840
 5836WAT     H118027   1.670   3.300   4.755
 5836WAT     H218028   1.599   3.397   4.847
 5837WAT      O18029   1.812   3.269   4.641
 5837WAT     H118030   1.806   3.174   4.626
 5837WAT     H218031   1.890   3.279   4.696
 5838WAT      O18032   0.305   3.266   4.288
 5838WAT     H118033   0.381   3.277   4.230
 5838WAT     H218034   0.259   3.349   4.283
 5839WAT      O18035   0.959   3.477   4.587
 5839WAT     H118036   0.878   3.440   4.553
 5839WAT     H218037   1.009   3.402   4.617
 5840WAT      O18038   1.409   3.144   4.710
 5840WAT     H118039   1.470   3.201   4.758
 5840WAT     H218040   1.335   3.200   4.688
 5841WAT      O18041   1.724   3.184   4.238
 5841WAT     H118042   1.743   3.274   4.265
 5841WAT     H218043   1.645   3.161   4.287
 5842WAT      O18044   0.403   4.752   4.282
 5842WAT     H118045   0.351   4.790   4.211
 5842WAT     H218046   0.396   4.814   4.354
 5843WAT      O18047   0.542   3.318   4.142
 5843WAT     H118048   0.595   3.240   4.129
 5843WAT     H218049   0.605   3.386   4.165
 5844WAT      O18050   0.761   3.292   4.447
 5844WAT     H118051   0.698   3.222   4.464
 5844WAT     H218052   0.708   3.368   4.425
 5845WAT      O18053   1.055   4.953   5.714
 5845WAT     H118054   1.148   4.930   5.719
 5845WAT     H218055   1.054   5.036   5.666
 5846WAT      O18056   1.879   4.908   4.414
 5846WAT     H118057   1.896   4.839   4.350
 5846WAT     H218058   1.809   4.960   4.375
 5847WAT      O18059   0.774   3.220   5.691
 5847WAT     H118060   0.746   3.270   5.614
 5847WAT     H218061   0.812   3.140   5.654
 5848WAT      O18062   0.663   4.947   4.169
 5848WAT     H118063   0.736   4.918   4.115
 5848WAT     H218064   0.689   4.923   4.258
 5849WAT      O18065   0.579   4.558   4.170
 5849WAT     H118066   0.516   4.605   4.225
 5849WAT     H218067   0.591   4.474   4.213
 5850WAT      O18068   1.325   3.963   2.785
 5850WAT     H118069   1.317   3.872   2.758
 5850WAT     H218070   1.283   4.013   2.714
 5851WAT      O18071   1.138   4.141   2.973
 5851WAT     H118072   1.060   4.093   3.002
 5851WAT     H218073   1.203   4.073   2.955
 5852WAT      O18074   0.540   4.172   3.061
 5852WAT     H118075   0.456   4.147   3.101
 5852WAT     H218076   0.600   4.179   3.134
 5853WAT      O18077   0.538   4.576   3.080
 5853WAT     H118078   0.568   4.487   3.062
 5853WAT     H218079   0.612   4.631   3.057
 5854WAT      O18080   0.380   3.668   2.439
 5854WAT     H118081   0.292   3.703   2.429
 5854WAT     H218082   0.409   3.648   2.350
 5855WAT      O18083   0.177   3.928   3.027
 5855WAT     H118084   0.234   3.852   3.027
 5855WAT     H218085   0.177   3.958   2.937
 5856WAT      O18086   1.163   4.810   2.813
 5856WAT     H118087   1.101   4.856   2.756
 5856WAT     H218088   1.248   4.826   2.773
 5857WAT      O18089   1.082   4.409   2.974
 5857WAT     H118090   1.075   4.315   2.957
 5857WAT     H218091   1.158   4.418   3.031
 5858WAT      O18092   0.301   3.469   3.206
 5858WAT     H118093   0.283   3.380   3.234
 5858WAT     H218094   0.261   3.524   3.274
 5859WAT      O18095   1.185   3.689   2.996
 5859WAT     H118096   1.223   3.602   2.985
 5859WAT     H218097   1.175   3.723   2.907
 5860WAT      O18098   0.598   3.527   2.542
 5860WAT     H118099   0.609   3.617   2.573
 5860WAT     H218100   0.507   3.522   2.513
 5861WAT      O18101   1.563   3.439   2.690
 5861WAT     H118102   1.645   3.390   2.694
 5861WAT     H218103   1.567   3.498   2.765
 5862WAT      O18104   0.363   3.719   3.067
 5862WAT     H118105   0.431   3.745   3.129
 5862WAT     H218106   0.331   3.635   3.100
 5863WAT      O18107   0.782   3.824   2.976
 5863WAT     H118108   0.833   3.873   3.040
 5863WAT     H218109   0.835   3.746   2.958
 5864WAT      O18110   1.992   3.641   3.346
 5864WAT     H118111   1.922   3.679   3.294
 5864WAT     H218112   2.019   3.710   3.406
 5865WAT      O18113   0.611   3.288   3.402
 5865WAT     H118114   0.611   3.339   3.322
 5865WAT     H218115   0.528   3.240   3.400
 5866WAT      O18116   1.249   4.299   2.552
 5866WAT     H118117   1.187   4.345   2.496
 5866WAT     H218118   1.300   4.368   2.594
 5867WAT      O18119   0.736   4.252   3.220
 5867WAT     H118120   0.702   4.314   3.284
 5867WAT     H218121   0.753   4.304   3.142
 5868WAT      O18122   1.587   3.633   2.967
 5868WAT     H118123   1.516   3.662   3.025
 5868WAT     H218124   1.623   3.714   2.931
 5869WAT      O18125   0.579   3.459   3.203
 5869WAT     H118126   0.613   3.543   3.174
 5869WAT     H218127   0.485   3.474   3.215
 5870WAT      O18128   0.657   4.448   3.402
 5870WAT     H118129   0.719   4.516   3.373
 5870WAT     H218130   0.571   4.489   3.392
 5871WAT      O18131   1.749   4.595   3.193
 5871WAT     H118132   1.680   4.662   3.192
 5871WAT     H218133   1.802   4.615   3.117
 5872WAT      O18134   1.894   3.578   3.006
 5872WAT     H118135   1.799   3.581   3.019
 5872WAT     H218136   1.926   3.659   3.044
 5873WAT      O18137   0.947   3.207   2.835
 5873WAT     H118138   0.978   3.152   2.764
 5873WAT     H218139   0.854   3.221   2.817
 5874WAT      O18140   1.502   4.779   3.065
 5874WAT     H118141   1.503   4.739   2.978
 5874WAT     H218142   1.447   4.857   3.054
 5875WAT      O18143   1.442   4.269   3.197
 5875WAT     H118144   1.484   4.248   3.114
 5875WAT     H218145   1.514   4.295   3.254
 5876WAT      O18146   1.186   4.014   2.509
 5876WAT     H118147   1.093   4.007   2.532
 5876WAT     H218148   1.201   4.108   2.498
 5877WAT      O18149   1.184   3.641   2.209
 5877WAT     H118150   1.091   3.657   2.217
 5877WAT     H218151   1.216   3.713   2.154
 5878WAT      O18152   1.837   4.109   3.207
 5878WAT     H118153   1.754   4.116   3.159
 5878WAT     H218154   1.896   4.168   3.160
 5879WAT      O18155   1.589   4.170   2.559
 5879WAT     H118156   1.527   4.136   2.495
 5879WAT     H218157   1.587   4.106   2.630
 5880WAT      O18158   1.533   3.788   3.301
 5880WAT     H118159   1.492   3.871   3.326
 5880WAT     H218160   1.460   3.729   3.282
 5881WAT      O18161   0.746   4.067   2.787
 5881WAT     H118162   0.706   3.995   2.738
 5881WAT     H218163   0.755   4.032   2.876
 5882WAT      O18164   0.793   4.435   3.004
 5882WAT     H118165   0.763   4.375   2.936
 5882WAT     H218166   0.888   4.439   2.993
 5883WAT      O18167   0.618   3.744   3.165
 5883WAT     H118168   0.673   3.755   3.088
 5883WAT     H218169   0.669   3.781   3.237
 5884WAT      O18170   1.602   4.793   3.370
 5884WAT     H118171   1.554   4.873   3.351
 5884WAT     H218172   1.534   4.727   3.385
 5885WAT      O18173   0.702   4.409   3.669
 5885WAT     H118174   0.613   4.432   3.693
 5885WAT     H218175   0.705   4.421   3.574
 5886WAT      O18176   1.406   4.094   2.260
 5886WAT     H118177   1.450   4.010   2.246
 5886WAT     H218178   1.478   4.157   2.269
 5887WAT      O18179   0.585   4.096   3.526
 5887WAT     H118180   0.571   4.183   3.563
 5887WAT     H218181   0.497   4.062   3.512
 5888WAT      O18182   1.217   4.588   2.657
 5888WAT     H118183   1.261   4.662   2.616
 5888WAT     H218184   1.211   4.612   2.749
 5889WAT      O18185   0.765   4.690   3.747
 5889WAT     H118186   0.762   4.731   3.660
 5889WAT     H218187   0.749   4.598   3.731
 5890WAT      O18188   1.765   3.219   2.092
 5890WAT     H118189   1.733   3.229   2.182
 5890WAT     H218190   1.841   3.277   2.087
 5891WAT      O18191   0.416   3.956   2.537
 5891WAT     H118192   0.404   4.029   2.476
 5891WAT     H218193   0.385   3.879   2.490
 5892WAT      O18194   1.960   4.769   3.877
 5892WAT     H118195   2.008   4.817   3.945
 5892WAT     H218196   2.022   4.762   3.804
 5893WAT      O18197   0.180   4.273   3.118
 5893WAT     H118198   0.188   4.287   3.024
 5893WAT     H218199   0.242   4.202   3.137
 5894WAT      O18200   0.305   4.443   2.759
 5894WAT     H118201   0.264   4.457   2.674
 5894WAT     H218202   0.394   4.415   2.739
 5895WAT      O18203   1.900   4.488   3.593
 5895WAT     H118204   1.913   4.464   3.501
 5895WAT     H218205   1.905   4.405   3.640
 5896WAT      O18206   1.287   4.858   3.450
 5896WAT     H118207   1.338   4.849   3.530
 5896WAT     H218208   1.202   4.893   3.479
 5897WAT      O18209   1.484   4.887   2.393
 5897WAT     H118210   1.468   4.858   2.482
 5897WAT     H218211   1.468   4.809   2.339
 5898WAT      O18212   0.732   4.865   2.570
 5898WAT     H118213   0.714   4.773   2.549
 5898WAT     H218214   0.647   4.901   2.594
 5899WAT      O18215   1.454   4.638   2.249
 5899WAT     H118216   1.385   4.637   2.183
 5899WAT     H218217   1.529   4.595   2.206
 5900WAT      O18218   1.411   4.800   2.656
 5900WAT     H118219   1.456   4.722   2.687
 5900WAT     H218220   1.445   4.871   2.710
 5901WAT      O18221   1.886   3.693   3.689
 5901WAT     H118222   1.824   3.744   3.636
 5901WAT     H218223   1.854   3.603   3.684
 5902WAT      O18224   0.186   4.377   3.372
 5902WAT     H118225   0.202   4.330   3.290
 5902WAT     H218226   0.232   4.327   3.438
 5903WAT      O18227   0.663   3.290   2.876
 5903WAT     H118228   0.619   3.369   2.842
 5903WAT     H218229   0.719   3.323   2.946
 5904WAT      O18230   1.092   3.577   3.436
 5904WAT     H118231   1.046   3.598   3.517
 5904WAT     H218232   1.052   3.496   3.406
 5905WAT      O18233   1.592   3.699   3.549
 5905WAT     H118234   1.507   3.669   3.581
 5905WAT     H218235   1.576   3.724   3.458
 5906WAT      O18236   1.301   3.849   3.759
 5906WAT     H118237   1.334   3.766   3.725
 5906WAT     H218238   1.380   3.902   3.774
 5907WAT      O18239   0.975   3.253   2.364
 5907WAT     H118240   0.912   3.252   2.436
 5907WAT     H218241   0.966   3.166   2.324
 5908WAT      O18242   0.867   3.345   3.061
 5908WAT     H118243   0.897   3.436   3.053
 5908WAT     H218244   0.922   3.296   3.000
 5909WAT      O18245   0.642   3.803   2.648
 5909WAT     H118246   0.620   3.781   2.739
 5909WAT     H218247   0.564   3.846   2.614
 5910WAT      O18248   1.365   3.803   2.508
 5910WAT     H118249   1.305   3.876   2.490
 5910WAT     H218250   1.420   3.797   2.430
 5911WAT      O18251   0.886   3.893   3.715
 5911WAT     H118252   0.877   3.799   3.700
 5911WAT     H218253   0.970   3.915   3.675
 5912WAT      O18254   1.226   3.667   2.711
 5912WAT     H118255   1.265   3.699   2.630
 5912WAT     H218256   1.262   3.579   2.723
 5913WAT      O18257   0.399   3.534   3.530
 5913WAT     H118258   0.360   3.619   3.551
 5913WAT     H218259   0.330   3.470   3.549
 5914WAT      O18260   1.057   3.542   3.837
 5914WAT     H118261   0.988   3.523   3.901
 5914WAT     H218262   1.131   3.570   3.891
 5915WAT      O18263   1.284   3.926   3.121
 5915WAT     H118264   1.211   3.977   3.156
 5915WAT     H218265   1.245   3.844   3.091
 5916WAT      O18266   0.928   3.594   2.961
 5916WAT     H118267   0.928   3.550   2.876
 5916WAT     H218268   1.018   3.626   2.972
 5917WAT      O18269   0.513   3.582   2.857
 5917WAT     H118270   0.479   3.630   2.933
 5917WAT     H218271   0.437   3.537   2.821
 5918WAT      O18272   0.934   3.694   2.260
 5918WAT     H118273   0.946   3.690   2.355
 5918WAT     H218274   0.896   3.780   2.245
 5919WAT      O18275   1.331   3.471   3.062
 5919WAT     H118276   1.332   3.517   3.146
 5919WAT     H218277   1.306   3.381   3.083
 5920WAT      O18278   0.836   3.925   2.200
 5920WAT     H118279   0.779   3.880   2.138
 5920WAT     H218280   0.906   3.961   2.147
 5921WAT      O18281   1.673   3.213   3.646
 5921WAT     H118282   1.706   3.140   3.699
 5921WAT     H218283   1.677   3.181   3.556
 5922WAT      O18284   0.343   4.315   3.588
 5922WAT     H118285   0.305   4.251   3.648
 5922WAT     H218286   0.374   4.385   3.645
 5923WAT      O18287   0.958   4.000   3.136
 5923WAT     H118288   0.995   3.952   3.211
 5923WAT     H218289   0.939   4.087   3.170
 5924WAT      O18290   0.245   3.474   2.749
 5924WAT     H118291   0.216   3.438   2.833
 5924WAT     H218292   0.238   3.401   2.688
 5925WAT      O18293   0.737   3.904   3.368
 5925WAT     H118294   0.707   3.992   3.390
 5925WAT     H218295   0.833   3.910   3.371
 5926WAT      O18296   0.590   4.324   2.428
 5926WAT     H118297   0.513   4.270   2.412
 5926WAT     H218298   0.663   4.272   2.394
 5927WAT      O18299   1.212   3.363   2.421
 5927WAT     H118300   1.131   3.314   2.414
 5927WAT     H218301   1.193   3.447   2.379
 5928WAT      O18302   1.204   4.231   3.595
 5928WAT     H118303   1.197   4.139   3.570
 5928WAT     H218304   1.141   4.241   3.667
 5929WAT      O18305   1.483   3.801   2.251
 5929WAT     H118306   1.572   3.832   2.233
 5929WAT     H218307   1.481   3.713   2.212
 5930WAT      O18308   0.594   4.291   2.791
 5930WAT     H118309   0.646   4.211   2.786
 5930WAT     H218310   0.549   4.285   2.875
 5931WAT      O18311   1.083   4.418   2.319
 5931WAT     H118312   1.117   4.492   2.269
 5931WAT     H218313   1.000   4.449   2.355
 5932WAT      O18314   0.343   3.988   3.483
 5932WAT     H118315   0.307   4.054   3.541
 5932WAT     H218316   0.313   3.905   3.520
 5933WAT      O18317   0.663   4.034   3.771
 5933WAT     H118318   0.633   4.048   3.681
 5933WAT     H218319   0.740   3.978   3.762
 5934WAT      O18320   1.197   4.513   3.571
 5934WAT     H118321   1.199   4.420   3.549
 5934WAT     H218322   1.127   4.522   3.634
 5935WAT      O18323   1.711   3.932   2.198
 5935WAT     H118324   1.702   3.975   2.112
 5935WAT     H218325   1.783   3.978   2.241
 5936WAT      O18326   1.818   4.177   3.505
 5936WAT     H118327   1.746   4.237   3.485
 5936WAT     H218328   1.871   4.177   3.425
 5937WAT      O18329   1.371   4.350   2.855
 5937WAT     H118330   1.407   4.290   2.789
 5937WAT     H218331   1.283   4.317   2.872
 5938WAT      O18332   0.980   4.426   2.596
 5938WAT     H118333   1.049   4.481   2.634
 5938WAT     H218334   0.901   4.480   2.599
 5939WAT      O18335   0.910   4.126   2.557
 5939WAT     H118336   0.956   4.207   2.580
 5939WAT     H218337   0.875   4.095   2.640
 5940WAT      O18338   1.141   4.677   3.280
 5940WAT     H118339   1.205   4.698   3.348
 5940WAT     H218340   1.177   4.601   3.235
 5941WAT      O18341   0.500   3.161   2.604
 5941WAT     H118342   0.488   3.160   2.699
 5941WAT     H218343   0.418   3.195   2.569
 5942WAT      O18344   1.268   4.478   3.152
 5942WAT     H118345   1.332   4.408   3.163
 5942WAT     H218346   1.320   4.556   3.134
 5943WAT      O18347   1.652   4.506   2.124
 5943WAT     H118348   1.630   4.435   2.183
 5943WAT     H218349   1.613   4.481   2.040
 5944WAT      O18350   1.445   4.558   3.472
 5944WAT     H118351   1.479   4.616   3.540
 5944WAT     H218352   1.353   4.545   3.495
 5945WAT      O18353   0.231   4.909   2.202
 5945WAT     H118354   0.267   4.969   2.136
 5945WAT     H218355   0.217   4.964   2.279
 5946WAT      O18356   1.611   4.298   2.290
 5946WAT     H118357   1.582   4.344   2.369
 5946WAT     H218358   1.690   4.252   2.317
 5947WAT      O18359   0.229   4.736   3.649
 5947WAT     H118360   0.240   4.641   3.635
 5947WAT     H218361   0.164   4.762   3.584
 5948WAT      O18362   1.028   4.563   3.789
 5948WAT     H118363   0.996   4.491   3.843
 5948WAT     H218364   0.961   4.630   3.796
 5949WAT      O18365   0.832   4.647   2.283
 5949WAT     H118366   0.831   4.721   2.222
 5949WAT     H218367   0.740   4.623   2.293
 5950WAT      O18368   0.392   4.169   2.358
 5950WAT     H118369   0.332   4.243   2.359
 5950WAT     H218370   0.440   4.178   2.275
 5951WAT      O18371   1.350   3.586   3.325
 5951WAT     H118372   1.387   3.504   3.358
 5951WAT     H218373   1.264   3.592   3.367
 5952WAT      O18374   1.686   3.481   2.406
 5952WAT     H118375   1.623   3.492   2.335
 5952WAT     H218376   1.637   3.503   2.485
 5953WAT      O18377   1.131   4.654   2.150
 5953WAT     H118378   1.141   4.633   2.057
 5953WAT     H218379   1.041   4.628   2.170
 5954WAT      O18380   0.883   3.709   2.548
 5954WAT     H118381   0.812   3.756   2.592
 5954WAT     H218382   0.912   3.644   2.611
 5955WAT      O18383   1.046   3.851   3.348
 5955WAT     H118384   1.096   3.899   3.414
 5955WAT     H218385   1.060   3.759   3.368
 5956WAT      O18386   1.286   3.382   2.692
 5956WAT     H118387   1.274   3.384   2.597
 5956WAT     H218388   1.381   3.387   2.704
 5957WAT      O18389   0.995   4.905   2.619
 5957WAT     H118390   1.021   4.902   2.527
 5957WAT     H218391   0.900   4.893   2.618
 5958WAT      O18392   0.704   3.540   2.285
 5958WAT     H118393   0.788   3.584   2.279
 5958WAT     H218394   0.667   3.571   2.368
 5959WAT      O18395   1.766   3.473   3.432
 5959WAT     H118396   1.716   3.547   3.466
 5959WAT     H218397   1.848   3.512   3.400
 5960WAT      O18398   1.596   3.997   2.777
 5960WAT     H118399   1.502   3.999   2.794
 5960WAT     H218400   1.627   3.919   2.821
 5961WAT      O18401   0.593   4.166   2.133
 5961WAT     H118402   0.670   4.154   2.189
 5961WAT     H218403   0.601   4.096   2.067
 5962WAT      O18404   0.463   3.909   2.201
 5962WAT     H118405   0.471   3.814   2.212
 5962WAT     H218406   0.552   3.942   2.212
 5963WAT      O18407   0.543   4.924   2.911
 5963WAT     H118408   0.617   4.869   2.938
 5963WAT     H218409   0.581   5.010   2.897
 5964WAT      O18410   0.444   4.842   3.830
 5964WAT     H118411   0.524   4.874   3.872
 5964WAT     H218412   0.392   4.806   3.902
 5965WAT      O18413   0.854   4.841   2.094
 5965WAT     H118414   0.933   4.870   2.048
 5965WAT     H218415   0.802   4.798   2.026
 5966WAT      O18416   1.327   4.453   3.825
 5966WAT     H118417   1.267   4.455   3.751
 5966WAT     H218418   1.297   4.380   3.879
 5967WAT      O18419   1.470   4.826   3.686
 5967WAT     H118420   1.566   4.817   3.681
 5967WAT     H218421   1.456   4.892   3.753
 5968WAT      O18422   1.759   4.764   2.236
 5968WAT     H118423   1.731   4.722   2.154
 5968WAT     H218424   1.740   4.857   2.224
 5969WAT      O18425   0.906   4.363   2.080
 5969WAT     H118426   0.895   4.302   2.153
 5969WAT     H218427   0.889   4.311   2.002
 5970WAT      O18428   0.921   4.232   3.678
 5970WAT     H118429   0.844   4.288   3.669
 5970WAT     H218430   0.939   4.202   3.589
 5971WAT      O18431   1.230   4.269   2.140
 5971WAT     H118432   1.175   4.314   2.205
 5971WAT     H218433   1.292   4.219   2.193
 5972WAT      O18434   1.635   4.405   3.734
 5972WAT     H118435   1.709   4.438   3.683
 5972WAT     H218436   1.559   4.422   3.678
 5973WAT      O18437   0.419   3.905   3.814
 5973WAT     H118438   0.423   3.875   3.905
 5973WAT     H218439   0.504   3.945   3.798
 5974WAT      O18440   0.797   4.165   2.330
 5974WAT     H118441   0.839   4.149   2.414
 5974WAT     H218442   0.809   4.084   2.281
 5975WAT      O18443   0.613   3.763   3.611
 5975WAT     H118444   0.560   3.714   3.548
 5975WAT     H218445   0.680   3.806   3.557
 5976WAT      O18446   1.048   4.068   2.055
 5976WAT     H118447   1.100   3.996   2.018
 5976WAT     H218448   1.113   4.131   2.085
 5977WAT      O18449   1.503   4.210   3.587
 5977WAT     H118450   1.544   4.225   3.672
 5977WAT     H218451   1.409   4.222   3.603
 5978WAT      O18452   1.550   3.944   3.788
 5978WAT     H118453   1.608   3.868   3.779
 5978WAT     H218454   1.568   3.997   3.710
 5979WAT      O18455   0.662   3.460   3.619
 5979WAT     H118456   0.652   3.398   3.546
 5979WAT     H218457   0.604   3.532   3.596
 5980WAT      O18458   0.938   3.316   3.322
 5980WAT     H118459   0.893   3.318   3.237
 5980WAT     H218460   0.875   3.276   3.382
 5981WAT      O18461   0.979   4.205   3.384
 5981WAT     H118462   1.021   4.289   3.367
 5981WAT     H218463   0.887   4.219   3.361
 5982WAT      O18464   1.212   3.978   3.523
 5982WAT     H118465   1.224   3.919   3.596
 5982WAT     H218466   1.298   3.982   3.481
 5983WAT      O18467   1.446   4.034   3.380
 5983WAT     H118468   1.394   4.086   3.320
 5983WAT     H218469   1.481   4.097   3.443
 5984WAT      O18470   0.686   3.773   2.025
 5984WAT     H118471   0.666   3.686   2.061
 5984WAT     H218472   0.669   3.764   1.931
 5985WAT      O18473   0.764   4.836   3.496
 5985WAT     H118474   0.710   4.908   3.464
 5985WAT     H218475   0.789   4.788   3.417
 5986WAT      O18476   0.889   3.632   3.648
 5986WAT     H118477   0.948   3.602   3.717
 5986WAT     H218478   0.807   3.585   3.664
 5987WAT      O18479   1.371   3.594   3.672
 5987WAT     H118480   1.302   3.528   3.665
 5987WAT     H218481   1.443   3.549   3.716
 5988WAT      O18482   1.434   3.254   2.278
 5988WAT     H118483   1.462   3.169   2.313
 5988WAT     H218484   1.357   3.277   2.329
 5989WAT      O18485   0.566   3.483   2.023
 5989WAT     H118486   0.596   3.483   1.933
 5989WAT     H218487   0.640   3.447   2.073
 5990WAT      O18488   1.050   4.959   3.522
 5990WAT     H118489   1.042   5.049   3.552
 5990WAT     H218490   0.959   4.927   3.519
 5991WAT      O18491   0.888   3.377   2.122
 5991WAT     H118492   0.853   3.309   2.064
 5991WAT     H218493   0.908   3.331   2.203
 5992WAT      O18494   1.104   4.876   2.284
 5992WAT     H118495   1.194   4.910   2.286
 5992WAT     H218496   1.108   4.803   2.221
 5993WAT      O18497   0.468   4.413   2.107
 5993WAT     H118498   0.512   4.467   2.172
 5993WAT     H218499   0.517   4.330   2.108
 5994WAT      O18500   0.190   4.692   2.852
 5994WAT     H118501   0.223   4.605   2.829
 5994WAT     H218502   0.233   4.712   2.935
 5995WAT      O18503   0.649   4.525   2.618
 5995WAT     H118504   0.619   4.513   2.708
 5995WAT     H218505   0.639   4.439   2.577
 5996WAT      O18506   0.239   4.779   3.126
 5996WAT     H118507   0.195   4.797   3.209
 5996WAT     H218508   0.295   4.854   3.112
 5997WAT      O18509   1.802   4.729   3.555
 5997WAT     H118510   1.742   4.735   3.480
 5997WAT     H218511   1.815   4.635   3.567
 5998WAT      O18512   1.926   4.503   2.088
 5998WAT     H118513   1.843   4.510   2.135
 5998WAT     H218514   1.944   4.592   2.058
 5999WAT      O18515   1.872   4.177   2.339
 5999WAT     H118516   1.948   4.234   2.349
 5999WAT     H218517   1.873   4.121   2.416
 6000WAT      O18518   1.671   4.401   3.364
 6000WAT     H118519   1.589   4.444   3.391
 6000WAT     H218520   1.712   4.462   3.303
 6001WAT      O18521   1.877   4.207   2.054
 6001WAT     H118522   1.905   4.297   2.041
 6001WAT     H218523   1.858   4.200   2.148
 6002WAT      O18524   1.517   3.509   2.184
 6002WAT     H118525   1.559   3.490   2.100
 6002WAT     H218526   1.486   3.424   2.215
 6003WAT      O18527   1.867   4.000   2.554
 6003WAT     H118528   1.829   3.924   2.510
 6003WAT     H218529   1.794   4.039   2.602
 6004WAT      O18530   0.326   4.068   3.216
 6004WAT     H118531   0.362   4.060   3.304
 6004WAT     H218532   0.269   3.992   3.206
 6005WAT      O18533   1.806   3.915   3.517
 6005WAT     H118534   1.783   3.892   3.427
 6005WAT     H218535   1.832   4.007   3.512
 6006WAT      O18536   0.281   3.759   3.606
 6006WAT     H118537   0.191   3.756   3.640
 6006WAT     H218538   0.335   3.779   3.683
 6007WAT      O18539   1.650   3.438   3.795
 6007WAT     H118540   1.737   3.439   3.833
 6007WAT     H218541   1.651   3.364   3.734
 6008WAT      O18542   1.794   3.823   2.884
 6008WAT     H118543   1.847   3.774   2.821
 6008WAT     H218544   1.853   3.836   2.958
 6009WAT      O18545   1.812   3.831   3.236
 6009WAT     H118546   1.717   3.828   3.247
 6009WAT     H218547   1.830   3.922   3.212
 6010WAT      O18548   0.398   3.656   2.147
 6010WAT     H118549   0.469   3.614   2.098
 6010WAT     H218550   0.326   3.663   2.084
 6011WAT      O18551   0.362   3.262   2.051
 6011WAT     H118552   0.435   3.316   2.083
 6011WAT     H218553   0.390   3.234   1.963
 6012WAT      O18554   1.743   3.749   2.478
 6012WAT     H118555   1.793   3.725   2.556
 6012WAT     H218556   1.723   3.665   2.436
 6013WAT      O18557   0.331   3.187   3.041
 6013WAT     H118558   0.396   3.132   2.997
 6013WAT     H218559   0.373   3.212   3.123
 6014WAT      O18560   1.886   3.612   2.731
 6014WAT     H118561   1.875   3.597   2.825
 6014WAT     H218562   1.962   3.560   2.707
 6015WAT      O18563   1.721   3.206   3.377
 6015WAT     H118564   1.785   3.268   3.413
 6015WAT     H218565   1.736   3.210   3.282
 6016WAT      O18566   1.975   3.395   2.055
 6016WAT     H118567   2.068   3.382   2.034
 6016WAT     H218568   1.973   3.403   2.150
 6017WAT      O18569   1.677   4.876   2.717
 6017WAT     H118570   1.736   4.844   2.649
 6017WAT     H218571   1.702   4.829   2.796
 6018WAT      O18572   0.307   3.202   3.315
 6018WAT     H118573   0.272   3.248   3.392
 6018WAT     H218574   0.273   3.113   3.324
 6019WAT      O18575   0.467   4.520   3.732
 6019WAT     H118576   0.463   4.483   3.820
 6019WAT     H218577   0.480   4.613   3.746
 6020WAT      O18578   0.837   4.675   3.292
 6020WAT     H118579   0.813   4.702   3.203
 6020WAT     H218580   0.931   4.692   3.297
 6021WAT      O18581   1.058   3.322   3.668
 6021WAT     H118582   1.052   3.381   3.742
 6021WAT     H218583   1.152   3.311   3.653
 6022WAT      O18584   1.322   3.287   3.631
 6022WAT     H118585   1.383   3.319   3.565
 6022WAT     H218586   1.376   3.239   3.693
 6023WAT      O18587   0.374   3.155   3.643
 6023WAT     H118588   0.429   3.137   3.566
 6023WAT     H218589   0.380   3.076   3.696
 6024WAT      O18590   0.451   4.814   3.444
 6024WAT     H118591   0.392   4.801   3.518
 6024WAT     H218592   0.450   4.731   3.397
 6025WAT      O18593   1.396   3.144   3.264
 6025WAT     H118594   1.308   3.177   3.244
 6025WAT     H218595   1.385   3.096   3.347
 6026WAT      O18596   1.486   3.364   3.403
 6026WAT     H118597   1.454   3.283   3.365
 6026WAT     H218598   1.581   3.360   3.390
 6027WAT      O18599   1.732   4.941   3.100
 6027WAT     H118600   1.686   5.017   3.063
 6027WAT     H218601   1.669   4.869   3.094
 6028WAT      O18602   0.414   4.551   3.339
 6028WAT     H118603   0.342   4.489   3.332
 6028WAT     H218604   0.420   4.590   3.252
 6029WAT      O18605   0.775   4.772   3.017
 6029WAT     H118606   0.826   4.711   2.965
 6029WAT     H218607   0.840   4.823   3.067
 6030WAT      O18608   1.049   4.861   3.100
 6030WAT     H118609   1.077   4.836   3.012
 6030WAT     H218610   1.100   4.806   3.159
 6031WAT      O18611   1.170   3.235   3.158
 6031WAT     H118612   1.092   3.283   3.186
 6031WAT     H218613   1.141   3.145   3.147
 6032WAT      O18614   1.626   3.305   2.963
 6032WAT     H118615   1.670   3.300   2.878
 6032WAT     H218616   1.599   3.397   2.970
 6033WAT      O18617   1.812   3.269   2.764
 6033WAT     H118618   1.806   3.174   2.749
 6033WAT     H218619   1.890   3.279   2.818
 6034WAT      O18620   0.305   3.266   2.410
 6034WAT     H118621   0.381   3.277   2.353
 6034WAT     H218622   0.259   3.349   2.406
 6035WAT      O18623   0.959   3.477   2.709
 6035WAT     H118624   0.878   3.440   2.675
 6035WAT     H218625   1.009   3.402   2.739
 6036WAT      O18626   1.409   3.144   2.833
 6036WAT     H118627   1.470   3.201   2.881
 6036WAT     H218628   1.335   3.200   2.811
 6037WAT      O18629   1.724   3.184   2.360
 6037WAT     H118630   1.743   3.274   2.387
 6037WAT     H218631   1.645   3.161   2.410
 6038WAT      O18632   0.403   4.752   2.404
 6038WAT     H118633   0.351   4.790   2.334
 6038WAT     H218634   0.396   4.814   2.476
 6039WAT      O18635   0.542   3.318   2.264
 6039WAT     H118636   0.595   3.240   2.251
 6039WAT     H218637   0.605   3.386   2.288
 6040WAT      O18638   0.761   3.292   2.570
 6040WAT     H118639   0.698   3.222   2.586
 6040WAT     H218640   0.708   3.368   2.548
 6041WAT      O18641   1.055   4.953   3.837
 6041WAT     H118642   1.148   4.930   3.841
 6041WAT     H218643   1.054   5.036   3.789
 6042WAT      O18644   1.879   4.908   2.537
 6042WAT     H118645   1.896   4.839   2.472
 6042WAT     H218646   1.809   4.960   2.497
 6043WAT      O18647   0.774   3.220   3.813
 6043WAT     H118648   0.746   3.270   3.737
 6043WAT     H218649   0.812   3.140   3.777
 6044WAT      O18650   0.663   4.947   2.292
 6044WAT     H118651   0.736   4.918   2.237
 6044WAT     H218652   0.689   4.923   2.381
 6045WAT      O18653   0.579   4.558   2.292
 6045WAT     H118654   0.516   4.605   2.347
 6045WAT     H218655   0.591   4.474   2.336
 6046WAT      O18656   1.434   3.161   3.871
 6046WAT     H118657   1.423   3.193   3.961
 6046WAT     H218658   1.516   3.202   3.841
 6047WAT      O18659   1.712   4.876   3.819
 6047WAT     H118660   1.791   4.827   3.798
 6047WAT     H218661   1.741   4.944   3.880
 6048WAT      O18662   1.325   3.963   0.907
 6048WAT     H118663   1.317   3.872   0.880
 6048WAT     H218664   1.283   4.013   0.837
 6049WAT      O18665   1.138   4.141   1.095
 6049WAT     H118666   1.060   4.093   1.124
 6049WAT     H218667   1.203   4.073   1.078
 6050WAT      O18668   0.540   4.172   1.183
 6050WAT     H118669   0.456   4.147   1.223
 6050WAT     H218670   0.600   4.179   1.257
 6051WAT      O18671   1.540   4.582   0.973
 6051WAT     H118672   1.494   4.505   1.006
 6051WAT     H218673   1.621   4.584   1.024
 6052WAT      O18674   0.538   4.576   1.203
 6052WAT     H118675   0.568   4.487   1.185
 6052WAT     H218676   0.612   4.631   1.180
 6053WAT      O18677   0.380   3.668   0.562
 6053WAT     H118678   0.292   3.703   0.551
 6053WAT     H218679   0.409   3.648   0.472
 6054WAT      O18680   0.177   3.928   1.150
 6054WAT     H118681   0.234   3.852   1.150
 6054WAT     H218682   0.177   3.958   1.059
 6055WAT      O18683   1.163   4.810   0.935
 6055WAT     H118684   1.101   4.856   0.878
 6055WAT     H218685   1.248   4.826   0.895
 6056WAT      O18686   1.082   4.409   1.096
 6056WAT     H118687   1.075   4.315   1.080
 6056WAT     H218688   1.158   4.418   1.153
 6057WAT      O18689   0.301   3.469   1.329
 6057WAT     H118690   0.283   3.380   1.357
 6057WAT     H218691   0.261   3.524   1.396
 6058WAT      O18692   1.185   3.689   1.119
 6058WAT     H118693   1.223   3.602   1.108
 6058WAT     H218694   1.175   3.723   1.030
 6059WAT      O18695   0.598   3.527   0.665
 6059WAT     H118696   0.609   3.617   0.696
 6059WAT     H218697   0.507   3.522   0.636
 6060WAT      O18698   1.563   3.439   0.812
 6060WAT     H118699   1.645   3.390   0.816
 6060WAT     H218700   1.567   3.498   0.887
 6061WAT      O18701   0.363   3.719   1.190
 6061WAT     H118702   0.431   3.745   1.251
 6061WAT     H218703   0.331   3.635   1.223
 6062WAT      O18704   0.782   3.824   1.098
 6062WAT     H118705   0.833   3.873   1.162
 6062WAT     H218706   0.835   3.746   1.081
 6063WAT      O18707   1.992   3.641   1.469
 6063WAT     H118708   1.922   3.679   1.417
 6063WAT     H218709   2.019   3.710   1.529
 6064WAT      O18710   0.611   3.288   1.525
 6064WAT     H118711   0.611   3.339   1.444
 6064WAT     H218712   0.528   3.240   1.523
 6065WAT      O18713   1.249   4.299   0.675
 6065WAT     H118714   1.187   4.345   0.618
 6065WAT     H218715   1.300   4.368   0.716
 6066WAT      O18716   0.736   4.252   1.343
 6066WAT     H118717   0.702   4.314   1.407
 6066WAT     H218718   0.753   4.304   1.265
 6067WAT      O18719   1.587   3.633   1.089
 6067WAT     H118720   1.516   3.662   1.147
 6067WAT     H218721   1.623   3.714   1.053
 6068WAT      O18722   0.579   3.459   1.326
 6068WAT     H118723   0.613   3.543   1.296
 6068WAT     H218724   0.485   3.474   1.337
 6069WAT      O18725   0.657   4.448   1.524
 6069WAT     H118726   0.719   4.516   1.496
 6069WAT     H218727   0.571   4.489   1.515
 6070WAT      O18728   1.749   4.595   1.316
 6070WAT     H118729   1.680   4.662   1.315
 6070WAT     H218730   1.802   4.615   1.239
 6071WAT      O18731   1.894   3.578   1.128
 6071WAT     H118732   1.799   3.581   1.142
 6071WAT     H218733   1.926   3.659   1.167
 6072WAT      O18734   0.947   3.207   0.958
 6072WAT     H118735   0.978   3.152   0.886
 6072WAT     H218736   0.854   3.221   0.940
 6073WAT      O18737   1.502   4.779   1.187
 6073WAT     H118738   1.503   4.739   1.100
 6073WAT     H218739   1.447   4.857   1.177
 6074WAT      O18740   1.632   4.451   0.696
 6074WAT     H118741   1.621   4.357   0.709
 6074WAT     H218742   1.631   4.487   0.785
 6075WAT      O18743   1.442   4.269   1.320
 6075WAT     H118744   1.484   4.248   1.236
 6075WAT     H218745   1.514   4.295   1.377
 6076WAT      O18746   1.186   4.014   0.632
 6076WAT     H118747   1.093   4.007   0.655
 6076WAT     H218748   1.201   4.108   0.620
 6077WAT      O18749   1.184   3.641   0.331
 6077WAT     H118750   1.091   3.657   0.340
 6077WAT     H218751   1.216   3.713   0.277
 6078WAT      O18752   1.837   4.109   1.329
 6078WAT     H118753   1.754   4.116   1.282
 6078WAT     H218754   1.896   4.168   1.282
 6079WAT      O18755   1.589   4.170   0.682
 6079WAT     H118756   1.527   4.136   0.617
 6079WAT     H218757   1.587   4.106   0.753
 6080WAT      O18758   1.533   3.788   1.424
 6080WAT     H118759   1.492   3.871   1.449
 6080WAT     H218760   1.460   3.729   1.404
 6081WAT      O18761   0.746   4.067   0.910
 6081WAT     H118762   0.706   3.995   0.860
 6081WAT     H218763   0.755   4.032   0.999
 6082WAT      O18764   0.793   4.435   1.126
 6082WAT     H118765   0.763   4.375   1.058
 6082WAT     H218766   0.888   4.439   1.115
 6083WAT      O18767   0.618   3.744   1.288
 6083WAT     H118768   0.673   3.755   1.210
 6083WAT     H218769   0.669   3.781   1.359
 6084WAT      O18770   1.602   4.793   1.492
 6084WAT     H118771   1.554   4.873   1.473
 6084WAT     H218772   1.534   4.727   1.508
 6085WAT      O18773   0.702   4.409   1.791
 6085WAT     H118774   0.613   4.432   1.816
 6085WAT     H218775   0.705   4.421   1.696
 6086WAT      O18776   1.406   4.094   0.383
 6086WAT     H118777   1.450   4.010   0.368
 6086WAT     H218778   1.478   4.157   0.391
 6087WAT      O18779   0.585   4.096   1.649
 6087WAT     H118780   0.571   4.183   1.686
 6087WAT     H218781   0.497   4.062   1.634
 6088WAT      O18782   1.217   4.588   0.780
 6088WAT     H118783   1.261   4.662   0.738
 6088WAT     H218784   1.211   4.612   0.872
 6089WAT      O18785   0.765   4.690   1.870
 6089WAT     H118786   0.762   4.731   1.783
 6089WAT     H218787   0.749   4.598   1.853
 6090WAT      O18788   1.765   3.219   0.214
 6090WAT     H118789   1.733   3.229   0.304
 6090WAT     H218790   1.841   3.277   0.209
 6091WAT      O18791   0.416   3.956   0.660
 6091WAT     H118792   0.404   4.029   0.599
 6091WAT     H218793   0.385   3.879   0.612
 6092WAT      O18794   1.960   4.769   1.999
 6092WAT     H118795   2.008   4.817   2.067
 6092WAT     H218796   2.022   4.762   1.927
 6093WAT      O18797   0.180   4.273   1.241
 6093WAT     H118798   0.188   4.287   1.146
 6093WAT     H218799   0.242   4.202   1.260
 6094WAT      O18800   0.305   4.443   0.882
 6094WAT     H118801   0.264   4.457   0.796
 6094WAT     H218802   0.394   4.415   0.861
 6095WAT      O18803   1.900   4.488   1.715
 6095WAT     H118804   1.913   4.464   1.624
 6095WAT     H218805   1.905   4.405   1.763
 6096WAT      O18806   1.287   4.858   1.572
 6096WAT     H118807   1.338   4.849   1.653
 6096WAT     H218808   1.202   4.893   1.602
 6097WAT      O18809   1.484   4.887   0.515
 6097WAT     H118810   1.468   4.858   0.605
 6097WAT     H218811   1.468   4.809   0.462
 6098WAT      O18812   0.732   4.865   0.693
 6098WAT     H118813   0.714   4.773   0.672
 6098WAT     H218814   0.647   4.901   0.717
 6099WAT      O18815   1.454   4.638   0.371
 6099WAT     H118816   1.385   4.637   0.305
 6099WAT     H218817   1.529   4.595   0.328
 6100WAT      O18818   1.411   4.800   0.779
 6100WAT     H118819   1.456   4.722   0.810
 6100WAT     H218820   1.445   4.871   0.833
 6101WAT      O18821   1.886   3.693   1.812
 6101WAT     H118822   1.824   3.744   1.759
 6101WAT     H218823   1.854   3.603   1.806
 6102WAT      O18824   0.186   4.377   1.495
 6102WAT     H118825   0.202   4.330   1.413
 6102WAT     H218826   0.232   4.327   1.561
 6103WAT      O18827   0.663   3.290   0.998
 6103WAT     H118828   0.619   3.369   0.965
 6103WAT     H218829   0.719   3.323   1.069
 6104WAT      O18830   1.092   3.577   1.558
 6104WAT     H118831   1.046   3.598   1.640
 6104WAT     H218832   1.052   3.496   1.528
 6105WAT      O18833   1.592   3.699   1.671
 6105WAT     H118834   1.507   3.669   1.704
 6105WAT     H218835   1.576   3.724   1.580
 6106WAT      O18836   1.301   3.849   1.881
 6106WAT     H118837   1.334   3.766   1.847
 6106WAT     H218838   1.380   3.902   1.896
 6107WAT      O18839   0.975   3.253   0.486
 6107WAT     H118840   0.912   3.252   0.559
 6107WAT     H218841   0.966   3.166   0.447
 6108WAT      O18842   0.867   3.345   1.184
 6108WAT     H118843   0.897   3.436   1.176
 6108WAT     H218844   0.922   3.296   1.123
 6109WAT      O18845   0.642   3.803   0.771
 6109WAT     H118846   0.620   3.781   0.861
 6109WAT     H218847   0.564   3.846   0.736
 6110WAT      O18848   1.365   3.803   0.631
 6110WAT     H118849   1.305   3.876   0.612
 6110WAT     H218850   1.420   3.797   0.553
 6111WAT      O18851   0.886   3.893   1.838
 6111WAT     H118852   0.877   3.799   1.823
 6111WAT     H218853   0.970   3.915   1.798
 6112WAT      O18854   1.226   3.667   0.834
 6112WAT     H118855   1.265   3.699   0.753
 6112WAT     H218856   1.262   3.579   0.845
 6113WAT      O18857   0.399   3.534   1.653
 6113WAT     H118858   0.360   3.619   1.674
 6113WAT     H218859   0.330   3.470   1.672
 6114WAT      O18860   1.057   3.542   1.960
 6114WAT     H118861   0.988   3.523   2.023
 6114WAT     H218862   1.131   3.570   2.013
 6115WAT      O18863   1.284   3.926   1.243
 6115WAT     H118864   1.211   3.977   1.278
 6115WAT     H218865   1.245   3.844   1.213
 6116WAT      O18866   0.928   3.594   1.084
 6116WAT     H118867   0.928   3.550   0.999
 6116WAT     H218868   1.018   3.626   1.095
 6117WAT      O18869   0.513   3.582   0.980
 6117WAT     H118870   0.479   3.630   1.056
 6117WAT     H218871   0.437   3.537   0.944
 6118WAT      O18872   0.934   3.694   0.383
 6118WAT     H118873   0.946   3.690   0.478
 6118WAT     H218874   0.896   3.780   0.367
 6119WAT      O18875   1.331   3.471   1.185
 6119WAT     H118876   1.332   3.517   1.269
 6119WAT     H218877   1.306   3.381   1.206
 6120WAT      O18878   0.836   3.925   0.323
 6120WAT     H118879   0.779   3.880   0.260
 6120WAT     H218880   0.906   3.961   0.269
 6121WAT      O18881   1.673   3.213   1.768
 6121WAT     H118882   1.706   3.140   1.821
 6121WAT     H218883   1.677   3.181   1.678
 6122WAT      O18884   0.343   4.315   1.710
 6122WAT     H118885   0.305   4.251   1.770
 6122WAT     H218886   0.374   4.385   1.767
 6123WAT      O18887   0.958   4.000   1.259
 6123WAT     H118888   0.995   3.952   1.333
 6123WAT     H218889   0.939   4.087   1.293
 6124WAT      O18890   0.245   3.474   0.872
 6124WAT     H118891   0.216   3.438   0.955
 6124WAT     H218892   0.238   3.401   0.810
 6125WAT      O18893   0.737   3.904   1.490
 6125WAT     H118894   0.707   3.992   1.513
 6125WAT     H218895   0.833   3.910   1.494
 6126WAT      O18896   0.590   4.324   0.550
 6126WAT     H118897   0.513   4.270   0.534
 6126WAT     H218898   0.663   4.272   0.516
 6127WAT      O18899   1.666   4.224   1.129
 6127WAT     H118900   1.738   4.274   1.090
 6127WAT     H218901   1.646   4.156   1.065
 6128WAT      O18902   1.212   3.363   0.544
 6128WAT     H118903   1.131   3.314   0.536
 6128WAT     H218904   1.193   3.447   0.502
 6129WAT      O18905   1.204   4.231   1.718
 6129WAT     H118906   1.197   4.139   1.693
 6129WAT     H218907   1.141   4.241   1.789
 6130WAT      O18908   1.483   3.801   0.373
 6130WAT     H118909   1.572   3.832   0.356
 6130WAT     H218910   1.481   3.713   0.334
 6131WAT      O18911   0.594   4.291   0.914
 6131WAT     H118912   0.646   4.211   0.908
 6131WAT     H218913   0.549   4.285   0.998
 6132WAT      O18914   1.083   4.418   0.441
 6132WAT     H118915   1.117   4.492   0.392
 6132WAT     H218916   1.000   4.449   0.477
 6133WAT      O18917   0.343   3.988   1.605
 6133WAT     H118918   0.307   4.054   1.664
 6133WAT     H218919   0.313   3.905   1.642
 6134WAT      O18920   0.663   4.034   1.894
 6134WAT     H118921   0.633   4.048   1.804
 6134WAT     H218922   0.740   3.978   1.884
 6135WAT      O18923   1.197   4.513   1.693
 6135WAT     H118924   1.199   4.420   1.671
 6135WAT     H218925   1.127   4.522   1.757
 6136WAT      O18926   1.711   3.932   0.320
 6136WAT     H118927   1.702   3.975   0.235
 6136WAT     H218928   1.783   3.978   0.363
 6137WAT      O18929   1.818   4.177   1.628
 6137WAT     H118930   1.746   4.237   1.608
 6137WAT     H218931   1.871   4.177   1.548
 6138WAT      O18932   1.814   4.617   0.593
 6138WAT     H118933   1.749   4.552   0.620
 6138WAT     H218934   1.775   4.658   0.515
 6139WAT      O18935   1.371   4.350   0.978
 6139WAT     H118936   1.407   4.290   0.912
 6139WAT     H218937   1.283   4.317   0.995
 6140WAT      O18938   0.980   4.426   0.718
 6140WAT     H118939   1.049   4.481   0.756
 6140WAT     H218940   0.901   4.480   0.722
 6141WAT      O18941   0.910   4.126   0.680
 6141WAT     H118942   0.956   4.207   0.702
 6141WAT     H218943   0.875   4.095   0.763
 6142WAT      O18944   1.141   4.677   1.402
 6142WAT     H118945   1.205   4.698   1.470
 6142WAT     H218946   1.177   4.601   1.357
 6143WAT      O18947   0.500   3.161   0.727
 6143WAT     H118948   0.488   3.160   0.822
 6143WAT     H218949   0.418   3.195   0.692
 6144WAT      O18950   1.268   4.478   1.274
 6144WAT     H118951   1.332   4.408   1.286
 6144WAT     H218952   1.320   4.556   1.256
 6145WAT      O18953   1.652   4.506   0.247
 6145WAT     H118954   1.630   4.435   0.306
 6145WAT     H218955   1.613   4.481   0.163
 6146WAT      O18956   1.445   4.558   1.595
 6146WAT     H118957   1.479   4.616   1.662
 6146WAT     H218958   1.353   4.545   1.618
 6147WAT      O18959   0.231   4.909   0.324
 6147WAT     H118960   0.267   4.969   0.259
 6147WAT     H218961   0.217   4.964   0.401
 6148WAT      O18962   1.611   4.298   0.413
 6148WAT     H118963   1.582   4.344   0.492
 6148WAT     H218964   1.690   4.252   0.440
 6149WAT      O18965   0.229   4.736   1.772
 6149WAT     H118966   0.240   4.641   1.757
 6149WAT     H218967   0.164   4.762   1.707
 6150WAT      O18968   1.028   4.563   1.912
 6150WAT     H118969   0.996   4.491   1.966
 6150WAT     H218970   0.961   4.630   1.919
 6151WAT      O18971   0.832   4.647   0.406
 6151WAT     H118972   0.831   4.721   0.344
 6151WAT     H218973   0.740   4.623   0.415
 6152WAT      O18974   0.392   4.169   0.480
 6152WAT     H118975   0.332   4.243   0.481
 6152WAT     H218976   0.440   4.178   0.398
 6153WAT      O18977   1.350   3.586   1.448
 6153WAT     H118978   1.387   3.504   1.481
 6153WAT     H218979   1.264   3.592   1.489
 6154WAT      O18980   1.686   3.481   0.529
 6154WAT     H118981   1.623   3.492   0.457
 6154WAT     H218982   1.637   3.503   0.608
 6155WAT      O18983   1.131   4.654   0.272
 6155WAT     H118984   1.141   4.633   0.179
 6155WAT     H218985   1.041   4.628   0.293
 6156WAT      O18986   0.883   3.709   0.670
 6156WAT     H118987   0.812   3.756   0.714
 6156WAT     H218988   0.912   3.644   0.734
 6157WAT      O18989   1.046   3.851   1.470
 6157WAT     H118990   1.096   3.899   1.537
 6157WAT     H218991   1.060   3.759   1.491
 6158WAT      O18992   1.286   3.382   0.814
 6158WAT     H118993   1.274   3.384   0.719
 6158WAT     H218994   1.381   3.387   0.826
 6159WAT      O18995   0.995   4.905   0.742
 6159WAT     H118996   1.021   4.902   0.649
 6159WAT     H218997   0.900   4.893   0.741
 6160WAT      O18998   0.704   3.540   0.408
 6160WAT     H118999   0.788   3.584   0.401
 6160WAT     H219000   0.667   3.571   0.491
 6161WAT      O19001   1.766   3.473   1.555
 6161WAT     H119002   1.716   3.547   1.588
 6161WAT     H219003   1.848   3.512   1.523
 6162WAT      O19004   1.596   3.997   0.899
 6162WAT     H119005   1.502   3.999   0.917
 6162WAT     H219006   1.627   3.919   0.944
 6163WAT      O19007   0.593   4.166   0.255
 6163WAT     H119008   0.670   4.154   0.311
 6163WAT     H219009   0.601   4.096   0.190
 6164WAT      O19010   0.463   3.909   0.324
 6164WAT     H119011   0.471   3.814   0.335
 6164WAT     H219012   0.552   3.942   0.334
 6165WAT      O19013   1.796   4.714   1.067
 6165WAT     H119014   1.808   4.797   1.114
 6165WAT     H219015   1.883   4.693   1.032
 6166WAT      O19016   0.543   4.924   1.034
 6166WAT     H119017   0.617   4.869   1.061
 6166WAT     H219018   0.581   5.010   1.020
 6167WAT      O19019   0.444   4.842   1.953
 6167WAT     H119020   0.524   4.874   1.994
 6167WAT     H219021   0.392   4.806   2.025
 6168WAT      O19022   0.854   4.841   0.216
 6168WAT     H119023   0.933   4.870   0.171
 6168WAT     H219024   0.802   4.798   0.148
 6169WAT      O19025   1.327   4.453   1.947
 6169WAT     H119026   1.267   4.455   1.873
 6169WAT     H219027   1.297   4.380   2.001
 6170WAT      O19028   1.470   4.826   1.809
 6170WAT     H119029   1.566   4.817   1.804
 6170WAT     H219030   1.456   4.892   1.876
 6171WAT      O19031   1.759   4.764   0.358
 6171WAT     H119032   1.731   4.722   0.277
 6171WAT     H219033   1.740   4.857   0.346
 6172WAT      O19034   0.921   4.232   1.800
 6172WAT     H119035   0.844   4.288   1.792
 6172WAT     H219036   0.939   4.202   1.711
 6173WAT      O19037   1.230   4.269   0.263
 6173WAT     H119038   1.175   4.314   0.327
 6173WAT     H219039   1.292   4.219   0.315
 6174WAT      O19040   1.635   4.405   1.856
 6174WAT     H119041   1.709   4.438   1.806
 6174WAT     H219042   1.559   4.422   1.801
 6175WAT      O19043   0.419   3.905   1.937
 6175WAT     H119044   0.423   3.875   2.027
 6175WAT     H219045   0.504   3.945   1.921
 6176WAT      O19046   0.797   4.165   0.453
 6176WAT     H119047   0.839   4.149   0.537
 6176WAT     H219048   0.809   4.084   0.403
 6177WAT      O19049   0.613   3.763   1.733
 6177WAT     H119050   0.560   3.714   1.671
 6177WAT     H219051   0.680   3.806   1.680
 6178WAT      O19052   1.503   4.210   1.710
 6178WAT     H119053   1.544   4.225   1.795
 6178WAT     H219054   1.409   4.222   1.726
 6179WAT      O19055   1.550   3.944   1.910
 6179WAT     H119056   1.608   3.868   1.901
 6179WAT     H219057   1.568   3.997   1.832
 6180WAT      O19058   0.662   3.460   1.741
 6180WAT     H119059   0.652   3.398   1.669
 6180WAT     H219060   0.604   3.532   1.719
 6181WAT      O19061   0.938   3.316   1.445
 6181WAT     H119062   0.893   3.318   1.360
 6181WAT     H219063   0.875   3.276   1.504
 6182WAT      O19064   0.979   4.205   1.507
 6182WAT     H119065   1.021   4.289   1.489
 6182WAT     H219066   0.887   4.219   1.484
 6183WAT      O19067   1.212   3.978   1.645
 6183WAT     H119068   1.224   3.919   1.719
 6183WAT     H219069   1.298   3.982   1.603
 6184WAT      O19070   1.446   4.034   1.503
 6184WAT     H119071   1.394   4.086   1.442
 6184WAT     H219072   1.481   4.097   1.566
 6185WAT      O19073   0.764   4.836   1.618
 6185WAT     H119074   0.710   4.908   1.586
 6185WAT     H219075   0.789   4.788   1.539
 6186WAT      O19076   0.889   3.632   1.771
 6186WAT     H119077   0.948   3.602   1.840
 6186WAT     H219078   0.807   3.585   1.786
 6187WAT      O19079   1.371   3.594   1.794
 6187WAT     H119080   1.302   3.528   1.788
 6187WAT     H219081   1.443   3.549   1.839
 6188WAT      O19082   1.434   3.254   0.400
 6188WAT     H119083   1.462   3.169   0.436
 6188WAT     H219084   1.357   3.277   0.451
 6189WAT      O19085   1.050   4.959   1.644
 6189WAT     H119086   1.042   5.049   1.675
 6189WAT     H219087   0.959   4.927   1.641
 6190WAT      O19088   0.888   3.377   0.245
 6190WAT     H119089   0.853   3.309   0.187
 6190WAT     H219090   0.908   3.331   0.326
 6191WAT      O19091   1.104   4.876   0.406
 6191WAT     H119092   1.194   4.910   0.409
 6191WAT     H219093   1.108   4.803   0.344
 6192WAT      O19094   0.468   4.413   0.229
 6192WAT     H119095   0.512   4.467   0.295
 6192WAT     H219096   0.517   4.330   0.230
 6193WAT      O19097   0.190   4.692   0.974
 6193WAT     H119098   0.223   4.605   0.951
 6193WAT     H219099   0.233   4.712   1.058
 6194WAT      O19100   0.649   4.525   0.740
 6194WAT     H119101   0.619   4.513   0.831
 6194WAT     H219102   0.639   4.439   0.700
 6195WAT      O19103   0.239   4.779   1.248
 6195WAT     H119104   0.195   4.797   1.332
 6195WAT     H219105   0.295   4.854   1.234
 6196WAT      O19106   1.802   4.729   1.677
 6196WAT     H119107   1.742   4.735   1.603
 6196WAT     H219108   1.815   4.635   1.690
 6197WAT      O19109   1.926   4.503   0.211
 6197WAT     H119110   1.843   4.510   0.258
 6197WAT     H219111   1.944   4.592   0.180
 6198WAT      O19112   1.872   4.177   0.461
 6198WAT     H119113   1.948   4.234   0.472
 6198WAT     H219114   1.873   4.121   0.538
 6199WAT      O19115   1.973   4.263   0.946
 6199WAT     H119116   2.010   4.185   0.905
 6199WAT     H219117   2.037   4.332   0.928
 6200WAT      O19118   1.671   4.401   1.487
 6200WAT     H119119   1.589   4.444   1.513
 6200WAT     H219120   1.712   4.462   1.426
 6201WAT      O19121   1.877   4.207   0.177
 6201WAT     H119122   1.905   4.297   0.164
 6201WAT     H219123   1.858   4.200   0.270
 6202WAT      O19124   1.517   3.509   0.306
 6202WAT     H119125   1.559   3.490   0.222
 6202WAT     H219126   1.486   3.424   0.337
 6203WAT      O19127   1.867   4.000   0.676
 6203WAT     H119128   1.829   3.924   0.633
 6203WAT     H219129   1.794   4.039   0.725
 6204WAT      O19130   0.326   4.068   1.338
 6204WAT     H119131   0.362   4.060   1.426
 6204WAT     H219132   0.269   3.992   1.328
 6205WAT      O19133   1.806   3.915   1.640
 6205WAT     H119134   1.783   3.892   1.549
 6205WAT     H219135   1.832   4.007   1.635
 6206WAT      O19136   0.281   3.759   1.729
 6206WAT     H119137   0.191   3.756   1.763
 6206WAT     H219138   0.335   3.779   1.805
 6207WAT      O19139   1.650   3.438   1.917
 6207WAT     H119140   1.737   3.439   1.956
 6207WAT     H219141   1.651   3.364   1.856
 6208WAT      O19142   1.794   3.823   1.006
 6208WAT     H119143   1.847   3.774   0.943
 6208WAT     H219144   1.853   3.836   1.081
 6209WAT      O19145   1.812   3.831   1.358
 6209WAT     H119146   1.717   3.828   1.370
 6209WAT     H219147   1.830   3.922   1.335
 6210WAT      O19148   0.398   3.656   0.269
 6210WAT     H119149   0.469   3.614   0.221
 6210WAT     H219150   0.326   3.663   0.206
 6211WAT      O19151   1.743   3.749   0.600
 6211WAT     H119152   1.793   3.725   0.679
 6211WAT     H219153   1.723   3.665   0.558
 6212WAT      O19154   0.331   3.187   1.164
 6212WAT     H119155   0.396   3.132   1.120
 6212WAT     H219156   0.373   3.212   1.246
 6213WAT      O19157   1.886   3.612   0.853
 6213WAT     H119158   1.875   3.597   0.947
 6213WAT     H219159   1.962   3.560   0.829
 6214WAT      O19160   1.721   3.206   1.499
 6214WAT     H119161   1.785   3.268   1.536
 6214WAT     H219162   1.736   3.210   1.405
 6215WAT      O19163   1.975   3.395   0.178
 6215WAT     H119164   2.068   3.382   0.157
 6215WAT     H219165   1.973   3.403   0.273
 6216WAT      O19166   1.982   3.472   0.440
 6216WAT     H119167   1.903   3.466   0.493
 6216WAT     H219168   2.003   3.566   0.439
 6217WAT      O19169   1.677   4.876   0.840
 6217WAT     H119170   1.736   4.844   0.772
 6217WAT     H219171   1.702   4.829   0.919
 6218WAT      O19172   0.307   3.202   1.438
 6218WAT     H119173   0.272   3.248   1.514
 6218WAT     H219174   0.273   3.113   1.446
 6219WAT      O19175   0.467   4.520   1.854
 6219WAT     H119176   0.463   4.483   1.943
 6219WAT     H219177   0.480   4.613   1.868
 6220WAT      O19178   0.837   4.675   1.415
 6220WAT     H119179   0.813   4.702   1.326
 6220WAT     H219180   0.931   4.692   1.420
 6221WAT      O19181   1.058   3.322   1.790
 6221WAT     H119182   1.052   3.381   1.865
 6221WAT     H219183   1.152   3.311   1.776
 6222WAT      O19184   1.322   3.287   1.754
 6222WAT     H119185   1.383   3.319   1.688
 6222WAT     H219186   1.376   3.239   1.816
 6223WAT      O19187   1.963   4.877   1.495
 6223WAT     H119188   1.914   4.917   1.423
 6223WAT     H219189   1.902   4.815   1.534
 6224WAT      O19190   0.374   3.155   1.765
 6224WAT     H119191   0.429   3.137   1.689
 6224WAT     H219192   0.380   3.076   1.819
 6225WAT      O19193   0.451   4.814   1.566
 6225WAT     H119194   0.392   4.801   1.640
 6225WAT     H219195   0.450   4.731   1.520
 6226WAT      O19196   1.396   3.144   1.387
 6226WAT     H119197   1.308   3.177   1.366
 6226WAT     H219198   1.385   3.096   1.469
 6227WAT      O19199   1.486   3.364   1.525
 6227WAT     H119200   1.454   3.283   1.487
 6227WAT     H219201   1.581   3.360   1.513
 6228WAT      O19202   1.732   4.941   1.222
 6228WAT     H119203   1.686   5.017   1.185
 6228WAT     H219204   1.669   4.869   1.217
 6229WAT      O19205   0.414   4.551   1.461
 6229WAT     H119206   0.342   4.489   1.455
 6229WAT     H219207   0.420   4.590   1.374
 6230WAT      O19208   0.775   4.772   1.140
 6230WAT     H119209   0.826   4.711   1.087
 6230WAT     H219210   0.840   4.823   1.189
 6231WAT      O19211   1.049   4.861   1.223
 6231WAT     H119212   1.077   4.836   1.135
 6231WAT     H219213   1.100   4.806   1.282
 6232WAT      O19214   1.170   3.235   1.281
 6232WAT     H119215   1.092   3.283   1.309
 6232WAT     H219216   1.141   3.145   1.270
 6233WAT      O19217   1.626   3.305   1.085
 6233WAT     H119218   1.670   3.300   1.000
 6233WAT     H219219   1.599   3.397   1.092
 6234WAT      O19220   1.812   3.269   0.886
 6234WAT     H119221   1.806   3.174   0.872
 6234WAT     H219222   1.890   3.279   0.941
 6235WAT      O19223   0.305   3.266   0.533
 6235WAT     H119224   0.381   3.277   0.475
 6235WAT     H219225   0.259   3.349   0.528
 6236WAT      O19226   0.959   3.477   0.832
 6236WAT     H119227   0.878   3.440   0.798
 6236WAT     H219228   1.009   3.402   0.862
 6237WAT      O19229   1.409   3.144   0.956
 6237WAT     H119230   1.470   3.201   1.003
 6237WAT     H219231   1.335   3.200   0.933
 6238WAT      O19232   1.724   3.184   0.483
 6238WAT     H119233   1.743   3.274   0.510
 6238WAT     H219234   1.645   3.161   0.532
 6239WAT      O19235   0.403   4.752   0.527
 6239WAT     H119236   0.351   4.790   0.457
 6239WAT     H219237   0.396   4.814   0.599
 6240WAT      O19238   0.542   3.318   0.387
 6240WAT     H119239   0.595   3.240   0.374
 6240WAT     H219240   0.605   3.386   0.410
 6241WAT      O19241   0.761   3.292   0.692
 6241WAT     H119242   0.698   3.222   0.709
 6241WAT     H219243   0.708   3.368   0.671
 6242WAT      O19244   1.055   4.953   1.959
 6242WAT     H119245   1.148   4.930   1.964
 6242WAT     H219246   1.054   5.036   1.911
 6243WAT      O19247   1.879   4.908   0.659
 6243WAT     H119248   1.896   4.839   0.595
 6243WAT     H219249   1.809   4.960   0.620
 6244WAT      O19250   0.774   3.220   1.936
 6244WAT     H119251   0.746   3.270   1.859
 6244WAT     H219252   0.812   3.140   1.899
 6245WAT      O19253   0.663   4.947   0.414
 6245WAT     H119254   0.736   4.918   0.360
 6245WAT     H219255   0.689   4.923   0.503
 6246WAT      O19256   0.579   4.558   0.415
 6246WAT     H119257   0.516   4.605   0.470
 6246WAT     H219258   0.591   4.474   0.458
 6247WAT      O19259   1.434   3.161   1.994
 6247WAT     H119260   1.423   3.193   2.083
 6247WAT     H219261   1.516   3.202   1.964
 6248WAT      O19262   1.712   4.876   1.942
 6248WAT     H119263   1.791   4.827   1.921
 6248WAT     H219264   1.741   4.944   2.003
 6249WAT      O19265   1.325   2.086   4.662
 6249WAT     H119266   1.317   1.995   4.635
 6249WAT     H219267   1.283   2.136   4.592
 6250WAT      O19268   1.138   2.264   4.850
 6250WAT     H119269   1.060   2.216   4.879
 6250WAT     H219270   1.203   2.196   4.833
 6251WAT      O19271   0.540   2.295   4.938
 6251WAT     H119272   0.456   2.269   4.978
 6251WAT     H219273   0.600   2.302   5.012
 6252WAT      O19274   1.540   2.704   4.728
 6252WAT     H119275   1.494   2.627   4.761
 6252WAT     H219276   1.621   2.707   4.779
 6253WAT      O19277   0.538   2.698   4.958
 6253WAT     H119278   0.568   2.609   4.940
 6253WAT     H219279   0.612   2.754   4.935
 6254WAT      O19280   0.380   1.791   4.316
 6254WAT     H119281   0.292   1.825   4.306
 6254WAT     H219282   0.409   1.771   4.227
 6255WAT      O19283   0.177   2.051   4.905
 6255WAT     H119284   0.234   1.974   4.905
 6255WAT     H219285   0.177   2.081   4.814
 6256WAT      O19286   1.163   2.933   4.690
 6256WAT     H119287   1.101   2.979   4.633
 6256WAT     H219288   1.248   2.948   4.650
 6257WAT      O19289   1.082   2.531   4.851
 6257WAT     H119290   1.075   2.437   4.835
 6257WAT     H219291   1.158   2.540   4.908
 6258WAT      O19292   0.301   1.592   5.084
 6258WAT     H119293   0.283   1.502   5.112
 6258WAT     H219294   0.261   1.647   5.151
 6259WAT      O19295   1.185   1.812   4.874
 6259WAT     H119296   1.223   1.725   4.862
 6259WAT     H219297   1.175   1.846   4.785
 6260WAT      O19298   0.598   1.649   4.420
 6260WAT     H119299   0.609   1.739   4.451
 6260WAT     H219300   0.507   1.644   4.391
 6261WAT      O19301   1.563   1.562   4.567
 6261WAT     H119302   1.645   1.513   4.571
 6261WAT     H219303   1.567   1.621   4.642
 6262WAT      O19304   0.363   1.841   4.944
 6262WAT     H119305   0.431   1.868   5.006
 6262WAT     H219306   0.331   1.757   4.978
 6263WAT      O19307   0.782   1.946   4.853
 6263WAT     H119308   0.833   1.996   4.917
 6263WAT     H219309   0.835   1.869   4.836
 6264WAT      O19310   1.992   1.763   5.223
 6264WAT     H119311   1.922   1.802   5.172
 6264WAT     H219312   2.019   1.833   5.284
 6265WAT      O19313   0.611   1.410   5.280
 6265WAT     H119314   0.611   1.462   5.199
 6265WAT     H219315   0.528   1.362   5.277
 6266WAT      O19316   1.249   2.421   4.430
 6266WAT     H119317   1.187   2.468   4.373
 6266WAT     H219318   1.300   2.491   4.471
 6267WAT      O19319   0.736   2.374   5.097
 6267WAT     H119320   0.702   2.437   5.162
 6267WAT     H219321   0.753   2.427   5.020
 6268WAT      O19322   1.587   1.756   4.844
 6268WAT     H119323   1.516   1.784   4.902
 6268WAT     H219324   1.623   1.837   4.808
 6269WAT      O19325   0.579   1.581   5.080
 6269WAT     H119326   0.613   1.666   5.051
 6269WAT     H219327   0.485   1.596   5.092
 6270WAT      O19328   0.657   2.571   5.279
 6270WAT     H119329   0.719   2.638   5.251
 6270WAT     H219330   0.571   2.612   5.270
 6271WAT      O19331   1.749   2.717   5.071
 6271WAT     H119332   1.680   2.784   5.070
 6271WAT     H219333   1.802   2.737   4.994
 6272WAT      O19334   1.894   1.700   4.883
 6272WAT     H119335   1.799   1.703   4.897
 6272WAT     H219336   1.926   1.781   4.922
 6273WAT      O19337   0.947   1.330   4.713
 6273WAT     H119338   0.978   1.275   4.641
 6273WAT     H219339   0.854   1.344   4.695
 6274WAT      O19340   1.502   2.902   4.942
 6274WAT     H119341   1.503   2.861   4.855
 6274WAT     H219342   1.447   2.979   4.932
 6275WAT      O19343   1.632   2.574   4.451
 6275WAT     H119344   1.621   2.480   4.463
 6275WAT     H219345   1.631   2.610   4.540
 6276WAT      O19346   1.442   2.392   5.075
 6276WAT     H119347   1.484   2.371   4.991
 6276WAT     H219348   1.514   2.418   5.132
 6277WAT      O19349   1.186   2.137   4.387
 6277WAT     H119350   1.093   2.130   4.409
 6277WAT     H219351   1.201   2.230   4.375
 6278WAT      O19352   1.184   1.764   4.086
 6278WAT     H119353   1.091   1.780   4.095
 6278WAT     H219354   1.216   1.836   4.032
 6279WAT      O19355   1.837   2.232   5.084
 6279WAT     H119356   1.754   2.239   5.036
 6279WAT     H219357   1.896   2.290   5.037
 6280WAT      O19358   1.589   2.293   4.437
 6280WAT     H119359   1.527   2.259   4.372
 6280WAT     H219360   1.587   2.228   4.508
 6281WAT      O19361   1.533   1.911   5.179
 6281WAT     H119362   1.492   1.993   5.204
 6281WAT     H219363   1.460   1.852   5.159
 6282WAT      O19364   0.746   2.189   4.665
 6282WAT     H119365   0.706   2.118   4.615
 6282WAT     H219366   0.755   2.155   4.754
 6283WAT      O19367   0.793   2.558   4.881
 6283WAT     H119368   0.763   2.497   4.813
 6283WAT     H219369   0.888   2.562   4.870
 6284WAT      O19370   0.618   1.867   5.043
 6284WAT     H119371   0.673   1.878   4.965
 6284WAT     H219372   0.669   1.904   5.114
 6285WAT      O19373   1.602   2.915   5.247
 6285WAT     H119374   1.554   2.996   5.228
 6285WAT     H219375   1.534   2.850   5.263
 6286WAT      O19376   0.702   2.532   5.546
 6286WAT     H119377   0.613   2.554   5.571
 6286WAT     H219378   0.705   2.544   5.451
 6287WAT      O19379   1.406   2.217   4.138
 6287WAT     H119380   1.450   2.133   4.123
 6287WAT     H219381   1.478   2.280   4.146
 6288WAT      O19382   0.585   2.219   5.404
 6288WAT     H119383   0.571   2.306   5.441
 6288WAT     H219384   0.497   2.185   5.389
 6289WAT      O19385   1.217   2.711   4.534
 6289WAT     H119386   1.261   2.785   4.493
 6289WAT     H219387   1.211   2.735   4.627
 6290WAT      O19388   0.765   2.813   5.625
 6290WAT     H119389   0.762   2.853   5.538
 6290WAT     H219390   0.749   2.720   5.608
 6291WAT      O19391   1.765   1.342   3.969
 6291WAT     H119392   1.733   1.351   4.059
 6291WAT     H219393   1.841   1.400   3.964
 6292WAT      O19394   0.416   2.079   4.415
 6292WAT     H119395   0.404   2.151   4.354
 6292WAT     H219396   0.385   2.002   4.367
 6293WAT      O19397   0.180   2.396   4.995
 6293WAT     H119398   0.188   2.409   4.901
 6293WAT     H219399   0.242   2.325   5.015
 6294WAT      O19400   0.305   2.566   4.637
 6294WAT     H119401   0.264   2.580   4.551
 6294WAT     H219402   0.394   2.537   4.616
 6295WAT      O19403   1.900   2.610   5.470
 6295WAT     H119404   1.913   2.587   5.378
 6295WAT     H219405   1.905   2.527   5.517
 6296WAT      O19406   1.287   2.981   5.327
 6296WAT     H119407   1.338   2.972   5.407
 6296WAT     H219408   1.202   3.015   5.356
 6297WAT      O19409   1.484   3.009   4.270
 6297WAT     H119410   1.468   2.980   4.360
 6297WAT     H219411   1.468   2.932   4.216
 6298WAT      O19412   0.732   2.987   4.448
 6298WAT     H119413   0.714   2.896   4.426
 6298WAT     H219414   0.647   3.023   4.472
 6299WAT      O19415   1.454   2.760   4.126
 6299WAT     H119416   1.385   2.760   4.060
 6299WAT     H219417   1.529   2.718   4.083
 6300WAT      O19418   1.411   2.923   4.533
 6300WAT     H119419   1.456   2.845   4.565
 6300WAT     H219420   1.445   2.994   4.588
 6301WAT      O19421   1.886   1.816   5.567
 6301WAT     H119422   1.824   1.867   5.514
 6301WAT     H219423   1.854   1.726   5.561
 6302WAT      O19424   0.186   2.500   5.249
 6302WAT     H119425   0.202   2.453   5.168
 6302WAT     H219426   0.232   2.449   5.316
 6303WAT      O19427   0.663   1.413   4.753
 6303WAT     H119428   0.619   1.491   4.720
 6303WAT     H219429   0.719   1.445   4.824
 6304WAT      O19430   1.092   1.700   5.313
 6304WAT     H119431   1.046   1.721   5.395
 6304WAT     H219432   1.052   1.618   5.283
 6305WAT      O19433   1.592   1.822   5.426
 6305WAT     H119434   1.507   1.792   5.458
 6305WAT     H219435   1.576   1.846   5.335
 6306WAT      O19436   1.301   1.972   5.636
 6306WAT     H119437   1.334   1.888   5.602
 6306WAT     H219438   1.380   2.024   5.651
 6307WAT      O19439   0.975   1.375   4.241
 6307WAT     H119440   0.912   1.375   4.314
 6307WAT     H219441   0.966   1.288   4.201
 6308WAT      O19442   0.867   1.467   4.939
 6308WAT     H119443   0.897   1.558   4.931
 6308WAT     H219444   0.922   1.419   4.878
 6309WAT      O19445   0.642   1.925   4.526
 6309WAT     H119446   0.620   1.904   4.616
 6309WAT     H219447   0.564   1.969   4.491
 6310WAT      O19448   1.365   1.926   4.386
 6310WAT     H119449   1.305   1.998   4.367
 6310WAT     H219450   1.420   1.920   4.307
 6311WAT      O19451   0.886   2.015   5.592
 6311WAT     H119452   0.877   1.921   5.577
 6311WAT     H219453   0.970   2.037   5.553
 6312WAT      O19454   1.226   1.790   4.589
 6312WAT     H119455   1.265   1.821   4.507
 6312WAT     H219456   1.262   1.702   4.600
 6313WAT      O19457   0.399   1.656   5.408
 6313WAT     H119458   0.360   1.741   5.428
 6313WAT     H219459   0.330   1.593   5.427
 6314WAT      O19460   1.284   2.049   4.998
 6314WAT     H119461   1.211   2.100   5.033
 6314WAT     H219462   1.245   1.967   4.968
 6315WAT      O19463   0.928   1.716   4.839
 6315WAT     H119464   0.928   1.672   4.754
 6315WAT     H219465   1.018   1.748   4.850
 6316WAT      O19466   0.513   1.704   4.735
 6316WAT     H119467   0.479   1.752   4.810
 6316WAT     H219468   0.437   1.659   4.699
 6317WAT      O19469   0.934   1.816   4.138
 6317WAT     H119470   0.946   1.812   4.233
 6317WAT     H219471   0.896   1.903   4.122
 6318WAT      O19472   1.331   1.594   4.940
 6318WAT     H119473   1.332   1.639   5.024
 6318WAT     H219474   1.306   1.504   4.961
 6319WAT      O19475   0.836   2.047   4.078
 6319WAT     H119476   0.779   2.003   4.015
 6319WAT     H219477   0.906   2.083   4.024
 6320WAT      O19478   1.673   1.335   5.523
 6320WAT     H119479   1.706   1.262   5.576
 6320WAT     H219480   1.677   1.303   5.433
 6321WAT      O19481   0.343   2.437   5.465
 6321WAT     H119482   0.305   2.373   5.525
 6321WAT     H219483   0.374   2.508   5.522
 6322WAT      O19484   0.958   2.122   5.013
 6322WAT     H119485   0.995   2.075   5.088
 6322WAT     H219486   0.939   2.210   5.048
 6323WAT      O19487   0.245   1.597   4.626
 6323WAT     H119488   0.216   1.560   4.710
 6323WAT     H219489   0.238   1.523   4.565
 6324WAT      O19490   0.737   2.026   5.245
 6324WAT     H119491   0.707   2.114   5.268
 6324WAT     H219492   0.833   2.032   5.249
 6325WAT      O19493   0.590   2.447   4.305
 6325WAT     H119494   0.513   2.393   4.289
 6325WAT     H219495   0.663   2.395   4.271
 6326WAT      O19496   1.666   2.347   4.884
 6326WAT     H119497   1.738   2.396   4.845
 6326WAT     H219498   1.646   2.279   4.820
 6327WAT      O19499   1.212   1.486   4.299
 6327WAT     H119500   1.131   1.436   4.291
 6327WAT     H219501   1.193   1.570   4.257
 6328WAT      O19502   1.204   2.354   5.473
 6328WAT     H119503   1.197   2.262   5.447
 6328WAT     H219504   1.141   2.363   5.544
 6329WAT      O19505   1.483   1.923   4.128
 6329WAT     H119506   1.572   1.954   4.111
 6329WAT     H219507   1.481   1.836   4.089
 6330WAT      O19508   0.594   2.414   4.669
 6330WAT     H119509   0.646   2.333   4.663
 6330WAT     H219510   0.549   2.408   4.753
 6331WAT      O19511   1.083   2.540   4.196
 6331WAT     H119512   1.117   2.615   4.146
 6331WAT     H219513   1.000   2.572   4.232
 6332WAT      O19514   0.343   2.110   5.360
 6332WAT     H119515   0.307   2.177   5.419
 6332WAT     H219516   0.313   2.027   5.397
 6333WAT      O19517   0.663   2.156   5.648
 6333WAT     H119518   0.633   2.171   5.559
 6333WAT     H219519   0.740   2.100   5.639
 6334WAT      O19520   1.197   2.636   5.448
 6334WAT     H119521   1.199   2.543   5.426
 6334WAT     H219522   1.127   2.644   5.512
 6335WAT      O19523   1.711   2.054   4.075
 6335WAT     H119524   1.702   2.097   3.990
 6335WAT     H219525   1.783   2.100   4.118
 6336WAT      O19526   1.818   2.300   5.383
 6336WAT     H119527   1.746   2.359   5.363
 6336WAT     H219528   1.871   2.299   5.303
 6337WAT      O19529   1.814   2.740   4.348
 6337WAT     H119530   1.749   2.674   4.375
 6337WAT     H219531   1.775   2.780   4.270
 6338WAT      O19532   1.371   2.473   4.732
 6338WAT     H119533   1.407   2.413   4.666
 6338WAT     H219534   1.283   2.440   4.750
 6339WAT      O19535   0.980   2.549   4.473
 6339WAT     H119536   1.049   2.603   4.511
 6339WAT     H219537   0.901   2.603   4.477
 6340WAT      O19538   0.910   2.249   4.434
 6340WAT     H119539   0.956   2.330   4.457
 6340WAT     H219540   0.875   2.217   4.518
 6341WAT      O19541   1.141   2.800   5.157
 6341WAT     H119542   1.205   2.821   5.225
 6341WAT     H219543   1.177   2.724   5.112
 6342WAT      O19544   0.500   1.283   4.482
 6342WAT     H119545   0.488   1.283   4.577
 6342WAT     H219546   0.418   1.317   4.447
 6343WAT      O19547   1.268   2.600   5.029
 6343WAT     H119548   1.332   2.530   5.040
 6343WAT     H219549   1.320   2.678   5.011
 6344WAT      O19550   1.652   2.629   4.002
 6344WAT     H119551   1.630   2.557   4.061
 6344WAT     H219552   1.613   2.604   3.918
 6345WAT      O19553   1.445   2.680   5.349
 6345WAT     H119554   1.479   2.739   5.417
 6345WAT     H219555   1.353   2.667   5.372
 6346WAT      O19556   0.231   3.032   4.079
 6346WAT     H119557   0.267   3.091   4.014
 6346WAT     H219558   0.217   3.086   4.156
 6347WAT      O19559   1.611   2.421   4.168
 6347WAT     H119560   1.582   2.467   4.246
 6347WAT     H219561   1.690   2.375   4.195
 6348WAT      O19562   0.229   2.858   5.526
 6348WAT     H119563   0.240   2.764   5.512
 6348WAT     H219564   0.164   2.885   5.462
 6349WAT      O19565   1.028   2.685   5.666
 6349WAT     H119566   0.996   2.613   5.721
 6349WAT     H219567   0.961   2.753   5.674
 6350WAT      O19568   0.832   2.770   4.161
 6350WAT     H119569   0.831   2.843   4.099
 6350WAT     H219570   0.740   2.745   4.170
 6351WAT      O19571   0.392   2.292   4.235
 6351WAT     H119572   0.332   2.366   4.236
 6351WAT     H219573   0.440   2.301   4.153
 6352WAT      O19574   1.350   1.708   5.203
 6352WAT     H119575   1.387   1.626   5.236
 6352WAT     H219576   1.264   1.715   5.244
 6353WAT      O19577   1.686   1.604   4.284
 6353WAT     H119578   1.623   1.615   4.212
 6353WAT     H219579   1.637   1.626   4.363
 6354WAT      O19580   1.131   2.776   4.027
 6354WAT     H119581   1.141   2.756   3.934
 6354WAT     H219582   1.041   2.751   4.047
 6355WAT      O19583   0.883   1.832   4.425
 6355WAT     H119584   0.812   1.879   4.469
 6355WAT     H219585   0.912   1.766   4.489
 6356WAT      O19586   1.046   1.974   5.225
 6356WAT     H119587   1.096   2.021   5.292
 6356WAT     H219588   1.060   1.882   5.246
 6357WAT      O19589   1.286   1.504   4.569
 6357WAT     H119590   1.274   1.506   4.474
 6357WAT     H219591   1.381   1.509   4.581
 6358WAT      O19592   0.995   3.028   4.496
 6358WAT     H119593   1.021   3.024   4.404
 6358WAT     H219594   0.900   3.015   4.496
 6359WAT      O19595   0.704   1.663   4.163
 6359WAT     H119596   0.788   1.706   4.156
 6359WAT     H219597   0.667   1.694   4.245
 6360WAT      O19598   1.766   1.596   5.309
 6360WAT     H119599   1.716   1.670   5.343
 6360WAT     H219600   1.848   1.634   5.278
 6361WAT      O19601   1.596   2.120   4.654
 6361WAT     H119602   1.502   2.121   4.671
 6361WAT     H219603   1.627   2.041   4.699
 6362WAT      O19604   0.593   2.288   4.010
 6362WAT     H119605   0.670   2.277   4.066
 6362WAT     H219606   0.601   2.218   3.945
 6363WAT      O19607   0.463   2.031   4.078
 6363WAT     H119608   0.471   1.937   4.090
 6363WAT     H219609   0.552   2.064   4.089
 6364WAT      O19610   1.796   2.837   4.822
 6364WAT     H119611   1.808   2.919   4.869
 6364WAT     H219612   1.883   2.816   4.787
 6365WAT      O19613   0.543   3.046   4.789
 6365WAT     H119614   0.617   2.991   4.816
 6365WAT     H219615   0.581   3.133   4.775
 6366WAT      O19616   0.854   2.964   3.971
 6366WAT     H119617   0.933   2.992   3.926
 6366WAT     H219618   0.802   2.921   3.903
 6367WAT      O19619   1.470   2.948   5.563
 6367WAT     H119620   1.566   2.940   5.558
 6367WAT     H219621   1.456   3.015   5.631
 6368WAT      O19622   1.759   2.886   4.113
 6368WAT     H119623   1.731   2.845   4.032
 6368WAT     H219624   1.740   2.979   4.101
 6369WAT      O19625   0.906   2.486   3.957
 6369WAT     H119626   0.895   2.424   4.030
 6369WAT     H219627   0.889   2.433   3.879
 6370WAT      O19628   0.921   2.354   5.555
 6370WAT     H119629   0.844   2.411   5.547
 6370WAT     H219630   0.939   2.325   5.466
 6371WAT      O19631   1.230   2.392   4.018
 6371WAT     H119632   1.175   2.437   4.082
 6371WAT     H219633   1.292   2.341   4.070
 6372WAT      O19634   1.635   2.527   5.611
 6372WAT     H119635   1.709   2.561   5.561
 6372WAT     H219636   1.559   2.544   5.556
 6373WAT      O19637   0.797   2.288   4.207
 6373WAT     H119638   0.839   2.271   4.292
 6373WAT     H219639   0.809   2.207   4.158
 6374WAT      O19640   0.613   1.886   5.488
 6374WAT     H119641   0.560   1.837   5.425
 6374WAT     H219642   0.680   1.929   5.435
 6375WAT      O19643   1.048   2.190   3.932
 6375WAT     H119644   1.100   2.119   3.896
 6375WAT     H219645   1.113   2.254   3.962
 6376WAT      O19646   1.503   2.332   5.465
 6376WAT     H119647   1.544   2.348   5.550
 6376WAT     H219648   1.409   2.345   5.481
 6377WAT      O19649   1.550   2.066   5.665
 6377WAT     H119650   1.608   1.991   5.656
 6377WAT     H219651   1.568   2.119   5.587
 6378WAT      O19652   0.662   1.582   5.496
 6378WAT     H119653   0.652   1.521   5.424
 6378WAT     H219654   0.604   1.655   5.473
 6379WAT      O19655   0.938   1.438   5.199
 6379WAT     H119656   0.893   1.440   5.115
 6379WAT     H219657   0.875   1.398   5.259
 6380WAT      O19658   0.979   2.328   5.262
 6380WAT     H119659   1.021   2.412   5.244
 6380WAT     H219660   0.887   2.341   5.239
 6381WAT      O19661   1.212   2.101   5.400
 6381WAT     H119662   1.224   2.041   5.474
 6381WAT     H219663   1.298   2.104   5.358
 6382WAT      O19664   1.446   2.156   5.258
 6382WAT     H119665   1.394   2.209   5.197
 6382WAT     H219666   1.481   2.219   5.321
 6383WAT      O19667   0.686   1.895   3.902
 6383WAT     H119668   0.666   1.809   3.938
 6383WAT     H219669   0.669   1.886   3.808
 6384WAT      O19670   0.764   2.958   5.373
 6384WAT     H119671   0.710   3.031   5.341
 6384WAT     H219672   0.789   2.910   5.294
 6385WAT      O19673   0.889   1.755   5.526
 6385WAT     H119674   0.948   1.724   5.594
 6385WAT     H219675   0.807   1.708   5.541
 6386WAT      O19676   1.371   1.717   5.549
 6386WAT     H119677   1.302   1.650   5.543
 6386WAT     H219678   1.443   1.672   5.594
 6387WAT      O19679   1.434   1.376   4.155
 6387WAT     H119680   1.462   1.292   4.191
 6387WAT     H219681   1.357   1.399   4.206
 6388WAT      O19682   0.566   1.605   3.901
 6388WAT     H119683   0.596   1.606   3.810
 6388WAT     H219684   0.640   1.570   3.951
 6389WAT      O19685   1.050   3.082   5.399
 6389WAT     H119686   1.042   3.172   5.430
 6389WAT     H219687   0.959   3.050   5.396
 6390WAT      O19688   0.888   1.499   3.999
 6390WAT     H119689   0.853   1.432   3.941
 6390WAT     H219690   0.908   1.453   4.081
 6391WAT      O19691   1.104   2.998   4.161
 6391WAT     H119692   1.194   3.032   4.163
 6391WAT     H219693   1.108   2.926   4.099
 6392WAT      O19694   0.468   2.536   3.984
 6392WAT     H119695   0.512   2.590   4.050
 6392WAT     H219696   0.517   2.453   3.985
 6393WAT      O19697   0.190   2.814   4.729
 6393WAT     H119698   0.223   2.728   4.706
 6393WAT     H219699   0.233   2.835   4.812
 6394WAT      O19700   0.649   2.647   4.495
 6394WAT     H119701   0.619   2.635   4.585
 6394WAT     H219702   0.639   2.562   4.455
 6395WAT      O19703   0.239   2.901   5.003
 6395WAT     H119704   0.195   2.919   5.086
 6395WAT     H219705   0.295   2.977   4.989
 6396WAT      O19706   1.802   2.851   5.432
 6396WAT     H119707   1.742   2.857   5.358
 6396WAT     H219708   1.815   2.757   5.445
 6397WAT      O19709   1.926   2.625   3.966
 6397WAT     H119710   1.843   2.632   4.013
 6397WAT     H219711   1.944   2.714   3.935
 6398WAT      O19712   1.872   2.300   4.216
 6398WAT     H119713   1.948   2.357   4.227
 6398WAT     H219714   1.873   2.243   4.293
 6399WAT      O19715   1.973   2.385   4.700
 6399WAT     H119716   2.010   2.307   4.660
 6399WAT     H219717   2.037   2.454   4.683
 6400WAT      O19718   1.671   2.524   5.242
 6400WAT     H119719   1.589   2.567   5.268
 6400WAT     H219720   1.712   2.585   5.180
 6401WAT      O19721   1.877   2.329   3.932
 6401WAT     H119722   1.905   2.420   3.919
 6401WAT     H219723   1.858   2.323   4.025
 6402WAT      O19724   1.517   1.632   4.061
 6402WAT     H119725   1.559   1.613   3.977
 6402WAT     H219726   1.486   1.547   4.092
 6403WAT      O19727   1.867   2.123   4.431
 6403WAT     H119728   1.829   2.046   4.388
 6403WAT     H219729   1.794   2.161   4.480
 6404WAT      O19730   0.326   2.191   5.093
 6404WAT     H119731   0.362   2.182   5.181
 6404WAT     H219732   0.269   2.114   5.083
 6405WAT      O19733   1.806   2.038   5.394
 6405WAT     H119734   1.783   2.015   5.304
 6405WAT     H219735   1.832   2.130   5.390
 6406WAT      O19736   0.281   1.882   5.484
 6406WAT     H119737   0.191   1.879   5.518
 6406WAT     H219738   0.335   1.902   5.560
 6407WAT      O19739   1.650   1.560   5.672
 6407WAT     H119740   1.737   1.561   5.711
 6407WAT     H219741   1.651   1.487   5.611
 6408WAT      O19742   1.794   1.946   4.761
 6408WAT     H119743   1.847   1.896   4.698
 6408WAT     H219744   1.853   1.959   4.836
 6409WAT      O19745   1.812   1.954   5.113
 6409WAT     H119746   1.717   1.951   5.125
 6409WAT     H219747   1.830   2.045   5.090
 6410WAT      O19748   0.398   1.779   4.024
 6410WAT     H119749   0.469   1.737   3.976
 6410WAT     H219750   0.326   1.786   3.961
 6411WAT      O19751   0.362   1.384   3.928
 6411WAT     H119752   0.435   1.438   3.960
 6411WAT     H219753   0.390   1.357   3.841
 6412WAT      O19754   1.743   1.871   4.355
 6412WAT     H119755   1.793   1.848   4.433
 6412WAT     H219756   1.723   1.787   4.313
 6413WAT      O19757   0.331   1.309   4.919
 6413WAT     H119758   0.396   1.254   4.874
 6413WAT     H219759   0.373   1.335   5.001
 6414WAT      O19760   1.886   1.735   4.608
 6414WAT     H119761   1.875   1.719   4.702
 6414WAT     H219762   1.962   1.682   4.584
 6415WAT      O19763   1.721   1.329   5.254
 6415WAT     H119764   1.785   1.390   5.291
 6415WAT     H219765   1.736   1.332   5.160
 6416WAT      O19766   1.975   1.518   3.932
 6416WAT     H119767   2.068   1.505   3.912
 6416WAT     H219768   1.973   1.526   4.028
 6417WAT      O19769   1.982   1.595   4.195
 6417WAT     H119770   1.903   1.589   4.248
 6417WAT     H219771   2.003   1.689   4.194
 6418WAT      O19772   1.677   2.999   4.594
 6418WAT     H119773   1.736   2.967   4.527
 6418WAT     H219774   1.702   2.952   4.674
 6419WAT      O19775   0.307   1.325   5.193
 6419WAT     H119776   0.272   1.371   5.269
 6419WAT     H219777   0.273   1.236   5.201
 6420WAT      O19778   0.467   2.642   5.609
 6420WAT     H119779   0.463   2.605   5.697
 6420WAT     H219780   0.480   2.736   5.623
 6421WAT      O19781   0.837   2.798   5.169
 6421WAT     H119782   0.813   2.824   5.081
 6421WAT     H219783   0.931   2.815   5.175
 6422WAT      O19784   1.058   1.444   5.545
 6422WAT     H119785   1.052   1.503   5.620
 6422WAT     H219786   1.152   1.433   5.530
 6423WAT      O19787   1.322   1.410   5.509
 6423WAT     H119788   1.383   1.442   5.443
 6423WAT     H219789   1.376   1.361   5.571
 6424WAT      O19790   1.963   3.000   5.249
 6424WAT     H119791   1.914   3.039   5.178
 6424WAT     H219792   1.902   2.937   5.289
 6425WAT      O19793   0.374   1.278   5.520
 6425WAT     H119794   0.429   1.260   5.444
 6425WAT     H219795   0.380   1.199   5.574
 6426WAT      O19796   0.451   2.937   5.321
 6426WAT     H119797   0.392   2.924   5.395
 6426WAT     H219798   0.450   2.853   5.275
 6427WAT      O19799   1.396   1.266   5.142
 6427WAT     H119800   1.308   1.299   5.121
 6427WAT     H219801   1.385   1.219   5.224
 6428WAT      O19802   1.486   1.487   5.280
 6428WAT     H119803   1.454   1.405   5.242
 6428WAT     H219804   1.581   1.483   5.268
 6429WAT      O19805   1.732   3.064   4.977
 6429WAT     H119806   1.686   3.139   4.940
 6429WAT     H219807   1.669   2.992   4.972
 6430WAT      O19808   0.414   2.673   5.216
 6430WAT     H119809   0.342   2.611   5.210
 6430WAT     H219810   0.420   2.713   5.129
 6431WAT      O19811   0.775   2.895   4.895
 6431WAT     H119812   0.826   2.834   4.842
 6431WAT     H219813   0.840   2.945   4.944
 6432WAT      O19814   1.049   2.984   4.978
 6432WAT     H119815   1.077   2.958   4.890
 6432WAT     H219816   1.100   2.929   5.037
 6433WAT      O19817   1.170   1.358   5.035
 6433WAT     H119818   1.092   1.405   5.063
 6433WAT     H219819   1.141   1.267   5.025
 6434WAT      O19820   1.626   1.428   4.840
 6434WAT     H119821   1.670   1.422   4.755
 6434WAT     H219822   1.599   1.520   4.847
 6435WAT      O19823   1.812   1.391   4.641
 6435WAT     H119824   1.806   1.297   4.626
 6435WAT     H219825   1.890   1.402   4.696
 6436WAT      O19826   0.305   1.388   4.288
 6436WAT     H119827   0.381   1.400   4.230
 6436WAT     H219828   0.259   1.472   4.283
 6437WAT      O19829   0.959   1.600   4.587
 6437WAT     H119830   0.878   1.562   4.553
 6437WAT     H219831   1.009   1.524   4.617
 6438WAT      O19832   1.409   1.266   4.710
 6438WAT     H119833   1.470   1.323   4.758
 6438WAT     H219834   1.335   1.322   4.688
 6439WAT      O19835   1.724   1.306   4.238
 6439WAT     H119836   1.743   1.396   4.265
 6439WAT     H219837   1.645   1.283   4.287
 6440WAT      O19838   0.403   2.874   4.282
 6440WAT     H119839   0.351   2.913   4.211
 6440WAT     H219840   0.396   2.937   4.354
 6441WAT      O19841   0.542   1.441   4.142
 6441WAT     H119842   0.595   1.362   4.129
 6441WAT     H219843   0.605   1.509   4.165
 6442WAT      O19844   0.761   1.415   4.447
 6442WAT     H119845   0.698   1.345   4.464
 6442WAT     H219846   0.708   1.491   4.425
 6443WAT      O19847   1.055   3.076   5.714
 6443WAT     H119848   1.148   3.053   5.719
 6443WAT     H219849   1.054   3.159   5.666
 6444WAT      O19850   1.879   3.030   4.414
 6444WAT     H119851   1.896   2.962   4.350
 6444WAT     H219852   1.809   3.083   4.375
 6445WAT      O19853   0.774   1.343   5.691
 6445WAT     H119854   0.746   1.393   5.614
 6445WAT     H219855   0.812   1.263   5.654
 6446WAT      O19856   0.663   3.069   4.169
 6446WAT     H119857   0.736   3.041   4.115
 6446WAT     H219858   0.689   3.045   4.258
 6447WAT      O19859   0.579   2.681   4.170
 6447WAT     H119860   0.516   2.728   4.225
 6447WAT     H219861   0.591   2.596   4.213
 6448WAT      O19862   1.325   2.086   2.785
 6448WAT     H119863   1.317   1.995   2.758
 6448WAT     H219864   1.283   2.136   2.714
 6449WAT      O19865   1.138   2.264   2.973
 6449WAT     H119866   1.060   2.216   3.002
 6449WAT     H219867   1.203   2.196   2.955
 6450WAT      O19868   0.540   2.295   3.061
 6450WAT     H119869   0.456   2.269   3.101
 6450WAT     H219870   0.600   2.302   3.134
 6451WAT      O19871   1.540   2.704   2.851
 6451WAT     H119872   1.494   2.627   2.884
 6451WAT     H219873   1.621   2.707   2.901
 6452WAT      O19874   0.538   2.698   3.080
 6452WAT     H119875   0.568   2.609   3.062
 6452WAT     H219876   0.612   2.754   3.057
 6453WAT      O19877   0.380   1.791   2.439
 6453WAT     H119878   0.292   1.825   2.429
 6453WAT     H219879   0.409   1.771   2.350
 6454WAT      O19880   0.177   2.051   3.027
 6454WAT     H119881   0.234   1.974   3.027
 6454WAT     H219882   0.177   2.081   2.937
 6455WAT      O19883   1.163   2.933   2.813
 6455WAT     H119884   1.101   2.979   2.756
 6455WAT     H219885   1.248   2.948   2.773
 6456WAT      O19886   1.082   2.531   2.974
 6456WAT     H119887   1.075   2.437   2.957
 6456WAT     H219888   1.158   2.540   3.031
 6457WAT      O19889   0.301   1.592   3.206
 6457WAT     H119890   0.283   1.502   3.234
 6457WAT     H219891   0.261   1.647   3.274
 6458WAT      O19892   1.185   1.812   2.996
 6458WAT     H119893   1.223   1.725   2.985
 6458WAT     H219894   1.175   1.846   2.907
 6459WAT      O19895   0.598   1.649   2.542
 6459WAT     H119896   0.609   1.739   2.573
 6459WAT     H219897   0.507   1.644   2.513
 6460WAT      O19898   1.563   1.562   2.690
 6460WAT     H119899   1.645   1.513   2.694
 6460WAT     H219900   1.567   1.621   2.765
 6461WAT      O19901   0.363   1.841   3.067
 6461WAT     H119902   0.431   1.868   3.129
 6461WAT     H219903   0.331   1.757   3.100
 6462WAT      O19904   0.782   1.946   2.976
 6462WAT     H119905   0.833   1.996   3.040
 6462WAT     H219906   0.835   1.869   2.958
 6463WAT      O19907   1.992   1.763   3.346
 6463WAT     H119908   1.922   1.802   3.294
 6463WAT     H219909   2.019   1.833   3.406
 6464WAT      O19910   0.611   1.410   3.402
 6464WAT     H119911   0.611   1.462   3.322
 6464WAT     H219912   0.528   1.362   3.400
 6465WAT      O19913   1.249   2.421   2.552
 6465WAT     H119914   1.187   2.468   2.496
 6465WAT     H219915   1.300   2.491   2.594
 6466WAT      O19916   0.736   2.374   3.220
 6466WAT     H119917   0.702   2.437   3.284
 6466WAT     H219918   0.753   2.427   3.142
 6467WAT      O19919   1.587   1.756   2.967
 6467WAT     H119920   1.516   1.784   3.025
 6467WAT     H219921   1.623   1.837   2.931
 6468WAT      O19922   0.579   1.581   3.203
 6468WAT     H119923   0.613   1.666   3.174
 6468WAT     H219924   0.485   1.596   3.215
 6469WAT      O19925   0.657   2.571   3.402
 6469WAT     H119926   0.719   2.638   3.373
 6469WAT     H219927   0.571   2.612   3.392
 6470WAT      O19928   1.749   2.717   3.193
 6470WAT     H119929   1.680   2.784   3.192
 6470WAT     H219930   1.802   2.737   3.117
 6471WAT      O19931   1.894   1.700   3.006
 6471WAT     H119932   1.799   1.703   3.019
 6471WAT     H219933   1.926   1.781   3.044
 6472WAT      O19934   0.947   1.330   2.835
 6472WAT     H119935   0.978   1.275   2.764
 6472WAT     H219936   0.854   1.344   2.817
 6473WAT      O19937   1.502   2.902   3.065
 6473WAT     H119938   1.503   2.861   2.978
 6473WAT     H219939   1.447   2.979   3.054
 6474WAT      O19940   1.632   2.574   2.573
 6474WAT     H119941   1.621   2.480   2.586
 6474WAT     H219942   1.631   2.610   2.662
 6475WAT      O19943   1.442   2.392   3.197
 6475WAT     H119944   1.484   2.371   3.114
 6475WAT     H219945   1.514   2.418   3.254
 6476WAT      O19946   1.186   2.137   2.509
 6476WAT     H119947   1.093   2.130   2.532
 6476WAT     H219948   1.201   2.230   2.498
 6477WAT      O19949   1.184   1.764   2.209
 6477WAT     H119950   1.091   1.780   2.217
 6477WAT     H219951   1.216   1.836   2.154
 6478WAT      O19952   1.837   2.232   3.207
 6478WAT     H119953   1.754   2.239   3.159
 6478WAT     H219954   1.896   2.290   3.160
 6479WAT      O19955   1.589   2.293   2.559
 6479WAT     H119956   1.527   2.259   2.495
 6479WAT     H219957   1.587   2.228   2.630
 6480WAT      O19958   1.533   1.911   3.301
 6480WAT     H119959   1.492   1.993   3.326
 6480WAT     H219960   1.460   1.852   3.282
 6481WAT      O19961   0.746   2.189   2.787
 6481WAT     H119962   0.706   2.118   2.738
 6481WAT     H219963   0.755   2.155   2.876
 6482WAT      O19964   0.793   2.558   3.004
 6482WAT     H119965   0.763   2.497   2.936
 6482WAT     H219966   0.888   2.562   2.993
 6483WAT      O19967   0.618   1.867   3.165
 6483WAT     H119968   0.673   1.878   3.088
 6483WAT     H219969   0.669   1.904   3.237
 6484WAT      O19970   1.602   2.915   3.370
 6484WAT     H119971   1.554   2.996   3.351
 6484WAT     H219972   1.534   2.850   3.385
 6485WAT      O19973   0.702   2.532   3.669
 6485WAT     H119974   0.613   2.554   3.693
 6485WAT     H219975   0.705   2.544   3.574
 6486WAT      O19976   1.406   2.217   2.260
 6486WAT     H119977   1.450   2.133   2.246
 6486WAT     H219978   1.478   2.280   2.269
 6487WAT      O19979   0.585   2.219   3.526
 6487WAT     H119980   0.571   2.306   3.563
 6487WAT     H219981   0.497   2.185   3.512
 6488WAT      O19982   1.217   2.711   2.657
 6488WAT     H119983   1.261   2.785   2.616
 6488WAT     H219984   1.211   2.735   2.749
 6489WAT      O19985   0.765   2.813   3.747
 6489WAT     H119986   0.762   2.853   3.660
 6489WAT     H219987   0.749   2.720   3.731
 6490WAT      O19988   1.765   1.342   2.092
 6490WAT     H119989   1.733   1.351   2.182
 6490WAT     H219990   1.841   1.400   2.087
 6491WAT      O19991   0.416   2.079   2.537
 6491WAT     H119992   0.404   2.151   2.476
 6491WAT     H219993   0.385   2.002   2.490
 6492WAT      O19994   1.960   2.891   3.877
 6492WAT     H119995   2.008   2.939   3.945
 6492WAT     H219996   2.022   2.884   3.804
 6493WAT      O19997   0.180   2.396   3.118
 6493WAT     H119998   0.188   2.409   3.024
 6493WAT     H219999   0.242   2.325   3.137
 6494WAT      O20000   0.305   2.566   2.759
 6494WAT     H120001   0.264   2.580   2.674
 6494WAT     H220002   0.394   2.537   2.739
 6495WAT      O20003   1.900   2.610   3.593
 6495WAT     H120004   1.913   2.587   3.501
 6495WAT     H220005   1.905   2.527   3.640
 6496WAT      O20006   1.287   2.981   3.450
 6496WAT     H120007   1.338   2.972   3.530
 6496WAT     H220008   1.202   3.015   3.479
 6497WAT      O20009   1.484   3.009   2.393
 6497WAT     H120010   1.468   2.980   2.482
 6497WAT     H220011   1.468   2.932   2.339
 6498WAT      O20012   0.732   2.987   2.570
 6498WAT     H120013   0.714   2.896   2.549
 6498WAT     H220014   0.647   3.023   2.594
 6499WAT      O20015   1.454   2.760   2.249
 6499WAT     H120016   1.385   2.760   2.183
 6499WAT     H220017   1.529   2.718   2.206
 6500WAT      O20018   1.411   2.923   2.656
 6500WAT     H120019   1.456   2.845   2.687
 6500WAT     H220020   1.445   2.994   2.710
 6501WAT      O20021   1.886   1.816   3.689
 6501WAT     H120022   1.824   1.867   3.636
 6501WAT     H220023   1.854   1.726   3.684
 6502WAT      O20024   0.186   2.500   3.372
 6502WAT     H120025   0.202   2.453   3.290
 6502WAT     H220026   0.232   2.449   3.438
 6503WAT      O20027   0.663   1.413   2.876
 6503WAT     H120028   0.619   1.491   2.842
 6503WAT     H220029   0.719   1.445   2.946
 6504WAT      O20030   1.092   1.700   3.436
 6504WAT     H120031   1.046   1.721   3.517
 6504WAT     H220032   1.052   1.618   3.406
 6505WAT      O20033   1.592   1.822   3.549
 6505WAT     H120034   1.507   1.792   3.581
 6505WAT     H220035   1.576   1.846   3.458
 6506WAT      O20036   1.301   1.972   3.759
 6506WAT     H120037   1.334   1.888   3.725
 6506WAT     H220038   1.380   2.024   3.774
 6507WAT      O20039   0.975   1.375   2.364
 6507WAT     H120040   0.912   1.375   2.436
 6507WAT     H220041   0.966   1.288   2.324
 6508WAT      O20042   0.867   1.467   3.061
 6508WAT     H120043   0.897   1.558   3.053
 6508WAT     H220044   0.922   1.419   3.000
 6509WAT      O20045   0.642   1.925   2.648
 6509WAT     H120046   0.620   1.904   2.739
 6509WAT     H220047   0.564   1.969   2.614
 6510WAT      O20048   1.365   1.926   2.508
 6510WAT     H120049   1.305   1.998   2.490
 6510WAT     H220050   1.420   1.920   2.430
 6511WAT      O20051   0.886   2.015   3.715
 6511WAT     H120052   0.877   1.921   3.700
 6511WAT     H220053   0.970   2.037   3.675
 6512WAT      O20054   1.226   1.790   2.711
 6512WAT     H120055   1.265   1.821   2.630
 6512WAT     H220056   1.262   1.702   2.723
 6513WAT      O20057   0.399   1.656   3.530
 6513WAT     H120058   0.360   1.741   3.551
 6513WAT     H220059   0.330   1.593   3.549
 6514WAT      O20060   1.057   1.665   3.837
 6514WAT     H120061   0.988   1.645   3.901
 6514WAT     H220062   1.131   1.693   3.891
 6515WAT      O20063   1.284   2.049   3.121
 6515WAT     H120064   1.211   2.100   3.156
 6515WAT     H220065   1.245   1.967   3.091
 6516WAT      O20066   0.928   1.716   2.961
 6516WAT     H120067   0.928   1.672   2.876
 6516WAT     H220068   1.018   1.748   2.972
 6517WAT      O20069   0.513   1.704   2.857
 6517WAT     H120070   0.479   1.752   2.933
 6517WAT     H220071   0.437   1.659   2.821
 6518WAT      O20072   0.934   1.816   2.260
 6518WAT     H120073   0.946   1.812   2.355
 6518WAT     H220074   0.896   1.903   2.245
 6519WAT      O20075   1.331   1.594   3.062
 6519WAT     H120076   1.332   1.639   3.146
 6519WAT     H220077   1.306   1.504   3.083
 6520WAT      O20078   0.836   2.047   2.200
 6520WAT     H120079   0.779   2.003   2.138
 6520WAT     H220080   0.906   2.083   2.147
 6521WAT      O20081   1.673   1.335   3.646
 6521WAT     H120082   1.706   1.262   3.699
 6521WAT     H220083   1.677   1.303   3.556
 6522WAT      O20084   0.343   2.437   3.588
 6522WAT     H120085   0.305   2.373   3.648
 6522WAT     H220086   0.374   2.508   3.645
 6523WAT      O20087   0.958   2.122   3.136
 6523WAT     H120088   0.995   2.075   3.211
 6523WAT     H220089   0.939   2.210   3.170
 6524WAT      O20090   0.245   1.597   2.749
 6524WAT     H120091   0.216   1.560   2.833
 6524WAT     H220092   0.238   1.523   2.688
 6525WAT      O20093   0.737   2.026   3.368
 6525WAT     H120094   0.707   2.114   3.390
 6525WAT     H220095   0.833   2.032   3.371
 6526WAT      O20096   0.590   2.447   2.428
 6526WAT     H120097   0.513   2.393   2.412
 6526WAT     H220098   0.663   2.395   2.394
 6527WAT      O20099   1.666   2.347   3.007
 6527WAT     H120100   1.738   2.396   2.968
 6527WAT     H220101   1.646   2.279   2.942
 6528WAT      O20102   1.212   1.486   2.421
 6528WAT     H120103   1.131   1.436   2.414
 6528WAT     H220104   1.193   1.570   2.379
 6529WAT      O20105   1.204   2.354   3.595
 6529WAT     H120106   1.197   2.262   3.570
 6529WAT     H220107   1.141   2.363   3.667
 6530WAT      O20108   1.483   1.923   2.251
 6530WAT     H120109   1.572   1.954   2.233
 6530WAT     H220110   1.481   1.836   2.212
 6531WAT      O20111   0.594   2.414   2.791
 6531WAT     H120112   0.646   2.333   2.786
 6531WAT     H220113   0.549   2.408   2.875
 6532WAT      O20114   1.083   2.540   2.319
 6532WAT     H120115   1.117   2.615   2.269
 6532WAT     H220116   1.000   2.572   2.355
 6533WAT      O20117   0.343   2.110   3.483
 6533WAT     H120118   0.307   2.177   3.541
 6533WAT     H220119   0.313   2.027   3.520
 6534WAT      O20120   0.663   2.156   3.771
 6534WAT     H120121   0.633   2.171   3.681
 6534WAT     H220122   0.740   2.100   3.762
 6535WAT      O20123   1.197   2.636   3.571
 6535WAT     H120124   1.199   2.543   3.549
 6535WAT     H220125   1.127   2.644   3.634
 6536WAT      O20126   1.711   2.054   2.198
 6536WAT     H120127   1.702   2.097   2.112
 6536WAT     H220128   1.783   2.100   2.241
 6537WAT      O20129   1.818   2.300   3.505
 6537WAT     H120130   1.746   2.359   3.485
 6537WAT     H220131   1.871   2.299   3.425
 6538WAT      O20132   1.814   2.740   2.470
 6538WAT     H120133   1.749   2.674   2.498
 6538WAT     H220134   1.775   2.780   2.393
 6539WAT      O20135   1.371   2.473   2.855
 6539WAT     H120136   1.407   2.413   2.789
 6539WAT     H220137   1.283   2.440   2.872
 6540WAT      O20138   0.980   2.549   2.596
 6540WAT     H120139   1.049   2.603   2.634
 6540WAT     H220140   0.901   2.603   2.599
 6541WAT      O20141   0.910   2.249   2.557
 6541WAT     H120142   0.956   2.330   2.580
 6541WAT     H220143   0.875   2.217   2.640
 6542WAT      O20144   1.141   2.800   3.280
 6542WAT     H120145   1.205   2.821   3.348
 6542WAT     H220146   1.177   2.724   3.235
 6543WAT      O20147   0.500   1.283   2.604
 6543WAT     H120148   0.488   1.283   2.699
 6543WAT     H220149   0.418   1.317   2.569
 6544WAT      O20150   1.268   2.600   3.152
 6544WAT     H120151   1.332   2.530   3.163
 6544WAT     H220152   1.320   2.678   3.134
 6545WAT      O20153   1.652   2.629   2.124
 6545WAT     H120154   1.630   2.557   2.183
 6545WAT     H220155   1.613   2.604   2.040
 6546WAT      O20156   1.445   2.680   3.472
 6546WAT     H120157   1.479   2.739   3.540
 6546WAT     H220158   1.353   2.667   3.495
 6547WAT      O20159   0.231   3.032   2.202
 6547WAT     H120160   0.267   3.091   2.136
 6547WAT     H220161   0.217   3.086   2.279
 6548WAT      O20162   1.611   2.421   2.290
 6548WAT     H120163   1.582   2.467   2.369
 6548WAT     H220164   1.690   2.375   2.317
 6549WAT      O20165   0.229   2.858   3.649
 6549WAT     H120166   0.240   2.764   3.635
 6549WAT     H220167   0.164   2.885   3.584
 6550WAT      O20168   1.028   2.685   3.789
 6550WAT     H120169   0.996   2.613   3.843
 6550WAT     H220170   0.961   2.753   3.796
 6551WAT      O20171   0.832   2.770   2.283
 6551WAT     H120172   0.831   2.843   2.222
 6551WAT     H220173   0.740   2.745   2.293
 6552WAT      O20174   0.392   2.292   2.358
 6552WAT     H120175   0.332   2.366   2.359
 6552WAT     H220176   0.440   2.301   2.275
 6553WAT      O20177   1.350   1.708   3.325
 6553WAT     H120178   1.387   1.626   3.358
 6553WAT     H220179   1.264   1.715   3.367
 6554WAT      O20180   1.686   1.604   2.406
 6554WAT     H120181   1.623   1.615   2.335
 6554WAT     H220182   1.637   1.626   2.485
 6555WAT      O20183   1.131   2.776   2.150
 6555WAT     H120184   1.141   2.756   2.057
 6555WAT     H220185   1.041   2.751   2.170
 6556WAT      O20186   0.883   1.832   2.548
 6556WAT     H120187   0.812   1.879   2.592
 6556WAT     H220188   0.912   1.766   2.611
 6557WAT      O20189   1.046   1.974   3.348
 6557WAT     H120190   1.096   2.021   3.414
 6557WAT     H220191   1.060   1.882   3.368
 6558WAT      O20192   1.286   1.504   2.692
 6558WAT     H120193   1.274   1.506   2.597
 6558WAT     H220194   1.381   1.509   2.704
 6559WAT      O20195   0.995   3.028   2.619
 6559WAT     H120196   1.021   3.024   2.527
 6559WAT     H220197   0.900   3.015   2.618
 6560WAT      O20198   0.704   1.663   2.285
 6560WAT     H120199   0.788   1.706   2.279
 6560WAT     H220200   0.667   1.694   2.368
 6561WAT      O20201   1.766   1.596   3.432
 6561WAT     H120202   1.716   1.670   3.466
 6561WAT     H220203   1.848   1.634   3.400
 6562WAT      O20204   1.596   2.120   2.777
 6562WAT     H120205   1.502   2.121   2.794
 6562WAT     H220206   1.627   2.041   2.821
 6563WAT      O20207   0.593   2.288   2.133
 6563WAT     H120208   0.670   2.277   2.189
 6563WAT     H220209   0.601   2.218   2.067
 6564WAT      O20210   0.463   2.031   2.201
 6564WAT     H120211   0.471   1.937   2.212
 6564WAT     H220212   0.552   2.064   2.212
 6565WAT      O20213   1.796   2.837   2.944
 6565WAT     H120214   1.808   2.919   2.991
 6565WAT     H220215   1.883   2.816   2.909
 6566WAT      O20216   0.543   3.046   2.911
 6566WAT     H120217   0.617   2.991   2.938
 6566WAT     H220218   0.581   3.133   2.897
 6567WAT      O20219   0.444   2.965   3.830
 6567WAT     H120220   0.524   2.997   3.872
 6567WAT     H220221   0.392   2.929   3.902
 6568WAT      O20222   0.854   2.964   2.094
 6568WAT     H120223   0.933   2.992   2.048
 6568WAT     H220224   0.802   2.921   2.026
 6569WAT      O20225   1.327   2.576   3.825
 6569WAT     H120226   1.267   2.578   3.751
 6569WAT     H220227   1.297   2.502   3.879
 6570WAT      O20228   1.470   2.948   3.686
 6570WAT     H120229   1.566   2.940   3.681
 6570WAT     H220230   1.456   3.015   3.753
 6571WAT      O20231   1.759   2.886   2.236
 6571WAT     H120232   1.731   2.845   2.154
 6571WAT     H220233   1.740   2.979   2.224
 6572WAT      O20234   0.906   2.486   2.080
 6572WAT     H120235   0.895   2.424   2.153
 6572WAT     H220236   0.889   2.433   2.002
 6573WAT      O20237   0.921   2.354   3.678
 6573WAT     H120238   0.844   2.411   3.669
 6573WAT     H220239   0.939   2.325   3.589
 6574WAT      O20240   1.230   2.392   2.140
 6574WAT     H120241   1.175   2.437   2.205
 6574WAT     H220242   1.292   2.341   2.193
 6575WAT      O20243   1.635   2.527   3.734
 6575WAT     H120244   1.709   2.561   3.683
 6575WAT     H220245   1.559   2.544   3.678
 6576WAT      O20246   0.419   2.028   3.814
 6576WAT     H120247   0.423   1.998   3.905
 6576WAT     H220248   0.504   2.068   3.798
 6577WAT      O20249   0.797   2.288   2.330
 6577WAT     H120250   0.839   2.271   2.414
 6577WAT     H220251   0.809   2.207   2.281
 6578WAT      O20252   0.613   1.886   3.611
 6578WAT     H120253   0.560   1.837   3.548
 6578WAT     H220254   0.680   1.929   3.557
 6579WAT      O20255   1.048   2.190   2.055
 6579WAT     H120256   1.100   2.119   2.018
 6579WAT     H220257   1.113   2.254   2.085
 6580WAT      O20258   1.503   2.332   3.587
 6580WAT     H120259   1.544   2.348   3.672
 6580WAT     H220260   1.409   2.345   3.603
 6581WAT      O20261   1.550   2.066   3.788
 6581WAT     H120262   1.608   1.991   3.779
 6581WAT     H220263   1.568   2.119   3.710
 6582WAT      O20264   0.662   1.582   3.619
 6582WAT     H120265   0.652   1.521   3.546
 6582WAT     H220266   0.604   1.655   3.596
 6583WAT      O20267   0.938   1.438   3.322
 6583WAT     H120268   0.893   1.440   3.237
 6583WAT     H220269   0.875   1.398   3.382
 6584WAT      O20270   0.979   2.328   3.384
 6584WAT     H120271   1.021   2.412   3.367
 6584WAT     H220272   0.887   2.341   3.361
 6585WAT      O20273   1.212   2.101   3.523
 6585WAT     H120274   1.224   2.041   3.596
 6585WAT     H220275   1.298   2.104   3.481
 6586WAT      O20276   1.446   2.156   3.380
 6586WAT     H120277   1.394   2.209   3.320
 6586WAT     H220278   1.481   2.219   3.443
 6587WAT      O20279   0.686   1.895   2.025
 6587WAT     H120280   0.666   1.809   2.061
 6587WAT     H220281   0.669   1.886   1.931
 6588WAT      O20282   0.764   2.958   3.496
 6588WAT     H120283   0.710   3.031   3.464
 6588WAT     H220284   0.789   2.910   3.417
 6589WAT      O20285   0.889   1.755   3.648
 6589WAT     H120286   0.948   1.724   3.717
 6589WAT     H220287   0.807   1.708   3.664
 6590WAT      O20288   1.371   1.717   3.672
 6590WAT     H120289   1.302   1.650   3.665
 6590WAT     H220290   1.443   1.672   3.716
 6591WAT      O20291   1.434   1.376   2.278
 6591WAT     H120292   1.462   1.292   2.313
 6591WAT     H220293   1.357   1.399   2.329
 6592WAT      O20294   0.566   1.605   2.023
 6592WAT     H120295   0.596   1.606   1.933
 6592WAT     H220296   0.640   1.570   2.073
 6593WAT      O20297   1.050   3.082   3.522
 6593WAT     H120298   1.042   3.172   3.552
 6593WAT     H220299   0.959   3.050   3.519
 6594WAT      O20300   0.888   1.499   2.122
 6594WAT     H120301   0.853   1.432   2.064
 6594WAT     H220302   0.908   1.453   2.203
 6595WAT      O20303   1.104   2.998   2.284
 6595WAT     H120304   1.194   3.032   2.286
 6595WAT     H220305   1.108   2.926   2.221
 6596WAT      O20306   0.468   2.536   2.107
 6596WAT     H120307   0.512   2.590   2.172
 6596WAT     H220308   0.517   2.453   2.108
 6597WAT      O20309   0.190   2.814   2.852
 6597WAT     H120310   0.223   2.728   2.829
 6597WAT     H220311   0.233   2.835   2.935
 6598WAT      O20312   0.649   2.647   2.618
 6598WAT     H120313   0.619   2.635   2.708
 6598WAT     H220314   0.639   2.562   2.577
 6599WAT      O20315   0.239   2.901   3.126
 6599WAT     H120316   0.195   2.919   3.209
 6599WAT     H220317   0.295   2.977   3.112
 6600WAT      O20318   1.802   2.851   3.555
 6600WAT     H120319   1.742   2.857   3.480
 6600WAT     H220320   1.815   2.757   3.567
 6601WAT      O20321   1.926   2.625   2.088
 6601WAT     H120322   1.843   2.632   2.135
 6601WAT     H220323   1.944   2.714   2.058
 6602WAT      O20324   1.872   2.300   2.339
 6602WAT     H120325   1.948   2.357   2.349
 6602WAT     H220326   1.873   2.243   2.416
 6603WAT      O20327   1.973   2.385   2.823
 6603WAT     H120328   2.010   2.307   2.782
 6603WAT     H220329   2.037   2.454   2.805
 6604WAT      O20330   1.671   2.524   3.364
 6604WAT     H120331   1.589   2.567   3.391
 6604WAT     H220332   1.712   2.585   3.303
 6605WAT      O20333   1.877   2.329   2.054
 6605WAT     H120334   1.905   2.420   2.041
 6605WAT     H220335   1.858   2.323   2.148
 6606WAT      O20336   1.517   1.632   2.184
 6606WAT     H120337   1.559   1.613   2.100
 6606WAT     H220338   1.486   1.547   2.215
 6607WAT      O20339   1.867   2.123   2.554
 6607WAT     H120340   1.829   2.046   2.510
 6607WAT     H220341   1.794   2.161   2.602
 6608WAT      O20342   0.326   2.191   3.216
 6608WAT     H120343   0.362   2.182   3.304
 6608WAT     H220344   0.269   2.114   3.206
 6609WAT      O20345   1.806   2.038   3.517
 6609WAT     H120346   1.783   2.015   3.427
 6609WAT     H220347   1.832   2.130   3.512
 6610WAT      O20348   0.281   1.882   3.606
 6610WAT     H120349   0.191   1.879   3.640
 6610WAT     H220350   0.335   1.902   3.683
 6611WAT      O20351   1.650   1.560   3.795
 6611WAT     H120352   1.737   1.561   3.833
 6611WAT     H220353   1.651   1.487   3.734
 6612WAT      O20354   1.794   1.946   2.884
 6612WAT     H120355   1.847   1.896   2.821
 6612WAT     H220356   1.853   1.959   2.958
 6613WAT      O20357   1.812   1.954   3.236
 6613WAT     H120358   1.717   1.951   3.247
 6613WAT     H220359   1.830   2.045   3.212
 6614WAT      O20360   0.398   1.779   2.147
 6614WAT     H120361   0.469   1.737   2.098
 6614WAT     H220362   0.326   1.786   2.084
 6615WAT      O20363   0.362   1.384   2.051
 6615WAT     H120364   0.435   1.438   2.083
 6615WAT     H220365   0.390   1.357   1.963
 6616WAT      O20366   1.743   1.871   2.478
 6616WAT     H120367   1.793   1.848   2.556
 6616WAT     H220368   1.723   1.787   2.436
 6617WAT      O20369   0.331   1.309   3.041
 6617WAT     H120370   0.396   1.254   2.997
 6617WAT     H220371   0.373   1.335   3.123
 6618WAT      O20372   1.886   1.735   2.731
 6618WAT     H120373   1.875   1.719   2.825
 6618WAT     H220374   1.962   1.682   2.707
 6619WAT      O20375   1.721   1.329   3.377
 6619WAT     H120376   1.785   1.390   3.413
 6619WAT     H220377   1.736   1.332   3.282
 6620WAT      O20378   1.975   1.518   2.055
 6620WAT     H120379   2.068   1.505   2.034
 6620WAT     H220380   1.973   1.526   2.150
 6621WAT      O20381   1.982   1.595   2.318
 6621WAT     H120382   1.903   1.589   2.370
 6621WAT     H220383   2.003   1.689   2.316
 6622WAT      O20384   1.677   2.999   2.717
 6622WAT     H120385   1.736   2.967   2.649
 6622WAT     H220386   1.702   2.952   2.796
 6623WAT      O20387   0.307   1.325   3.315
 6623WAT     H120388   0.272   1.371   3.392
 6623WAT     H220389   0.273   1.236   3.324
 6624WAT      O20390   0.467   2.642   3.732
 6624WAT     H120391   0.463   2.605   3.820
 6624WAT     H220392   0.480   2.736   3.746
 6625WAT      O20393   0.837   2.798   3.292
 6625WAT     H120394   0.813   2.824   3.203
 6625WAT     H220395   0.931   2.815   3.297
 6626WAT      O20396   1.058   1.444   3.668
 6626WAT     H120397   1.052   1.503   3.742
 6626WAT     H220398   1.152   1.433   3.653
 6627WAT      O20399   1.322   1.410   3.631
 6627WAT     H120400   1.383   1.442   3.565
 6627WAT     H220401   1.376   1.361   3.693
 6628WAT      O20402   1.963   3.000   3.372
 6628WAT     H120403   1.914   3.039   3.300
 6628WAT     H220404   1.902   2.937   3.411
 6629WAT      O20405   0.374   1.278   3.643
 6629WAT     H120406   0.429   1.260   3.566
 6629WAT     H220407   0.380   1.199   3.696
 6630WAT      O20408   0.451   2.937   3.444
 6630WAT     H120409   0.392   2.924   3.518
 6630WAT     H220410   0.450   2.853   3.397
 6631WAT      O20411   1.396   1.266   3.264
 6631WAT     H120412   1.308   1.299   3.244
 6631WAT     H220413   1.385   1.219   3.347
 6632WAT      O20414   1.486   1.487   3.403
 6632WAT     H120415   1.454   1.405   3.365
 6632WAT     H220416   1.581   1.483   3.390
 6633WAT      O20417   1.732   3.064   3.100
 6633WAT     H120418   1.686   3.139   3.063
 6633WAT     H220419   1.669   2.992   3.094
 6634WAT      O20420   0.414   2.673   3.339
 6634WAT     H120421   0.342   2.611   3.332
 6634WAT     H220422   0.420   2.713   3.252
 6635WAT      O20423   0.775   2.895   3.017
 6635WAT     H120424   0.826   2.834   2.965
 6635WAT     H220425   0.840   2.945   3.067
 6636WAT      O20426   1.049   2.984   3.100
 6636WAT     H120427   1.077   2.958   3.012
 6636WAT     H220428   1.100   2.929   3.159
 6637WAT      O20429   1.170   1.358   3.158
 6637WAT     H120430   1.092   1.405   3.186
 6637WAT     H220431   1.141   1.267   3.147
 6638WAT      O20432   1.626   1.428   2.963
 6638WAT     H120433   1.670   1.422   2.878
 6638WAT     H220434   1.599   1.520   2.970
 6639WAT      O20435   1.812   1.391   2.764
 6639WAT     H120436   1.806   1.297   2.749
 6639WAT     H220437   1.890   1.402   2.818
 6640WAT      O20438   0.305   1.388   2.410
 6640WAT     H120439   0.381   1.400   2.353
 6640WAT     H220440   0.259   1.472   2.406
 6641WAT      O20441   0.959   1.600   2.709
 6641WAT     H120442   0.878   1.562   2.675
 6641WAT     H220443   1.009   1.524   2.739
 6642WAT      O20444   1.409   1.266   2.833
 6642WAT     H120445   1.470   1.323   2.881
 6642WAT     H220446   1.335   1.322   2.811
 6643WAT      O20447   1.724   1.306   2.360
 6643WAT     H120448   1.743   1.396   2.387
 6643WAT     H220449   1.645   1.283   2.410
 6644WAT      O20450   0.403   2.874   2.404
 6644WAT     H120451   0.351   2.913   2.334
 6644WAT     H220452   0.396   2.937   2.476
 6645WAT      O20453   0.542   1.441   2.264
 6645WAT     H120454   0.595   1.362   2.251
 6645WAT     H220455   0.605   1.509   2.288
 6646WAT      O20456   0.761   1.415   2.570
 6646WAT     H120457   0.698   1.345   2.586
 6646WAT     H220458   0.708   1.491   2.548
 6647WAT      O20459   1.055   3.076   3.837
 6647WAT     H120460   1.148   3.053   3.841
 6647WAT     H220461   1.054   3.159   3.789
 6648WAT      O20462   0.774   1.343   3.813
 6648WAT     H120463   0.746   1.393   3.737
 6648WAT     H220464   0.812   1.263   3.777
 6649WAT      O20465   0.663   3.069   2.292
 6649WAT     H120466   0.736   3.041   2.237
 6649WAT     H220467   0.689   3.045   2.381
 6650WAT      O20468   0.579   2.681   2.292
 6650WAT     H120469   0.516   2.728   2.347
 6650WAT     H220470   0.591   2.596   2.336
 6651WAT      O20471   1.434   1.284   3.871
 6651WAT     H120472   1.423   1.316   3.961
 6651WAT     H220473   1.516   1.324   3.841
 6652WAT      O20474   1.712   2.999   3.819
 6652WAT     H120475   1.791   2.949   3.798
 6652WAT     H220476   1.741   3.067   3.880
 6653WAT      O20477   1.325   2.086   0.907
 6653WAT     H120478   1.317   1.995   0.880
 6653WAT     H220479   1.283   2.136   0.837
 6654WAT      O20480   1.138   2.264   1.095
 6654WAT     H120481   1.060   2.216   1.124
 6654WAT     H220482   1.203   2.196   1.078
 6655WAT      O20483   0.540   2.295   1.183
 6655WAT     H120484   0.456   2.269   1.223
 6655WAT     H220485   0.600   2.302   1.257
 6656WAT      O20486   1.540   2.704   0.973
 6656WAT     H120487   1.494   2.627   1.006
 6656WAT     H220488   1.621   2.707   1.024
 6657WAT      O20489   0.538   2.698   1.203
 6657WAT     H120490   0.568   2.609   1.185
 6657WAT     H220491   0.612   2.754   1.180
 6658WAT      O20492   0.380   1.791   0.562
 6658WAT     H120493   0.292   1.825   0.551
 6658WAT     H220494   0.409   1.771   0.472
 6659WAT      O20495   0.177   2.051   1.150
 6659WAT     H120496   0.234   1.974   1.150
 6659WAT     H220497   0.177   2.081   1.059
 6660WAT      O20498   1.163   2.933   0.935
 6660WAT     H120499   1.101   2.979   0.878
 6660WAT     H220500   1.248   2.948   0.895
 6661WAT      O20501   1.082   2.531   1.096
 6661WAT     H120502   1.075   2.437   1.080
 6661WAT     H220503   1.158   2.540   1.153
 6662WAT      O20504   0.301   1.592   1.329
 6662WAT     H120505   0.283   1.502   1.357
 6662WAT     H220506   0.261   1.647   1.396
 6663WAT      O20507   1.185   1.812   1.119
 6663WAT     H120508   1.223   1.725   1.108
 6663WAT     H220509   1.175   1.846   1.030
 6664WAT      O20510   0.598   1.649   0.665
 6664WAT     H120511   0.609   1.739   0.696
 6664WAT     H220512   0.507   1.644   0.636
 6665WAT      O20513   1.563   1.562   0.812
 6665WAT     H120514   1.645   1.513   0.816
 6665WAT     H220515   1.567   1.621   0.887
 6666WAT      O20516   0.363   1.841   1.190
 6666WAT     H120517   0.431   1.868   1.251
 6666WAT     H220518   0.331   1.757   1.223
 6667WAT      O20519   0.782   1.946   1.098
 6667WAT     H120520   0.833   1.996   1.162
 6667WAT     H220521   0.835   1.869   1.081
 6668WAT      O20522   1.992   1.763   1.469
 6668WAT     H120523   1.922   1.802   1.417
 6668WAT     H220524   2.019   1.833   1.529
 6669WAT      O20525   0.611   1.410   1.525
 6669WAT     H120526   0.611   1.462   1.444
 6669WAT     H220527   0.528   1.362   1.523
 6670WAT      O20528   1.249   2.421   0.675
 6670WAT     H120529   1.187   2.468   0.618
 6670WAT     H220530   1.300   2.491   0.716
 6671WAT      O20531   0.736   2.374   1.343
 6671WAT     H120532   0.702   2.437   1.407
 6671WAT     H220533   0.753   2.427   1.265
 6672WAT      O20534   1.587   1.756   1.089
 6672WAT     H120535   1.516   1.784   1.147
 6672WAT     H220536   1.623   1.837   1.053
 6673WAT      O20537   0.579   1.581   1.326
 6673WAT     H120538   0.613   1.666   1.296
 6673WAT     H220539   0.485   1.596   1.337
 6674WAT      O20540   0.657   2.571   1.524
 6674WAT     H120541   0.719   2.638   1.496
 6674WAT     H220542   0.571   2.612   1.515
 6675WAT      O20543   1.749   2.717   1.316
 6675WAT     H120544   1.680   2.784   1.315
 6675WAT     H220545   1.802   2.737   1.239
 6676WAT      O20546   1.894   1.700   1.128
 6676WAT     H120547   1.799   1.703   1.142
 6676WAT     H220548   1.926   1.781   1.167
 6677WAT      O20549   0.947   1.330   0.958
 6677WAT     H120550   0.978   1.275   0.886
 6677WAT     H220551   0.854   1.344   0.940
 6678WAT      O20552   1.502   2.902   1.187
 6678WAT     H120553   1.503   2.861   1.100
 6678WAT     H220554   1.447   2.979   1.177
 6679WAT      O20555   1.632   2.574   0.696
 6679WAT     H120556   1.621   2.480   0.709
 6679WAT     H220557   1.631   2.610   0.785
 6680WAT      O20558   1.442   2.392   1.320
 6680WAT     H120559   1.484   2.371   1.236
 6680WAT     H220560   1.514   2.418   1.377
 6681WAT      O20561   1.186   2.137   0.632
 6681WAT     H120562   1.093   2.130   0.655
 6681WAT     H220563   1.201   2.230   0.620
 6682WAT      O20564   1.184   1.764   0.331
 6682WAT     H120565   1.091   1.780   0.340
 6682WAT     H220566   1.216   1.836   0.277
 6683WAT      O20567   1.837   2.232   1.329
 6683WAT     H120568   1.754   2.239   1.282
 6683WAT     H220569   1.896   2.290   1.282
 6684WAT      O20570   1.589   2.293   0.682
 6684WAT     H120571   1.527   2.259   0.617
 6684WAT     H220572   1.587   2.228   0.753
 6685WAT      O20573   1.533   1.911   1.424
 6685WAT     H120574   1.492   1.993   1.449
 6685WAT     H220575   1.460   1.852   1.404
 6686WAT      O20576   0.746   2.189   0.910
 6686WAT     H120577   0.706   2.118   0.860
 6686WAT     H220578   0.755   2.155   0.999
 6687WAT      O20579   0.793   2.558   1.126
 6687WAT     H120580   0.763   2.497   1.058
 6687WAT     H220581   0.888   2.562   1.115
 6688WAT      O20582   0.618   1.867   1.288
 6688WAT     H120583   0.673   1.878   1.210
 6688WAT     H220584   0.669   1.904   1.359
 6689WAT      O20585   1.602   2.915   1.492
 6689WAT     H120586   1.554   2.996   1.473
 6689WAT     H220587   1.534   2.850   1.508
 6690WAT      O20588   0.702   2.532   1.791
 6690WAT     H120589   0.613   2.554   1.816
 6690WAT     H220590   0.705   2.544   1.696
 6691WAT      O20591   1.406   2.217   0.383
 6691WAT     H120592   1.450   2.133   0.368
 6691WAT     H220593   1.478   2.280   0.391
 6692WAT      O20594   0.585   2.219   1.649
 6692WAT     H120595   0.571   2.306   1.686
 6692WAT     H220596   0.497   2.185   1.634
 6693WAT      O20597   1.217   2.711   0.780
 6693WAT     H120598   1.261   2.785   0.738
 6693WAT     H220599   1.211   2.735   0.872
 6694WAT      O20600   0.765   2.813   1.870
 6694WAT     H120601   0.762   2.853   1.783
 6694WAT     H220602   0.749   2.720   1.853
 6695WAT      O20603   1.765   1.342   0.214
 6695WAT     H120604   1.733   1.351   0.304
 6695WAT     H220605   1.841   1.400   0.209
 6696WAT      O20606   0.416   2.079   0.660
 6696WAT     H120607   0.404   2.151   0.599
 6696WAT     H220608   0.385   2.002   0.612
 6697WAT      O20609   0.180   2.396   1.241
 6697WAT     H120610   0.188   2.409   1.146
 6697WAT     H220611   0.242   2.325   1.260
 6698WAT      O20612   0.305   2.566   0.882
 6698WAT     H120613   0.264   2.580   0.796
 6698WAT     H220614   0.394   2.537   0.861
 6699WAT      O20615   1.900   2.610   1.715
 6699WAT     H120616   1.913   2.587   1.624
 6699WAT     H220617   1.905   2.527   1.763
 6700WAT      O20618   1.287   2.981   1.572
 6700WAT     H120619   1.338   2.972   1.653
 6700WAT     H220620   1.202   3.015   1.602
 6701WAT      O20621   1.484   3.009   0.515
 6701WAT     H120622   1.468   2.980   0.605
 6701WAT     H220623   1.468   2.932   0.462
 6702WAT      O20624   0.732   2.987   0.693
 6702WAT     H120625   0.714   2.896   0.672
 6702WAT     H220626   0.647   3.023   0.717
 6703WAT      O20627   1.454   2.760   0.371
 6703WAT     H120628   1.385   2.760   0.305
 6703WAT     H220629   1.529   2.718   0.328
 6704WAT      O20630   1.411   2.923   0.779
 6704WAT     H120631   1.456   2.845   0.810
 6704WAT     H220632   1.445   2.994   0.833
 6705WAT      O20633   1.886   1.816   1.812
 6705WAT     H120634   1.824   1.867   1.759
 6705WAT     H220635   1.854   1.726   1.806
 6706WAT      O20636   0.186   2.500   1.495
 6706WAT     H120637   0.202   2.453   1.413
 6706WAT     H220638   0.232   2.449   1.561
 6707WAT      O20639   0.663   1.413   0.998
 6707WAT     H120640   0.619   1.491   0.965
 6707WAT     H220641   0.719   1.445   1.069
 6708WAT      O20642   1.092   1.700   1.558
 6708WAT     H120643   1.046   1.721   1.640
 6708WAT     H220644   1.052   1.618   1.528
 6709WAT      O20645   1.592   1.822   1.671
 6709WAT     H120646   1.507   1.792   1.704
 6709WAT     H220647   1.576   1.846   1.580
 6710WAT      O20648   1.301   1.972   1.881
 6710WAT     H120649   1.334   1.888   1.847
 6710WAT     H220650   1.380   2.024   1.896
 6711WAT      O20651   0.975   1.375   0.486
 6711WAT     H120652   0.912   1.375   0.559
 6711WAT     H220653   0.966   1.288   0.447
 6712WAT      O20654   0.867   1.467   1.184
 6712WAT     H120655   0.897   1.558   1.176
 6712WAT     H220656   0.922   1.419   1.123
 6713WAT      O20657   0.642   1.925   0.771
 6713WAT     H120658   0.620   1.904   0.861
 6713WAT     H220659   0.564   1.969   0.736
 6714WAT      O20660   1.365   1.926   0.631
 6714WAT     H120661   1.305   1.998   0.612
 6714WAT     H220662   1.420   1.920   0.553
 6715WAT      O20663   0.886   2.015   1.838
 6715WAT     H120664   0.877   1.921   1.823
 6715WAT     H220665   0.970   2.037   1.798
 6716WAT      O20666   1.226   1.790   0.834
 6716WAT     H120667   1.265   1.821   0.753
 6716WAT     H220668   1.262   1.702   0.845
 6717WAT      O20669   0.399   1.656   1.653
 6717WAT     H120670   0.360   1.741   1.674
 6717WAT     H220671   0.330   1.593   1.672
 6718WAT      O20672   1.057   1.665   1.960
 6718WAT     H120673   0.988   1.645   2.023
 6718WAT     H220674   1.131   1.693   2.013
 6719WAT      O20675   1.284   2.049   1.243
 6719WAT     H120676   1.211   2.100   1.278
 6719WAT     H220677   1.245   1.967   1.213
 6720WAT      O20678   0.928   1.716   1.084
 6720WAT     H120679   0.928   1.672   0.999
 6720WAT     H220680   1.018   1.748   1.095
 6721WAT      O20681   0.513   1.704   0.980
 6721WAT     H120682   0.479   1.752   1.056
 6721WAT     H220683   0.437   1.659   0.944
 6722WAT      O20684   0.934   1.816   0.383
 6722WAT     H120685   0.946   1.812   0.478
 6722WAT     H220686   0.896   1.903   0.367
 6723WAT      O20687   1.331   1.594   1.185
 6723WAT     H120688   1.332   1.639   1.269
 6723WAT     H220689   1.306   1.504   1.206
 6724WAT      O20690   0.836   2.047   0.323
 6724WAT     H120691   0.779   2.003   0.260
 6724WAT     H220692   0.906   2.083   0.269
 6725WAT      O20693   1.673   1.335   1.768
 6725WAT     H120694   1.706   1.262   1.821
 6725WAT     H220695   1.677   1.303   1.678
 6726WAT      O20696   0.343   2.437   1.710
 6726WAT     H120697   0.305   2.373   1.770
 6726WAT     H220698   0.374   2.508   1.767
 6727WAT      O20699   0.958   2.122   1.259
 6727WAT     H120700   0.995   2.075   1.333
 6727WAT     H220701   0.939   2.210   1.293
 6728WAT      O20702   0.245   1.597   0.872
 6728WAT     H120703   0.216   1.560   0.955
 6728WAT     H220704   0.238   1.523   0.810
 6729WAT      O20705   0.737   2.026   1.490
 6729WAT     H120706   0.707   2.114   1.513
 6729WAT     H220707   0.833   2.032   1.494
 6730WAT      O20708   0.590   2.447   0.550
 6730WAT     H120709   0.513   2.393   0.534
 6730WAT     H220710   0.663   2.395   0.516
 6731WAT      O20711   1.666   2.347   1.129
 6731WAT     H120712   1.738   2.396   1.090
 6731WAT     H220713   1.646   2.279   1.065
 6732WAT      O20714   1.212   1.486   0.544
 6732WAT     H120715   1.131   1.436   0.536
 6732WAT     H220716   1.193   1.570   0.502
 6733WAT      O20717   1.204   2.354   1.718
 6733WAT     H120718   1.197   2.262   1.693
 6733WAT     H220719   1.141   2.363   1.789
 6734WAT      O20720   1.483   1.923   0.373
 6734WAT     H120721   1.572   1.954   0.356
 6734WAT     H220722   1.481   1.836   0.334
 6735WAT      O20723   0.594   2.414   0.914
 6735WAT     H120724   0.646   2.333   0.908
 6735WAT     H220725   0.549   2.408   0.998
 6736WAT      O20726   1.083   2.540   0.441
 6736WAT     H120727   1.117   2.615   0.392
 6736WAT     H220728   1.000   2.572   0.477
 6737WAT      O20729   0.343   2.110   1.605
 6737WAT     H120730   0.307   2.177   1.664
 6737WAT     H220731   0.313   2.027   1.642
 6738WAT      O20732   0.663   2.156   1.894
 6738WAT     H120733   0.633   2.171   1.804
 6738WAT     H220734   0.740   2.100   1.884
 6739WAT      O20735   1.197   2.636   1.693
 6739WAT     H120736   1.199   2.543   1.671
 6739WAT     H220737   1.127   2.644   1.757
 6740WAT      O20738   1.711   2.054   0.320
 6740WAT     H120739   1.702   2.097   0.235
 6740WAT     H220740   1.783   2.100   0.363
 6741WAT      O20741   1.818   2.300   1.628
 6741WAT     H120742   1.746   2.359   1.608
 6741WAT     H220743   1.871   2.299   1.548
 6742WAT      O20744   1.814   2.740   0.593
 6742WAT     H120745   1.749   2.674   0.620
 6742WAT     H220746   1.775   2.780   0.515
 6743WAT      O20747   1.371   2.473   0.978
 6743WAT     H120748   1.407   2.413   0.912
 6743WAT     H220749   1.283   2.440   0.995
 6744WAT      O20750   0.980   2.549   0.718
 6744WAT     H120751   1.049   2.603   0.756
 6744WAT     H220752   0.901   2.603   0.722
 6745WAT      O20753   0.910   2.249   0.680
 6745WAT     H120754   0.956   2.330   0.702
 6745WAT     H220755   0.875   2.217   0.763
 6746WAT      O20756   1.141   2.800   1.402
 6746WAT     H120757   1.205   2.821   1.470
 6746WAT     H220758   1.177   2.724   1.357
 6747WAT      O20759   0.500   1.283   0.727
 6747WAT     H120760   0.488   1.283   0.822
 6747WAT     H220761   0.418   1.317   0.692
 6748WAT      O20762   1.268   2.600   1.274
 6748WAT     H120763   1.332   2.530   1.286
 6748WAT     H220764   1.320   2.678   1.256
 6749WAT      O20765   1.652   2.629   0.247
 6749WAT     H120766   1.630   2.557   0.306
 6749WAT     H220767   1.613   2.604   0.163
 6750WAT      O20768   1.445   2.680   1.595
 6750WAT     H120769   1.479   2.739   1.662
 6750WAT     H220770   1.353   2.667   1.618
 6751WAT      O20771   0.231   3.032   0.324
 6751WAT     H120772   0.267   3.091   0.259
 6751WAT     H220773   0.217   3.086   0.401
 6752WAT      O20774   1.611   2.421   0.413
 6752WAT     H120775   1.582   2.467   0.492
 6752WAT     H220776   1.690   2.375   0.440
 6753WAT      O20777   0.229   2.858   1.772
 6753WAT     H120778   0.240   2.764   1.757
 6753WAT     H220779   0.164   2.885   1.707
 6754WAT      O20780   1.028   2.685   1.912
 6754WAT     H120781   0.996   2.613   1.966
 6754WAT     H220782   0.961   2.753   1.919
 6755WAT      O20783   0.832   2.770   0.406
 6755WAT     H120784   0.831   2.843   0.344
 6755WAT     H220785   0.740   2.745   0.415
 6756WAT      O20786   0.392   2.292   0.480
 6756WAT     H120787   0.332   2.366   0.481
 6756WAT     H220788   0.440   2.301   0.398
 6757WAT      O20789   1.350   1.708   1.448
 6757WAT     H120790   1.387   1.626   1.481
 6757WAT     H220791   1.264   1.715   1.489
 6758WAT      O20792   1.686   1.604   0.529
 6758WAT     H120793   1.623   1.615   0.457
 6758WAT     H220794   1.637   1.626   0.608
 6759WAT      O20795   1.131   2.776   0.272
 6759WAT     H120796   1.141   2.756   0.179
 6759WAT     H220797   1.041   2.751   0.293
 6760WAT      O20798   0.883   1.832   0.670
 6760WAT     H120799   0.812   1.879   0.714
 6760WAT     H220800   0.912   1.766   0.734
 6761WAT      O20801   1.046   1.974   1.470
 6761WAT     H120802   1.096   2.021   1.537
 6761WAT     H220803   1.060   1.882   1.491
 6762WAT      O20804   1.286   1.504   0.814
 6762WAT     H120805   1.274   1.506   0.719
 6762WAT     H220806   1.381   1.509   0.826
 6763WAT      O20807   0.995   3.028   0.742
 6763WAT     H120808   1.021   3.024   0.649
 6763WAT     H220809   0.900   3.015   0.741
 6764WAT      O20810   0.704   1.663   0.408
 6764WAT     H120811   0.788   1.706   0.401
 6764WAT     H220812   0.667   1.694   0.491
 6765WAT      O20813   1.766   1.596   1.555
 6765WAT     H120814   1.716   1.670   1.588
 6765WAT     H220815   1.848   1.634   1.523
 6766WAT      O20816   1.596   2.120   0.899
 6766WAT     H120817   1.502   2.121   0.917
 6766WAT     H220818   1.627   2.041   0.944
 6767WAT      O20819   0.593   2.288   0.255
 6767WAT     H120820   0.670   2.277   0.311
 6767WAT     H220821   0.601   2.218   0.190
 6768WAT      O20822   0.463   2.031   0.324
 6768WAT     H120823   0.471   1.937   0.335
 6768WAT     H220824   0.552   2.064   0.334
 6769WAT      O20825   1.796   2.837   1.067
 6769WAT     H120826   1.808   2.919   1.114
 6769WAT     H220827   1.883   2.816   1.032
 6770WAT      O20828   0.543   3.046   1.034
 6770WAT     H120829   0.617   2.991   1.061
 6770WAT     H220830   0.581   3.133   1.020
 6771WAT      O20831   0.444   2.965   1.953
 6771WAT     H120832   0.524   2.997   1.994
 6771WAT     H220833   0.392   2.929   2.025
 6772WAT      O20834   0.854   2.964   0.216
 6772WAT     H120835   0.933   2.992   0.171
 6772WAT     H220836   0.802   2.921   0.148
 6773WAT      O20837   1.327   2.576   1.947
 6773WAT     H120838   1.267   2.578   1.873
 6773WAT     H220839   1.297   2.502   2.001
 6774WAT      O20840   1.470   2.948   1.809
 6774WAT     H120841   1.566   2.940   1.804
 6774WAT     H220842   1.456   3.015   1.876
 6775WAT      O20843   1.759   2.886   0.358
 6775WAT     H120844   1.731   2.845   0.277
 6775WAT     H220845   1.740   2.979   0.346
 6776WAT      O20846   0.921   2.354   1.800
 6776WAT     H120847   0.844   2.411   1.792
 6776WAT     H220848   0.939   2.325   1.711
 6777WAT      O20849   1.230   2.392   0.263
 6777WAT     H120850   1.175   2.437   0.327
 6777WAT     H220851   1.292   2.341   0.315
 6778WAT      O20852   1.635   2.527   1.856
 6778WAT     H120853   1.709   2.561   1.806
 6778WAT     H220854   1.559   2.544   1.801
 6779WAT      O20855   0.419   2.028   1.937
 6779WAT     H120856   0.423   1.998   2.027
 6779WAT     H220857   0.504   2.068   1.921
 6780WAT      O20858   0.797   2.288   0.453
 6780WAT     H120859   0.839   2.271   0.537
 6780WAT     H220860   0.809   2.207   0.403
 6781WAT      O20861   0.613   1.886   1.733
 6781WAT     H120862   0.560   1.837   1.671
 6781WAT     H220863   0.680   1.929   1.680
 6782WAT      O20864   1.503   2.332   1.710
 6782WAT     H120865   1.544   2.348   1.795
 6782WAT     H220866   1.409   2.345   1.726
 6783WAT      O20867   1.550   2.066   1.910
 6783WAT     H120868   1.608   1.991   1.901
 6783WAT     H220869   1.568   2.119   1.832
 6784WAT      O20870   0.662   1.582   1.741
 6784WAT     H120871   0.652   1.521   1.669
 6784WAT     H220872   0.604   1.655   1.719
 6785WAT      O20873   0.938   1.438   1.445
 6785WAT     H120874   0.893   1.440   1.360
 6785WAT     H220875   0.875   1.398   1.504
 6786WAT      O20876   0.979   2.328   1.507
 6786WAT     H120877   1.021   2.412   1.489
 6786WAT     H220878   0.887   2.341   1.484
 6787WAT      O20879   1.212   2.101   1.645
 6787WAT     H120880   1.224   2.041   1.719
 6787WAT     H220881   1.298   2.104   1.603
 6788WAT      O20882   1.446   2.156   1.503
 6788WAT     H120883   1.394   2.209   1.442
 6788WAT     H220884   1.481   2.219   1.566
 6789WAT      O20885   0.764   2.958   1.618
 6789WAT     H120886   0.710   3.031   1.586
 6789WAT     H220887   0.789   2.910   1.539
 6790WAT      O20888   0.889   1.755   1.771
 6790WAT     H120889   0.948   1.724   1.840
 6790WAT     H220890   0.807   1.708   1.786
 6791WAT      O20891   1.371   1.717   1.794
 6791WAT     H120892   1.302   1.650   1.788
 6791WAT     H220893   1.443   1.672   1.839
 6792WAT      O20894   1.434   1.376   0.400
 6792WAT     H120895   1.462   1.292   0.436
 6792WAT     H220896   1.357   1.399   0.451
 6793WAT      O20897   1.050   3.082   1.644
 6793WAT     H120898   1.042   3.172   1.675
 6793WAT     H220899   0.959   3.050   1.641
 6794WAT      O20900   0.888   1.499   0.245
 6794WAT     H120901   0.853   1.432   0.187
 6794WAT     H220902   0.908   1.453   0.326
 6795WAT      O20903   1.104   2.998   0.406
 6795WAT     H120904   1.194   3.032   0.409
 6795WAT     H220905   1.108   2.926   0.344
 6796WAT      O20906   0.468   2.536   0.229
 6796WAT     H120907   0.512   2.590   0.295
 6796WAT     H220908   0.517   2.453   0.230
 6797WAT      O20909   0.190   2.814   0.974
 6797WAT     H120910   0.223   2.728   0.951
 6797WAT     H220911   0.233   2.835   1.058
 6798WAT      O20912   0.649   2.647   0.740
 6798WAT     H120913   0.619   2.635   0.831
 6798WAT     H220914   0.639   2.562   0.700
 6799WAT      O20915   0.239   2.901   1.248
 6799WAT     H120916   0.195   2.919   1.332
 6799WAT     H220917   0.295   2.977   1.234
 6800WAT      O20918   1.802   2.851   1.677
 6800WAT     H120919   1.742   2.857   1.603
 6800WAT     H220920   1.815   2.757   1.690
 6801WAT      O20921   1.926   2.625   0.211
 6801WAT     H120922   1.843   2.632   0.258
 6801WAT     H220923   1.944   2.714   0.180
 6802WAT      O20924   1.872   2.300   0.461
 6802WAT     H120925   1.948   2.357   0.472
 6802WAT     H220926   1.873   2.243   0.538
 6803WAT      O20927   1.973   2.385   0.946
 6803WAT     H120928   2.010   2.307   0.905
 6803WAT     H220929   2.037   2.454   0.928
 6804WAT      O20930   1.671   2.524   1.487
 6804WAT     H120931   1.589   2.567   1.513
 6804WAT     H220932   1.712   2.585   1.426
 6805WAT      O20933   1.877   2.329   0.177
 6805WAT     H120934   1.905   2.420   0.164
 6805WAT     H220935   1.858   2.323   0.270
 6806WAT      O20936   1.517   1.632   0.306
 6806WAT     H120937   1.559   1.613   0.222
 6806WAT     H220938   1.486   1.547   0.337
 6807WAT      O20939   1.867   2.123   0.676
 6807WAT     H120940   1.829   2.046   0.633
 6807WAT     H220941   1.794   2.161   0.725
 6808WAT      O20942   0.326   2.191   1.338
 6808WAT     H120943   0.362   2.182   1.426
 6808WAT     H220944   0.269   2.114   1.328
 6809WAT      O20945   1.806   2.038   1.640
 6809WAT     H120946   1.783   2.015   1.549
 6809WAT     H220947   1.832   2.130   1.635
 6810WAT      O20948   0.281   1.882   1.729
 6810WAT     H120949   0.191   1.879   1.763
 6810WAT     H220950   0.335   1.902   1.805
 6811WAT      O20951   1.650   1.560   1.917
 6811WAT     H120952   1.737   1.561   1.956
 6811WAT     H220953   1.651   1.487   1.856
 6812WAT      O20954   1.794   1.946   1.006
 6812WAT     H120955   1.847   1.896   0.943
 6812WAT     H220956   1.853   1.959   1.081
 6813WAT      O20957   1.812   1.954   1.358
 6813WAT     H120958   1.717   1.951   1.370
 6813WAT     H220959   1.830   2.045   1.335
 6814WAT      O20960   0.398   1.779   0.269
 6814WAT     H120961   0.469   1.737   0.221
 6814WAT     H220962   0.326   1.786   0.206
 6815WAT      O20963   1.743   1.871   0.600
 6815WAT     H120964   1.793   1.848   0.679
 6815WAT     H220965   1.723   1.787   0.558
 6816WAT      O20966   0.331   1.309   1.164
 6816WAT     H120967   0.396   1.254   1.120
 6816WAT     H220968   0.373   1.335   1.246
 6817WAT      O20969   1.886   1.735   0.853
 6817WAT     H120970   1.875   1.719   0.947
 6817WAT     H220971   1.962   1.682   0.829
 6818WAT      O20972   1.721   1.329   1.499
 6818WAT     H120973   1.785   1.390   1.536
 6818WAT     H220974   1.736   1.332   1.405
 6819WAT      O20975   1.975   1.518   0.178
 6819WAT     H120976   2.068   1.505   0.157
 6819WAT     H220977   1.973   1.526   0.273
 6820WAT      O20978   1.982   1.595   0.440
 6820WAT     H120979   1.903   1.589   0.493
 6820WAT     H220980   2.003   1.689   0.439
 6821WAT      O20981   1.677   2.999   0.840
 6821WAT     H120982   1.736   2.967   0.772
 6821WAT     H220983   1.702   2.952   0.919
 6822WAT      O20984   0.307   1.325   1.438
 6822WAT     H120985   0.272   1.371   1.514
 6822WAT     H220986   0.273   1.236   1.446
 6823WAT      O20987   0.467   2.642   1.854
 6823WAT     H120988   0.463   2.605   1.943
 6823WAT     H220989   0.480   2.736   1.868
 6824WAT      O20990   0.837   2.798   1.415
 6824WAT     H120991   0.813   2.824   1.326
 6824WAT     H220992   0.931   2.815   1.420
 6825WAT      O20993   1.058   1.444   1.790
 6825WAT     H120994   1.052   1.503   1.865
 6825WAT     H220995   1.152   1.433   1.776
 6826WAT      O20996   1.322   1.410   1.754
 6826WAT     H120997   1.383   1.442   1.688
 6826WAT     H220998   1.376   1.361   1.816
 6827WAT      O20999   1.963   3.000   1.495
 6827WAT     H121000   1.914   3.039   1.423
 6827WAT     H221001   1.902   2.937   1.534
 6828WAT      O21002   0.374   1.278   1.765
 6828WAT     H121003   0.429   1.260   1.689
 6828WAT     H221004   0.380   1.199   1.819
 6829WAT      O21005   0.451   2.937   1.566
 6829WAT     H121006   0.392   2.924   1.640
 6829WAT     H221007   0.450   2.853   1.520
 6830WAT      O21008   1.396   1.266   1.387
 6830WAT     H121009   1.308   1.299   1.366
 6830WAT     H221010   1.385   1.219   1.469
 6831WAT      O21011   1.486   1.487   1.525
 6831WAT     H121012   1.454   1.405   1.487
 6831WAT     H221013   1.581   1.483   1.513
 6832WAT      O21014   1.732   3.064   1.222
 6832WAT     H121015   1.686   3.139   1.185
 6832WAT     H221016   1.669   2.992   1.217
 6833WAT      O21017   0.414   2.673   1.461
 6833WAT     H121018   0.342   2.611   1.455
 6833WAT     H221019   0.420   2.713   1.374
 6834WAT      O21020   0.775   2.895   1.140
 6834WAT     H121021   0.826   2.834   1.087
 6834WAT     H221022   0.840   2.945   1.189
 6835WAT      O21023   1.049   2.984   1.223
 6835WAT     H121024   1.077   2.958   1.135
 6835WAT     H221025   1.100   2.929   1.282
 6836WAT      O21026   1.170   1.358   1.281
 6836WAT     H121027   1.092   1.405   1.309
 6836WAT     H221028   1.141   1.267   1.270
 6837WAT      O21029   1.626   1.428   1.085
 6837WAT     H121030   1.670   1.422   1.000
 6837WAT     H221031   1.599   1.520   1.092
 6838WAT      O21032   1.812   1.391   0.886
 6838WAT     H121033   1.806   1.297   0.872
 6838WAT     H221034   1.890   1.402   0.941
 6839WAT      O21035   0.305   1.388   0.533
 6839WAT     H121036   0.381   1.400   0.475
 6839WAT     H221037   0.259   1.472   0.528
 6840WAT      O21038   0.959   1.600   0.832
 6840WAT     H121039   0.878   1.562   0.798
 6840WAT     H221040   1.009   1.524   0.862
 6841WAT      O21041   1.409   1.266   0.956
 6841WAT     H121042   1.470   1.323   1.003
 6841WAT     H221043   1.335   1.322   0.933
 6842WAT      O21044   1.724   1.306   0.483
 6842WAT     H121045   1.743   1.396   0.510
 6842WAT     H221046   1.645   1.283   0.532
 6843WAT      O21047   0.403   2.874   0.527
 6843WAT     H121048   0.351   2.913   0.457
 6843WAT     H221049   0.396   2.937   0.599
 6844WAT      O21050   0.542   1.441   0.387
 6844WAT     H121051   0.595   1.362   0.374
 6844WAT     H221052   0.605   1.509   0.410
 6845WAT      O21053   0.761   1.415   0.692
 6845WAT     H121054   0.698   1.345   0.709
 6845WAT     H221055   0.708   1.491   0.671
 6846WAT      O21056   1.055   3.076   1.959
 6846WAT     H121057   1.148   3.053   1.964
 6846WAT     H221058   1.054   3.159   1.911
 6847WAT      O21059   1.879   3.030   0.659
 6847WAT     H121060   1.896   2.962   0.595
 6847WAT     H221061   1.809   3.083   0.620
 6848WAT      O21062   0.774   1.343   1.936
 6848WAT     H121063   0.746   1.393   1.859
 6848WAT     H221064   0.812   1.263   1.899
 6849WAT      O21065   0.663   3.069   0.414
 6849WAT     H121066   0.736   3.041   0.360
 6849WAT     H221067   0.689   3.045   0.503
 6850WAT      O21068   0.579   2.681   0.415
 6850WAT     H121069   0.516   2.728   0.470
 6850WAT     H221070   0.591   2.596   0.458
 6851WAT      O21071   1.434   1.284   1.994
 6851WAT     H121072   1.423   1.316   2.083
 6851WAT     H221073   1.516   1.324   1.964
 6852WAT      O21074   1.712   2.999   1.942
 6852WAT     H121075   1.791   2.949   1.921
 6852WAT     H221076   1.741   3.067   2.003
 6853WAT      O21077   1.138   0.386   4.850
 6853WAT     H121078   1.060   0.338   4.879
 6853WAT     H221079   1.203   0.318   4.833
 6854WAT      O21080   0.540   0.418   4.938
 6854WAT     H121081   0.456   0.392   4.978
 6854WAT     H221082   0.600   0.425   5.012
 6855WAT      O21083   1.540   0.827   4.728
 6855WAT     H121084   1.494   0.750   4.761
 6855WAT     H221085   1.621   0.830   4.779
 6856WAT      O21086   0.538   0.821   4.958
 6856WAT     H121087   0.568   0.732   4.940
 6856WAT     H221088   0.612   0.877   4.935
 6857WAT      O21089   1.163   1.056   4.690
 6857WAT     H121090   1.101   1.101   4.633
 6857WAT     H221091   1.248   1.071   4.650
 6858WAT      O21092   1.082   0.654   4.851
 6858WAT     H121093   1.075   0.560   4.835
 6858WAT     H221094   1.158   0.663   4.908
 6859WAT      O21095   1.249   0.544   4.430
 6859WAT     H121096   1.187   0.590   4.373
 6859WAT     H221097   1.300   0.613   4.471
 6860WAT      O21098   0.736   0.497   5.097
 6860WAT     H121099   0.702   0.559   5.162
 6860WAT     H221100   0.753   0.549   5.020
 6861WAT      O21101   0.657   0.693   5.279
 6861WAT     H121102   0.719   0.761   5.251
 6861WAT     H221103   0.571   0.734   5.270
 6862WAT      O21104   1.749   0.840   5.071
 6862WAT     H121105   1.680   0.907   5.070
 6862WAT     H221106   1.802   0.860   4.994
 6863WAT      O21107   1.502   1.024   4.942
 6863WAT     H121108   1.503   0.984   4.855
 6863WAT     H221109   1.447   1.102   4.932
 6864WAT      O21110   1.632   0.696   4.451
 6864WAT     H121111   1.621   0.602   4.463
 6864WAT     H221112   1.631   0.733   4.540
 6865WAT      O21113   1.442   0.515   5.075
 6865WAT     H121114   1.484   0.493   4.991
 6865WAT     H221115   1.514   0.540   5.132
 6866WAT      O21116   1.186   0.259   4.387
 6866WAT     H121117   1.093   0.252   4.409
 6866WAT     H221118   1.201   0.353   4.375
 6867WAT      O21119   1.837   0.354   5.084
 6867WAT     H121120   1.754   0.361   5.036
 6867WAT     H221121   1.896   0.413   5.037
 6868WAT      O21122   1.589   0.415   4.437
 6868WAT     H121123   1.527   0.382   4.372
 6868WAT     H221124   1.587   0.351   4.508
 6869WAT      O21125   0.746   0.312   4.665
 6869WAT     H121126   0.706   0.241   4.615
 6869WAT     H221127   0.755   0.277   4.754
 6870WAT      O21128   0.793   0.680   4.881
 6870WAT     H121129   0.763   0.620   4.813
 6870WAT     H221130   0.888   0.684   4.870
 6871WAT      O21131   1.602   1.038   5.247
 6871WAT     H121132   1.554   1.118   5.228
 6871WAT     H221133   1.534   0.973   5.263
 6872WAT      O21134   0.702   0.654   5.546
 6872WAT     H121135   0.613   0.677   5.571
 6872WAT     H221136   0.705   0.667   5.451
 6873WAT      O21137   1.406   0.339   4.138
 6873WAT     H121138   1.450   0.255   4.123
 6873WAT     H221139   1.478   0.402   4.146
 6874WAT      O21140   0.585   0.341   5.404
 6874WAT     H121141   0.571   0.429   5.441
 6874WAT     H221142   0.497   0.307   5.389
 6875WAT      O21143   1.217   0.833   4.534
 6875WAT     H121144   1.261   0.907   4.493
 6875WAT     H221145   1.211   0.857   4.627
 6876WAT      O21146   0.765   0.936   5.625
 6876WAT     H121147   0.762   0.976   5.538
 6876WAT     H221148   0.749   0.843   5.608
 6877WAT      O21149   0.180   0.518   4.995
 6877WAT     H121150   0.188   0.532   4.901
 6877WAT     H221151   0.242   0.448   5.015
 6878WAT      O21152   0.305   0.688   4.637
 6878WAT     H121153   0.264   0.703   4.551
 6878WAT     H221154   0.394   0.660   4.616
 6879WAT      O21155   1.900   0.733   5.470
 6879WAT     H121156   1.913   0.709   5.378
 6879WAT     H221157   1.905   0.650   5.517
 6880WAT      O21158   1.287   1.103   5.327
 6880WAT     H121159   1.338   1.094   5.407
 6880WAT     H221160   1.202   1.138   5.356
 6881WAT      O21161   1.484   1.132   4.270
 6881WAT     H121162   1.468   1.103   4.360
 6881WAT     H221163   1.468   1.054   4.216
 6882WAT      O21164   0.732   1.110   4.448
 6882WAT     H121165   0.714   1.018   4.426
 6882WAT     H221166   0.647   1.146   4.472
 6883WAT      O21167   1.454   0.883   4.126
 6883WAT     H121168   1.385   0.882   4.060
 6883WAT     H221169   1.529   0.840   4.083
 6884WAT      O21170   1.411   1.045   4.533
 6884WAT     H121171   1.456   0.967   4.565
 6884WAT     H221172   1.445   1.116   4.588
 6885WAT      O21173   0.186   0.623   5.249
 6885WAT     H121174   0.202   0.576   5.168
 6885WAT     H221175   0.232   0.572   5.316
 6886WAT      O21176   0.343   0.560   5.465
 6886WAT     H121177   0.305   0.496   5.525
 6886WAT     H221178   0.374   0.630   5.522
 6887WAT      O21179   0.958   0.245   5.013
 6887WAT     H121180   0.995   0.197   5.088
 6887WAT     H221181   0.939   0.332   5.048
 6888WAT      O21182   0.590   0.569   4.305
 6888WAT     H121183   0.513   0.515   4.289
 6888WAT     H221184   0.663   0.518   4.271
 6889WAT      O21185   1.666   0.469   4.884
 6889WAT     H121186   1.738   0.519   4.845
 6889WAT     H221187   1.646   0.401   4.820
 6890WAT      O21188   1.204   0.476   5.473
 6890WAT     H121189   1.197   0.384   5.447
 6890WAT     H221190   1.141   0.486   5.544
 6891WAT      O21191   0.594   0.536   4.669
 6891WAT     H121192   0.646   0.456   4.663
 6891WAT     H221193   0.549   0.530   4.753
 6892WAT      O21194   1.083   0.663   4.196
 6892WAT     H121195   1.117   0.737   4.146
 6892WAT     H221196   1.000   0.694   4.232
 6893WAT      O21197   0.663   0.279   5.648
 6893WAT     H121198   0.633   0.293   5.559
 6893WAT     H221199   0.740   0.223   5.639
 6894WAT      O21200   1.197   0.758   5.448
 6894WAT     H121201   1.199   0.665   5.426
 6894WAT     H221202   1.127   0.767   5.512
 6895WAT      O21203   1.711   0.177   4.075
 6895WAT     H121204   1.702   0.220   3.990
 6895WAT     H221205   1.783   0.223   4.118
 6896WAT      O21206   1.818   0.423   5.383
 6896WAT     H121207   1.746   0.482   5.363
 6896WAT     H221208   1.871   0.422   5.303
 6897WAT      O21209   1.814   0.862   4.348
 6897WAT     H121210   1.749   0.797   4.375
 6897WAT     H221211   1.775   0.903   4.270
 6898WAT      O21212   1.371   0.595   4.732
 6898WAT     H121213   1.407   0.535   4.666
 6898WAT     H221214   1.283   0.563   4.750
 6899WAT      O21215   0.980   0.671   4.473
 6899WAT     H121216   1.049   0.726   4.511
 6899WAT     H221217   0.901   0.725   4.477
 6900WAT      O21218   0.910   0.372   4.434
 6900WAT     H121219   0.956   0.453   4.457
 6900WAT     H221220   0.875   0.340   4.518
 6901WAT      O21221   1.141   0.923   5.157
 6901WAT     H121222   1.205   0.943   5.225
 6901WAT     H221223   1.177   0.846   5.112
 6902WAT      O21224   1.268   0.723   5.029
 6902WAT     H121225   1.332   0.653   5.040
 6902WAT     H221226   1.320   0.801   5.011
 6903WAT      O21227   1.652   0.751   4.002
 6903WAT     H121228   1.630   0.680   4.061
 6903WAT     H221229   1.613   0.727   3.918
 6904WAT      O21230   1.445   0.803   5.349
 6904WAT     H121231   1.479   0.862   5.417
 6904WAT     H221232   1.353   0.790   5.372
 6905WAT      O21233   0.231   1.154   4.079
 6905WAT     H121234   0.267   1.214   4.014
 6905WAT     H221235   0.217   1.209   4.156
 6906WAT      O21236   1.611   0.543   4.168
 6906WAT     H121237   1.582   0.589   4.246
 6906WAT     H221238   1.690   0.497   4.195
 6907WAT      O21239   0.229   0.981   5.526
 6907WAT     H121240   0.240   0.887   5.512
 6907WAT     H221241   0.164   1.007   5.462
 6908WAT      O21242   1.028   0.808   5.666
 6908WAT     H121243   0.996   0.736   5.721
 6908WAT     H221244   0.961   0.875   5.674
 6909WAT      O21245   0.832   0.892   4.161
 6909WAT     H121246   0.831   0.966   4.099
 6909WAT     H221247   0.740   0.868   4.170
 6910WAT      O21248   0.392   0.415   4.235
 6910WAT     H121249   0.332   0.489   4.236
 6910WAT     H221250   0.440   0.424   4.153
 6911WAT      O21251   1.131   0.899   4.027
 6911WAT     H121252   1.141   0.878   3.934
 6911WAT     H221253   1.041   0.873   4.047
 6912WAT      O21254   0.995   1.151   4.496
 6912WAT     H121255   1.021   1.147   4.404
 6912WAT     H221256   0.900   1.138   4.496
 6913WAT      O21257   0.593   0.411   4.010
 6913WAT     H121258   0.670   0.399   4.066
 6913WAT     H221259   0.601   0.341   3.945
 6914WAT      O21260   1.796   0.960   4.822
 6914WAT     H121261   1.808   1.042   4.869
 6914WAT     H221262   1.883   0.938   4.787
 6915WAT      O21263   0.543   1.169   4.789
 6915WAT     H121264   0.617   1.114   4.816
 6915WAT     H221265   0.581   1.255   4.775
 6916WAT      O21266   0.854   1.086   3.971
 6916WAT     H121267   0.933   1.115   3.926
 6916WAT     H221268   0.802   1.043   3.903
 6917WAT      O21269   1.470   1.071   5.563
 6917WAT     H121270   1.566   1.063   5.558
 6917WAT     H221271   1.456   1.137   5.631
 6918WAT      O21272   1.759   1.009   4.113
 6918WAT     H121273   1.731   0.968   4.032
 6918WAT     H221274   1.740   1.102   4.101
 6919WAT      O21275   0.906   0.608   3.957
 6919WAT     H121276   0.895   0.547   4.030
 6919WAT     H221277   0.889   0.556   3.879
 6920WAT      O21278   0.921   0.477   5.555
 6920WAT     H121279   0.844   0.534   5.547
 6920WAT     H221280   0.939   0.448   5.466
 6921WAT      O21281   1.230   0.514   4.018
 6921WAT     H121282   1.175   0.559   4.082
 6921WAT     H221283   1.292   0.464   4.070
 6922WAT      O21284   1.635   0.650   5.611
 6922WAT     H121285   1.709   0.684   5.561
 6922WAT     H221286   1.559   0.667   5.556
 6923WAT      O21287   0.797   0.410   4.207
 6923WAT     H121288   0.839   0.394   4.292
 6923WAT     H221289   0.809   0.329   4.158
 6924WAT      O21290   1.048   0.313   3.932
 6924WAT     H121291   1.100   0.241   3.896
 6924WAT     H221292   1.113   0.377   3.962
 6925WAT      O21293   1.503   0.455   5.465
 6925WAT     H121294   1.544   0.470   5.550
 6925WAT     H221295   1.409   0.468   5.481
 6926WAT      O21296   0.979   0.450   5.262
 6926WAT     H121297   1.021   0.535   5.244
 6926WAT     H221298   0.887   0.464   5.239
 6927WAT      O21299   1.446   0.279   5.258
 6927WAT     H121300   1.394   0.331   5.197
 6927WAT     H221301   1.481   0.342   5.321
 6928WAT      O21302   0.764   1.081   5.373
 6928WAT     H121303   0.710   1.153   5.341
 6928WAT     H221304   0.789   1.033   5.294
 6929WAT      O21305   1.050   1.204   5.399
 6929WAT     H121306   1.042   1.295   5.430
 6929WAT     H221307   0.959   1.172   5.396
 6930WAT      O21308   1.104   1.121   4.161
 6930WAT     H121309   1.194   1.155   4.163
 6930WAT     H221310   1.108   1.049   4.099
 6931WAT      O21311   0.468   0.658   3.984
 6931WAT     H121312   0.512   0.712   4.050
 6931WAT     H221313   0.517   0.576   3.985
 6932WAT      O21314   0.190   0.937   4.729
 6932WAT     H121315   0.223   0.850   4.706
 6932WAT     H221316   0.233   0.958   4.812
 6933WAT      O21317   0.649   0.770   4.495
 6933WAT     H121318   0.619   0.758   4.585
 6933WAT     H221319   0.639   0.684   4.455
 6934WAT      O21320   0.239   1.024   5.003
 6934WAT     H121321   0.195   1.042   5.086
 6934WAT     H221322   0.295   1.099   4.989
 6935WAT      O21323   1.802   0.974   5.432
 6935WAT     H121324   1.742   0.980   5.358
 6935WAT     H221325   1.815   0.880   5.445
 6936WAT      O21326   1.926   0.748   3.966
 6936WAT     H121327   1.843   0.755   4.013
 6936WAT     H221328   1.944   0.837   3.935
 6937WAT      O21329   1.872   0.422   4.216
 6937WAT     H121330   1.948   0.479   4.227
 6937WAT     H221331   1.873   0.366   4.293
 6938WAT      O21332   1.973   0.508   4.700
 6938WAT     H121333   2.010   0.430   4.660
 6938WAT     H221334   2.037   0.577   4.683
 6939WAT      O21335   1.671   0.646   5.242
 6939WAT     H121336   1.589   0.689   5.268
 6939WAT     H221337   1.712   0.708   5.180
 6940WAT      O21338   1.877   0.452   3.932
 6940WAT     H121339   1.905   0.543   3.919
 6940WAT     H221340   1.858   0.445   4.025
 6941WAT      O21341   1.867   0.246   4.431
 6941WAT     H121342   1.829   0.169   4.388
 6941WAT     H221343   1.794   0.284   4.480
 6942WAT      O21344   0.326   0.313   5.093
 6942WAT     H121345   0.362   0.305   5.181
 6942WAT     H221346   0.269   0.237   5.083
 6943WAT      O21347   1.677   1.122   4.594
 6943WAT     H121348   1.736   1.089   4.527
 6943WAT     H221349   1.702   1.074   4.674
 6944WAT      O21350   0.467   0.765   5.609
 6944WAT     H121351   0.463   0.728   5.697
 6944WAT     H221352   0.480   0.858   5.623
 6945WAT      O21353   0.837   0.920   5.169
 6945WAT     H121354   0.813   0.947   5.081
 6945WAT     H221355   0.931   0.937   5.175
 6946WAT      O21356   1.963   1.122   5.249
 6946WAT     H121357   1.914   1.162   5.178
 6946WAT     H221358   1.902   1.060   5.289
 6947WAT      O21359   0.451   1.059   5.321
 6947WAT     H121360   0.392   1.046   5.395
 6947WAT     H221361   0.450   0.976   5.275
 6948WAT      O21362   1.732   1.186   4.977
 6948WAT     H121363   1.686   1.262   4.940
 6948WAT     H221364   1.669   1.115   4.972
 6949WAT      O21365   0.414   0.796   5.216
 6949WAT     H121366   0.342   0.734   5.210
 6949WAT     H221367   0.420   0.835   5.129
 6950WAT      O21368   0.775   1.017   4.895
 6950WAT     H121369   0.826   0.956   4.842
 6950WAT     H221370   0.840   1.068   4.944
 6951WAT      O21371   1.049   1.106   4.978
 6951WAT     H121372   1.077   1.081   4.890
 6951WAT     H221373   1.100   1.051   5.037
 6952WAT      O21374   0.403   0.997   4.282
 6952WAT     H121375   0.351   1.035   4.211
 6952WAT     H221376   0.396   1.060   4.354
 6953WAT      O21377   1.055   1.199   5.714
 6953WAT     H121378   1.148   1.175   5.719
 6953WAT     H221379   1.054   1.281   5.666
 6954WAT      O21380   1.879   1.153   4.414
 6954WAT     H121381   1.896   1.084   4.350
 6954WAT     H221382   1.809   1.205   4.375
 6955WAT      O21383   0.663   1.192   4.169
 6955WAT     H121384   0.736   1.163   4.115
 6955WAT     H221385   0.689   1.168   4.258
 6956WAT      O21386   0.579   0.803   4.170
 6956WAT     H121387   0.516   0.850   4.225
 6956WAT     H221388   0.591   0.719   4.213
 6957WAT      O21389   1.138   0.386   2.973
 6957WAT     H121390   1.060   0.338   3.002
 6957WAT     H221391   1.203   0.318   2.955
 6958WAT      O21392   0.540   0.418   3.061
 6958WAT     H121393   0.456   0.392   3.101
 6958WAT     H221394   0.600   0.425   3.134
 6959WAT      O21395   1.540   0.827   2.851
 6959WAT     H121396   1.494   0.750   2.884
 6959WAT     H221397   1.621   0.830   2.901
 6960WAT      O21398   0.538   0.821   3.080
 6960WAT     H121399   0.568   0.732   3.062
 6960WAT     H221400   0.612   0.877   3.057
 6961WAT      O21401   1.163   1.056   2.813
 6961WAT     H121402   1.101   1.101   2.756
 6961WAT     H221403   1.248   1.071   2.773
 6962WAT      O21404   1.082   0.654   2.974
 6962WAT     H121405   1.075   0.560   2.957
 6962WAT     H221406   1.158   0.663   3.031
 6963WAT      O21407   1.249   0.544   2.552
 6963WAT     H121408   1.187   0.590   2.496
 6963WAT     H221409   1.300   0.613   2.594
 6964WAT      O21410   0.736   0.497   3.220
 6964WAT     H121411   0.702   0.559   3.284
 6964WAT     H221412   0.753   0.549   3.142
 6965WAT      O21413   0.657   0.693   3.402
 6965WAT     H121414   0.719   0.761   3.373
 6965WAT     H221415   0.571   0.734   3.392
 6966WAT      O21416   1.749   0.840   3.193
 6966WAT     H121417   1.680   0.907   3.192
 6966WAT     H221418   1.802   0.860   3.117
 6967WAT      O21419   1.502   1.024   3.065
 6967WAT     H121420   1.503   0.984   2.978
 6967WAT     H221421   1.447   1.102   3.054
 6968WAT      O21422   1.632   0.696   2.573
 6968WAT     H121423   1.621   0.602   2.586
 6968WAT     H221424   1.631   0.733   2.662
 6969WAT      O21425   1.442   0.515   3.197
 6969WAT     H121426   1.484   0.493   3.114
 6969WAT     H221427   1.514   0.540   3.254
 6970WAT      O21428   1.186   0.259   2.509
 6970WAT     H121429   1.093   0.252   2.532
 6970WAT     H221430   1.201   0.353   2.498
 6971WAT      O21431   1.837   0.354   3.207
 6971WAT     H121432   1.754   0.361   3.159
 6971WAT     H221433   1.896   0.413   3.160
 6972WAT      O21434   1.589   0.415   2.559
 6972WAT     H121435   1.527   0.382   2.495
 6972WAT     H221436   1.587   0.351   2.630
 6973WAT      O21437   0.746   0.312   2.787
 6973WAT     H121438   0.706   0.241   2.738
 6973WAT     H221439   0.755   0.277   2.876
 6974WAT      O21440   0.793   0.680   3.004
 6974WAT     H121441   0.763   0.620   2.936
 6974WAT     H221442   0.888   0.684   2.993
 6975WAT      O21443   1.602   1.038   3.370
 6975WAT     H121444   1.554   1.118   3.351
 6975WAT     H221445   1.534   0.973   3.385
 6976WAT      O21446   0.702   0.654   3.669
 6976WAT     H121447   0.613   0.677   3.693
 6976WAT     H221448   0.705   0.667   3.574
 6977WAT      O21449   1.406   0.339   2.260
 6977WAT     H121450   1.450   0.255   2.246
 6977WAT     H221451   1.478   0.402   2.269
 6978WAT      O21452   0.585   0.341   3.526
 6978WAT     H121453   0.571   0.429   3.563
 6978WAT     H221454   0.497   0.307   3.512
 6979WAT      O21455   1.217   0.833   2.657
 6979WAT     H121456   1.261   0.907   2.616
 6979WAT     H221457   1.211   0.857   2.749
 6980WAT      O21458   0.765   0.936   3.747
 6980WAT     H121459   0.762   0.976   3.660
 6980WAT     H221460   0.749   0.843   3.731
 6981WAT      O21461   1.960   1.014   3.877
 6981WAT     H121462   2.008   1.062   3.945
 6981WAT     H221463   2.022   1.007   3.804
 6982WAT      O21464   0.180   0.518   3.118
 6982WAT     H121465   0.188   0.532   3.024
 6982WAT     H221466   0.242   0.448   3.137
 6983WAT      O21467   0.305   0.688   2.759
 6983WAT     H121468   0.264   0.703   2.674
 6983WAT     H221469   0.394   0.660   2.739
 6984WAT      O21470   1.900   0.733   3.593
 6984WAT     H121471   1.913   0.709   3.501
 6984WAT     H221472   1.905   0.650   3.640
 6985WAT      O21473   1.287   1.103   3.450
 6985WAT     H121474   1.338   1.094   3.530
 6985WAT     H221475   1.202   1.138   3.479
 6986WAT      O21476   1.484   1.132   2.393
 6986WAT     H121477   1.468   1.103   2.482
 6986WAT     H221478   1.468   1.054   2.339
 6987WAT      O21479   0.732   1.110   2.570
 6987WAT     H121480   0.714   1.018   2.549
 6987WAT     H221481   0.647   1.146   2.594
 6988WAT      O21482   1.454   0.883   2.249
 6988WAT     H121483   1.385   0.882   2.183
 6988WAT     H221484   1.529   0.840   2.206
 6989WAT      O21485   1.411   1.045   2.656
 6989WAT     H121486   1.456   0.967   2.687
 6989WAT     H221487   1.445   1.116   2.710
 6990WAT      O21488   0.186   0.623   3.372
 6990WAT     H121489   0.202   0.576   3.290
 6990WAT     H221490   0.232   0.572   3.438
 6991WAT      O21491   0.343   0.560   3.588
 6991WAT     H121492   0.305   0.496   3.648
 6991WAT     H221493   0.374   0.630   3.645
 6992WAT      O21494   0.958   0.245   3.136
 6992WAT     H121495   0.995   0.197   3.211
 6992WAT     H221496   0.939   0.332   3.170
 6993WAT      O21497   0.590   0.569   2.428
 6993WAT     H121498   0.513   0.515   2.412
 6993WAT     H221499   0.663   0.518   2.394
 6994WAT      O21500   1.666   0.469   3.007
 6994WAT     H121501   1.738   0.519   2.968
 6994WAT     H221502   1.646   0.401   2.942
 6995WAT      O21503   1.204   0.476   3.595
 6995WAT     H121504   1.197   0.384   3.570
 6995WAT     H221505   1.141   0.486   3.667
 6996WAT      O21506   0.594   0.536   2.791
 6996WAT     H121507   0.646   0.456   2.786
 6996WAT     H221508   0.549   0.530   2.875
 6997WAT      O21509   1.083   0.663   2.319
 6997WAT     H121510   1.117   0.737   2.269
 6997WAT     H221511   1.000   0.694   2.355
 6998WAT      O21512   0.663   0.279   3.771
 6998WAT     H121513   0.633   0.293   3.681
 6998WAT     H221514   0.740   0.223   3.762
 6999WAT      O21515   1.197   0.758   3.571
 6999WAT     H121516   1.199   0.665   3.549
 6999WAT     H221517   1.127   0.767   3.634
 7000WAT      O21518   1.711   0.177   2.198
 7000WAT     H121519   1.702   0.220   2.112
 7000WAT     H221520   1.783   0.223   2.241
 7001WAT      O21521   1.818   0.423   3.505
 7001WAT     H121522   1.746   0.482   3.485
 7001WAT     H221523   1.871   0.422   3.425
 7002WAT      O21524   1.814   0.862   2.470
 7002WAT     H121525   1.749   0.797   2.498
 7002WAT     H221526   1.775   0.903   2.393
 7003WAT      O21527   1.371   0.595   2.855
 7003WAT     H121528   1.407   0.535   2.789
 7003WAT     H221529   1.283   0.563   2.872
 7004WAT      O21530   0.980   0.671   2.596
 7004WAT     H121531   1.049   0.726   2.634
 7004WAT     H221532   0.901   0.725   2.599
 7005WAT      O21533   0.910   0.372   2.557
 7005WAT     H121534   0.956   0.453   2.580
 7005WAT     H221535   0.875   0.340   2.640
 7006WAT      O21536   1.141   0.923   3.280
 7006WAT     H121537   1.205   0.943   3.348
 7006WAT     H221538   1.177   0.846   3.235
 7007WAT      O21539   1.268   0.723   3.152
 7007WAT     H121540   1.332   0.653   3.163
 7007WAT     H221541   1.320   0.801   3.134
 7008WAT      O21542   1.652   0.751   2.124
 7008WAT     H121543   1.630   0.680   2.183
 7008WAT     H221544   1.613   0.727   2.040
 7009WAT      O21545   1.445   0.803   3.472
 7009WAT     H121546   1.479   0.862   3.540
 7009WAT     H221547   1.353   0.790   3.495
 7010WAT      O21548   0.231   1.154   2.202
 7010WAT     H121549   0.267   1.214   2.136
 7010WAT     H221550   0.217   1.209   2.279
 7011WAT      O21551   1.611   0.543   2.290
 7011WAT     H121552   1.582   0.589   2.369
 7011WAT     H221553   1.690   0.497   2.317
 7012WAT      O21554   0.229   0.981   3.649
 7012WAT     H121555   0.240   0.887   3.635
 7012WAT     H221556   0.164   1.007   3.584
 7013WAT      O21557   1.028   0.808   3.789
 7013WAT     H121558   0.996   0.736   3.843
 7013WAT     H221559   0.961   0.875   3.796
 7014WAT      O21560   0.832   0.892   2.283
 7014WAT     H121561   0.831   0.966   2.222
 7014WAT     H221562   0.740   0.868   2.293
 7015WAT      O21563   0.392   0.415   2.358
 7015WAT     H121564   0.332   0.489   2.359
 7015WAT     H221565   0.440   0.424   2.275
 7016WAT      O21566   1.131   0.899   2.150
 7016WAT     H121567   1.141   0.878   2.057
 7016WAT     H221568   1.041   0.873   2.170
 7017WAT      O21569   0.995   1.151   2.619
 7017WAT     H121570   1.021   1.147   2.527
 7017WAT     H221571   0.900   1.138   2.618
 7018WAT      O21572   0.593   0.411   2.133
 7018WAT     H121573   0.670   0.399   2.189
 7018WAT     H221574   0.601   0.341   2.067
 7019WAT      O21575   1.796   0.960   2.944
 7019WAT     H121576   1.808   1.042   2.991
 7019WAT     H221577   1.883   0.938   2.909
 7020WAT      O21578   0.543   1.169   2.911
 7020WAT     H121579   0.617   1.114   2.938
 7020WAT     H221580   0.581   1.255   2.897
 7021WAT      O21581   0.444   1.087   3.830
 7021WAT     H121582   0.524   1.119   3.872
 7021WAT     H221583   0.392   1.051   3.902
 7022WAT      O21584   0.854   1.086   2.094
 7022WAT     H121585   0.933   1.115   2.048
 7022WAT     H221586   0.802   1.043   2.026
 7023WAT      O21587   1.327   0.698   3.825
 7023WAT     H121588   1.267   0.700   3.751
 7023WAT     H221589   1.297   0.625   3.879
 7024WAT      O21590   1.470   1.071   3.686
 7024WAT     H121591   1.566   1.063   3.681
 7024WAT     H221592   1.456   1.137   3.753
 7025WAT      O21593   1.759   1.009   2.236
 7025WAT     H121594   1.731   0.968   2.154
 7025WAT     H221595   1.740   1.102   2.224
 7026WAT      O21596   0.906   0.608   2.080
 7026WAT     H121597   0.895   0.547   2.153
 7026WAT     H221598   0.889   0.556   2.002
 7027WAT      O21599   0.921   0.477   3.678
 7027WAT     H121600   0.844   0.534   3.669
 7027WAT     H221601   0.939   0.448   3.589
 7028WAT      O21602   1.230   0.514   2.140
 7028WAT     H121603   1.175   0.559   2.205
 7028WAT     H221604   1.292   0.464   2.193
 7029WAT      O21605   1.635   0.650   3.734
 7029WAT     H121606   1.709   0.684   3.683
 7029WAT     H221607   1.559   0.667   3.678
 7030WAT      O21608   0.797   0.410   2.330
 7030WAT     H121609   0.839   0.394   2.414
 7030WAT     H221610   0.809   0.329   2.281
 7031WAT      O21611   1.048   0.313   2.055
 7031WAT     H121612   1.100   0.241   2.018
 7031WAT     H221613   1.113   0.377   2.085
 7032WAT      O21614   1.503   0.455   3.587
 7032WAT     H121615   1.544   0.470   3.672
 7032WAT     H221616   1.409   0.468   3.603
 7033WAT      O21617   0.979   0.450   3.384
 7033WAT     H121618   1.021   0.535   3.367
 7033WAT     H221619   0.887   0.464   3.361
 7034WAT      O21620   1.446   0.279   3.380
 7034WAT     H121621   1.394   0.331   3.320
 7034WAT     H221622   1.481   0.342   3.443
 7035WAT      O21623   0.764   1.081   3.496
 7035WAT     H121624   0.710   1.153   3.464
 7035WAT     H221625   0.789   1.033   3.417
 7036WAT      O21626   1.050   1.204   3.522
 7036WAT     H121627   1.042   1.295   3.552
 7036WAT     H221628   0.959   1.172   3.519
 7037WAT      O21629   1.104   1.121   2.284
 7037WAT     H121630   1.194   1.155   2.286
 7037WAT     H221631   1.108   1.049   2.221
 7038WAT      O21632   0.468   0.658   2.107
 7038WAT     H121633   0.512   0.712   2.172
 7038WAT     H221634   0.517   0.576   2.108
 7039WAT      O21635   0.190   0.937   2.852
 7039WAT     H121636   0.223   0.850   2.829
 7039WAT     H221637   0.233   0.958   2.935
 7040WAT      O21638   0.649   0.770   2.618
 7040WAT     H121639   0.619   0.758   2.708
 7040WAT     H221640   0.639   0.684   2.577
 7041WAT      O21641   0.239   1.024   3.126
 7041WAT     H121642   0.195   1.042   3.209
 7041WAT     H221643   0.295   1.099   3.112
 7042WAT      O21644   1.802   0.974   3.555
 7042WAT     H121645   1.742   0.980   3.480
 7042WAT     H221646   1.815   0.880   3.567
 7043WAT      O21647   1.926   0.748   2.088
 7043WAT     H121648   1.843   0.755   2.135
 7043WAT     H221649   1.944   0.837   2.058
 7044WAT      O21650   1.872   0.422   2.339
 7044WAT     H121651   1.948   0.479   2.349
 7044WAT     H221652   1.873   0.366   2.416
 7045WAT      O21653   1.973   0.508   2.823
 7045WAT     H121654   2.010   0.430   2.782
 7045WAT     H221655   2.037   0.577   2.805
 7046WAT      O21656   1.671   0.646   3.364
 7046WAT     H121657   1.589   0.689   3.391
 7046WAT     H221658   1.712   0.708   3.303
 7047WAT      O21659   1.877   0.452   2.054
 7047WAT     H121660   1.905   0.543   2.041
 7047WAT     H221661   1.858   0.445   2.148
 7048WAT      O21662   1.867   0.246   2.554
 7048WAT     H121663   1.829   0.169   2.510
 7048WAT     H221664   1.794   0.284   2.602
 7049WAT      O21665   0.326   0.313   3.216
 7049WAT     H121666   0.362   0.305   3.304
 7049WAT     H221667   0.269   0.237   3.206
 7050WAT      O21668   1.677   1.122   2.717
 7050WAT     H121669   1.736   1.089   2.649
 7050WAT     H221670   1.702   1.074   2.796
 7051WAT      O21671   0.467   0.765   3.732
 7051WAT     H121672   0.463   0.728   3.820
 7051WAT     H221673   0.480   0.858   3.746
 7052WAT      O21674   0.837   0.920   3.292
 7052WAT     H121675   0.813   0.947   3.203
 7052WAT     H221676   0.931   0.937   3.297
 7053WAT      O21677   1.963   1.122   3.372
 7053WAT     H121678   1.914   1.162   3.300
 7053WAT     H221679   1.902   1.060   3.411
 7054WAT      O21680   0.451   1.059   3.444
 7054WAT     H121681   0.392   1.046   3.518
 7054WAT     H221682   0.450   0.976   3.397
 7055WAT      O21683   1.732   1.186   3.100
 7055WAT     H121684   1.686   1.262   3.063
 7055WAT     H221685   1.669   1.115   3.094
 7056WAT      O21686   0.414   0.796   3.339
 7056WAT     H121687   0.342   0.734   3.332
 7056WAT     H221688   0.420   0.835   3.252
 7057WAT      O21689   0.775   1.017   3.017
 7057WAT     H121690   0.826   0.956   2.965
 7057WAT     H221691   0.840   1.068   3.067
 7058WAT      O21692   1.049   1.106   3.100
 7058WAT     H121693   1.077   1.081   3.012
 7058WAT     H221694   1.100   1.051   3.159
 7059WAT      O21695   0.403   0.997   2.404
 7059WAT     H121696   0.351   1.035   2.334
 7059WAT     H221697   0.396   1.060   2.476
 7060WAT      O21698   1.055   1.199   3.837
 7060WAT     H121699   1.148   1.175   3.841
 7060WAT     H221700   1.054   1.281   3.789
 7061WAT      O21701   1.879   1.153   2.537
 7061WAT     H121702   1.896   1.084   2.472
 7061WAT     H221703   1.809   1.205   2.497
 7062WAT      O21704   0.663   1.192   2.292
 7062WAT     H121705   0.736   1.163   2.237
 7062WAT     H221706   0.689   1.168   2.381
 7063WAT      O21707   0.579   0.803   2.292
 7063WAT     H121708   0.516   0.850   2.347
 7063WAT     H221709   0.591   0.719   2.336
 7064WAT      O21710   1.712   1.121   3.819
 7064WAT     H121711   1.791   1.072   3.798
 7064WAT     H221712   1.741   1.189   3.880
 7065WAT      O21713   1.138   0.386   1.095
 7065WAT     H121714   1.060   0.338   1.124
 7065WAT     H221715   1.203   0.318   1.078
 7066WAT      O21716   0.540   0.418   1.183
 7066WAT     H121717   0.456   0.392   1.223
 7066WAT     H221718   0.600   0.425   1.257
 7067WAT      O21719   1.540   0.827   0.973
 7067WAT     H121720   1.494   0.750   1.006
 7067WAT     H221721   1.621   0.830   1.024
 7068WAT      O21722   0.538   0.821   1.203
 7068WAT     H121723   0.568   0.732   1.185
 7068WAT     H221724   0.612   0.877   1.180
 7069WAT      O21725   1.163   1.056   0.935
 7069WAT     H121726   1.101   1.101   0.878
 7069WAT     H221727   1.248   1.071   0.895
 7070WAT      O21728   1.082   0.654   1.096
 7070WAT     H121729   1.075   0.560   1.080
 7070WAT     H221730   1.158   0.663   1.153
 7071WAT      O21731   1.249   0.544   0.675
 7071WAT     H121732   1.187   0.590   0.618
 7071WAT     H221733   1.300   0.613   0.716
 7072WAT      O21734   0.736   0.497   1.343
 7072WAT     H121735   0.702   0.559   1.407
 7072WAT     H221736   0.753   0.549   1.265
 7073WAT      O21737   0.657   0.693   1.524
 7073WAT     H121738   0.719   0.761   1.496
 7073WAT     H221739   0.571   0.734   1.515
 7074WAT      O21740   1.749   0.840   1.316
 7074WAT     H121741   1.680   0.907   1.315
 7074WAT     H221742   1.802   0.860   1.239
 7075WAT      O21743   1.502   1.024   1.187
 7075WAT     H121744   1.503   0.984   1.100
 7075WAT     H221745   1.447   1.102   1.177
 7076WAT      O21746   1.632   0.696   0.696
 7076WAT     H121747   1.621   0.602   0.709
 7076WAT     H221748   1.631   0.733   0.785
 7077WAT      O21749   1.442   0.515   1.320
 7077WAT     H121750   1.484   0.493   1.236
 7077WAT     H221751   1.514   0.540   1.377
 7078WAT      O21752   1.186   0.259   0.632
 7078WAT     H121753   1.093   0.252   0.655
 7078WAT     H221754   1.201   0.353   0.620
 7079WAT      O21755   1.837   0.354   1.329
 7079WAT     H121756   1.754   0.361   1.282
 7079WAT     H221757   1.896   0.413   1.282
 7080WAT      O21758   1.589   0.415   0.682
 7080WAT     H121759   1.527   0.382   0.617
 7080WAT     H221760   1.587   0.351   0.753
 7081WAT      O21761   0.746   0.312   0.910
 7081WAT     H121762   0.706   0.241   0.860
 7081WAT     H221763   0.755   0.277   0.999
 7082WAT      O21764   0.793   0.680   1.126
 7082WAT     H121765   0.763   0.620   1.058
 7082WAT     H221766   0.888   0.684   1.115
 7083WAT      O21767   1.602   1.038   1.492
 7083WAT     H121768   1.554   1.118   1.473
 7083WAT     H221769   1.534   0.973   1.508
 7084WAT      O21770   0.702   0.654   1.791
 7084WAT     H121771   0.613   0.677   1.816
 7084WAT     H221772   0.705   0.667   1.696
 7085WAT      O21773   1.406   0.339   0.383
 7085WAT     H121774   1.450   0.255   0.368
 7085WAT     H221775   1.478   0.402   0.391
 7086WAT      O21776   0.585   0.341   1.649
 7086WAT     H121777   0.571   0.429   1.686
 7086WAT     H221778   0.497   0.307   1.634
 7087WAT      O21779   1.217   0.833   0.780
 7087WAT     H121780   1.261   0.907   0.738
 7087WAT     H221781   1.211   0.857   0.872
 7088WAT      O21782   0.765   0.936   1.870
 7088WAT     H121783   0.762   0.976   1.783
 7088WAT     H221784   0.749   0.843   1.853
 7089WAT      O21785   1.960   1.014   1.999
 7089WAT     H121786   2.008   1.062   2.067
 7089WAT     H221787   2.022   1.007   1.927
 7090WAT      O21788   0.180   0.518   1.241
 7090WAT     H121789   0.188   0.532   1.146
 7090WAT     H221790   0.242   0.448   1.260
 7091WAT      O21791   0.305   0.688   0.882
 7091WAT     H121792   0.264   0.703   0.796
 7091WAT     H221793   0.394   0.660   0.861
 7092WAT      O21794   1.900   0.733   1.715
 7092WAT     H121795   1.913   0.709   1.624
 7092WAT     H221796   1.905   0.650   1.763
 7093WAT      O21797   1.287   1.103   1.572
 7093WAT     H121798   1.338   1.094   1.653
 7093WAT     H221799   1.202   1.138   1.602
 7094WAT      O21800   1.484   1.132   0.515
 7094WAT     H121801   1.468   1.103   0.605
 7094WAT     H221802   1.468   1.054   0.462
 7095WAT      O21803   0.732   1.110   0.693
 7095WAT     H121804   0.714   1.018   0.672
 7095WAT     H221805   0.647   1.146   0.717
 7096WAT      O21806   1.454   0.883   0.371
 7096WAT     H121807   1.385   0.882   0.305
 7096WAT     H221808   1.529   0.840   0.328
 7097WAT      O21809   1.411   1.045   0.779
 7097WAT     H121810   1.456   0.967   0.810
 7097WAT     H221811   1.445   1.116   0.833
 7098WAT      O21812   0.186   0.623   1.495
 7098WAT     H121813   0.202   0.576   1.413
 7098WAT     H221814   0.232   0.572   1.561
 7099WAT      O21815   0.343   0.560   1.710
 7099WAT     H121816   0.305   0.496   1.770
 7099WAT     H221817   0.374   0.630   1.767
 7100WAT      O21818   0.958   0.245   1.259
 7100WAT     H121819   0.995   0.197   1.333
 7100WAT     H221820   0.939   0.332   1.293
 7101WAT      O21821   0.590   0.569   0.550
 7101WAT     H121822   0.513   0.515   0.534
 7101WAT     H221823   0.663   0.518   0.516
 7102WAT      O21824   1.666   0.469   1.129
 7102WAT     H121825   1.738   0.519   1.090
 7102WAT     H221826   1.646   0.401   1.065
 7103WAT      O21827   1.204   0.476   1.718
 7103WAT     H121828   1.197   0.384   1.693
 7103WAT     H221829   1.141   0.486   1.789
 7104WAT      O21830   0.594   0.536   0.914
 7104WAT     H121831   0.646   0.456   0.908
 7104WAT     H221832   0.549   0.530   0.998
 7105WAT      O21833   1.083   0.663   0.441
 7105WAT     H121834   1.117   0.737   0.392
 7105WAT     H221835   1.000   0.694   0.477
 7106WAT      O21836   0.663   0.279   1.894
 7106WAT     H121837   0.633   0.293   1.804
 7106WAT     H221838   0.740   0.223   1.884
 7107WAT      O21839   1.197   0.758   1.693
 7107WAT     H121840   1.199   0.665   1.671
 7107WAT     H221841   1.127   0.767   1.757
 7108WAT      O21842   1.711   0.177   0.320
 7108WAT     H121843   1.702   0.220   0.235
 7108WAT     H221844   1.783   0.223   0.363
 7109WAT      O21845   1.818   0.423   1.628
 7109WAT     H121846   1.746   0.482   1.608
 7109WAT     H221847   1.871   0.422   1.548
 7110WAT      O21848   1.814   0.862   0.593
 7110WAT     H121849   1.749   0.797   0.620
 7110WAT     H221850   1.775   0.903   0.515
 7111WAT      O21851   1.371   0.595   0.978
 7111WAT     H121852   1.407   0.535   0.912
 7111WAT     H221853   1.283   0.563   0.995
 7112WAT      O21854   0.980   0.671   0.718
 7112WAT     H121855   1.049   0.726   0.756
 7112WAT     H221856   0.901   0.725   0.722
 7113WAT      O21857   0.910   0.372   0.680
 7113WAT     H121858   0.956   0.453   0.702
 7113WAT     H221859   0.875   0.340   0.763
 7114WAT      O21860   1.141   0.923   1.402
 7114WAT     H121861   1.205   0.943   1.470
 7114WAT     H221862   1.177   0.846   1.357
 7115WAT      O21863   1.268   0.723   1.274
 7115WAT     H121864   1.332   0.653   1.286
 7115WAT     H221865   1.320   0.801   1.256
 7116WAT      O21866   1.652   0.751   0.247
 7116WAT     H121867   1.630   0.680   0.306
 7116WAT     H221868   1.613   0.727   0.163
 7117WAT      O21869   1.445   0.803   1.595
 7117WAT     H121870   1.479   0.862   1.662
 7117WAT     H221871   1.353   0.790   1.618
 7118WAT      O21872   0.231   1.154   0.324
 7118WAT     H121873   0.267   1.214   0.259
 7118WAT     H221874   0.217   1.209   0.401
 7119WAT      O21875   1.611   0.543   0.413
 7119WAT     H121876   1.582   0.589   0.492
 7119WAT     H221877   1.690   0.497   0.440
 7120WAT      O21878   0.229   0.981   1.772
 7120WAT     H121879   0.240   0.887   1.757
 7120WAT     H221880   0.164   1.007   1.707
 7121WAT      O21881   1.028   0.808   1.912
 7121WAT     H121882   0.996   0.736   1.966
 7121WAT     H221883   0.961   0.875   1.919
 7122WAT      O21884   0.832   0.892   0.406
 7122WAT     H121885   0.831   0.966   0.344
 7122WAT     H221886   0.740   0.868   0.415
 7123WAT      O21887   0.392   0.415   0.480
 7123WAT     H121888   0.332   0.489   0.481
 7123WAT     H221889   0.440   0.424   0.398
 7124WAT      O21890   1.131   0.899   0.272
 7124WAT     H121891   1.141   0.878   0.179
 7124WAT     H221892   1.041   0.873   0.293
 7125WAT      O21893   0.995   1.151   0.742
 7125WAT     H121894   1.021   1.147   0.649
 7125WAT     H221895   0.900   1.138   0.741
 7126WAT      O21896   0.593   0.411   0.255
 7126WAT     H121897   0.670   0.399   0.311
 7126WAT     H221898   0.601   0.341   0.190
 7127WAT      O21899   1.796   0.960   1.067
 7127WAT     H121900   1.808   1.042   1.114
 7127WAT     H221901   1.883   0.938   1.032
 7128WAT      O21902   0.543   1.169   1.034
 7128WAT     H121903   0.617   1.114   1.061
 7128WAT     H221904   0.581   1.255   1.020
 7129WAT      O21905   0.444   1.087   1.953
 7129WAT     H121906   0.524   1.119   1.994
 7129WAT     H221907   0.392   1.051   2.025
 7130WAT      O21908   0.854   1.086   0.216
 7130WAT     H121909   0.933   1.115   0.171
 7130WAT     H221910   0.802   1.043   0.148
 7131WAT      O21911   1.327   0.698   1.947
 7131WAT     H121912   1.267   0.700   1.873
 7131WAT     H221913   1.297   0.625   2.001
 7132WAT      O21914   1.470   1.071   1.809
 7132WAT     H121915   1.566   1.063   1.804
 7132WAT     H221916   1.456   1.137   1.876
 7133WAT      O21917   1.759   1.009   0.358
 7133WAT     H121918   1.731   0.968   0.277
 7133WAT     H221919   1.740   1.102   0.346
 7134WAT      O21920   0.921   0.477   1.800
 7134WAT     H121921   0.844   0.534   1.792
 7134WAT     H221922   0.939   0.448   1.711
 7135WAT      O21923   1.230   0.514   0.263
 7135WAT     H121924   1.175   0.559   0.327
 7135WAT     H221925   1.292   0.464   0.315
 7136WAT      O21926   1.635   0.650   1.856
 7136WAT     H121927   1.709   0.684   1.806
 7136WAT     H221928   1.559   0.667   1.801
 7137WAT      O21929   0.797   0.410   0.453
 7137WAT     H121930   0.839   0.394   0.537
 7137WAT     H221931   0.809   0.329   0.403
 7138WAT      O21932   1.503   0.455   1.710
 7138WAT     H121933   1.544   0.470   1.795
 7138WAT     H221934   1.409   0.468   1.726
 7139WAT      O21935   0.979   0.450   1.507
 7139WAT     H121936   1.021   0.535   1.489
 7139WAT     H221937   0.887   0.464   1.484
 7140WAT      O21938   1.446   0.279   1.503
 7140WAT     H121939   1.394   0.331   1.442
 7140WAT     H221940   1.481   0.342   1.566
 7141WAT      O21941   0.764   1.081   1.618
 7141WAT     H121942   0.710   1.153   1.586
 7141WAT     H221943   0.789   1.033   1.539
 7142WAT      O21944   1.050   1.204   1.644
 7142WAT     H121945   1.042   1.295   1.675
 7142WAT     H221946   0.959   1.172   1.641
 7143WAT      O21947   1.104   1.121   0.406
 7143WAT     H121948   1.194   1.155   0.409
 7143WAT     H221949   1.108   1.049   0.344
 7144WAT      O21950   0.468   0.658   0.229
 7144WAT     H121951   0.512   0.712   0.295
 7144WAT     H221952   0.517   0.576   0.230
 7145WAT      O21953   0.190   0.937   0.974
 7145WAT     H121954   0.223   0.850   0.951
 7145WAT     H221955   0.233   0.958   1.058
 7146WAT      O21956   0.649   0.770   0.740
 7146WAT     H121957   0.619   0.758   0.831
 7146WAT     H221958   0.639   0.684   0.700
 7147WAT      O21959   0.239   1.024   1.248
 7147WAT     H121960   0.195   1.042   1.332
 7147WAT     H221961   0.295   1.099   1.234
 7148WAT      O21962   1.802   0.974   1.677
 7148WAT     H121963   1.742   0.980   1.603
 7148WAT     H221964   1.815   0.880   1.690
 7149WAT      O21965   1.926   0.748   0.211
 7149WAT     H121966   1.843   0.755   0.258
 7149WAT     H221967   1.944   0.837   0.180
 7150WAT      O21968   1.872   0.422   0.461
 7150WAT     H121969   1.948   0.479   0.472
 7150WAT     H221970   1.873   0.366   0.538
 7151WAT      O21971   1.973   0.508   0.946
 7151WAT     H121972   2.010   0.430   0.905
 7151WAT     H221973   2.037   0.577   0.928
 7152WAT      O21974   1.671   0.646   1.487
 7152WAT     H121975   1.589   0.689   1.513
 7152WAT     H221976   1.712   0.708   1.426
 7153WAT      O21977   1.877   0.452   0.177
 7153WAT     H121978   1.905   0.543   0.164
 7153WAT     H221979   1.858   0.445   0.270
 7154WAT      O21980   1.867   0.246   0.676
 7154WAT     H121981   1.829   0.169   0.633
 7154WAT     H221982   1.794   0.284   0.725
 7155WAT      O21983   0.326   0.313   1.338
 7155WAT     H121984   0.362   0.305   1.426
 7155WAT     H221985   0.269   0.237   1.328
 7156WAT      O21986   1.677   1.122   0.840
 7156WAT     H121987   1.736   1.089   0.772
 7156WAT     H221988   1.702   1.074   0.919
 7157WAT      O21989   0.467   0.765   1.854
 7157WAT     H121990   0.463   0.728   1.943
 7157WAT     H221991   0.480   0.858   1.868
 7158WAT      O21992   0.837   0.920   1.415
 7158WAT     H121993   0.813   0.947   1.326
 7158WAT     H221994   0.931   0.937   1.420
 7159WAT      O21995   1.963   1.122   1.495
 7159WAT     H121996   1.914   1.162   1.423
 7159WAT     H221997   1.902   1.060   1.534
 7160WAT      O21998   0.451   1.059   1.566
 7160WAT     H121999   0.392   1.046   1.640
 7160WAT     H222000   0.450   0.976   1.520
 7161WAT      O22001   1.732   1.186   1.222
 7161WAT     H122002   1.686   1.262   1.185
 7161WAT     H222003   1.669   1.115   1.217
 7162WAT      O22004   0.414   0.796   1.461
 7162WAT     H122005   0.342   0.734   1.455
 7162WAT     H222006   0.420   0.835   1.374
 7163WAT      O22007   0.775   1.017   1.140
 7163WAT     H122008   0.826   0.956   1.087
 7163WAT     H222009   0.840   1.068   1.189
 7164WAT      O22010   1.049   1.106   1.223
 7164WAT     H122011   1.077   1.081   1.135
 7164WAT     H222012   1.100   1.051   1.282
 7165WAT      O22013   0.403   0.997   0.527
 7165WAT     H122014   0.351   1.035   0.457
 7165WAT     H222015   0.396   1.060   0.599
 7166WAT      O22016   1.055   1.199   1.959
 7166WAT     H122017   1.148   1.175   1.964
 7166WAT     H222018   1.054   1.281   1.911
 7167WAT      O22019   1.879   1.153   0.659
 7167WAT     H122020   1.896   1.084   0.595
 7167WAT     H222021   1.809   1.205   0.620
 7168WAT      O22022   0.663   1.192   0.414
 7168WAT     H122023   0.736   1.163   0.360
 7168WAT     H222024   0.689   1.168   0.503
 7169WAT      O22025   0.579   0.803   0.415
 7169WAT     H122026   0.516   0.850   0.470
 7169WAT     H222027   0.591   0.719   0.458
 7170WAT      O22028   1.712   1.121   1.942
 7170WAT     H122029   1.791   1.072   1.921
 7170WAT     H222030   1.741   1.189   2.003
   5.83206   8.07289   5.89104
