Generic title
21742
    1CPH     CC    1   5.176   2.962   3.155
    1CPH    HC1    2   5.264   2.919   3.107
    1CPH    HC2    3   5.186   2.988   3.260
    2MNF      O    4   4.704   3.364   2.897
    2MNF      C    5   4.792   3.310   2.962
    2MNF     C1    6   4.774   3.198   3.063
    2MNF      H    7   4.696   3.226   3.135
    2MNF     C2    8   4.910   3.186   3.136
    2MNF     C3    9   4.935   3.033   3.154
    2MNF     C4   10   5.061   2.980   3.089
    2MNF     C6   11   4.809   2.962   3.098
    2MNF     C7   12   4.745   3.061   2.998
    2MNF     C8   13   4.597   3.048   2.966
    2MNF     H1   14   4.904   3.235   3.234
    2MNF      N   15   4.927   3.342   2.960
    2MNF    C10   16   4.974   3.470   2.900
    2MNF    C11   17   5.036   3.461   2.758
    2MNF    C12   18   4.962   3.371   2.655
    2MNF    C13   19   4.989   3.219   2.671
    2MNF     O1   20   5.131   3.200   2.664
    2MNF    C14   21   5.189   3.109   2.760
    2MNF    C15   22   5.335   3.156   2.785
    2MNF     O2   23   5.333   3.276   2.864
    2MNF    C16   24   5.421   3.048   2.856
    2MNF    C17   25   5.572   3.082   2.856
    2MNF     O3   26   5.597   3.197   2.937
    2MNF     O4   27   5.407   2.923   2.786
    2MNF    C18   28   5.274   2.870   2.785
    2MNF     O5   29   5.276   2.744   2.720
    2MNF    C19   30   5.184   2.965   2.703
    2MNF     O6   31   5.050   2.914   2.704
    2MNF    C20   32   5.006   3.268   3.048
    2MNF     O7   33   5.127   3.276   3.058
    2MNF     H2   34   4.941   3.012   3.262
    2MNF     H3   35   5.052   2.952   2.984
    2MNF     H6   36   4.739   2.942   3.180
    2MNF     H7   37   4.835   2.867   3.051
    2MNF     H8   38   4.802   3.055   2.905
    2MNF     H9   39   4.554   3.143   2.934
    2MNF    H12   40   5.048   3.515   2.968
    2MNF    H13   41   4.889   3.539   2.896
    2MNF    H14   42   5.039   3.563   2.718
    2MNF    H15   43   5.140   3.430   2.767
    2MNF    H16   44   4.854   3.390   2.660
    2MNF    H17   45   4.995   3.400   2.555
    2MNF    H18   46   4.939   3.165   2.590
    2MNF    H19   47   4.948   3.183   2.765
    2MNF    H20   48   5.135   3.111   2.855
    2MNF    H21   49   5.381   3.176   2.687
    2MNF    H22   50   5.266   3.266   2.936
    2MNF    H23   51   5.388   3.037   2.960
    2MNF    H24   52   5.628   2.996   2.894
    2MNF    H25   53   5.605   3.100   2.753
    2MNF    H26   54   5.525   3.261   2.918
    2MNF    H27   55   5.236   2.859   2.887
    2MNF    H28   56   5.181   2.728   2.700
    2MNF    H29   57   5.225   2.967   2.600
    2MNF    H30   58   5.013   2.928   2.613
    3MON      O   59   4.102   2.836   3.080
    3MON      C   60   4.218   2.820   3.117
    3MON     C1   61   4.314   2.710   3.070
    3MON      H   62   4.284   2.615   3.116
    3MON     C2   63   4.451   2.754   3.128
    3MON     C3   64   4.536   2.797   3.006
    3MON     C4   65   4.513   2.943   2.970
    3MON     C6   66   4.482   2.707   2.893
    3MON     C7   67   4.329   2.699   2.916
    3MON     C8   68   4.261   2.576   2.857
    3MON     H1   69   4.499   2.670   3.181
    3MON      N   70   4.286   2.900   3.208
    3MON    C10   71   4.216   2.993   3.299
    3MON    C11   72   4.172   3.126   3.236
    3MON    C12   73   4.277   3.201   3.149
    3MON    C13   74   4.414   3.230   3.214
    3MON     O1   75   4.394   3.273   3.350
    3MON    C14   76   4.512   3.319   3.419
    3MON    C15   77   4.591   3.201   3.482
    3MON     O2   78   4.656   3.124   3.380
    3MON    C16   79   4.698   3.252   3.583
    3MON    C17   80   4.768   3.139   3.661
    3MON     O3   81   4.854   3.064   3.574
    3MON     O4   82   4.634   3.338   3.680
    3MON    C18   83   4.575   3.456   3.624
    3MON     O5   84   4.519   3.533   3.729
    3MON    C19   85   4.461   3.414   3.530
    3MON     O6   86   4.403   3.530   3.469
    3MON    C20   87   4.420   2.866   3.226
    3MON     O7   88   4.497   2.915   3.307
    3MON     H2   89   4.642   2.774   3.023
    3MON     H3   90   4.410   2.964   2.941
    3MON     H6   91   4.526   2.607   2.903
    3MON     H7   92   4.508   2.747   2.795
    3MON     H8   93   4.283   2.788   2.872
    3MON     H9   94   4.205   2.516   2.928
    3MON    H12   95   4.282   3.015   3.384
    3MON    H13   96   4.128   2.942   3.340
    3MON    H14   97   4.085   3.106   3.172
    3MON    H15   98   4.137   3.193   3.316
    3MON    H16   99   4.295   3.144   3.058
    3MON    H17  100   4.233   3.296   3.117
    3MON    H18  101   4.465   3.308   3.156
    3MON    H19  102   4.475   3.140   3.210
    3MON    H20  103   4.578   3.376   3.352
    3MON    H21  104   4.520   3.138   3.538
    3MON    H22  105   4.594   3.053   3.352
    3MON    H23  106   4.775   3.309   3.529
    3MON    H24  107   4.827   3.183   3.743
    3MON    H25  108   4.693   3.073   3.706
    3MON    H26  109   4.804   3.052   3.491
    3MON    H27  110   4.651   3.515   3.570
    3MON    H28  111   4.456   3.591   3.681
    3MON    H29  112   4.387   3.360   3.590
    3MON    H30  113   4.341   3.497   3.401
    4MON      O  114   4.513   2.296   2.311
    4MON      C  115   4.504   2.361   2.414
    4MON     C1  116   4.468   2.510   2.424
    4MON      H  117   4.544   2.569   2.373
    4MON     C2  118   4.470   2.542   2.576
    4MON     C3  119   4.332   2.605   2.612
    4MON     C4  120   4.262   2.536   2.728
    4MON     C6  121   4.246   2.606   2.483
    4MON     C7  122   4.327   2.539   2.370
    4MON     C8  123   4.333   2.614   2.238
    4MON     H1  124   4.551   2.612   2.598
    4MON      N  125   4.521   2.313   2.543
    4MON    C10  126   4.575   2.179   2.570
    4MON    C11  127   4.478   2.061   2.542
    4MON    C12  128   4.330   2.082   2.583
    4MON    C13  129   4.303   2.123   2.729
    4MON     O1  130   4.383   2.042   2.816
    4MON    C14  131   4.357   2.056   2.958
    4MON    C15  132   4.433   2.177   3.018
    4MON     O2  133   4.373   2.300   2.974
    4MON    C16  134   4.430   2.173   3.174
    4MON    C17  135   4.518   2.281   3.240
    4MON     O3  136   4.463   2.411   3.213
    4MON     O4  137   4.478   2.045   3.219
    4MON    C18  138   4.399   1.933   3.176
    4MON     O5  139   4.454   1.814   3.228
    4MON    C19  140   4.406   1.925   3.022
    4MON     O6  141   4.324   1.817   2.976
    4MON    C20  142   4.504   2.408   2.643
    4MON     O7  143   4.519   2.389   2.763
    4MON     H2  144   4.350   2.710   2.638
    4MON     H3  145   4.208   2.446   2.702
    4MON     H6  146   4.217   2.708   2.457
    4MON     H7  147   4.152   2.551   2.499
    4MON     H8  148   4.278   2.443   2.350
    4MON     H9  149   4.305   2.553   2.153
    4MON    H12  150   4.605   2.174   2.676
    4MON    H13  151   4.667   2.165   2.511
    4MON    H14  152   4.480   2.041   2.435
    4MON    H15  153   4.517   1.971   2.591
    4MON    H16  154   4.284   2.157   2.517
    4MON    H17  155   4.276   1.988   2.563
    4MON    H18  156   4.196   2.110   2.751
    4MON    H19  157   4.326   2.229   2.741
    4MON    H20  158   4.249   2.066   2.977
    4MON    H21  159   4.538   2.172   2.986
    4MON    H22  160   4.420   2.328   2.892
    4MON    H23  161   4.326   2.187   3.209
    4MON    H24  162   4.521   2.264   3.348
    4MON    H25  163   4.620   2.273   3.201
    4MON    H26  164   4.425   2.404   3.123
    4MON    H27  165   4.295   1.944   3.210
    4MON    H28  166   4.418   1.746   3.167
    4MON    H29  167   4.511   1.910   2.995
    4MON    H30  168   4.324   1.825   2.878
    5MON      O  169   4.603   3.033   1.945
    5MON      C  170   4.602   2.977   2.053
    5MON     C1  171   4.532   3.024   2.180
    5MON      H  172   4.581   3.116   2.215
    5MON     C2  173   4.555   2.910   2.283
    5MON     C3  174   4.416   2.849   2.312
    5MON     C4  175   4.373   2.741   2.213
    5MON     C6  176   4.326   2.973   2.295
    5MON     C7  177   4.379   3.045   2.169
    5MON     C8  178   4.343   3.192   2.142
    5MON     H1  179   4.598   2.951   2.375
    5MON      N  180   4.671   2.860   2.085
    5MON    C10  181   4.774   2.802   1.996
    5MON    C11  182   4.718   2.714   1.881
    5MON    C12  183   4.603   2.616   1.917
    5MON    C13  184   4.628   2.515   2.031
    5MON     O1  185   4.760   2.460   2.019
    5MON    C14  186   4.784   2.344   2.102
    5MON    C15  187   4.863   2.382   2.230
    5MON     O2  188   4.784   2.466   2.316
    5MON    C16  189   4.902   2.252   2.306
    5MON    C17  190   4.986   2.277   2.434
    5MON     O3  191   4.903   2.336   2.535
    5MON     O4  192   4.979   2.168   2.218
    5MON    C18  193   4.908   2.123   2.102
    5MON     O5  194   4.993   2.042   2.023
    5MON    C19  195   4.868   2.246   2.018
    5MON     O6  196   4.792   2.204   1.904
    5MON    C20  197   4.656   2.818   2.217
    5MON     O7  198   4.718   2.728   2.271
    5MON     H2  199   4.414   2.813   2.415
    5MON     H3  200   4.372   2.772   2.109
    5MON     H6  201   4.341   3.035   2.383
    5MON     H7  202   4.219   2.947   2.287
    5MON     H8  203   4.344   2.989   2.081
    5MON     H9  204   4.384   3.225   2.046
    5MON    H12  205   4.842   2.740   2.056
    5MON    H13  206   4.833   2.883   1.953
    5MON    H14  207   4.682   2.781   1.802
    5MON    H15  208   4.801   2.658   1.837
    5MON    H16  209   4.513   2.674   1.940
    5MON    H17  210   4.579   2.559   1.826
    5MON    H18  211   4.552   2.435   2.024
    5MON    H19  212   4.614   2.563   2.128
    5MON    H20  213   4.690   2.294   2.130
    5MON    H21  214   4.956   2.434   2.201
    5MON    H22  215   4.773   2.554   2.273
    5MON    H23  216   4.810   2.199   2.336
    5MON    H24  217   5.026   2.181   2.469
    5MON    H25  218   5.071   2.341   2.410
    5MON    H26  219   4.853   2.407   2.490
    5MON    H27  220   4.819   2.066   2.131
    5MON    H28  221   4.950   2.046   1.935
    5MON    H29  222   4.960   2.296   1.986
    5MON    H30  223   4.753   2.286   1.867
    6MON      O  224   4.355   3.683   2.468
    6MON      C  225   4.356   3.561   2.464
    6MON     C1  226   4.239   3.468   2.495
    6MON      H  227   4.217   3.475   2.603
    6MON     C2  228   4.292   3.326   2.463
    6MON     C3  229   4.206   3.271   2.347
    6MON     C4  230   4.275   3.284   2.213
    6MON     C6  231   4.076   3.353   2.355
    6MON     C7  232   4.114   3.493   2.408
    6MON     C8  233   4.005   3.560   2.490
    6MON     H1  234   4.281   3.263   2.551
    6MON      N  235   4.466   3.482   2.432
    6MON    C10  236   4.604   3.536   2.428
    6MON    C11  237   4.639   3.614   2.299
    6MON    C12  238   4.598   3.549   2.165
    6MON    C13  239   4.645   3.405   2.140
    6MON     O1  240   4.781   3.390   2.184
    6MON    C14  241   4.842   3.264   2.148
    6MON    C15  242   4.895   3.196   2.276
    6MON     O2  243   4.785   3.153   2.358
    6MON    C16  244   4.983   3.073   2.240
    6MON    C17  245   5.053   3.010   2.363
    6MON     O3  246   4.956   2.951   2.450
    6MON     O4  247   5.087   3.114   2.149
    6MON    C18  248   5.039   3.167   2.024
    6MON     O5  249   5.150   3.202   1.943
    6MON    C19  250   4.959   3.295   2.052
    6MON     O6  251   4.908   3.348   1.930
    6MON    C20  252   4.441   3.345   2.435
    6MON     O7  253   4.525   3.256   2.424
    6MON     H2  254   4.177   3.167   2.366
    6MON     H3  255   4.265   3.383   2.169
    6MON     H6  256   4.009   3.303   2.426
    6MON     H7  257   4.024   3.358   2.258
    6MON     H8  258   4.142   3.558   2.324
    6MON     H9  259   4.041   3.640   2.555
    6MON    H12  260   4.675   3.454   2.440
    6MON    H13  261   4.617   3.603   2.515
    6MON    H14  262   4.591   3.713   2.305
    6MON    H15  263   4.747   3.633   2.299
    6MON    H16  264   4.488   3.553   2.155
    6MON    H17  265   4.636   3.612   2.084
    6MON    H18  266   4.635   3.381   2.034
    6MON    H19  267   4.580   3.336   2.195
    6MON    H20  268   4.771   3.197   2.097
    6MON    H21  269   4.958   3.268   2.331
    6MON    H22  270   4.723   3.228   2.369
    6MON    H23  271   4.921   2.995   2.193
    6MON    H24  272   5.124   2.933   2.328
    6MON    H25  273   5.111   3.087   2.415
    6MON    H26  274   4.874   3.005   2.437
    6MON    H27  275   4.977   3.093   1.972
    6MON    H28  276   5.111   3.266   1.880
    6MON    H29  277   5.026   3.367   2.101
    6MON    H30  278   4.850   3.423   1.954
    7MON      O  279   3.357   3.565   2.373
    7MON      C  280   3.468   3.604   2.404
    7MON     C1  281   3.530   3.600   2.544
    7MON      H  282   3.464   3.650   2.616
    7MON     C2  283   3.665   3.675   2.530
    7MON     C3  284   3.776   3.585   2.592
    7MON     C4  285   3.875   3.526   2.494
    7MON     C6  286   3.700   3.470   2.662
    7MON     C7  287   3.565   3.457   2.590
    7MON     C8  288   3.463   3.386   2.676
    7MON     H1  289   3.660   3.771   2.582
    7MON      N  290   3.562   3.659   2.318
    7MON    C10  291   3.531   3.693   2.178
    7MON    C11  292   3.526   3.575   2.078
    7MON    C12  293   3.621   3.455   2.102
    7MON    C13  294   3.771   3.487   2.122
    7MON     O1  295   3.814   3.581   2.023
    7MON    C14  296   3.944   3.638   2.049
    7MON    C15  297   3.944   3.787   2.004
    7MON     O2  298   3.852   3.863   2.083
    7MON    C16  299   4.087   3.848   2.012
    7MON    C17  300   4.097   3.988   1.946
    7MON     O3  301   4.020   4.083   2.019
    7MON     O4  302   4.181   3.763   1.943
    7MON    C18  303   4.188   3.628   1.992
    7MON     O5  304   4.285   3.556   1.918
    7MON    C19  305   4.051   3.562   1.967
    7MON     O6  306   4.056   3.424   2.003
    7MON    C20  307   3.679   3.703   2.380
    7MON     O7  308   3.774   3.758   2.326
    7MON     H2  309   3.831   3.643   2.667
    7MON     H3  310   3.835   3.447   2.431
    7MON     H6  311   3.687   3.496   2.767
    7MON     H7  312   3.755   3.376   2.657
    7MON     H8  313   3.583   3.396   2.500
    7MON     H9  314   3.418   3.298   2.630
    7MON    H12  315   3.606   3.764   2.141
    7MON    H13  316   3.435   3.746   2.175
    7MON    H14  317   3.423   3.535   2.078
    7MON    H15  318   3.542   3.614   1.977
    7MON    H16  319   3.586   3.399   2.190
    7MON    H17  320   3.611   3.386   2.017
    7MON    H18  321   3.828   3.394   2.116
    7MON    H19  322   3.785   3.528   2.222
    7MON    H20  323   3.969   3.635   2.156
    7MON    H21  324   3.912   3.790   1.898
    7MON    H22  325   3.837   3.816   2.169
    7MON    H23  326   4.117   3.858   2.117
    7MON    H24  327   4.202   4.019   1.942
    7MON    H25  328   4.061   3.981   1.842
    7MON    H26  329   3.936   4.038   2.045
    7MON    H27  330   4.214   3.628   2.099
    7MON    H28  331   4.246   3.466   1.917
    7MON    H29  332   4.028   3.574   1.860
    7MON    H30  333   3.968   3.387   1.980
    8MON      O  334   3.605   3.473   3.232
    8MON      C  335   3.568   3.390   3.150
    8MON     C1  336   3.425   3.344   3.127
    8MON      H  337   3.395   3.282   3.213
    8MON     C2  338   3.431   3.256   3.000
    8MON     C3  339   3.347   3.330   2.893
    8MON     C4  340   3.434   3.417   2.804
    8MON     C6  341   3.247   3.414   2.975
    8MON     C7  342   3.324   3.458   3.101
    8MON     C8  343   3.238   3.483   3.224
    8MON     H1  344   3.388   3.158   3.021
    8MON      N  345   3.651   3.317   3.066
    8MON    C10  346   3.783   3.270   3.117
    8MON    C11  347   3.898   3.373   3.112
    8MON    C12  348   3.928   3.434   2.974
    8MON    C13  349   3.938   3.336   2.856
    8MON     O1  350   4.034   3.233   2.883
    8MON    C14  351   4.061   3.149   2.769
    8MON    C15  352   3.963   3.028   2.762
    8MON     O2  353   3.835   3.072   2.716
    8MON    C16  354   4.013   2.918   2.662
    8MON    C17  355   3.940   2.784   2.680
    8MON     O3  356   3.810   2.792   2.621
    8MON     O4  357   4.154   2.892   2.678
    8MON    C18  358   4.238   3.007   2.666
    8MON     O5  359   4.374   2.969   2.674
    8MON    C19  360   4.205   3.098   2.785
    8MON     O6  361   4.296   3.208   2.792
    8MON    C20  362   3.581   3.240   2.972
    8MON     O7  363   3.632   3.165   2.891
    8MON     H2  364   3.293   3.257   2.831
    8MON     H3  365   3.479   3.504   2.852
    8MON     H6  366   3.162   3.351   3.003
    8MON     H7  367   3.208   3.500   2.918
    8MON     H8  368   3.381   3.549   3.078
    8MON     H9  369   3.290   3.467   3.319
    8MON    H12  370   3.813   3.181   3.060
    8MON    H13  371   3.769   3.238   3.221
    8MON    H14  372   3.876   3.454   3.182
    8MON    H15  373   3.989   3.325   3.149
    8MON    H16  374   3.849   3.505   2.950
    8MON    H17  375   4.021   3.493   2.980
    8MON    H18  376   3.967   3.393   2.766
    8MON    H19  377   3.840   3.293   2.839
    8MON    H20  378   4.055   3.206   2.675
    8MON    H21  379   3.956   2.983   2.862
    8MON    H22  380   3.781   3.104   2.792
    8MON    H23  381   3.996   2.953   2.560
    8MON    H24  382   3.998   2.704   2.631
    8MON    H25  383   3.933   2.759   2.787
    8MON    H26  384   3.771   2.876   2.649
    8MON    H27  385   4.219   3.058   2.571
    8MON    H28  386   4.418   3.049   2.708
    8MON    H29  387   4.209   3.037   2.877
    8MON    H30  388   4.258   3.270   2.859
    9MON      O  389   2.866   3.964   3.325
    9MON      C  390   2.944   3.875   3.353
    9MON     C1  391   2.909   3.741   3.417
    9MON      H  392   2.864   3.759   3.515
    9MON     C2  393   3.044   3.666   3.432
    9MON     C3  394   3.031   3.530   3.358
    9MON     C4  395   3.108   3.519   3.228
    9MON     C6  396   2.879   3.512   3.336
    9MON     C7  397   2.818   3.653   3.328
    9MON     C8  398   2.672   3.656   3.369
    9MON     H1  399   3.065   3.649   3.538
    9MON      N  400   3.081   3.877   3.332
    9MON    C10  401   3.152   4.001   3.293
    9MON    C11  402   3.141   4.038   3.143
    9MON    C12  403   3.154   3.922   3.041
    9MON    C13  404   3.275   3.828   3.057
    9MON     O1  405   3.391   3.905   3.093
    9MON    C14  406   3.509   3.828   3.123
    9MON    C15  407   3.585   3.895   3.240
    9MON     O2  408   3.509   3.887   3.361
    9MON    C16  409   3.725   3.830   3.260
    9MON    C17  410   3.814   3.906   3.362
    9MON     O3  411   3.760   3.893   3.494
    9MON     O4  412   3.797   3.829   3.135
    9MON    C18  413   3.732   3.756   3.030
    9MON     O5  414   3.810   3.762   2.912
    9MON    C19  415   3.600   3.828   2.997
    9MON     O6  416   3.536   3.765   2.885
    9MON    C20  417   3.149   3.763   3.377
    9MON     O7  418   3.270   3.748   3.379
    9MON     H2  419   3.066   3.450   3.425
    9MON     H3  420   3.053   3.538   3.136
    9MON     H6  421   2.837   3.459   3.422
    9MON     H7  422   2.856   3.452   3.246
    9MON     H8  423   2.827   3.687   3.224
    9MON     H9  424   2.604   3.693   3.293
    9MON    H12  425   3.258   3.990   3.318
    9MON    H13  426   3.114   4.084   3.353
    9MON    H14  427   3.044   4.086   3.127
    9MON    H15  428   3.217   4.114   3.121
    9MON    H16  429   3.063   3.861   3.044
    9MON    H17  430   3.158   3.965   2.940
    9MON    H18  431   3.291   3.772   2.964
    9MON    H19  432   3.253   3.754   3.135
    9MON    H20  433   3.485   3.725   3.152
    9MON    H21  434   3.601   4.001   3.214
    9MON    H22  435   3.429   3.831   3.346
    9MON    H23  436   3.712   3.727   3.296
    9MON    H24  437   3.915   3.864   3.359
    9MON    H25  438   3.820   4.011   3.333
    9MON    H26  439   3.663   3.901   3.484
    9MON    H27  440   3.714   3.652   3.060
    9MON    H28  441   3.740   3.767   2.845
    9MON    H29  442   3.625   3.932   2.974
    9MON    H30  443   3.451   3.813   2.876
   10MON      O  444   2.402   3.278   3.852
   10MON      C  445   2.427   3.331   3.745
   10MON     C1  446   2.382   3.469   3.700
   10MON      H  447   2.274   3.478   3.714
   10MON     C2  448   2.417   3.476   3.549
   10MON     C3  449   2.478   3.617   3.525
   10MON     C4  450   2.625   3.615   3.488
   10MON     C6  451   2.455   3.694   3.657
   10MON     C7  452   2.455   3.586   3.768
   10MON     C8  453   2.395   3.618   3.905
   10MON     H1  454   2.325   3.463   3.490
   10MON      N  455   2.500   3.275   3.641
   10MON    C10  456   2.525   3.129   3.635
   10MON    C11  457   2.637   3.077   3.729
   10MON    C12  458   2.764   3.165   3.742
   10MON    C13  459   2.828   3.214   3.610
   10MON     O1  460   2.834   3.105   3.517
   10MON    C14  461   2.883   3.141   3.386
   10MON    C15  462   2.803   3.063   3.279
   10MON     O2  463   2.667   3.109   3.274
   10MON    C16  464   2.867   3.079   3.138
   10MON    C17  465   2.804   2.987   3.031
   10MON     O3  466   2.673   3.034   2.997
   10MON     O4  467   3.008   3.048   3.144
   10MON    C18  468   3.084   3.129   3.234
   10MON     O5  469   3.220   3.089   3.231
   10MON    C19  470   3.033   3.102   3.377
   10MON     O6  471   3.112   3.177   3.470
   10MON    C20  472   2.507   3.354   3.526
   10MON     O7  473   2.568   3.326   3.424
   10MON     H2  474   2.422   3.667   3.445
   10MON     H3  475   2.692   3.577   3.565
   10MON     H6  476   2.357   3.742   3.651
   10MON     H7  477   2.531   3.771   3.674
   10MON     H8  478   2.559   3.556   3.784
   10MON     H9  479   2.399   3.531   3.971
   10MON    H12  480   2.552   3.102   3.533
   10MON    H13  481   2.432   3.076   3.659
   10MON    H14  482   2.595   3.064   3.829
   10MON    H15  483   2.666   2.977   3.696
   10MON    H16  484   2.740   3.253   3.803
   10MON    H17  485   2.840   3.108   3.798
   10MON    H18  486   2.927   3.255   3.631
   10MON    H19  487   2.767   3.295   3.570
   10MON    H20  488   2.872   3.248   3.366
   10MON    H21  489   2.805   2.956   3.305
   10MON    H22  490   2.654   3.180   3.341
   10MON    H23  491   2.855   3.183   3.104
   10MON    H24  492   2.868   2.987   2.942
   10MON    H25  493   2.799   2.884   3.069
   10MON    H26  494   2.628   3.054   3.082
   10MON    H27  495   3.075   3.235   3.208
   10MON    H28  496   3.246   3.107   3.323
   10MON    H29  497   3.042   2.994   3.395
   10MON    H30  498   3.079   3.151   3.559
   11MNL      O  499   1.897   3.900   4.076
   11MNL      C  500   1.981   3.877   3.991
   11MNL     C1  501   2.097   3.967   3.951
   11MNL      H  502   2.057   4.061   3.909
   11MNL     C2  503   2.174   3.888   3.841
   11MNL     C3  504   2.318   3.867   3.895
   11MNL     C4  505   2.339   3.729   3.957
   11MNL     C6  506   2.335   3.978   4.001
   11MNL     C7  507   2.196   3.994   4.066
   11MNL     C8  508   2.169   4.127   4.135
   11MNL     H1  509   2.176   3.946   3.748
   11MNL      N  510   1.988   3.762   3.913
   11MNL    C10  511   1.881   3.659   3.915
   11MNL    C11  512   1.887   3.564   4.037
   11MNL    C12  513   2.024   3.501   4.070
   11MNL    C13  514   2.090   3.419   3.957
   11MNL     O1  515   1.993   3.327   3.904
   11MNL    C14  516   2.044   3.237   3.803
   11MNL    C15  517   1.992   3.281   3.664
   11MNL     O2  518   2.052   3.404   3.624
   11MNL    C16  519   2.023   3.171   3.557
   11MNL    C17  520   1.961   3.201   3.419
   11MNL     O3  521   2.026   3.313   3.359
   11MNL     O4  522   1.969   3.045   3.602
   11MNL    C18  523   2.025   2.997   3.725
   11MNL     O5  524   1.965   2.873   3.758
   11MNL    C19  525   1.991   3.097   3.838
   11MNL     O6  526   2.050   3.053   3.960
   11MNL    C20  527   2.091   3.761   3.819
   11MNL     O7  528   2.108   3.678   3.732
   11MNL     H2  529   2.392   3.886   3.817
   11MNL     H3  530   2.303   3.722   4.060
   11MNL     H6  531   2.363   4.071   3.950
   11MNL     H7  532   2.413   3.954   4.075
   11MNL     H8  533   2.183   3.915   4.141
   11MNL     H9  534   2.067   4.140   4.170
   11MNL    H12  535   1.888   3.599   3.824
   11MNL    H13  536   1.784   3.710   3.914
   11MNL    H14  537   1.854   3.620   4.126
   11MNL    H15  538   1.813   3.485   4.023
   11MNL    H16  539   2.094   3.579   4.101
   11MNL    H17  540   2.012   3.435   4.157
   11MNL    H18  541   2.177   3.365   3.997
   11MNL    H19  542   2.126   3.486   3.879
   11MNL    H20  543   2.154   3.234   3.802
   11MNL    H21  544   1.882   3.292   3.670
   11MNL    H22  545   2.034   3.472   3.693
   11MNL    H23  546   2.131   3.162   3.545
   11MNL    H24  547   1.972   3.112   3.355
   11MNL    H25  548   1.853   3.219   3.430
   11MNL    H26  549   2.036   3.380   3.430
   11MNL    H27  550   2.134   2.985   3.716
   11MNL    H28  551   1.984   2.866   3.854
   11MNL    H29  552   1.882   3.101   3.846
   11MNL    H30  553   2.041   3.127   4.024
   12CPT     CC  554   2.258   4.226   4.155
   12CPT    HC1  555   2.363   4.219   4.124
   12CPT    HC2  556   2.229   4.318   4.206
   13WAT      O  557   6.803   5.785   5.660
   13WAT     H1  558   6.794   5.693   5.633
   13WAT     H2  559   6.761   5.834   5.590
   14WAT      O  560   5.859   5.490   5.314
   14WAT     H1  561   5.770   5.523   5.304
   14WAT     H2  562   5.887   5.470   5.225
   15WAT      O  563   6.076   5.348   5.418
   15WAT     H1  564   6.087   5.438   5.449
   15WAT     H2  565   5.985   5.344   5.389
   16WAT      O  566   7.041   5.260   5.565
   16WAT     H1  567   7.123   5.211   5.569
   16WAT     H2  568   7.045   5.320   5.640
   17WAT      O  569   6.425   5.029   5.711
   17WAT     H1  570   6.456   4.973   5.639
   17WAT     H2  571   6.332   5.042   5.693
   18WAT      O  572   6.664   5.835   5.386
   18WAT     H1  573   6.571   5.829   5.407
   18WAT     H2  574   6.679   5.929   5.373
   19WAT      O  575   6.662   5.461   5.083
   19WAT     H1  576   6.569   5.479   5.094
   19WAT     H2  577   6.694   5.535   5.031
   20WAT      O  578   6.224   5.888   5.663
   20WAT     H1  579   6.184   5.817   5.613
   20WAT     H2  580   6.233   5.854   5.752
   21WAT      O  581   5.894   5.778   5.413
   21WAT     H1  582   5.882   5.850   5.352
   21WAT     H2  583   5.863   5.701   5.365
   22WAT      O  584   6.141   5.112   5.751
   22WAT     H1  585   6.097   5.190   5.718
   22WAT     H2  586   6.197   5.144   5.822
   23WAT      O  587   6.451   5.074   5.238
   23WAT     H1  588   6.390   5.073   5.312
   23WAT     H2  589   6.444   4.987   5.200
   24WAT      O  590   6.120   5.624   5.524
   24WAT     H1  591   6.096   5.602   5.614
   24WAT     H2  592   6.042   5.668   5.489
   25WAT      O  593   6.843   5.625   5.384
   25WAT     H1  594   6.783   5.697   5.366
   25WAT     H2  595   6.898   5.619   5.306
   26WAT      O  596   6.705   5.489   5.588
   26WAT     H1  597   6.743   5.520   5.506
   26WAT     H2  598   6.739   5.400   5.598
   27WAT      O  599   5.627   5.542   4.930
   27WAT     H1  600   5.618   5.636   4.944
   27WAT     H2  601   5.590   5.527   4.842
   28WAT      O  602   6.406   5.415   5.837
   28WAT     H1  603   6.406   5.371   5.752
   28WAT     H2  604   6.496   5.447   5.848
   29WAT      O  605   5.991   5.403   5.733
   29WAT     H1  606   5.957   5.451   5.808
   29WAT     H2  607   5.915   5.358   5.696
   30WAT      O  608   6.412   5.514   5.137
   30WAT     H1  609   6.424   5.511   5.232
   30WAT     H2  610   6.374   5.601   5.120
   31WAT      O  611   6.313   5.746   5.075
   31WAT     H1  612   6.257   5.701   5.012
   31WAT     H2  613   6.384   5.783   5.022
   32WAT      O  614   5.722   5.295   5.624
   32WAT     H1  615   5.694   5.259   5.708
   32WAT     H2  616   5.716   5.222   5.563
   33WAT      O  617   6.690   5.185   5.296
   33WAT     H1  618   6.609   5.135   5.289
   33WAT     H2  619   6.671   5.269   5.255
   34WAT      O  620   6.961   5.622   5.126
   34WAT     H1  621   7.049   5.653   5.109
   34WAT     H2  622   6.958   5.534   5.087
   35WAT      O  623   7.189   5.753   5.072
   35WAT     H1  624   7.180   5.796   4.988
   35WAT     H2  625   7.260   5.799   5.116
   36WAT      O  626   5.671   5.809   5.020
   36WAT     H1  627   5.759   5.836   5.049
   36WAT     H2  628   5.623   5.891   5.010
   37WAT      O  629   5.979   4.982   5.480
   37WAT     H1  630   5.964   4.980   5.575
   37WAT     H2  631   5.896   5.015   5.444
   38WAT      O  632   7.164   5.303   5.282
   38WAT     H1  633   7.101   5.313   5.210
   38WAT     H2  634   7.114   5.325   5.361
   39WAT      O  635   6.361   5.531   5.423
   39WAT     H1  636   6.290   5.578   5.467
   39WAT     H2  637   6.390   5.465   5.487
   40WAT      O  638   6.765   5.203   5.567
   40WAT     H1  639   6.751   5.205   5.472
   40WAT     H2  640   6.860   5.208   5.578
   41WAT      O  641   6.180   5.363   5.160
   41WAT     H1  642   6.266   5.405   5.154
   41WAT     H2  643   6.145   5.393   5.244
   42WAT      O  644   7.073   5.819   5.653
   42WAT     H1  645   6.979   5.820   5.669
   42WAT     H2  646   7.105   5.740   5.697
   43WAT      O  647   5.941   5.731   5.078
   43WAT     H1  648   5.949   5.636   5.087
   43WAT     H2  649   6.031   5.763   5.087
   44WAT      O  650   6.526   5.888   4.930
   44WAT     H1  651   6.578   5.817   4.894
   44WAT     H2  652   6.590   5.953   4.960
   45WAT      O  653   6.164   5.594   4.900
   45WAT     H1  654   6.144   5.507   4.936
   45WAT     H2  655   6.147   5.585   4.806
   46WAT      O  656   6.912   5.075   5.152
   46WAT     H1  657   6.940   4.991   5.189
   46WAT     H2  658   6.835   5.099   5.204
   47WAT      O  659   6.044   5.305   4.898
   47WAT     H1  660   6.075   5.304   4.808
   47WAT     H2  661   6.118   5.269   4.949
   48WAT      O  662   6.367   5.198   4.997
   48WAT     H1  663   6.331   5.131   4.940
   48WAT     H2  664   6.386   5.153   5.079
   49WAT      O  665   5.700   5.851   5.637
   49WAT     H1  666   5.634   5.824   5.573
   49WAT     H2  667   5.784   5.840   5.591
   50WAT      O  668   6.996   5.330   5.059
   50WAT     H1  669   7.037   5.312   4.975
   50WAT     H2  670   6.964   5.245   5.090
   51WAT      O  671   5.621   5.572   5.231
   51WAT     H1  672   5.531   5.598   5.214
   51WAT     H2  673   5.669   5.599   5.152
   52WAT      O  674   5.876   5.478   5.023
   52WAT     H1  675   5.946   5.434   4.974
   52WAT     H2  676   5.804   5.485   4.960
   53WAT      O  677   5.839   5.083   4.926
   53WAT     H1  678   5.912   5.137   4.958
   53WAT     H2  679   5.867   5.056   4.838
   54WAT      O  680   7.221   5.570   5.353
   54WAT     H1  681   7.271   5.547   5.432
   54WAT     H2  682   7.202   5.486   5.311
   55WAT      O  683   7.102   5.127   5.838
   55WAT     H1  684   7.148   5.121   5.754
   55WAT     H2  685   7.077   5.219   5.845
   56WAT      O  686   5.783   5.087   5.286
   56WAT     H1  687   5.858   5.098   5.228
   56WAT     H2  688   5.736   5.171   5.280
   57WAT      O  689   6.436   5.299   5.586
   57WAT     H1  690   6.356   5.260   5.550
   57WAT     H2  691   6.488   5.223   5.615
   58WAT      O  692   6.887   4.965   5.708
   58WAT     H1  693   6.947   5.022   5.757
   58WAT     H2  694   6.813   5.021   5.686
   59WAT      O  695   7.202   5.005   5.236
   59WAT     H1  696   7.220   5.095   5.263
   59WAT     H2  697   7.123   4.982   5.285
   60WAT      O  698   6.020   5.140   5.140
   60WAT     H1  699   6.073   5.061   5.128
   60WAT     H2  700   6.083   5.208   5.162
   61WAT      O  701   6.239   5.114   5.445
   61WAT     H1  702   6.176   5.044   5.462
   61WAT     H2  703   6.185   5.190   5.424
   62WAT      O  704   6.802   5.785   3.783
   62WAT     H1  705   6.795   5.693   3.756
   62WAT     H2  706   6.761   5.834   3.712
   63WAT      O  707   6.616   5.963   3.971
   63WAT     H1  708   6.538   5.915   4.000
   63WAT     H2  709   6.681   5.895   3.954
   64WAT      O  710   5.859   5.490   3.437
   64WAT     H1  711   5.770   5.523   3.427
   64WAT     H2  712   5.887   5.470   3.348
   65WAT      O  713   5.652   5.748   4.025
   65WAT     H1  714   5.713   5.674   4.026
   65WAT     H2  715   5.656   5.781   3.936
   66WAT      O  716   5.779   5.291   4.204
   66WAT     H1  717   5.761   5.201   4.232
   66WAT     H2  718   5.738   5.345   4.272
   67WAT      O  719   6.662   5.511   3.994
   67WAT     H1  720   6.702   5.425   3.984
   67WAT     H2  721   6.654   5.545   3.904
   68WAT      O  722   6.076   5.348   3.541
   68WAT     H1  723   6.087   5.438   3.572
   68WAT     H2  724   5.985   5.344   3.511
   69WAT      O  725   7.041   5.260   3.688
   69WAT     H1  726   7.123   5.211   3.692
   69WAT     H2  727   7.045   5.319   3.763
   70WAT      O  728   5.840   5.540   4.065
   70WAT     H1  729   5.909   5.566   4.126
   70WAT     H2  730   5.809   5.456   4.099
   71WAT      O  731   6.260   5.645   3.974
   71WAT     H1  732   6.312   5.695   4.037
   71WAT     H2  733   6.313   5.567   3.956
   72WAT      O  734   6.089   5.108   4.400
   72WAT     H1  735   6.089   5.161   4.321
   72WAT     H2  736   6.005   5.061   4.397
   73WAT      O  737   7.065   5.454   3.964
   73WAT     H1  738   6.994   5.482   4.023
   73WAT     H2  739   7.101   5.535   3.929
   74WAT      O  740   6.057   5.280   4.201
   74WAT     H1  741   6.091   5.365   4.172
   74WAT     H2  742   5.963   5.295   4.212
   75WAT      O  743   6.425   5.029   3.833
   75WAT     H1  744   6.456   4.973   3.762
   75WAT     H2  745   6.332   5.042   3.815
   76WAT      O  746   6.664   5.835   3.508
   76WAT     H1  747   6.571   5.829   3.530
   76WAT     H2  748   6.679   5.929   3.496
   77WAT      O  749   6.662   5.462   3.205
   77WAT     H1  750   6.569   5.479   3.216
   77WAT     H2  751   6.694   5.535   3.153
   78WAT      O  752   7.011   5.609   4.299
   78WAT     H1  753   6.970   5.692   4.324
   78WAT     H2  754   6.938   5.551   4.280
   79WAT      O  755   6.224   5.888   3.785
   79WAT     H1  756   6.184   5.817   3.736
   79WAT     H2  757   6.233   5.854   3.874
   80WAT      O  758   6.096   5.564   4.164
   80WAT     H1  759   6.150   5.577   4.086
   80WAT     H2  760   6.146   5.604   4.235
   81WAT      O  761   5.894   5.778   3.536
   81WAT     H1  762   5.882   5.850   3.474
   81WAT     H2  763   5.863   5.701   3.488
   82WAT      O  764   6.141   5.112   3.874
   82WAT     H1  765   6.097   5.190   3.840
   82WAT     H2  766   6.197   5.144   3.944
   83WAT      O  767   6.569   5.399   4.434
   83WAT     H1  768   6.523   5.419   4.515
   83WAT     H2  769   6.529   5.317   4.404
   84WAT      O  770   7.070   5.522   4.547
   84WAT     H1  771   6.985   5.491   4.579
   84WAT     H2  772   7.055   5.545   4.456
   85WAT      O  773   6.779   5.671   4.756
   85WAT     H1  774   6.811   5.587   4.724
   85WAT     H2  775   6.858   5.722   4.773
   86WAT      O  776   6.452   5.074   3.361
   86WAT     H1  777   6.389   5.074   3.434
   86WAT     H2  778   6.444   4.987   3.323
   87WAT      O  779   6.346   5.166   4.060
   87WAT     H1  780   6.373   5.257   4.051
   87WAT     H2  781   6.400   5.118   3.998
   88WAT      O  782   6.120   5.624   3.646
   88WAT     H1  783   6.097   5.603   3.737
   88WAT     H2  784   6.042   5.668   3.612
   89WAT      O  785   6.843   5.624   3.506
   89WAT     H1  786   6.783   5.697   3.488
   89WAT     H2  787   6.898   5.619   3.428
   90WAT      O  788   6.364   5.714   4.712
   90WAT     H1  789   6.354   5.620   4.698
   90WAT     H2  790   6.449   5.736   4.674
   91WAT      O  791   6.705   5.489   3.710
   91WAT     H1  792   6.743   5.520   3.628
   91WAT     H2  793   6.739   5.400   3.720
   92WAT      O  794   5.877   5.355   4.528
   92WAT     H1  795   5.838   5.440   4.549
   92WAT     H2  796   5.808   5.291   4.546
   93WAT      O  797   6.535   5.364   4.836
   93WAT     H1  798   6.466   5.343   4.899
   93WAT     H2  799   6.609   5.392   4.889
   94WAT      O  800   5.607   5.147   3.932
   94WAT     H1  801   5.578   5.205   4.003
   94WAT     H2  802   5.682   5.100   3.969
   95WAT      O  803   5.627   5.542   3.053
   95WAT     H1  804   5.618   5.636   3.067
   95WAT     H2  805   5.590   5.527   2.965
   96WAT      O  806   6.762   5.747   4.119
   96WAT     H1  807   6.689   5.798   4.154
   96WAT     H2  808   6.722   5.666   4.089
   97WAT      O  809   6.406   5.415   3.959
   97WAT     H1  810   6.407   5.372   3.874
   97WAT     H2  811   6.496   5.447   3.970
   98WAT      O  812   5.991   5.403   3.856
   98WAT     H1  813   5.957   5.451   3.930
   98WAT     H2  814   5.915   5.359   3.819
   99WAT      O  815   6.412   5.514   3.259
   99WAT     H1  816   6.424   5.511   3.354
   99WAT     H2  817   6.374   5.601   3.243
  100WAT      O  818   6.808   5.293   4.060
  100WAT     H1  819   6.810   5.338   4.145
  100WAT     H2  820   6.784   5.203   4.081
  101WAT      O  821   6.313   5.746   3.198
  101WAT     H1  822   6.257   5.701   3.135
  101WAT     H2  823   6.384   5.783   3.145
  102WAT      O  824   7.151   5.034   4.644
  102WAT     H1  825   7.184   4.961   4.697
  102WAT     H2  826   7.155   5.003   4.554
  103WAT      O  827   6.436   5.821   4.134
  103WAT     H1  828   6.473   5.774   4.209
  103WAT     H2  829   6.417   5.909   4.168
  104WAT      O  830   5.723   5.295   3.747
  104WAT     H1  831   5.694   5.259   3.831
  104WAT     H2  832   5.716   5.222   3.686
  105WAT      O  833   6.215   5.725   4.367
  105WAT     H1  834   6.185   5.813   4.388
  105WAT     H2  835   6.311   5.731   4.370
  106WAT      O  836   6.690   5.185   3.419
  106WAT     H1  837   6.609   5.135   3.412
  106WAT     H2  838   6.670   5.269   3.378
  107WAT      O  839   6.961   5.622   3.249
  107WAT     H1  840   7.049   5.653   3.232
  107WAT     H2  841   6.958   5.534   3.210
  108WAT      O  842   5.821   5.810   4.481
  108WAT     H1  843   5.785   5.876   4.540
  108WAT     H2  844   5.792   5.726   4.518
  109WAT      O  845   6.140   5.855   4.769
  109WAT     H1  846   6.111   5.870   4.679
  109WAT     H2  847   6.218   5.800   4.760
  110WAT      O  848   7.189   5.753   3.195
  110WAT     H1  849   7.180   5.796   3.111
  110WAT     H2  850   7.260   5.799   3.239
  111WAT      O  851   5.671   5.809   3.143
  111WAT     H1  852   5.759   5.836   3.171
  111WAT     H2  853   5.623   5.891   3.132
  112WAT      O  854   5.979   4.982   3.602
  112WAT     H1  855   5.964   4.980   3.697
  112WAT     H2  856   5.896   5.015   3.566
  113WAT      O  857   5.678   5.158   4.548
  113WAT     H1  858   5.607   5.178   4.609
  113WAT     H2  859   5.721   5.081   4.586
  114WAT      O  860   6.827   5.407   4.322
  114WAT     H1  861   6.865   5.325   4.356
  114WAT     H2  862   6.742   5.413   4.365
  115WAT      O  863   7.164   5.303   3.404
  115WAT     H1  864   7.101   5.313   3.333
  115WAT     H2  865   7.114   5.325   3.483
  116WAT      O  866   6.361   5.531   3.546
  116WAT     H1  867   6.290   5.578   3.590
  116WAT     H2  868   6.389   5.465   3.609
  117WAT      O  869   6.523   5.673   4.346
  117WAT     H1  870   6.574   5.720   4.412
  117WAT     H2  871   6.538   5.580   4.366
  118WAT      O  872   6.764   5.203   3.690
  118WAT     H1  873   6.751   5.205   3.595
  118WAT     H2  874   6.859   5.208   3.701
  119WAT      O  875   6.180   5.363   3.283
  119WAT     H1  876   6.266   5.405   3.277
  119WAT     H2  877   6.145   5.392   3.367
  120WAT      O  878   7.073   5.820   3.775
  120WAT     H1  879   6.979   5.820   3.792
  120WAT     H2  880   7.105   5.740   3.819
  121WAT      O  881   5.941   5.731   3.201
  121WAT     H1  882   5.949   5.636   3.210
  121WAT     H2  883   6.031   5.763   3.210
  122WAT      O  884   5.693   5.912   4.722
  122WAT     H1  885   5.744   5.854   4.780
  122WAT     H2  886   5.620   5.941   4.776
  123WAT      O  887   5.897   5.726   4.812
  123WAT     H1  888   5.901   5.698   4.903
  123WAT     H2  889   5.982   5.767   4.796
  124WAT      O  890   6.092   5.584   4.609
  124WAT     H1  891   6.037   5.536   4.546
  124WAT     H2  892   6.158   5.627   4.555
  125WAT      O  893   6.526   5.888   3.053
  125WAT     H1  894   6.578   5.817   3.016
  125WAT     H2  895   6.590   5.953   3.083
  126WAT      O  896   7.028   5.765   4.786
  126WAT     H1  897   7.086   5.690   4.777
  126WAT     H2  898   7.045   5.818   4.708
  127WAT      O  899   6.139   5.281   4.617
  127WAT     H1  900   6.130   5.219   4.544
  127WAT     H2  901   6.081   5.353   4.594
  128WAT      O  902   6.416   5.137   4.320
  128WAT     H1  903   6.371   5.139   4.236
  128WAT     H2  904   6.353   5.097   4.380
  129WAT      O  905   6.690   5.799   4.521
  129WAT     H1  906   6.702   5.741   4.596
  129WAT     H2  907   6.776   5.803   4.479
  130WAT      O  908   6.923   5.855   4.379
  130WAT     H1  909   6.872   5.907   4.317
  130WAT     H2  910   6.959   5.919   4.441
  131WAT      O  911   6.164   5.594   3.023
  131WAT     H1  912   6.144   5.507   3.059
  131WAT     H2  913   6.147   5.585   2.929
  132WAT      O  914   6.367   5.454   4.646
  132WAT     H1  915   6.426   5.423   4.715
  132WAT     H2  916   6.285   5.406   4.661
  133WAT      O  917   6.849   5.416   4.670
  133WAT     H1  918   6.780   5.349   4.663
  133WAT     H2  919   6.921   5.371   4.714
  134WAT      O  920   6.912   5.075   3.275
  134WAT     H1  921   6.940   4.991   3.311
  134WAT     H2  922   6.835   5.099   3.327
  135WAT      O  923   6.044   5.305   3.021
  135WAT     H1  924   6.075   5.304   2.930
  135WAT     H2  925   6.118   5.269   3.071
  136WAT      O  926   6.367   5.198   3.119
  136WAT     H1  927   6.331   5.131   3.062
  136WAT     H2  928   6.386   5.153   3.201
  137WAT      O  929   5.700   5.850   3.760
  137WAT     H1  930   5.634   5.825   3.695
  137WAT     H2  931   5.784   5.840   3.715
  138WAT      O  932   6.996   5.330   3.182
  138WAT     H1  933   7.037   5.312   3.098
  138WAT     H2  934   6.964   5.245   3.213
  139WAT      O  935   5.804   5.890   4.215
  139WAT     H1  936   5.840   5.880   4.303
  139WAT     H2  937   5.747   5.814   4.203
  140WAT      O  938   5.759   5.580   4.605
  140WAT     H1  939   5.669   5.577   4.638
  140WAT     H2  940   5.812   5.602   4.681
  141WAT      O  941   7.127   5.258   4.794
  141WAT     H1  942   7.215   5.261   4.831
  141WAT     H2  943   7.129   5.185   4.732
  142WAT      O  944   5.621   5.572   3.353
  142WAT     H1  945   5.531   5.598   3.336
  142WAT     H2  946   5.669   5.599   3.275
  143WAT      O  947   5.876   5.478   3.145
  143WAT     H1  948   5.945   5.434   3.096
  143WAT     H2  949   5.803   5.485   3.083
  144WAT      O  950   5.839   5.083   3.048
  144WAT     H1  951   5.911   5.137   3.081
  144WAT     H2  952   5.867   5.056   2.961
  145WAT      O  953   7.221   5.570   3.476
  145WAT     H1  954   7.271   5.547   3.554
  145WAT     H2  955   7.202   5.486   3.434
  146WAT      O  956   5.809   5.008   4.039
  146WAT     H1  957   5.875   4.953   3.995
  146WAT     H2  958   5.851   5.034   4.121
  147WAT      O  959   7.198   5.029   4.375
  147WAT     H1  960   7.263   5.089   4.410
  147WAT     H2  961   7.213   5.030   4.280
  148WAT      O  962   5.784   5.024   4.314
  148WAT     H1  963   5.750   5.069   4.391
  148WAT     H2  964   5.751   4.934   4.322
  149WAT      O  965   6.536   5.142   4.667
  149WAT     H1  966   6.530   5.203   4.740
  149WAT     H2  967   6.630   5.132   4.651
  150WAT      O  968   6.800   5.110   4.630
  150WAT     H1  969   6.861   5.140   4.563
  150WAT     H2  970   6.854   5.060   4.691
  151WAT      O  971   5.852   4.977   4.641
  151WAT     H1  972   5.906   4.958   4.565
  151WAT     H2  973   5.858   4.898   4.695
  152WAT      O  974   6.874   4.966   4.263
  152WAT     H1  975   6.787   4.998   4.241
  152WAT     H2  976   6.862   4.917   4.344
  153WAT      O  977   6.964   5.185   4.402
  153WAT     H1  978   6.931   5.104   4.362
  153WAT     H2  979   7.059   5.181   4.388
  154WAT      O  980   6.648   5.057   4.156
  154WAT     H1  981   6.570   5.104   4.185
  154WAT     H2  982   6.618   4.966   4.144
  155WAT      O  983   7.102   5.127   3.961
  155WAT     H1  984   7.148   5.121   3.877
  155WAT     H2  985   7.077   5.219   3.968
  156WAT      O  986   5.783   5.087   3.408
  156WAT     H1  987   5.858   5.098   3.351
  156WAT     H2  988   5.736   5.171   3.403
  157WAT      O  989   6.436   5.299   3.708
  157WAT     H1  990   6.356   5.261   3.672
  157WAT     H2  991   6.488   5.223   3.736
  158WAT      O  992   6.887   4.965   3.831
  158WAT     H1  993   6.947   5.022   3.879
  158WAT     H2  994   6.813   5.021   3.809
  159WAT      O  995   7.202   5.005   3.359
  159WAT     H1  996   7.220   5.095   3.385
  159WAT     H2  997   7.123   4.982   3.408
  160WAT      O  998   6.020   5.140   3.262
  160WAT     H1  999   6.073   5.061   3.250
  160WAT     H2 1000   6.083   5.208   3.285
  161WAT      O 1001   6.239   5.114   3.568
  161WAT     H1 1002   6.176   5.044   3.584
  161WAT     H2 1003   6.185   5.190   3.546
  162WAT      O 1004   6.251   5.041   4.811
  162WAT     H1 1005   6.224   5.092   4.735
  162WAT     H2 1006   6.290   4.962   4.775
  163WAT      O 1007   6.912   4.984   4.869
  163WAT     H1 1008   6.901   5.015   4.959
  163WAT     H2 1009   6.994   5.023   4.840
  164WAT      O 1010   6.802   5.785   1.905
  164WAT     H1 1011   6.795   5.693   1.878
  164WAT     H2 1012   6.761   5.835   1.835
  165WAT      O 1013   6.616   5.963   2.094
  165WAT     H1 1014   6.538   5.915   2.122
  165WAT     H2 1015   6.681   5.895   2.076
  166WAT      O 1016   5.859   5.490   1.559
  166WAT     H1 1017   5.770   5.523   1.549
  166WAT     H2 1018   5.887   5.470   1.470
  167WAT      O 1019   5.652   5.748   2.147
  167WAT     H1 1020   5.713   5.674   2.148
  167WAT     H2 1021   5.656   5.781   2.058
  168WAT      O 1022   5.779   5.291   2.327
  168WAT     H1 1023   5.761   5.201   2.355
  168WAT     H2 1024   5.738   5.345   2.394
  169WAT      O 1025   6.662   5.511   2.117
  169WAT     H1 1026   6.702   5.425   2.107
  169WAT     H2 1027   6.654   5.545   2.027
  170WAT      O 1028   6.076   5.348   1.663
  170WAT     H1 1029   6.087   5.438   1.695
  170WAT     H2 1030   5.985   5.344   1.634
  171WAT      O 1031   7.041   5.260   1.810
  171WAT     H1 1032   7.123   5.211   1.814
  171WAT     H2 1033   7.045   5.319   1.886
  172WAT      O 1034   5.840   5.540   2.188
  172WAT     H1 1035   5.909   5.566   2.248
  172WAT     H2 1036   5.809   5.456   2.222
  173WAT      O 1037   6.261   5.645   2.096
  173WAT     H1 1038   6.312   5.695   2.160
  173WAT     H2 1039   6.313   5.567   2.079
  174WAT      O 1040   6.089   5.108   2.523
  174WAT     H1 1041   6.089   5.161   2.443
  174WAT     H2 1042   6.005   5.061   2.520
  175WAT      O 1043   7.065   5.454   2.086
  175WAT     H1 1044   6.994   5.482   2.145
  175WAT     H2 1045   7.101   5.535   2.051
  176WAT      O 1046   6.057   5.280   2.324
  176WAT     H1 1047   6.091   5.365   2.294
  176WAT     H2 1048   5.963   5.295   2.335
  177WAT      O 1049   6.425   5.029   1.956
  177WAT     H1 1050   6.456   4.973   1.884
  177WAT     H2 1051   6.332   5.042   1.938
  178WAT      O 1052   6.664   5.835   1.631
  178WAT     H1 1053   6.571   5.829   1.653
  178WAT     H2 1054   6.679   5.929   1.618
  179WAT      O 1055   6.662   5.461   1.328
  179WAT     H1 1056   6.569   5.479   1.339
  179WAT     H2 1057   6.694   5.535   1.276
  180WAT      O 1058   7.011   5.609   2.422
  180WAT     H1 1059   6.970   5.692   2.446
  180WAT     H2 1060   6.938   5.551   2.402
  181WAT      O 1061   6.224   5.888   1.908
  181WAT     H1 1062   6.184   5.817   1.858
  181WAT     H2 1063   6.233   5.853   1.997
  182WAT      O 1064   6.096   5.564   2.286
  182WAT     H1 1065   6.150   5.577   2.208
  182WAT     H2 1066   6.147   5.604   2.357
  183WAT      O 1067   5.894   5.778   1.658
  183WAT     H1 1068   5.882   5.850   1.597
  183WAT     H2 1069   5.863   5.701   1.610
  184WAT      O 1070   6.141   5.112   1.996
  184WAT     H1 1071   6.097   5.190   1.963
  184WAT     H2 1072   6.197   5.144   2.067
  185WAT      O 1073   6.569   5.399   2.557
  185WAT     H1 1074   6.523   5.419   2.638
  185WAT     H2 1075   6.529   5.317   2.526
  186WAT      O 1076   7.070   5.522   2.670
  186WAT     H1 1077   6.985   5.491   2.702
  186WAT     H2 1078   7.055   5.545   2.579
  187WAT      O 1079   6.779   5.671   2.879
  187WAT     H1 1080   6.811   5.587   2.847
  187WAT     H2 1081   6.858   5.722   2.895
  188WAT      O 1082   6.451   5.074   1.484
  188WAT     H1 1083   6.390   5.074   1.557
  188WAT     H2 1084   6.444   4.987   1.446
  189WAT      O 1085   6.345   5.166   2.183
  189WAT     H1 1086   6.374   5.257   2.173
  189WAT     H2 1087   6.400   5.118   2.121
  190WAT      O 1088   6.120   5.624   1.769
  190WAT     H1 1089   6.097   5.603   1.859
  190WAT     H2 1090   6.042   5.668   1.734
  191WAT      O 1091   6.843   5.624   1.629
  191WAT     H1 1092   6.783   5.697   1.611
  191WAT     H2 1093   6.898   5.619   1.551
  192WAT      O 1094   6.364   5.714   2.835
  192WAT     H1 1095   6.354   5.620   2.821
  192WAT     H2 1096   6.448   5.736   2.796
  193WAT      O 1097   6.705   5.489   1.833
  193WAT     H1 1098   6.743   5.520   1.751
  193WAT     H2 1099   6.739   5.400   1.843
  194WAT      O 1100   5.877   5.355   2.651
  194WAT     H1 1101   5.838   5.440   2.672
  194WAT     H2 1102   5.808   5.291   2.669
  195WAT      O 1103   6.535   5.364   2.958
  195WAT     H1 1104   6.466   5.343   3.022
  195WAT     H2 1105   6.609   5.392   3.011
  196WAT      O 1106   5.607   5.147   2.055
  196WAT     H1 1107   5.578   5.205   2.125
  196WAT     H2 1108   5.682   5.100   2.092
  197WAT      O 1109   5.627   5.542   1.175
  197WAT     H1 1110   5.618   5.636   1.189
  197WAT     H2 1111   5.590   5.527   1.087
  198WAT      O 1112   6.762   5.747   2.241
  198WAT     H1 1113   6.689   5.798   2.276
  198WAT     H2 1114   6.722   5.666   2.211
  199WAT      O 1115   6.406   5.415   2.082
  199WAT     H1 1116   6.407   5.372   1.997
  199WAT     H2 1117   6.496   5.447   2.093
  200WAT      O 1118   5.991   5.403   1.979
  200WAT     H1 1119   5.957   5.451   2.053
  200WAT     H2 1120   5.915   5.359   1.942
  201WAT      O 1121   6.412   5.514   1.382
  201WAT     H1 1122   6.424   5.511   1.477
  201WAT     H2 1123   6.374   5.601   1.366
  202WAT      O 1124   6.808   5.293   2.183
  202WAT     H1 1125   6.810   5.338   2.267
  202WAT     H2 1126   6.784   5.203   2.204
  203WAT      O 1127   6.313   5.746   1.321
  203WAT     H1 1128   6.257   5.701   1.257
  203WAT     H2 1129   6.384   5.783   1.268
  204WAT      O 1130   7.151   5.034   2.767
  204WAT     H1 1131   7.184   4.960   2.819
  204WAT     H2 1132   7.155   5.003   2.676
  205WAT      O 1133   6.436   5.821   2.257
  205WAT     H1 1134   6.473   5.774   2.331
  205WAT     H2 1135   6.417   5.909   2.291
  206WAT      O 1136   5.723   5.295   1.869
  206WAT     H1 1137   5.694   5.259   1.953
  206WAT     H2 1138   5.716   5.222   1.808
  207WAT      O 1139   6.215   5.725   2.489
  207WAT     H1 1140   6.185   5.813   2.511
  207WAT     H2 1141   6.311   5.731   2.492
  208WAT      O 1142   6.690   5.185   1.542
  208WAT     H1 1143   6.609   5.135   1.534
  208WAT     H2 1144   6.671   5.269   1.500
  209WAT      O 1145   6.961   5.622   1.371
  209WAT     H1 1146   7.049   5.653   1.354
  209WAT     H2 1147   6.958   5.534   1.332
  210WAT      O 1148   5.821   5.810   2.603
  210WAT     H1 1149   5.785   5.876   2.662
  210WAT     H2 1150   5.792   5.726   2.640
  211WAT      O 1151   6.140   5.855   2.892
  211WAT     H1 1152   6.111   5.870   2.802
  211WAT     H2 1153   6.218   5.800   2.883
  212WAT      O 1154   7.189   5.753   1.317
  212WAT     H1 1155   7.180   5.796   1.233
  212WAT     H2 1156   7.260   5.799   1.361
  213WAT      O 1157   5.671   5.809   1.266
  213WAT     H1 1158   5.759   5.836   1.294
  213WAT     H2 1159   5.623   5.891   1.255
  214WAT      O 1160   5.979   4.982   1.725
  214WAT     H1 1161   5.964   4.980   1.820
  214WAT     H2 1162   5.896   5.015   1.689
  215WAT      O 1163   5.678   5.158   2.670
  215WAT     H1 1164   5.607   5.178   2.731
  215WAT     H2 1165   5.721   5.081   2.709
  216WAT      O 1166   6.827   5.407   2.445
  216WAT     H1 1167   6.865   5.325   2.479
  216WAT     H2 1168   6.741   5.413   2.487
  217WAT      O 1169   7.164   5.303   1.527
  217WAT     H1 1170   7.101   5.313   1.455
  217WAT     H2 1171   7.114   5.325   1.606
  218WAT      O 1172   6.361   5.531   1.668
  218WAT     H1 1173   6.290   5.578   1.712
  218WAT     H2 1174   6.390   5.465   1.732
  219WAT      O 1175   6.523   5.673   2.469
  219WAT     H1 1176   6.574   5.720   2.535
  219WAT     H2 1177   6.538   5.580   2.488
  220WAT      O 1178   6.764   5.203   1.812
  220WAT     H1 1179   6.751   5.205   1.717
  220WAT     H2 1180   6.859   5.208   1.823
  221WAT      O 1181   6.180   5.363   1.406
  221WAT     H1 1182   6.266   5.405   1.399
  221WAT     H2 1183   6.146   5.393   1.490
  222WAT      O 1184   7.073   5.819   1.898
  222WAT     H1 1185   6.979   5.820   1.914
  222WAT     H2 1186   7.105   5.740   1.942
  223WAT      O 1187   5.941   5.731   1.324
  223WAT     H1 1188   5.949   5.636   1.332
  223WAT     H2 1189   6.031   5.763   1.332
  224WAT      O 1190   5.693   5.912   2.844
  224WAT     H1 1191   5.744   5.854   2.902
  224WAT     H2 1192   5.620   5.941   2.899
  225WAT      O 1193   5.897   5.726   2.935
  225WAT     H1 1194   5.901   5.698   3.026
  225WAT     H2 1195   5.982   5.767   2.919
  226WAT      O 1196   6.092   5.584   2.731
  226WAT     H1 1197   6.037   5.536   2.669
  226WAT     H2 1198   6.158   5.627   2.678
  227WAT      O 1199   6.526   5.888   1.175
  227WAT     H1 1200   6.578   5.817   1.139
  227WAT     H2 1201   6.590   5.953   1.205
  228WAT      O 1202   7.028   5.765   2.908
  228WAT     H1 1203   7.086   5.690   2.899
  228WAT     H2 1204   7.046   5.818   2.830
  229WAT      O 1205   6.139   5.281   2.740
  229WAT     H1 1206   6.130   5.219   2.667
  229WAT     H2 1207   6.081   5.353   2.717
  230WAT      O 1208   6.416   5.137   2.443
  230WAT     H1 1209   6.371   5.139   2.358
  230WAT     H2 1210   6.353   5.097   2.502
  231WAT      O 1211   6.690   5.799   2.643
  231WAT     H1 1212   6.702   5.741   2.718
  231WAT     H2 1213   6.776   5.803   2.601
  232WAT      O 1214   6.923   5.855   2.502
  232WAT     H1 1215   6.873   5.907   2.440
  232WAT     H2 1216   6.959   5.919   2.563
  233WAT      O 1217   6.164   5.594   1.145
  233WAT     H1 1218   6.144   5.507   1.181
  233WAT     H2 1219   6.147   5.585   1.051
  234WAT      O 1220   6.367   5.454   2.769
  234WAT     H1 1221   6.426   5.423   2.838
  234WAT     H2 1222   6.285   5.406   2.784
  235WAT      O 1223   6.849   5.416   2.793
  235WAT     H1 1224   6.780   5.349   2.786
  235WAT     H2 1225   6.921   5.371   2.837
  236WAT      O 1226   6.911   5.075   1.397
  236WAT     H1 1227   6.940   4.991   1.434
  236WAT     H2 1228   6.835   5.099   1.450
  237WAT      O 1229   6.044   5.305   1.143
  237WAT     H1 1230   6.075   5.304   1.053
  237WAT     H2 1231   6.118   5.269   1.194
  238WAT      O 1232   6.367   5.198   1.242
  238WAT     H1 1233   6.331   5.131   1.185
  238WAT     H2 1234   6.386   5.153   1.324
  239WAT      O 1235   5.700   5.850   1.882
  239WAT     H1 1236   5.634   5.825   1.818
  239WAT     H2 1237   5.783   5.840   1.837
  240WAT      O 1238   6.996   5.330   1.304
  240WAT     H1 1239   7.037   5.312   1.220
  240WAT     H2 1240   6.964   5.245   1.335
  241WAT      O 1241   5.804   5.890   2.337
  241WAT     H1 1242   5.840   5.880   2.425
  241WAT     H2 1243   5.747   5.814   2.325
  242WAT      O 1244   5.758   5.580   2.727
  242WAT     H1 1245   5.669   5.577   2.762
  242WAT     H2 1246   5.813   5.602   2.803
  243WAT      O 1247   7.127   5.258   2.916
  243WAT     H1 1248   7.215   5.260   2.954
  243WAT     H2 1249   7.129   5.186   2.854
  244WAT      O 1250   5.621   5.572   1.476
  244WAT     H1 1251   5.531   5.598   1.459
  244WAT     H2 1252   5.669   5.599   1.398
  245WAT      O 1253   5.876   5.478   1.268
  245WAT     H1 1254   5.946   5.434   1.219
  245WAT     H2 1255   5.804   5.485   1.205
  246WAT      O 1256   5.839   5.083   1.171
  246WAT     H1 1257   5.912   5.137   1.203
  246WAT     H2 1258   5.867   5.056   1.083
  247WAT      O 1259   7.221   5.570   1.598
  247WAT     H1 1260   7.271   5.547   1.677
  247WAT     H2 1261   7.202   5.486   1.557
  248WAT      O 1262   5.809   5.008   2.162
  248WAT     H1 1263   5.875   4.953   2.118
  248WAT     H2 1264   5.851   5.034   2.244
  249WAT      O 1265   7.198   5.029   2.498
  249WAT     H1 1266   7.263   5.089   2.533
  249WAT     H2 1267   7.213   5.030   2.403
  250WAT      O 1268   5.784   5.024   2.437
  250WAT     H1 1269   5.750   5.069   2.513
  250WAT     H2 1270   5.751   4.935   2.444
  251WAT      O 1271   6.536   5.142   2.789
  251WAT     H1 1272   6.530   5.203   2.862
  251WAT     H2 1273   6.630   5.132   2.774
  252WAT      O 1274   6.800   5.110   2.752
  252WAT     H1 1275   6.861   5.140   2.686
  252WAT     H2 1276   6.853   5.060   2.814
  253WAT      O 1277   5.852   4.977   2.763
  253WAT     H1 1278   5.906   4.958   2.687
  253WAT     H2 1279   5.858   4.898   2.817
  254WAT      O 1280   6.875   4.966   2.386
  254WAT     H1 1281   6.787   4.998   2.363
  254WAT     H2 1282   6.862   4.917   2.467
  255WAT      O 1283   6.964   5.185   2.524
  255WAT     H1 1284   6.931   5.104   2.484
  255WAT     H2 1285   7.059   5.181   2.511
  256WAT      O 1286   6.648   5.057   2.279
  256WAT     H1 1287   6.570   5.104   2.308
  256WAT     H2 1288   6.618   4.966   2.267
  257WAT      O 1289   7.102   5.127   2.083
  257WAT     H1 1290   7.148   5.121   1.999
  257WAT     H2 1291   7.077   5.219   2.090
  258WAT      O 1292   5.783   5.087   1.531
  258WAT     H1 1293   5.858   5.098   1.473
  258WAT     H2 1294   5.736   5.171   1.525
  259WAT      O 1295   6.436   5.299   1.831
  259WAT     H1 1296   6.356   5.261   1.795
  259WAT     H2 1297   6.488   5.223   1.859
  260WAT      O 1298   6.887   4.965   1.954
  260WAT     H1 1299   6.947   5.022   2.001
  260WAT     H2 1300   6.813   5.021   1.931
  261WAT      O 1301   7.202   5.005   1.481
  261WAT     H1 1302   7.221   5.095   1.508
  261WAT     H2 1303   7.123   4.982   1.530
  262WAT      O 1304   6.020   5.140   1.385
  262WAT     H1 1305   6.073   5.061   1.373
  262WAT     H2 1306   6.083   5.208   1.407
  263WAT      O 1307   6.239   5.114   1.690
  263WAT     H1 1308   6.176   5.044   1.707
  263WAT     H2 1309   6.185   5.190   1.669
  264WAT      O 1310   6.251   5.041   2.934
  264WAT     H1 1311   6.224   5.092   2.857
  264WAT     H2 1312   6.290   4.962   2.897
  265WAT      O 1313   6.912   4.984   2.991
  265WAT     H1 1314   6.901   5.015   3.081
  265WAT     H2 1315   6.994   5.023   2.962
  266WAT      O 1316   6.616   5.963   0.216
  266WAT     H1 1317   6.538   5.915   0.245
  266WAT     H2 1318   6.681   5.895   0.199
  267WAT      O 1319   5.654   5.749   0.271
  267WAT     H1 1320   5.713   5.673   0.271
  267WAT     H2 1321   5.656   5.780   0.180
  268WAT      O 1322   5.780   5.291   0.450
  268WAT     H1 1323   5.761   5.201   0.477
  268WAT     H2 1324   5.738   5.345   0.517
  269WAT      O 1325   5.839   5.541   0.311
  269WAT     H1 1326   5.909   5.566   0.371
  269WAT     H2 1327   5.810   5.456   0.344
  270WAT      O 1328   6.260   5.645   0.219
  270WAT     H1 1329   6.312   5.695   0.282
  270WAT     H2 1330   6.314   5.568   0.201
  271WAT      O 1331   6.088   5.108   0.646
  271WAT     H1 1332   6.089   5.161   0.566
  271WAT     H2 1333   6.005   5.061   0.643
  272WAT      O 1334   7.065   5.454   0.210
  272WAT     H1 1335   6.994   5.482   0.268
  272WAT     H2 1336   7.101   5.535   0.174
  273WAT      O 1337   6.057   5.281   0.446
  273WAT     H1 1338   6.091   5.365   0.417
  273WAT     H2 1339   5.963   5.295   0.457
  274WAT      O 1340   7.011   5.609   0.544
  274WAT     H1 1341   6.970   5.692   0.569
  274WAT     H2 1342   6.938   5.551   0.525
  275WAT      O 1343   6.096   5.564   0.409
  275WAT     H1 1344   6.150   5.577   0.331
  275WAT     H2 1345   6.147   5.604   0.480
  276WAT      O 1346   6.569   5.399   0.679
  276WAT     H1 1347   6.523   5.419   0.760
  276WAT     H2 1348   6.529   5.317   0.649
  277WAT      O 1349   7.070   5.522   0.793
  277WAT     H1 1350   6.985   5.491   0.824
  277WAT     H2 1351   7.055   5.545   0.701
  278WAT      O 1352   6.779   5.671   1.001
  278WAT     H1 1353   6.811   5.587   0.969
  278WAT     H2 1354   6.858   5.722   1.018
  279WAT      O 1355   6.346   5.166   0.306
  279WAT     H1 1356   6.374   5.257   0.296
  279WAT     H2 1357   6.400   5.118   0.242
  280WAT      O 1358   6.364   5.714   0.957
  280WAT     H1 1359   6.354   5.620   0.943
  280WAT     H2 1360   6.449   5.736   0.919
  281WAT      O 1361   5.878   5.355   0.774
  281WAT     H1 1362   5.837   5.440   0.794
  281WAT     H2 1363   5.808   5.291   0.792
  282WAT      O 1364   6.535   5.364   1.081
  282WAT     H1 1365   6.466   5.343   1.144
  282WAT     H2 1366   6.609   5.392   1.134
  283WAT      O 1367   5.606   5.146   0.177
  283WAT     H1 1368   5.578   5.205   0.247
  283WAT     H2 1369   5.682   5.100   0.213
  284WAT      O 1370   6.762   5.748   0.364
  284WAT     H1 1371   6.689   5.798   0.399
  284WAT     H2 1372   6.722   5.666   0.334
  285WAT      O 1373   6.807   5.293   0.305
  285WAT     H1 1374   6.810   5.338   0.390
  285WAT     H2 1375   6.784   5.203   0.327
  286WAT      O 1376   7.151   5.034   0.889
  286WAT     H1 1377   7.184   4.961   0.942
  286WAT     H2 1378   7.155   5.003   0.799
  287WAT      O 1379   6.436   5.821   0.379
  287WAT     H1 1380   6.472   5.774   0.454
  287WAT     H2 1381   6.417   5.908   0.413
  288WAT      O 1382   6.215   5.725   0.612
  288WAT     H1 1383   6.185   5.813   0.634
  288WAT     H2 1384   6.311   5.731   0.615
  289WAT      O 1385   5.821   5.810   0.726
  289WAT     H1 1386   5.785   5.876   0.785
  289WAT     H2 1387   5.792   5.726   0.763
  290WAT      O 1388   6.140   5.855   1.014
  290WAT     H1 1389   6.111   5.870   0.924
  290WAT     H2 1390   6.218   5.800   1.005
  291WAT      O 1391   5.678   5.158   0.793
  291WAT     H1 1392   5.607   5.178   0.854
  291WAT     H2 1393   5.721   5.081   0.831
  292WAT      O 1394   6.827   5.407   0.568
  292WAT     H1 1395   6.865   5.325   0.601
  292WAT     H2 1396   6.741   5.413   0.610
  293WAT      O 1397   6.523   5.673   0.591
  293WAT     H1 1398   6.574   5.720   0.657
  293WAT     H2 1399   6.538   5.580   0.612
  294WAT      O 1400   5.693   5.912   0.967
  294WAT     H1 1401   5.744   5.854   1.025
  294WAT     H2 1402   5.620   5.941   1.021
  295WAT      O 1403   5.897   5.726   1.057
  295WAT     H1 1404   5.901   5.698   1.148
  295WAT     H2 1405   5.982   5.767   1.041
  296WAT      O 1406   6.091   5.584   0.854
  296WAT     H1 1407   6.037   5.537   0.791
  296WAT     H2 1408   6.158   5.627   0.801
  297WAT      O 1409   7.028   5.765   1.031
  297WAT     H1 1410   7.086   5.690   1.022
  297WAT     H2 1411   7.046   5.818   0.953
  298WAT      O 1412   6.139   5.281   0.862
  298WAT     H1 1413   6.130   5.219   0.790
  298WAT     H2 1414   6.081   5.353   0.839
  299WAT      O 1415   6.416   5.137   0.565
  299WAT     H1 1416   6.371   5.139   0.481
  299WAT     H2 1417   6.353   5.097   0.625
  300WAT      O 1418   6.690   5.799   0.766
  300WAT     H1 1419   6.702   5.741   0.841
  300WAT     H2 1420   6.776   5.803   0.724
  301WAT      O 1421   6.923   5.855   0.624
  301WAT     H1 1422   6.872   5.907   0.562
  301WAT     H2 1423   6.960   5.919   0.686
  302WAT      O 1424   6.367   5.454   0.891
  302WAT     H1 1425   6.426   5.423   0.960
  302WAT     H2 1426   6.285   5.407   0.906
  303WAT      O 1427   6.849   5.416   0.915
  303WAT     H1 1428   6.780   5.349   0.908
  303WAT     H2 1429   6.921   5.371   0.959
  304WAT      O 1430   5.804   5.890   0.460
  304WAT     H1 1431   5.840   5.880   0.548
  304WAT     H2 1432   5.748   5.814   0.448
  305WAT      O 1433   5.759   5.580   0.850
  305WAT     H1 1434   5.669   5.577   0.883
  305WAT     H2 1435   5.812   5.602   0.926
  306WAT      O 1436   7.127   5.258   1.039
  306WAT     H1 1437   7.215   5.261   1.076
  306WAT     H2 1438   7.129   5.185   0.977
  307WAT      O 1439   5.809   5.007   0.284
  307WAT     H1 1440   5.875   4.953   0.240
  307WAT     H2 1441   5.851   5.034   0.366
  308WAT      O 1442   7.198   5.029   0.620
  308WAT     H1 1443   7.263   5.089   0.656
  308WAT     H2 1444   7.214   5.030   0.526
  309WAT      O 1445   5.785   5.024   0.560
  309WAT     H1 1446   5.749   5.069   0.636
  309WAT     H2 1447   5.751   4.935   0.567
  310WAT      O 1448   6.536   5.142   0.912
  310WAT     H1 1449   6.530   5.203   0.985
  310WAT     H2 1450   6.630   5.132   0.896
  311WAT      O 1451   6.800   5.110   0.875
  311WAT     H1 1452   6.861   5.140   0.808
  311WAT     H2 1453   6.854   5.060   0.937
  312WAT      O 1454   5.852   4.977   0.886
  312WAT     H1 1455   5.906   4.958   0.810
  312WAT     H2 1456   5.858   4.898   0.940
  313WAT      O 1457   6.874   4.966   0.508
  313WAT     H1 1458   6.787   4.998   0.486
  313WAT     H2 1459   6.862   4.917   0.589
  314WAT      O 1460   6.964   5.185   0.647
  314WAT     H1 1461   6.931   5.104   0.607
  314WAT     H2 1462   7.058   5.181   0.633
  315WAT      O 1463   6.648   5.057   0.401
  315WAT     H1 1464   6.570   5.104   0.430
  315WAT     H2 1465   6.618   4.966   0.390
  316WAT      O 1466   6.251   5.041   1.056
  316WAT     H1 1467   6.224   5.092   0.980
  316WAT     H2 1468   6.290   4.962   1.020
  317WAT      O 1469   6.912   4.984   1.114
  317WAT     H1 1470   6.901   5.014   1.204
  317WAT     H2 1471   6.994   5.023   1.085
  318WAT      O 1472   6.803   3.907   5.660
  318WAT     H1 1473   6.794   3.816   5.633
  318WAT     H2 1474   6.761   3.957   5.590
  319WAT      O 1475   7.019   4.526   5.726
  319WAT     H1 1476   6.971   4.449   5.758
  319WAT     H2 1477   7.099   4.528   5.778
  320WAT      O 1478   5.859   3.612   5.314
  320WAT     H1 1479   5.770   3.646   5.304
  320WAT     H2 1480   5.887   3.592   5.225
  321WAT      O 1481   6.641   4.754   5.688
  321WAT     H1 1482   6.579   4.799   5.631
  321WAT     H2 1483   6.726   4.770   5.648
  322WAT      O 1484   6.076   3.471   5.418
  322WAT     H1 1485   6.087   3.561   5.449
  322WAT     H2 1486   5.985   3.467   5.389
  323WAT      O 1487   7.041   3.383   5.565
  323WAT     H1 1488   7.123   3.334   5.569
  323WAT     H2 1489   7.045   3.442   5.640
  324WAT      O 1490   6.727   4.243   5.428
  324WAT     H1 1491   6.665   4.289   5.371
  324WAT     H2 1492   6.778   4.313   5.469
  325WAT      O 1493   5.664   4.311   5.165
  325WAT     H1 1494   5.626   4.360   5.092
  325WAT     H2 1495   5.690   4.378   5.228
  326WAT      O 1496   6.425   3.152   5.711
  326WAT     H1 1497   6.456   3.096   5.639
  326WAT     H2 1498   6.332   3.165   5.693
  327WAT      O 1499   7.109   4.395   5.449
  327WAT     H1 1500   7.098   4.301   5.462
  327WAT     H2 1501   7.108   4.431   5.537
  328WAT      O 1502   6.664   3.958   5.386
  328WAT     H1 1503   6.571   3.951   5.406
  328WAT     H2 1504   6.679   4.052   5.373
  329WAT      O 1505   6.662   3.584   5.082
  329WAT     H1 1506   6.569   3.601   5.094
  329WAT     H2 1507   6.694   3.658   5.031
  330WAT      O 1508   7.066   4.114   5.435
  330WAT     H1 1509   7.005   4.080   5.370
  330WAT     H2 1510   7.066   4.050   5.506
  331WAT      O 1511   6.224   4.011   5.663
  331WAT     H1 1512   6.184   3.939   5.613
  331WAT     H2 1513   6.233   3.976   5.752
  332WAT      O 1514   6.884   4.038   5.136
  332WAT     H1 1515   6.927   3.954   5.121
  332WAT     H2 1516   6.956   4.101   5.144
  333WAT      O 1517   6.695   4.531   5.532
  333WAT     H1 1518   6.739   4.606   5.491
  333WAT     H2 1519   6.689   4.556   5.625
  334WAT      O 1520   5.894   3.900   5.413
  334WAT     H1 1521   5.882   3.973   5.352
  334WAT     H2 1522   5.863   3.823   5.365
  335WAT      O 1523   5.783   4.387   5.634
  335WAT     H1 1524   5.742   4.401   5.549
  335WAT     H2 1525   5.872   4.359   5.614
  336WAT      O 1526   6.961   4.831   5.268
  336WAT     H1 1527   6.946   4.802   5.358
  336WAT     H2 1528   6.946   4.753   5.215
  337WAT      O 1529   6.209   4.809   5.445
  337WAT     H1 1530   6.192   4.717   5.425
  337WAT     H2 1531   6.124   4.845   5.470
  338WAT      O 1532   6.932   4.583   5.124
  338WAT     H1 1533   6.862   4.581   5.058
  338WAT     H2 1534   7.006   4.539   5.082
  339WAT      O 1535   6.888   4.744   5.532
  339WAT     H1 1536   6.934   4.666   5.563
  339WAT     H2 1537   6.923   4.815   5.586
  340WAT      O 1538   6.141   3.235   5.751
  340WAT     H1 1539   6.097   3.313   5.718
  340WAT     H2 1540   6.197   3.267   5.822
  341WAT      O 1541   6.451   3.197   5.239
  341WAT     H1 1542   6.390   3.196   5.312
  341WAT     H2 1543   6.444   3.110   5.200
  342WAT      O 1544   6.120   3.748   5.524
  342WAT     H1 1545   6.096   3.724   5.614
  342WAT     H2 1546   6.042   3.790   5.489
  343WAT      O 1547   6.843   3.747   5.384
  343WAT     H1 1548   6.783   3.820   5.365
  343WAT     H2 1549   6.898   3.741   5.306
  344WAT      O 1550   6.705   3.612   5.588
  344WAT     H1 1551   6.743   3.643   5.506
  344WAT     H2 1552   6.739   3.523   5.597
  345WAT      O 1553   5.626   3.665   4.930
  345WAT     H1 1554   5.618   3.759   4.944
  345WAT     H2 1555   5.590   3.650   4.842
  346WAT      O 1556   6.406   3.538   5.837
  346WAT     H1 1557   6.406   3.494   5.752
  346WAT     H2 1558   6.496   3.570   5.848
  347WAT      O 1559   5.991   3.526   5.733
  347WAT     H1 1560   5.957   3.574   5.808
  347WAT     H2 1561   5.915   3.481   5.696
  348WAT      O 1562   6.411   3.637   5.137
  348WAT     H1 1563   6.424   3.634   5.232
  348WAT     H2 1564   6.374   3.724   5.120
  349WAT      O 1565   6.312   3.871   5.075
  349WAT     H1 1566   6.257   3.824   5.012
  349WAT     H2 1567   6.384   3.906   5.022
  350WAT      O 1568   5.722   3.418   5.624
  350WAT     H1 1569   5.694   3.381   5.708
  350WAT     H2 1570   5.716   3.345   5.563
  351WAT      O 1571   6.069   4.268   5.303
  351WAT     H1 1572   5.991   4.214   5.288
  351WAT     H2 1573   6.142   4.216   5.269
  352WAT      O 1574   6.690   3.307   5.296
  352WAT     H1 1575   6.609   3.258   5.289
  352WAT     H2 1576   6.671   3.391   5.255
  353WAT      O 1577   6.961   3.745   5.126
  353WAT     H1 1578   7.050   3.776   5.109
  353WAT     H2 1579   6.958   3.657   5.087
  354WAT      O 1580   6.071   4.236   5.667
  354WAT     H1 1581   6.124   4.156   5.661
  354WAT     H2 1582   6.027   4.229   5.751
  355WAT      O 1583   6.561   4.362   5.194
  355WAT     H1 1584   6.595   4.437   5.145
  355WAT     H2 1585   6.478   4.393   5.230
  356WAT      O 1586   7.188   3.876   5.073
  356WAT     H1 1587   7.180   3.919   4.988
  356WAT     H2 1588   7.260   3.922   5.116
  357WAT      O 1589   6.849   4.293   5.731
  357WAT     H1 1590   6.884   4.234   5.665
  357WAT     H2 1591   6.761   4.261   5.748
  358WAT      O 1592   6.458   4.370   5.472
  358WAT     H1 1593   6.527   4.425   5.508
  358WAT     H2 1594   6.379   4.424   5.475
  359WAT      O 1595   5.672   3.932   5.020
  359WAT     H1 1596   5.759   3.959   5.049
  359WAT     H2 1597   5.623   4.014   5.009
  360WAT      O 1598   6.390   4.069   5.434
  360WAT     H1 1599   6.434   4.152   5.455
  360WAT     H2 1600   6.352   4.040   5.517
  361WAT      O 1601   5.979   3.105   5.480
  361WAT     H1 1602   5.964   3.103   5.575
  361WAT     H2 1603   5.896   3.138   5.444
  362WAT      O 1604   7.129   4.451   4.999
  362WAT     H1 1605   7.109   4.379   5.059
  362WAT     H2 1606   7.092   4.424   4.915
  363WAT      O 1607   5.709   4.853   5.077
  363WAT     H1 1608   5.744   4.914   5.012
  363WAT     H2 1609   5.694   4.908   5.154
  364WAT      O 1610   7.088   4.241   5.167
  364WAT     H1 1611   7.060   4.289   5.245
  364WAT     H2 1612   7.168   4.196   5.193
  365WAT      O 1613   6.310   4.592   5.159
  365WAT     H1 1614   6.310   4.665   5.097
  365WAT     H2 1615   6.218   4.566   5.168
  366WAT      O 1616   5.870   4.113   5.233
  366WAT     H1 1617   5.809   4.187   5.233
  366WAT     H2 1618   5.918   4.121   5.151
  367WAT      O 1619   7.164   3.426   5.282
  367WAT     H1 1620   7.101   3.436   5.210
  367WAT     H2 1621   7.114   3.447   5.361
  368WAT      O 1622   6.609   4.597   5.025
  368WAT     H1 1623   6.619   4.576   4.932
  368WAT     H2 1624   6.519   4.572   5.046
  369WAT      O 1625   6.361   3.653   5.423
  369WAT     H1 1626   6.290   3.700   5.467
  369WAT     H2 1627   6.390   3.588   5.487
  370WAT      O 1628   6.765   3.326   5.567
  370WAT     H1 1629   6.751   3.327   5.472
  370WAT     H2 1630   6.860   3.331   5.578
  371WAT      O 1631   6.473   4.850   5.495
  371WAT     H1 1632   6.498   4.846   5.402
  371WAT     H2 1633   6.378   4.837   5.494
  372WAT      O 1634   6.181   3.485   5.160
  372WAT     H1 1635   6.266   3.527   5.154
  372WAT     H2 1636   6.145   3.515   5.244
  373WAT      O 1637   7.073   3.942   5.652
  373WAT     H1 1638   6.979   3.942   5.670
  373WAT     H2 1639   7.105   3.863   5.697
  374WAT      O 1640   6.070   4.109   5.009
  374WAT     H1 1641   6.148   4.099   5.064
  374WAT     H2 1642   6.079   4.041   4.942
  375WAT      O 1643   5.941   3.853   5.077
  375WAT     H1 1644   5.949   3.758   5.088
  375WAT     H2 1645   6.031   3.886   5.087
  376WAT      O 1646   6.021   4.868   5.787
  376WAT     H1 1647   6.095   4.813   5.814
  376WAT     H2 1648   6.059   4.954   5.773
  377WAT      O 1649   5.709   4.474   5.374
  377WAT     H1 1650   5.616   4.500   5.373
  377WAT     H2 1651   5.756   4.557   5.362
  378WAT      O 1652   6.331   4.785   4.969
  378WAT     H1 1653   6.411   4.815   4.925
  378WAT     H2 1654   6.280   4.742   4.900
  379WAT      O 1655   7.239   4.708   5.111
  379WAT     H1 1656   7.208   4.666   5.031
  379WAT     H2 1657   7.216   4.801   5.099
  380WAT      O 1658   6.384   4.307   4.955
  380WAT     H1 1659   6.373   4.247   5.028
  380WAT     H2 1660   6.367   4.254   4.877
  381WAT      O 1661   6.708   4.213   5.016
  381WAT     H1 1662   6.653   4.258   5.080
  381WAT     H2 1663   6.770   4.162   5.068
  382WAT      O 1664   6.273   4.108   5.205
  382WAT     H1 1665   6.317   4.094   5.289
  382WAT     H2 1666   6.288   4.027   5.156
  383WAT      O 1667   6.526   4.011   4.931
  383WAT     H1 1668   6.578   3.940   4.894
  383WAT     H2 1669   6.590   4.076   4.960
  384WAT      O 1670   6.164   3.716   4.900
  384WAT     H1 1671   6.144   3.630   4.936
  384WAT     H2 1672   6.147   3.708   4.806
  385WAT      O 1673   6.912   3.197   5.152
  385WAT     H1 1674   6.940   3.113   5.189
  385WAT     H2 1675   6.835   3.222   5.204
  386WAT      O 1676   6.045   3.428   4.898
  386WAT     H1 1677   6.075   3.426   4.808
  386WAT     H2 1678   6.118   3.392   4.949
  387WAT      O 1679   6.367   3.321   4.997
  387WAT     H1 1680   6.331   3.253   4.940
  387WAT     H2 1681   6.386   3.276   5.079
  388WAT      O 1682   6.582   4.821   5.159
  388WAT     H1 1683   6.672   4.854   5.162
  388WAT     H2 1684   6.585   4.747   5.098
  389WAT      O 1685   5.946   4.357   4.981
  389WAT     H1 1686   5.989   4.411   5.047
  389WAT     H2 1687   5.995   4.274   4.983
  390WAT      O 1688   5.668   4.636   5.727
  390WAT     H1 1689   5.701   4.549   5.704
  390WAT     H2 1690   5.711   4.656   5.810
  391WAT      O 1691   6.127   4.469   5.493
  391WAT     H1 1692   6.097   4.457   5.583
  391WAT     H2 1693   6.117   4.383   5.452
  392WAT      O 1694   5.700   3.974   5.637
  392WAT     H1 1695   5.634   3.947   5.573
  392WAT     H2 1696   5.784   3.963   5.591
  393WAT      O 1697   6.996   3.453   5.059
  393WAT     H1 1698   7.037   3.434   4.975
  393WAT     H2 1699   6.963   3.368   5.090
  394WAT      O 1700   5.621   3.695   5.231
  394WAT     H1 1701   5.531   3.721   5.214
  394WAT     H2 1702   5.669   3.722   5.153
  395WAT      O 1703   5.876   3.600   5.023
  395WAT     H1 1704   5.945   3.556   4.974
  395WAT     H2 1705   5.804   3.607   4.960
  396WAT      O 1706   5.839   3.206   4.926
  396WAT     H1 1707   5.912   3.260   4.958
  396WAT     H2 1708   5.867   3.178   4.839
  397WAT      O 1709   7.221   3.693   5.353
  397WAT     H1 1710   7.271   3.669   5.432
  397WAT     H2 1711   7.202   3.609   5.311
  398WAT      O 1712   7.155   4.821   5.593
  398WAT     H1 1713   7.214   4.788   5.525
  398WAT     H2 1714   7.180   4.773   5.672
  399WAT      O 1715   7.102   3.249   5.837
  399WAT     H1 1716   7.148   3.244   5.754
  399WAT     H2 1717   7.077   3.341   5.846
  400WAT      O 1718   5.720   4.827   5.535
  400WAT     H1 1719   5.704   4.763   5.605
  400WAT     H2 1720   5.634   4.847   5.500
  401WAT      O 1721   5.783   3.210   5.286
  401WAT     H1 1722   5.858   3.221   5.228
  401WAT     H2 1723   5.736   3.293   5.280
  402WAT      O 1724   6.436   3.421   5.586
  402WAT     H1 1725   6.356   3.383   5.550
  402WAT     H2 1726   6.487   3.346   5.615
  403WAT      O 1727   6.887   3.088   5.708
  403WAT     H1 1728   6.947   3.145   5.757
  403WAT     H2 1729   6.813   3.144   5.686
  404WAT      O 1730   7.202   3.128   5.236
  404WAT     H1 1731   7.220   3.218   5.263
  404WAT     H2 1732   7.123   3.104   5.285
  405WAT      O 1733   5.880   4.695   5.281
  405WAT     H1 1734   5.829   4.734   5.209
  405WAT     H2 1735   5.873   4.758   5.352
  406WAT      O 1736   6.020   3.262   5.140
  406WAT     H1 1737   6.073   3.183   5.128
  406WAT     H2 1738   6.083   3.330   5.162
  407WAT      O 1739   6.239   3.236   5.445
  407WAT     H1 1740   6.176   3.166   5.462
  407WAT     H2 1741   6.185   3.312   5.424
  408WAT      O 1742   6.142   4.892   5.167
  408WAT     H1 1743   6.214   4.862   5.112
  408WAT     H2 1744   6.167   4.867   5.256
  409WAT      O 1745   6.057   4.502   5.168
  409WAT     H1 1746   5.994   4.550   5.223
  409WAT     H2 1747   6.069   4.418   5.212
  410WAT      O 1748   6.803   3.907   3.782
  410WAT     H1 1749   6.795   3.816   3.756
  410WAT     H2 1750   6.761   3.957   3.712
  411WAT      O 1751   6.615   4.085   3.970
  411WAT     H1 1752   6.538   4.037   4.000
  411WAT     H2 1753   6.681   4.017   3.954
  412WAT      O 1754   6.016   4.117   4.058
  412WAT     H1 1755   5.934   4.090   4.099
  412WAT     H2 1756   6.078   4.124   4.131
  413WAT      O 1757   7.018   4.526   3.849
  413WAT     H1 1758   6.971   4.449   3.881
  413WAT     H2 1759   7.099   4.528   3.900
  414WAT      O 1760   6.015   4.520   4.078
  414WAT     H1 1761   6.046   4.431   4.060
  414WAT     H2 1762   6.090   4.576   4.056
  415WAT      O 1763   5.859   3.613   3.437
  415WAT     H1 1764   5.770   3.646   3.427
  415WAT     H2 1765   5.886   3.592   3.348
  416WAT      O 1766   5.653   3.871   4.025
  416WAT     H1 1767   5.713   3.796   4.026
  416WAT     H2 1768   5.656   3.903   3.935
  417WAT      O 1769   6.640   4.755   3.812
  417WAT     H1 1770   6.579   4.799   3.754
  417WAT     H2 1771   6.726   4.770   3.771
  418WAT      O 1772   6.559   4.353   3.972
  418WAT     H1 1773   6.554   4.258   3.956
  418WAT     H2 1774   6.635   4.363   4.029
  419WAT      O 1775   5.779   3.414   4.204
  419WAT     H1 1776   5.761   3.324   4.232
  419WAT     H2 1777   5.738   3.468   4.272
  420WAT      O 1778   6.662   3.633   3.994
  420WAT     H1 1779   6.702   3.547   3.984
  420WAT     H2 1780   6.654   3.666   3.904
  421WAT      O 1781   6.076   3.471   3.541
  421WAT     H1 1782   6.087   3.561   3.572
  421WAT     H2 1783   5.985   3.466   3.511
  422WAT      O 1784   7.041   3.383   3.688
  422WAT     H1 1785   7.123   3.334   3.692
  422WAT     H2 1786   7.045   3.442   3.763
  423WAT      O 1787   5.840   3.663   4.065
  423WAT     H1 1788   5.909   3.689   4.126
  423WAT     H2 1789   5.809   3.579   4.098
  424WAT      O 1790   6.261   3.768   3.973
  424WAT     H1 1791   6.312   3.817   4.038
  424WAT     H2 1792   6.313   3.690   3.956
  425WAT      O 1793   6.088   3.231   4.400
  425WAT     H1 1794   6.089   3.284   4.320
  425WAT     H2 1795   6.005   3.184   4.398
  426WAT      O 1796   6.727   4.243   3.550
  426WAT     H1 1797   6.665   4.289   3.494
  426WAT     H2 1798   6.778   4.312   3.592
  427WAT      O 1799   6.214   4.196   4.219
  427WAT     H1 1800   6.180   4.258   4.282
  427WAT     H2 1801   6.231   4.249   4.140
  428WAT      O 1802   7.065   3.577   3.964
  428WAT     H1 1803   6.994   3.605   4.023
  428WAT     H2 1804   7.101   3.658   3.930
  429WAT      O 1805   6.057   3.403   4.201
  429WAT     H1 1806   6.091   3.487   4.172
  429WAT     H2 1807   5.963   3.418   4.212
  430WAT      O 1808   6.136   4.393   4.400
  430WAT     H1 1809   6.196   4.461   4.371
  430WAT     H2 1810   6.049   4.432   4.390
  431WAT      O 1811   5.664   4.311   3.288
  431WAT     H1 1812   5.626   4.360   3.215
  431WAT     H2 1813   5.690   4.378   3.351
  432WAT      O 1814   6.425   3.152   3.833
  432WAT     H1 1815   6.456   3.096   3.762
  432WAT     H2 1816   6.332   3.165   3.815
  433WAT      O 1817   6.980   4.723   4.062
  433WAT     H1 1818   6.980   4.683   3.976
  433WAT     H2 1819   6.925   4.801   4.052
  434WAT      O 1820   7.109   4.395   3.571
  434WAT     H1 1821   7.098   4.301   3.584
  434WAT     H2 1822   7.108   4.432   3.660
  435WAT      O 1823   6.920   4.214   4.195
  435WAT     H1 1824   6.963   4.191   4.112
  435WAT     H2 1825   6.992   4.238   4.253
  436WAT      O 1826   6.664   3.958   3.508
  436WAT     H1 1827   6.571   3.951   3.529
  436WAT     H2 1828   6.679   4.052   3.496
  437WAT      O 1829   6.662   3.584   3.205
  437WAT     H1 1830   6.569   3.601   3.216
  437WAT     H2 1831   6.694   3.657   3.153
  438WAT      O 1832   7.066   4.114   3.557
  438WAT     H1 1833   7.005   4.080   3.493
  438WAT     H2 1834   7.066   4.050   3.628
  439WAT      O 1835   7.011   3.732   4.299
  439WAT     H1 1836   6.971   3.815   4.324
  439WAT     H2 1837   6.938   3.674   4.280
  440WAT      O 1838   6.224   4.010   3.785
  440WAT     H1 1839   6.184   3.939   3.736
  440WAT     H2 1840   6.233   3.976   3.874
  441WAT      O 1841   6.271   4.378   4.003
  441WAT     H1 1842   6.241   4.319   3.933
  441WAT     H2 1843   6.366   4.383   3.991
  442WAT      O 1844   6.096   3.686   4.164
  442WAT     H1 1845   6.150   3.700   4.086
  442WAT     H2 1846   6.146   3.726   4.235
  443WAT      O 1847   7.080   4.737   4.369
  443WAT     H1 1848   7.032   4.817   4.348
  443WAT     H2 1849   7.012   4.671   4.382
  444WAT      O 1850   6.181   4.353   4.667
  444WAT     H1 1851   6.091   4.376   4.692
  444WAT     H2 1852   6.182   4.365   4.572
  445WAT      O 1853   6.884   4.038   3.258
  445WAT     H1 1854   6.927   3.954   3.244
  445WAT     H2 1855   6.956   4.101   3.267
  446WAT      O 1856   6.063   4.041   4.524
  446WAT     H1 1857   6.049   4.128   4.560
  446WAT     H2 1858   5.975   4.006   4.510
  447WAT      O 1859   6.695   4.531   3.655
  447WAT     H1 1860   6.739   4.606   3.613
  447WAT     H2 1861   6.688   4.556   3.747
  448WAT      O 1862   6.243   4.634   4.745
  448WAT     H1 1863   6.240   4.675   4.659
  448WAT     H2 1864   6.226   4.542   4.729
  449WAT      O 1865   5.894   3.900   3.536
  449WAT     H1 1866   5.882   3.973   3.474
  449WAT     H2 1867   5.863   3.823   3.488
  450WAT      O 1868   5.658   4.217   4.116
  450WAT     H1 1869   5.666   4.231   4.022
  450WAT     H2 1870   5.719   4.146   4.135
  451WAT      O 1871   5.782   4.387   3.757
  451WAT     H1 1872   5.743   4.402   3.671
  451WAT     H2 1873   5.872   4.359   3.737
  452WAT      O 1874   6.765   4.802   4.448
  452WAT     H1 1875   6.816   4.793   4.529
  452WAT     H2 1876   6.680   4.837   4.477
  453WAT      O 1877   6.961   4.831   3.390
  453WAT     H1 1878   6.946   4.802   3.480
  453WAT     H2 1879   6.946   4.753   3.337
  454WAT      O 1880   6.209   4.809   3.568
  454WAT     H1 1881   6.192   4.717   3.547
  454WAT     H2 1882   6.124   4.845   3.592
  455WAT      O 1883   6.932   4.583   3.247
  455WAT     H1 1884   6.862   4.581   3.181
  455WAT     H2 1885   7.006   4.539   3.205
  456WAT      O 1886   6.888   4.744   3.655
  456WAT     H1 1887   6.934   4.666   3.686
  456WAT     H2 1888   6.923   4.815   3.708
  457WAT      O 1889   5.664   4.322   4.370
  457WAT     H1 1890   5.679   4.274   4.288
  457WAT     H2 1891   5.711   4.271   4.437
  458WAT      O 1892   6.141   3.235   3.874
  458WAT     H1 1893   6.097   3.313   3.840
  458WAT     H2 1894   6.197   3.267   3.944
  459WAT      O 1895   6.570   3.521   4.434
  459WAT     H1 1896   6.523   3.542   4.515
  459WAT     H2 1897   6.529   3.440   4.404
  460WAT      O 1898   7.070   3.643   4.547
  460WAT     H1 1899   6.985   3.613   4.579
  460WAT     H2 1900   7.055   3.668   4.456
  461WAT      O 1901   6.779   3.794   4.756
  461WAT     H1 1902   6.812   3.710   4.724
  461WAT     H2 1903   6.858   3.845   4.773
  462WAT      O 1904   6.452   3.197   3.362
  462WAT     H1 1905   6.389   3.196   3.434
  462WAT     H2 1906   6.444   3.110   3.323
  463WAT      O 1907   6.346   3.289   4.060
  463WAT     H1 1908   6.374   3.380   4.050
  463WAT     H2 1909   6.400   3.240   3.998
  464WAT      O 1910   6.120   3.747   3.647
  464WAT     H1 1911   6.097   3.725   3.737
  464WAT     H2 1912   6.042   3.790   3.612
  465WAT      O 1913   6.843   3.747   3.506
  465WAT     H1 1914   6.783   3.820   3.488
  465WAT     H2 1915   6.897   3.741   3.428
  466WAT      O 1916   6.364   3.837   4.713
  466WAT     H1 1917   6.354   3.743   4.698
  466WAT     H2 1918   6.448   3.859   4.674
  467WAT      O 1919   6.705   3.612   3.710
  467WAT     H1 1920   6.743   3.643   3.628
  467WAT     H2 1921   6.739   3.523   3.720
  468WAT      O 1922   5.877   3.478   4.528
  468WAT     H1 1923   5.838   3.563   4.549
  468WAT     H2 1924   5.808   3.414   4.546
  469WAT      O 1925   6.535   3.486   4.836
  469WAT     H1 1926   6.466   3.466   4.899
  469WAT     H2 1927   6.609   3.514   4.889
  470WAT      O 1928   5.607   3.270   3.932
  470WAT     H1 1929   5.578   3.327   4.003
  470WAT     H2 1930   5.682   3.222   3.969
  471WAT      O 1931   5.626   3.665   3.053
  471WAT     H1 1932   5.618   3.759   3.067
  471WAT     H2 1933   5.590   3.650   2.965
  472WAT      O 1934   6.762   3.870   4.119
  472WAT     H1 1935   6.689   3.921   4.154
  472WAT     H2 1936   6.722   3.788   4.089
  473WAT      O 1937   6.406   3.538   3.959
  473WAT     H1 1938   6.407   3.495   3.874
  473WAT     H2 1939   6.496   3.570   3.970
  474WAT      O 1940   5.991   3.526   3.855
  474WAT     H1 1941   5.957   3.574   3.931
  474WAT     H2 1942   5.915   3.482   3.819
  475WAT      O 1943   6.412   3.637   3.259
  475WAT     H1 1944   6.424   3.634   3.354
  475WAT     H2 1945   6.374   3.724   3.243
  476WAT      O 1946   6.808   3.415   4.060
  476WAT     H1 1947   6.810   3.460   4.145
  476WAT     H2 1948   6.783   3.325   4.081
  477WAT      O 1949   6.312   3.871   3.197
  477WAT     H1 1950   6.257   3.824   3.135
  477WAT     H2 1951   6.384   3.905   3.145
  478WAT      O 1952   7.151   3.157   4.644
  478WAT     H1 1953   7.184   3.084   4.697
  478WAT     H2 1954   7.155   3.126   4.554
  479WAT      O 1955   5.821   4.258   4.586
  479WAT     H1 1956   5.783   4.195   4.647
  479WAT     H2 1957   5.852   4.329   4.642
  480WAT      O 1958   6.437   3.944   4.134
  480WAT     H1 1959   6.472   3.896   4.208
  480WAT     H2 1960   6.417   4.031   4.169
  481WAT      O 1961   5.723   3.418   3.747
  481WAT     H1 1962   5.693   3.382   3.831
  481WAT     H2 1963   5.716   3.345   3.685
  482WAT      O 1964   6.215   3.848   4.366
  482WAT     H1 1965   6.185   3.936   4.388
  482WAT     H2 1966   6.311   3.854   4.370
  483WAT      O 1967   6.069   4.268   3.426
  483WAT     H1 1968   5.991   4.214   3.411
  483WAT     H2 1969   6.142   4.216   3.392
  484WAT      O 1970   7.143   4.168   4.004
  484WAT     H1 1971   7.216   4.217   3.966
  484WAT     H2 1972   7.124   4.100   3.940
  485WAT      O 1973   6.690   3.307   3.419
  485WAT     H1 1974   6.609   3.258   3.412
  485WAT     H2 1975   6.671   3.392   3.378
  486WAT      O 1976   6.683   4.175   4.595
  486WAT     H1 1977   6.675   4.084   4.567
  486WAT     H2 1978   6.618   4.185   4.665
  487WAT      O 1979   6.961   3.745   3.249
  487WAT     H1 1980   7.050   3.776   3.231
  487WAT     H2 1981   6.958   3.657   3.210
  488WAT      O 1982   6.072   4.236   3.790
  488WAT     H1 1983   6.124   4.155   3.783
  488WAT     H2 1984   6.027   4.228   3.874
  489WAT      O 1985   6.561   4.362   3.317
  489WAT     H1 1986   6.595   4.436   3.267
  489WAT     H2 1987   6.478   4.393   3.353
  490WAT      O 1988   5.821   3.933   4.481
  490WAT     H1 1989   5.784   3.998   4.540
  490WAT     H2 1990   5.792   3.849   4.517
  491WAT      O 1991   6.140   3.977   4.769
  491WAT     H1 1992   6.112   3.992   4.679
  491WAT     H2 1993   6.218   3.923   4.761
  492WAT      O 1994   6.675   4.457   4.568
  492WAT     H1 1995   6.676   4.363   4.548
  492WAT     H2 1996   6.604   4.466   4.632
  493WAT      O 1997   7.188   3.876   3.196
  493WAT     H1 1998   7.180   3.919   3.111
  493WAT     H2 1999   7.260   3.922   3.239
  494WAT      O 2000   6.849   4.294   3.853
  494WAT     H1 2001   6.884   4.234   3.787
  494WAT     H2 2002   6.761   4.261   3.870
  495WAT      O 2003   6.458   4.370   3.595
  495WAT     H1 2004   6.527   4.425   3.631
  495WAT     H2 2005   6.379   4.424   3.597
  496WAT      O 2006   5.671   3.932   3.143
  496WAT     H1 2007   5.759   3.959   3.171
  496WAT     H2 2008   5.623   4.014   3.131
  497WAT      O 2009   6.390   4.070   3.556
  497WAT     H1 2010   6.434   4.152   3.578
  497WAT     H2 2011   6.352   4.039   3.639
  498WAT      O 2012   6.618   4.621   4.278
  498WAT     H1 2013   6.682   4.642   4.346
  498WAT     H2 2014   6.655   4.545   4.234
  499WAT      O 2015   5.979   3.105   3.602
  499WAT     H1 2016   5.964   3.103   3.697
  499WAT     H2 2017   5.896   3.138   3.566
  500WAT      O 2018   6.746   4.422   4.150
  500WAT     H1 2019   6.810   4.352   4.161
  500WAT     H2 2020   6.799   4.500   4.132
  501WAT      O 2021   7.129   4.451   3.121
  501WAT     H1 2022   7.109   4.379   3.181
  501WAT     H2 2023   7.092   4.424   3.037
  502WAT      O 2024   6.923   4.502   4.470
  502WAT     H1 2025   6.957   4.560   4.538
  502WAT     H2 2026   6.831   4.489   4.493
  503WAT      O 2027   5.709   4.853   3.200
  503WAT     H1 2028   5.744   4.914   3.134
  503WAT     H2 2029   5.694   4.908   3.277
  504WAT      O 2030   5.678   3.280   4.548
  504WAT     H1 2031   5.607   3.301   4.609
  504WAT     H2 2032   5.720   3.204   4.586
  505WAT      O 2033   7.088   4.241   3.289
  505WAT     H1 2034   7.060   4.289   3.367
  505WAT     H2 2035   7.168   4.196   3.315
  506WAT      O 2036   5.708   4.680   4.646
  506WAT     H1 2037   5.718   4.585   4.633
  506WAT     H2 2038   5.641   4.706   4.582
  507WAT      O 2039   6.506   4.506   4.787
  507WAT     H1 2040   6.474   4.435   4.841
  507WAT     H2 2041   6.439   4.574   4.793
  508WAT      O 2042   6.310   4.591   3.281
  508WAT     H1 2043   6.309   4.665   3.220
  508WAT     H2 2044   6.218   4.567   3.291
  509WAT      O 2045   5.870   4.113   3.356
  509WAT     H1 2046   5.809   4.187   3.356
  509WAT     H2 2047   5.917   4.121   3.273
  510WAT      O 2048   6.827   3.530   4.322
  510WAT     H1 2049   6.865   3.448   4.356
  510WAT     H2 2050   6.742   3.536   4.365
  511WAT      O 2051   7.164   3.426   3.404
  511WAT     H1 2052   7.101   3.436   3.333
  511WAT     H2 2053   7.114   3.446   3.483
  512WAT      O 2054   6.609   4.597   3.148
  512WAT     H1 2055   6.619   4.577   3.055
  512WAT     H2 2056   6.519   4.572   3.168
  513WAT      O 2057   6.361   3.653   3.546
  513WAT     H1 2058   6.290   3.700   3.590
  513WAT     H2 2059   6.390   3.588   3.609
  514WAT      O 2060   6.523   3.795   4.346
  514WAT     H1 2061   6.573   3.843   4.412
  514WAT     H2 2062   6.538   3.703   4.366
  515WAT      O 2063   6.764   3.326   3.690
  515WAT     H1 2064   6.751   3.327   3.595
  515WAT     H2 2065   6.859   3.331   3.701
  516WAT      O 2066   6.473   4.850   3.617
  516WAT     H1 2067   6.499   4.846   3.525
  516WAT     H2 2068   6.378   4.837   3.616
  517WAT      O 2069   6.181   3.485   3.283
  517WAT     H1 2070   6.266   3.528   3.277
  517WAT     H2 2071   6.145   3.514   3.367
  518WAT      O 2072   7.073   3.942   3.776
  518WAT     H1 2073   6.979   3.942   3.792
  518WAT     H2 2074   7.105   3.863   3.819
  519WAT      O 2075   6.070   4.109   3.132
  519WAT     H1 2076   6.148   4.099   3.187
  519WAT     H2 2077   6.080   4.042   3.064
  520WAT      O 2078   5.941   3.853   3.200
  520WAT     H1 2079   5.949   3.758   3.210
  520WAT     H2 2080   6.031   3.886   3.210
  521WAT      O 2081   6.021   4.868   3.910
  521WAT     H1 2082   6.095   4.813   3.936
  521WAT     H2 2083   6.060   4.954   3.895
  522WAT      O 2084   5.709   4.474   3.497
  522WAT     H1 2085   5.616   4.500   3.496
  522WAT     H2 2086   5.756   4.557   3.485
  523WAT      O 2087   5.922   4.786   4.828
  523WAT     H1 2088   6.002   4.818   4.870
  523WAT     H2 2089   5.870   4.750   4.900
  524WAT      O 2090   6.331   4.785   3.092
  524WAT     H1 2091   6.410   4.815   3.047
  524WAT     H2 2092   6.280   4.742   3.023
  525WAT      O 2093   6.806   4.397   4.823
  525WAT     H1 2094   6.745   4.399   4.749
  525WAT     H2 2095   6.775   4.324   4.877
  526WAT      O 2096   6.948   4.771   4.683
  526WAT     H1 2097   7.043   4.761   4.680
  526WAT     H2 2098   6.932   4.835   4.751
  527WAT      O 2099   7.239   4.708   3.234
  527WAT     H1 2100   7.208   4.666   3.154
  527WAT     H2 2101   7.216   4.801   3.222
  528WAT      O 2102   5.694   4.036   4.723
  528WAT     H1 2103   5.744   3.977   4.780
  528WAT     H2 2104   5.619   4.063   4.776
  529WAT      O 2105   6.384   4.307   3.078
  529WAT     H1 2106   6.373   4.247   3.151
  529WAT     H2 2107   6.367   4.254   3.000
  530WAT      O 2108   6.400   4.177   4.676
  530WAT     H1 2109   6.322   4.233   4.667
  530WAT     H2 2110   6.417   4.146   4.587
  531WAT      O 2111   6.708   4.213   3.138
  531WAT     H1 2112   6.653   4.258   3.203
  531WAT     H2 2113   6.770   4.162   3.191
  532WAT      O 2114   7.113   4.350   4.732
  532WAT     H1 2115   7.187   4.382   4.681
  532WAT     H2 2116   7.037   4.366   4.676
  533WAT      O 2117   5.897   3.848   4.812
  533WAT     H1 2118   5.901   3.820   4.903
  533WAT     H2 2119   5.982   3.889   4.795
  534WAT      O 2120   6.273   4.108   3.327
  534WAT     H1 2121   6.317   4.094   3.411
  534WAT     H2 2122   6.288   4.027   3.279
  535WAT      O 2123   6.092   3.706   4.609
  535WAT     H1 2124   6.037   3.659   4.546
  535WAT     H2 2125   6.158   3.750   4.555
  536WAT      O 2126   6.526   4.011   3.054
  536WAT     H1 2127   6.578   3.940   3.016
  536WAT     H2 2128   6.590   4.076   3.083
  537WAT      O 2129   6.980   4.152   4.585
  537WAT     H1 2130   7.022   4.170   4.670
  537WAT     H2 2131   6.887   4.167   4.601
  538WAT      O 2132   7.029   3.888   4.786
  538WAT     H1 2133   7.086   3.812   4.776
  538WAT     H2 2134   7.045   3.941   4.708
  539WAT      O 2135   6.139   3.404   4.617
  539WAT     H1 2136   6.130   3.342   4.544
  539WAT     H2 2137   6.080   3.476   4.594
  540WAT      O 2138   6.416   3.260   4.320
  540WAT     H1 2139   6.371   3.262   4.236
  540WAT     H2 2140   6.353   3.220   4.380
  541WAT      O 2141   6.456   4.149   4.382
  541WAT     H1 2142   6.499   4.233   4.365
  541WAT     H2 2143   6.365   4.163   4.358
  542WAT      O 2144   6.690   3.921   4.521
  542WAT     H1 2145   6.703   3.863   4.596
  542WAT     H2 2146   6.776   3.926   4.479
  543WAT      O 2147   6.923   3.978   4.379
  543WAT     H1 2148   6.873   4.030   4.317
  543WAT     H2 2149   6.960   4.041   4.441
  544WAT      O 2150   6.164   3.716   3.023
  544WAT     H1 2151   6.144   3.630   3.059
  544WAT     H2 2152   6.147   3.708   2.929
  545WAT      O 2153   6.243   4.781   4.494
  545WAT     H1 2154   6.187   4.852   4.462
  545WAT     H2 2155   6.267   4.731   4.416
  546WAT      O 2156   6.367   3.576   4.646
  546WAT     H1 2157   6.426   3.545   4.715
  546WAT     H2 2158   6.286   3.528   4.661
  547WAT      O 2159   6.849   3.538   4.670
  547WAT     H1 2160   6.780   3.472   4.663
  547WAT     H2 2161   6.921   3.493   4.714
  548WAT      O 2162   6.912   3.198   3.275
  548WAT     H1 2163   6.940   3.113   3.311
  548WAT     H2 2164   6.835   3.221   3.327
  549WAT      O 2165   6.045   3.429   3.021
  549WAT     H1 2166   6.075   3.426   2.930
  549WAT     H2 2167   6.117   3.392   3.071
  550WAT      O 2168   6.527   4.903   4.520
  550WAT     H1 2169   6.520   4.993   4.550
  550WAT     H2 2170   6.437   4.871   4.517
  551WAT      O 2171   6.367   3.321   3.119
  551WAT     H1 2172   6.331   3.253   3.062
  551WAT     H2 2173   6.386   3.276   3.201
  552WAT      O 2174   6.582   4.821   3.282
  552WAT     H1 2175   6.672   4.854   3.284
  552WAT     H2 2176   6.585   4.747   3.221
  553WAT      O 2177   5.946   4.356   3.104
  553WAT     H1 2178   5.990   4.411   3.169
  553WAT     H2 2179   5.995   4.274   3.106
  554WAT      O 2180   5.668   4.635   3.850
  554WAT     H1 2181   5.701   4.549   3.827
  554WAT     H2 2182   5.711   4.656   3.933
  555WAT      O 2183   6.128   4.469   3.616
  555WAT     H1 2184   6.097   4.456   3.706
  555WAT     H2 2185   6.117   4.384   3.575
  556WAT      O 2186   5.717   4.723   4.124
  556WAT     H1 2187   5.673   4.741   4.207
  556WAT     H2 2188   5.773   4.799   4.110
  557WAT      O 2189   5.700   3.974   3.759
  557WAT     H1 2190   5.634   3.947   3.695
  557WAT     H2 2191   5.784   3.963   3.715
  558WAT      O 2192   7.148   4.345   4.362
  558WAT     H1 2193   7.067   4.388   4.389
  558WAT     H2 2194   7.189   4.407   4.301
  559WAT      O 2195   6.996   3.453   3.182
  559WAT     H1 2196   7.037   3.434   3.098
  559WAT     H2 2197   6.963   3.368   3.213
  560WAT      O 2198   5.805   4.013   4.214
  560WAT     H1 2199   5.840   4.003   4.303
  560WAT     H2 2200   5.747   3.937   4.203
  561WAT      O 2201   5.759   3.703   4.605
  561WAT     H1 2202   5.669   3.700   4.638
  561WAT     H2 2203   5.812   3.724   4.681
  562WAT      O 2204   7.127   3.381   4.794
  562WAT     H1 2205   7.215   3.384   4.831
  562WAT     H2 2206   7.129   3.309   4.732
  563WAT      O 2207   5.621   3.695   3.354
  563WAT     H1 2208   5.531   3.721   3.336
  563WAT     H2 2209   5.669   3.722   3.275
  564WAT      O 2210   5.876   3.601   3.145
  564WAT     H1 2211   5.945   3.556   3.096
  564WAT     H2 2212   5.803   3.606   3.083
  565WAT      O 2213   7.221   3.693   3.476
  565WAT     H1 2214   7.271   3.669   3.554
  565WAT     H2 2215   7.201   3.609   3.434
  566WAT      O 2216   5.809   3.131   4.039
  566WAT     H1 2217   5.875   3.076   3.995
  566WAT     H2 2218   5.851   3.156   4.121
  567WAT      O 2219   7.198   3.151   4.375
  567WAT     H1 2220   7.263   3.212   4.410
  567WAT     H2 2221   7.213   3.153   4.280
  568WAT      O 2222   7.155   4.821   3.715
  568WAT     H1 2223   7.214   4.788   3.647
  568WAT     H2 2224   7.180   4.773   3.794
  569WAT      O 2225   5.784   3.146   4.314
  569WAT     H1 2226   5.750   3.192   4.390
  569WAT     H2 2227   5.751   3.057   4.322
  570WAT      O 2228   5.945   4.464   4.730
  570WAT     H1 2229   5.941   4.427   4.819
  570WAT     H2 2230   5.958   4.558   4.744
  571WAT      O 2231   6.315   4.619   4.290
  571WAT     H1 2232   6.291   4.645   4.201
  571WAT     H2 2233   6.409   4.635   4.296
  572WAT      O 2234   6.536   3.265   4.667
  572WAT     H1 2235   6.530   3.326   4.740
  572WAT     H2 2236   6.630   3.255   4.651
  573WAT      O 2237   6.800   3.232   4.630
  573WAT     H1 2238   6.861   3.263   4.563
  573WAT     H2 2239   6.854   3.183   4.691
  574WAT      O 2240   5.852   3.099   4.641
  574WAT     H1 2241   5.906   3.081   4.565
  574WAT     H2 2242   5.858   3.020   4.695
  575WAT      O 2243   5.929   4.758   4.442
  575WAT     H1 2244   5.870   4.745   4.516
  575WAT     H2 2245   5.928   4.675   4.395
  576WAT      O 2246   6.874   3.089   4.264
  576WAT     H1 2247   6.787   3.121   4.241
  576WAT     H2 2248   6.862   3.039   4.344
  577WAT      O 2249   6.964   3.308   4.402
  577WAT     H1 2250   6.931   3.227   4.362
  577WAT     H2 2251   7.058   3.304   4.388
  578WAT      O 2252   7.210   4.885   4.097
  578WAT     H1 2253   7.164   4.961   4.061
  578WAT     H2 2254   7.147   4.814   4.093
  579WAT      O 2255   5.892   4.496   4.337
  579WAT     H1 2256   5.819   4.434   4.331
  579WAT     H2 2257   5.898   4.533   4.249
  580WAT      O 2258   6.253   4.716   4.016
  580WAT     H1 2259   6.304   4.655   3.963
  580WAT     H2 2260   6.318   4.767   4.064
  581WAT      O 2261   6.527   4.805   4.098
  581WAT     H1 2262   6.556   4.780   4.010
  581WAT     H2 2263   6.578   4.750   4.157
  582WAT      O 2264   6.648   3.179   4.156
  582WAT     H1 2265   6.570   3.227   4.185
  582WAT     H2 2266   6.618   3.089   4.144
  583WAT      O 2267   7.103   3.249   3.961
  583WAT     H1 2268   7.148   3.244   3.877
  583WAT     H2 2269   7.077   3.341   3.969
  584WAT      O 2270   5.721   4.827   3.658
  584WAT     H1 2271   5.704   4.763   3.728
  584WAT     H2 2272   5.634   4.847   3.623
  585WAT      O 2273   5.783   3.210   3.409
  585WAT     H1 2274   5.858   3.221   3.351
  585WAT     H2 2275   5.736   3.293   3.403
  586WAT      O 2276   6.436   3.421   3.708
  586WAT     H1 2277   6.356   3.383   3.672
  586WAT     H2 2278   6.488   3.346   3.737
  587WAT      O 2279   6.887   3.088   3.831
  587WAT     H1 2280   6.947   3.145   3.879
  587WAT     H2 2281   6.813   3.144   3.809
  588WAT      O 2282   7.202   3.128   3.359
  588WAT     H1 2283   7.220   3.218   3.385
  588WAT     H2 2284   7.123   3.105   3.408
  589WAT      O 2285   5.880   4.695   3.403
  589WAT     H1 2286   5.829   4.735   3.332
  589WAT     H2 2287   5.873   4.758   3.475
  590WAT      O 2288   6.020   3.262   3.263
  590WAT     H1 2289   6.073   3.183   3.249
  590WAT     H2 2290   6.083   3.330   3.285
  591WAT      O 2291   6.239   3.236   3.568
  591WAT     H1 2292   6.176   3.166   3.584
  591WAT     H2 2293   6.185   3.312   3.546
  592WAT      O 2294   6.533   4.898   4.835
  592WAT     H1 2295   6.626   4.874   4.839
  592WAT     H2 2296   6.532   4.980   4.787
  593WAT      O 2297   6.252   3.164   4.811
  593WAT     H1 2298   6.224   3.214   4.734
  593WAT     H2 2299   6.290   3.084   4.775
  594WAT      O 2300   6.142   4.892   3.290
  594WAT     H1 2301   6.214   4.862   3.235
  594WAT     H2 2302   6.167   4.867   3.379
  595WAT      O 2303   6.057   4.502   3.290
  595WAT     H1 2304   5.994   4.550   3.345
  595WAT     H2 2305   6.069   4.418   3.335
  596WAT      O 2306   6.912   3.106   4.869
  596WAT     H1 2307   6.901   3.137   4.959
  596WAT     H2 2308   6.994   3.146   4.840
  597WAT      O 2309   7.191   4.821   4.816
  597WAT     H1 2310   7.270   4.770   4.797
  597WAT     H2 2311   7.219   4.888   4.879
  598WAT      O 2312   6.803   3.907   1.905
  598WAT     H1 2313   6.795   3.816   1.878
  598WAT     H2 2314   6.761   3.957   1.835
  599WAT      O 2315   6.616   4.085   2.093
  599WAT     H1 2316   6.538   4.037   2.122
  599WAT     H2 2317   6.681   4.017   2.076
  600WAT      O 2318   6.017   4.117   2.181
  600WAT     H1 2319   5.934   4.090   2.221
  600WAT     H2 2320   6.078   4.124   2.254
  601WAT      O 2321   7.018   4.526   1.971
  601WAT     H1 2322   6.971   4.449   2.003
  601WAT     H2 2323   7.099   4.528   2.022
  602WAT      O 2324   6.016   4.520   2.201
  602WAT     H1 2325   6.046   4.431   2.183
  602WAT     H2 2326   6.090   4.576   2.178
  603WAT      O 2327   5.859   3.613   1.559
  603WAT     H1 2328   5.770   3.646   1.549
  603WAT     H2 2329   5.887   3.592   1.470
  604WAT      O 2330   5.653   3.871   2.147
  604WAT     H1 2331   5.713   3.796   2.148
  604WAT     H2 2332   5.656   3.903   2.057
  605WAT      O 2333   6.641   4.755   1.934
  605WAT     H1 2334   6.579   4.799   1.876
  605WAT     H2 2335   6.726   4.770   1.894
  606WAT      O 2336   6.559   4.353   2.094
  606WAT     H1 2337   6.554   4.258   2.078
  606WAT     H2 2338   6.635   4.363   2.151
  607WAT      O 2339   5.780   3.414   2.327
  607WAT     H1 2340   5.761   3.324   2.355
  607WAT     H2 2341   5.738   3.468   2.394
  608WAT      O 2342   6.662   3.633   2.117
  608WAT     H1 2343   6.702   3.547   2.107
  608WAT     H2 2344   6.654   3.666   2.027
  609WAT      O 2345   6.076   3.471   1.663
  609WAT     H1 2346   6.087   3.561   1.695
  609WAT     H2 2347   5.985   3.466   1.634
  610WAT      O 2348   7.041   3.383   1.810
  610WAT     H1 2349   7.123   3.334   1.814
  610WAT     H2 2350   7.045   3.442   1.886
  611WAT      O 2351   5.840   3.663   2.188
  611WAT     H1 2352   5.910   3.689   2.248
  611WAT     H2 2353   5.809   3.579   2.221
  612WAT      O 2354   6.261   3.768   2.095
  612WAT     H1 2355   6.312   3.818   2.160
  612WAT     H2 2356   6.313   3.690   2.079
  613WAT      O 2357   6.088   3.231   2.523
  613WAT     H1 2358   6.089   3.283   2.443
  613WAT     H2 2359   6.005   3.184   2.521
  614WAT      O 2360   6.727   4.243   1.673
  614WAT     H1 2361   6.665   4.289   1.616
  614WAT     H2 2362   6.777   4.312   1.715
  615WAT      O 2363   6.214   4.196   2.342
  615WAT     H1 2364   6.180   4.258   2.405
  615WAT     H2 2365   6.231   4.249   2.263
  616WAT      O 2366   7.064   3.577   2.086
  616WAT     H1 2367   6.995   3.605   2.145
  616WAT     H2 2368   7.101   3.658   2.052
  617WAT      O 2369   6.057   3.403   2.324
  617WAT     H1 2370   6.091   3.487   2.294
  617WAT     H2 2371   5.963   3.418   2.334
  618WAT      O 2372   6.136   4.392   2.522
  618WAT     H1 2373   6.196   4.461   2.494
  618WAT     H2 2374   6.049   4.432   2.513
  619WAT      O 2375   5.664   4.311   1.410
  619WAT     H1 2376   5.626   4.360   1.337
  619WAT     H2 2377   5.690   4.378   1.473
  620WAT      O 2378   6.425   3.152   1.955
  620WAT     H1 2379   6.456   3.096   1.884
  620WAT     H2 2380   6.332   3.165   1.938
  621WAT      O 2381   6.980   4.723   2.185
  621WAT     H1 2382   6.980   4.683   2.098
  621WAT     H2 2383   6.925   4.801   2.175
  622WAT      O 2384   7.109   4.395   1.694
  622WAT     H1 2385   7.098   4.301   1.707
  622WAT     H2 2386   7.108   4.432   1.782
  623WAT      O 2387   6.920   4.214   2.318
  623WAT     H1 2388   6.962   4.191   2.235
  623WAT     H2 2389   6.992   4.239   2.376
  624WAT      O 2390   6.664   3.958   1.631
  624WAT     H1 2391   6.571   3.951   1.652
  624WAT     H2 2392   6.679   4.052   1.618
  625WAT      O 2393   6.662   3.584   1.327
  625WAT     H1 2394   6.569   3.601   1.339
  625WAT     H2 2395   6.694   3.658   1.276
  626WAT      O 2396   7.066   4.114   1.680
  626WAT     H1 2397   7.005   4.080   1.615
  626WAT     H2 2398   7.066   4.050   1.751
  627WAT      O 2399   7.011   3.732   2.422
  627WAT     H1 2400   6.970   3.815   2.446
  627WAT     H2 2401   6.938   3.674   2.402
  628WAT      O 2402   6.224   4.010   1.908
  628WAT     H1 2403   6.184   3.939   1.858
  628WAT     H2 2404   6.233   3.976   1.997
  629WAT      O 2405   6.271   4.378   2.125
  629WAT     H1 2406   6.241   4.319   2.055
  629WAT     H2 2407   6.366   4.383   2.113
  630WAT      O 2408   6.096   3.686   2.286
  630WAT     H1 2409   6.150   3.700   2.208
  630WAT     H2 2410   6.147   3.726   2.357
  631WAT      O 2411   7.080   4.737   2.492
  631WAT     H1 2412   7.033   4.817   2.470
  631WAT     H2 2413   7.012   4.671   2.505
  632WAT      O 2414   6.181   4.353   2.789
  632WAT     H1 2415   6.091   4.376   2.814
  632WAT     H2 2416   6.182   4.365   2.694
  633WAT      O 2417   6.884   4.038   1.381
  633WAT     H1 2418   6.927   3.954   1.366
  633WAT     H2 2419   6.956   4.101   1.389
  634WAT      O 2420   6.063   4.041   2.647
  634WAT     H1 2421   6.048   4.128   2.683
  634WAT     H2 2422   5.976   4.006   2.632
  635WAT      O 2423   6.695   4.531   1.778
  635WAT     H1 2424   6.739   4.606   1.736
  635WAT     H2 2425   6.689   4.556   1.870
  636WAT      O 2426   6.243   4.635   2.868
  636WAT     H1 2427   6.240   4.675   2.781
  636WAT     H2 2428   6.226   4.542   2.852
  637WAT      O 2429   5.894   3.900   1.658
  637WAT     H1 2430   5.882   3.973   1.597
  637WAT     H2 2431   5.863   3.823   1.610
  638WAT      O 2432   5.658   4.217   2.239
  638WAT     H1 2433   5.666   4.231   2.144
  638WAT     H2 2434   5.719   4.146   2.258
  639WAT      O 2435   5.782   4.387   1.879
  639WAT     H1 2436   5.742   4.402   1.794
  639WAT     H2 2437   5.872   4.359   1.860
  640WAT      O 2438   6.765   4.802   2.571
  640WAT     H1 2439   6.816   4.793   2.652
  640WAT     H2 2440   6.680   4.837   2.600
  641WAT      O 2441   6.961   4.831   1.513
  641WAT     H1 2442   6.946   4.802   1.603
  641WAT     H2 2443   6.946   4.753   1.460
  642WAT      O 2444   6.209   4.809   1.691
  642WAT     H1 2445   6.192   4.717   1.670
  642WAT     H2 2446   6.124   4.845   1.715
  643WAT      O 2447   6.932   4.583   1.369
  643WAT     H1 2448   6.862   4.581   1.303
  643WAT     H2 2449   7.006   4.539   1.327
  644WAT      O 2450   6.888   4.744   1.777
  644WAT     H1 2451   6.935   4.666   1.808
  644WAT     H2 2452   6.923   4.815   1.831
  645WAT      O 2453   5.664   4.322   2.493
  645WAT     H1 2454   5.679   4.274   2.411
  645WAT     H2 2455   5.711   4.271   2.559
  646WAT      O 2456   6.141   3.235   1.996
  646WAT     H1 2457   6.097   3.313   1.963
  646WAT     H2 2458   6.197   3.267   2.067
  647WAT      O 2459   6.570   3.521   2.557
  647WAT     H1 2460   6.523   3.542   2.638
  647WAT     H2 2461   6.529   3.440   2.526
  648WAT      O 2462   7.070   3.644   2.670
  648WAT     H1 2463   6.985   3.613   2.702
  648WAT     H2 2464   7.054   3.668   2.579
  649WAT      O 2465   6.779   3.794   2.879
  649WAT     H1 2466   6.811   3.710   2.846
  649WAT     H2 2467   6.858   3.845   2.895
  650WAT      O 2468   6.451   3.197   1.484
  650WAT     H1 2469   6.390   3.196   1.557
  650WAT     H2 2470   6.444   3.110   1.446
  651WAT      O 2471   6.345   3.289   2.183
  651WAT     H1 2472   6.374   3.380   2.173
  651WAT     H2 2473   6.400   3.240   2.121
  652WAT      O 2474   6.120   3.747   1.769
  652WAT     H1 2475   6.097   3.725   1.859
  652WAT     H2 2476   6.042   3.790   1.734
  653WAT      O 2477   6.843   3.747   1.629
  653WAT     H1 2478   6.783   3.820   1.611
  653WAT     H2 2479   6.898   3.741   1.551
  654WAT      O 2480   6.364   3.837   2.836
  654WAT     H1 2481   6.354   3.743   2.821
  654WAT     H2 2482   6.448   3.859   2.796
  655WAT      O 2483   6.705   3.612   1.833
  655WAT     H1 2484   6.743   3.643   1.751
  655WAT     H2 2485   6.739   3.523   1.842
  656WAT      O 2486   5.877   3.478   2.651
  656WAT     H1 2487   5.838   3.563   2.672
  656WAT     H2 2488   5.808   3.414   2.670
  657WAT      O 2489   6.535   3.486   2.958
  657WAT     H1 2490   6.466   3.466   3.022
  657WAT     H2 2491   6.609   3.514   3.012
  658WAT      O 2492   5.607   3.270   2.054
  658WAT     H1 2493   5.578   3.327   2.126
  658WAT     H2 2494   5.681   3.222   2.091
  659WAT      O 2495   5.627   3.665   1.175
  659WAT     H1 2496   5.618   3.759   1.189
  659WAT     H2 2497   5.590   3.650   1.087
  660WAT      O 2498   6.762   3.870   2.241
  660WAT     H1 2499   6.689   3.921   2.276
  660WAT     H2 2500   6.722   3.788   2.211
  661WAT      O 2501   6.406   3.538   2.082
  661WAT     H1 2502   6.407   3.495   1.997
  661WAT     H2 2503   6.496   3.570   2.093
  662WAT      O 2504   5.991   3.526   1.978
  662WAT     H1 2505   5.957   3.574   2.054
  662WAT     H2 2506   5.915   3.481   1.942
  663WAT      O 2507   6.412   3.637   1.382
  663WAT     H1 2508   6.424   3.634   1.477
  663WAT     H2 2509   6.374   3.724   1.366
  664WAT      O 2510   6.808   3.415   2.183
  664WAT     H1 2511   6.810   3.461   2.267
  664WAT     H2 2512   6.783   3.325   2.204
  665WAT      O 2513   6.312   3.871   1.320
  665WAT     H1 2514   6.257   3.824   1.257
  665WAT     H2 2515   6.384   3.906   1.268
  666WAT      O 2516   7.151   3.157   2.767
  666WAT     H1 2517   7.184   3.083   2.819
  666WAT     H2 2518   7.155   3.126   2.676
  667WAT      O 2519   5.821   4.258   2.709
  667WAT     H1 2520   5.783   4.195   2.769
  667WAT     H2 2521   5.852   4.329   2.766
  668WAT      O 2522   6.436   3.944   2.257
  668WAT     H1 2523   6.472   3.896   2.331
  668WAT     H2 2524   6.417   4.031   2.292
  669WAT      O 2525   5.723   3.418   1.869
  669WAT     H1 2526   5.693   3.382   1.953
  669WAT     H2 2527   5.716   3.345   1.808
  670WAT      O 2528   6.215   3.848   2.488
  670WAT     H1 2529   6.185   3.935   2.511
  670WAT     H2 2530   6.311   3.854   2.492
  671WAT      O 2531   6.069   4.268   1.548
  671WAT     H1 2532   5.991   4.214   1.533
  671WAT     H2 2533   6.142   4.216   1.514
  672WAT      O 2534   7.143   4.169   2.127
  672WAT     H1 2535   7.216   4.217   2.088
  672WAT     H2 2536   7.124   4.100   2.063
  673WAT      O 2537   6.690   3.307   1.542
  673WAT     H1 2538   6.609   3.258   1.534
  673WAT     H2 2539   6.671   3.391   1.500
  674WAT      O 2540   6.682   4.175   2.717
  674WAT     H1 2541   6.675   4.084   2.690
  674WAT     H2 2542   6.618   4.185   2.788
  675WAT      O 2543   6.961   3.745   1.371
  675WAT     H1 2544   7.050   3.776   1.354
  675WAT     H2 2545   6.958   3.657   1.332
  676WAT      O 2546   6.072   4.236   1.913
  676WAT     H1 2547   6.124   4.155   1.906
  676WAT     H2 2548   6.027   4.228   1.997
  677WAT      O 2549   6.561   4.362   1.439
  677WAT     H1 2550   6.595   4.437   1.390
  677WAT     H2 2551   6.478   4.393   1.475
  678WAT      O 2552   5.820   3.933   2.603
  678WAT     H1 2553   5.784   3.998   2.663
  678WAT     H2 2554   5.792   3.849   2.639
  679WAT      O 2555   6.140   3.977   2.892
  679WAT     H1 2556   6.111   3.993   2.802
  679WAT     H2 2557   6.219   3.923   2.883
  680WAT      O 2558   6.675   4.457   2.691
  680WAT     H1 2559   6.676   4.364   2.670
  680WAT     H2 2560   6.604   4.466   2.755
  681WAT      O 2561   7.188   3.876   1.318
  681WAT     H1 2562   7.180   3.919   1.233
  681WAT     H2 2563   7.260   3.922   1.361
  682WAT      O 2564   6.849   4.294   1.976
  682WAT     H1 2565   6.884   4.234   1.910
  682WAT     H2 2566   6.761   4.261   1.993
  683WAT      O 2567   6.458   4.370   1.717
  683WAT     H1 2568   6.527   4.425   1.753
  683WAT     H2 2569   6.379   4.424   1.720
  684WAT      O 2570   5.671   3.932   1.266
  684WAT     H1 2571   5.759   3.959   1.294
  684WAT     H2 2572   5.623   4.014   1.254
  685WAT      O 2573   6.390   4.069   1.679
  685WAT     H1 2574   6.434   4.152   1.700
  685WAT     H2 2575   6.352   4.040   1.762
  686WAT      O 2576   6.618   4.621   2.400
  686WAT     H1 2577   6.682   4.642   2.468
  686WAT     H2 2578   6.655   4.545   2.356
  687WAT      O 2579   5.979   3.106   1.725
  687WAT     H1 2580   5.964   3.103   1.820
  687WAT     H2 2581   5.896   3.138   1.689
  688WAT      O 2582   6.746   4.422   2.272
  688WAT     H1 2583   6.810   4.352   2.284
  688WAT     H2 2584   6.799   4.500   2.254
  689WAT      O 2585   7.129   4.451   1.244
  689WAT     H1 2586   7.109   4.379   1.304
  689WAT     H2 2587   7.092   4.424   1.160
  690WAT      O 2588   6.923   4.502   2.593
  690WAT     H1 2589   6.957   4.560   2.661
  690WAT     H2 2590   6.831   4.489   2.616
  691WAT      O 2591   5.708   4.853   1.322
  691WAT     H1 2592   5.744   4.914   1.257
  691WAT     H2 2593   5.694   4.908   1.400
  692WAT      O 2594   7.088   4.241   1.412
  692WAT     H1 2595   7.060   4.289   1.490
  692WAT     H2 2596   7.168   4.196   1.438
  693WAT      O 2597   5.708   4.680   2.769
  693WAT     H1 2598   5.718   4.585   2.756
  693WAT     H2 2599   5.641   4.706   2.705
  694WAT      O 2600   6.506   4.506   2.910
  694WAT     H1 2601   6.474   4.435   2.964
  694WAT     H2 2602   6.439   4.574   2.916
  695WAT      O 2603   6.310   4.592   1.404
  695WAT     H1 2604   6.310   4.665   1.342
  695WAT     H2 2605   6.218   4.566   1.413
  696WAT      O 2606   5.870   4.113   1.478
  696WAT     H1 2607   5.809   4.187   1.478
  696WAT     H2 2608   5.918   4.121   1.396
  697WAT      O 2609   6.827   3.530   2.445
  697WAT     H1 2610   6.865   3.448   2.479
  697WAT     H2 2611   6.742   3.536   2.487
  698WAT      O 2612   7.164   3.426   1.527
  698WAT     H1 2613   7.101   3.436   1.455
  698WAT     H2 2614   7.114   3.446   1.606
  699WAT      O 2615   6.609   4.597   1.270
  699WAT     H1 2616   6.619   4.577   1.177
  699WAT     H2 2617   6.519   4.572   1.291
  700WAT      O 2618   6.361   3.653   1.668
  700WAT     H1 2619   6.290   3.700   1.712
  700WAT     H2 2620   6.390   3.588   1.732
  701WAT      O 2621   6.523   3.795   2.468
  701WAT     H1 2622   6.573   3.843   2.535
  701WAT     H2 2623   6.538   3.703   2.489
  702WAT      O 2624   6.764   3.326   1.812
  702WAT     H1 2625   6.751   3.327   1.717
  702WAT     H2 2626   6.859   3.331   1.823
  703WAT      O 2627   6.473   4.850   1.740
  703WAT     H1 2628   6.498   4.846   1.648
  703WAT     H2 2629   6.378   4.837   1.739
  704WAT      O 2630   6.181   3.485   1.406
  704WAT     H1 2631   6.266   3.527   1.399
  704WAT     H2 2632   6.146   3.514   1.490
  705WAT      O 2633   7.073   3.942   1.898
  705WAT     H1 2634   6.979   3.942   1.915
  705WAT     H2 2635   7.105   3.863   1.942
  706WAT      O 2636   6.070   4.109   1.254
  706WAT     H1 2637   6.148   4.099   1.310
  706WAT     H2 2638   6.080   4.041   1.187
  707WAT      O 2639   5.941   3.853   1.323
  707WAT     H1 2640   5.949   3.758   1.333
  707WAT     H2 2641   6.031   3.886   1.332
  708WAT      O 2642   6.021   4.868   2.033
  708WAT     H1 2643   6.095   4.813   2.059
  708WAT     H2 2644   6.060   4.954   2.018
  709WAT      O 2645   5.709   4.474   1.619
  709WAT     H1 2646   5.616   4.500   1.618
  709WAT     H2 2647   5.756   4.557   1.607
  710WAT      O 2648   5.922   4.786   2.951
  710WAT     H1 2649   6.002   4.818   2.992
  710WAT     H2 2650   5.870   4.750   3.023
  711WAT      O 2651   6.331   4.785   1.214
  711WAT     H1 2652   6.411   4.815   1.170
  711WAT     H2 2653   6.280   4.742   1.145
  712WAT      O 2654   6.806   4.397   2.946
  712WAT     H1 2655   6.745   4.399   2.871
  712WAT     H2 2656   6.775   4.324   3.000
  713WAT      O 2657   6.948   4.771   2.806
  713WAT     H1 2658   7.043   4.761   2.803
  713WAT     H2 2659   6.932   4.835   2.874
  714WAT      O 2660   7.239   4.708   1.357
  714WAT     H1 2661   7.208   4.666   1.276
  714WAT     H2 2662   7.216   4.801   1.345
  715WAT      O 2663   5.694   4.036   2.845
  715WAT     H1 2664   5.744   3.977   2.902
  715WAT     H2 2665   5.619   4.063   2.899
  716WAT      O 2666   6.384   4.307   1.200
  716WAT     H1 2667   6.373   4.246   1.273
  716WAT     H2 2668   6.367   4.254   1.122
  717WAT      O 2669   6.400   4.177   2.798
  717WAT     H1 2670   6.322   4.232   2.790
  717WAT     H2 2671   6.416   4.146   2.709
  718WAT      O 2672   6.708   4.213   1.261
  718WAT     H1 2673   6.653   4.258   1.325
  718WAT     H2 2674   6.770   4.162   1.313
  719WAT      O 2675   7.113   4.349   2.855
  719WAT     H1 2676   7.187   4.382   2.804
  719WAT     H2 2677   7.037   4.366   2.799
  720WAT      O 2678   5.897   3.849   2.935
  720WAT     H1 2679   5.901   3.820   3.026
  720WAT     H2 2680   5.982   3.889   2.918
  721WAT      O 2681   6.273   4.108   1.450
  721WAT     H1 2682   6.317   4.094   1.534
  721WAT     H2 2683   6.288   4.027   1.401
  722WAT      O 2684   6.092   3.706   2.731
  722WAT     H1 2685   6.038   3.659   2.669
  722WAT     H2 2686   6.158   3.750   2.678
  723WAT      O 2687   6.526   4.011   1.176
  723WAT     H1 2688   6.578   3.940   1.139
  723WAT     H2 2689   6.590   4.076   1.205
  724WAT      O 2690   6.980   4.152   2.708
  724WAT     H1 2691   7.022   4.170   2.793
  724WAT     H2 2692   6.887   4.167   2.724
  725WAT      O 2693   7.029   3.888   2.908
  725WAT     H1 2694   7.086   3.812   2.898
  725WAT     H2 2695   7.045   3.941   2.830
  726WAT      O 2696   6.140   3.404   2.739
  726WAT     H1 2697   6.130   3.342   2.667
  726WAT     H2 2698   6.080   3.476   2.717
  727WAT      O 2699   6.416   3.260   2.443
  727WAT     H1 2700   6.371   3.262   2.358
  727WAT     H2 2701   6.353   3.220   2.502
  728WAT      O 2702   6.456   4.149   2.505
  728WAT     H1 2703   6.499   4.233   2.488
  728WAT     H2 2704   6.365   4.163   2.481
  729WAT      O 2705   6.690   3.921   2.643
  729WAT     H1 2706   6.703   3.863   2.718
  729WAT     H2 2707   6.776   3.926   2.601
  730WAT      O 2708   6.923   3.978   2.502
  730WAT     H1 2709   6.873   4.030   2.440
  730WAT     H2 2710   6.959   4.041   2.563
  731WAT      O 2711   6.164   3.716   1.145
  731WAT     H1 2712   6.144   3.630   1.181
  731WAT     H2 2713   6.147   3.708   1.051
  732WAT      O 2714   6.243   4.781   2.616
  732WAT     H1 2715   6.187   4.852   2.584
  732WAT     H2 2716   6.267   4.731   2.538
  733WAT      O 2717   6.367   3.576   2.769
  733WAT     H1 2718   6.426   3.545   2.838
  733WAT     H2 2719   6.286   3.528   2.784
  734WAT      O 2720   6.849   3.538   2.793
  734WAT     H1 2721   6.780   3.472   2.786
  734WAT     H2 2722   6.921   3.493   2.837
  735WAT      O 2723   6.912   3.197   1.398
  735WAT     H1 2724   6.940   3.113   1.434
  735WAT     H2 2725   6.835   3.222   1.450
  736WAT      O 2726   6.045   3.428   1.143
  736WAT     H1 2727   6.075   3.426   1.053
  736WAT     H2 2728   6.118   3.392   1.194
  737WAT      O 2729   6.527   4.903   2.642
  737WAT     H1 2730   6.520   4.993   2.673
  737WAT     H2 2731   6.437   4.871   2.639
  738WAT      O 2732   6.367   3.321   1.242
  738WAT     H1 2733   6.331   3.253   1.185
  738WAT     H2 2734   6.386   3.276   1.324
  739WAT      O 2735   6.582   4.821   1.404
  739WAT     H1 2736   6.672   4.854   1.407
  739WAT     H2 2737   6.585   4.747   1.343
  740WAT      O 2738   5.946   4.357   1.226
  740WAT     H1 2739   5.989   4.411   1.292
  740WAT     H2 2740   5.995   4.274   1.228
  741WAT      O 2741   5.668   4.635   1.973
  741WAT     H1 2742   5.701   4.549   1.949
  741WAT     H2 2743   5.711   4.656   2.056
  742WAT      O 2744   6.128   4.469   1.739
  742WAT     H1 2745   6.097   4.456   1.829
  742WAT     H2 2746   6.117   4.384   1.698
  743WAT      O 2747   5.716   4.723   2.246
  743WAT     H1 2748   5.673   4.741   2.330
  743WAT     H2 2749   5.773   4.799   2.232
  744WAT      O 2750   5.700   3.974   1.882
  744WAT     H1 2751   5.634   3.947   1.817
  744WAT     H2 2752   5.784   3.963   1.837
  745WAT      O 2753   7.148   4.345   2.485
  745WAT     H1 2754   7.067   4.388   2.512
  745WAT     H2 2755   7.189   4.406   2.424
  746WAT      O 2756   6.996   3.453   1.304
  746WAT     H1 2757   7.037   3.434   1.220
  746WAT     H2 2758   6.964   3.368   1.335
  747WAT      O 2759   5.805   4.013   2.336
  747WAT     H1 2760   5.840   4.003   2.425
  747WAT     H2 2761   5.747   3.937   2.325
  748WAT      O 2762   5.758   3.703   2.727
  748WAT     H1 2763   5.669   3.700   2.761
  748WAT     H2 2764   5.813   3.724   2.803
  749WAT      O 2765   7.127   3.381   2.916
  749WAT     H1 2766   7.215   3.383   2.954
  749WAT     H2 2767   7.129   3.309   2.854
  750WAT      O 2768   5.621   3.695   1.476
  750WAT     H1 2769   5.531   3.721   1.459
  750WAT     H2 2770   5.669   3.722   1.398
  751WAT      O 2771   5.876   3.601   1.267
  751WAT     H1 2772   5.945   3.556   1.219
  751WAT     H2 2773   5.803   3.607   1.205
  752WAT      O 2774   5.839   3.206   1.171
  752WAT     H1 2775   5.912   3.260   1.203
  752WAT     H2 2776   5.867   3.178   1.084
  753WAT      O 2777   7.221   3.693   1.599
  753WAT     H1 2778   7.271   3.669   1.677
  753WAT     H2 2779   7.201   3.609   1.557
  754WAT      O 2780   5.809   3.131   2.162
  754WAT     H1 2781   5.874   3.076   2.118
  754WAT     H2 2782   5.851   3.156   2.244
  755WAT      O 2783   7.198   3.151   2.498
  755WAT     H1 2784   7.263   3.212   2.533
  755WAT     H2 2785   7.213   3.153   2.403
  756WAT      O 2786   7.155   4.820   1.838
  756WAT     H1 2787   7.214   4.788   1.770
  756WAT     H2 2788   7.180   4.773   1.917
  757WAT      O 2789   5.784   3.147   2.436
  757WAT     H1 2790   5.750   3.192   2.514
  757WAT     H2 2791   5.752   3.057   2.444
  758WAT      O 2792   5.945   4.464   2.853
  758WAT     H1 2793   5.941   4.427   2.941
  758WAT     H2 2794   5.958   4.558   2.867
  759WAT      O 2795   6.315   4.619   2.413
  759WAT     H1 2796   6.291   4.645   2.324
  759WAT     H2 2797   6.409   4.635   2.418
  760WAT      O 2798   6.536   3.265   2.789
  760WAT     H1 2799   6.530   3.326   2.862
  760WAT     H2 2800   6.630   3.255   2.774
  761WAT      O 2801   6.800   3.232   2.752
  761WAT     H1 2802   6.861   3.263   2.686
  761WAT     H2 2803   6.854   3.183   2.814
  762WAT      O 2804   5.928   4.758   2.564
  762WAT     H1 2805   5.870   4.745   2.639
  762WAT     H2 2806   5.928   4.675   2.518
  763WAT      O 2807   6.875   3.089   2.386
  763WAT     H1 2808   6.787   3.121   2.363
  763WAT     H2 2809   6.861   3.039   2.466
  764WAT      O 2810   6.964   3.308   2.524
  764WAT     H1 2811   6.931   3.227   2.484
  764WAT     H2 2812   7.058   3.304   2.511
  765WAT      O 2813   7.210   4.886   2.220
  765WAT     H1 2814   7.164   4.961   2.183
  765WAT     H2 2815   7.147   4.814   2.216
  766WAT      O 2816   5.892   4.496   2.460
  766WAT     H1 2817   5.819   4.434   2.454
  766WAT     H2 2818   5.898   4.533   2.372
  767WAT      O 2819   6.253   4.716   2.139
  767WAT     H1 2820   6.304   4.655   2.086
  767WAT     H2 2821   6.318   4.768   2.186
  768WAT      O 2822   6.527   4.805   2.221
  768WAT     H1 2823   6.556   4.780   2.133
  768WAT     H2 2824   6.578   4.750   2.280
  769WAT      O 2825   6.648   3.179   2.279
  769WAT     H1 2826   6.570   3.227   2.308
  769WAT     H2 2827   6.618   3.089   2.267
  770WAT      O 2828   7.102   3.249   2.083
  770WAT     H1 2829   7.148   3.244   1.999
  770WAT     H2 2830   7.077   3.341   2.091
  771WAT      O 2831   5.721   4.827   1.781
  771WAT     H1 2832   5.704   4.763   1.850
  771WAT     H2 2833   5.634   4.847   1.745
  772WAT      O 2834   5.783   3.210   1.531
  772WAT     H1 2835   5.858   3.221   1.473
  772WAT     H2 2836   5.736   3.293   1.525
  773WAT      O 2837   6.436   3.421   1.831
  773WAT     H1 2838   6.356   3.383   1.795
  773WAT     H2 2839   6.488   3.346   1.860
  774WAT      O 2840   6.887   3.088   1.954
  774WAT     H1 2841   6.947   3.145   2.001
  774WAT     H2 2842   6.813   3.144   1.931
  775WAT      O 2843   7.202   3.128   1.481
  775WAT     H1 2844   7.220   3.218   1.508
  775WAT     H2 2845   7.123   3.105   1.530
  776WAT      O 2846   5.880   4.695   1.526
  776WAT     H1 2847   5.829   4.734   1.454
  776WAT     H2 2848   5.873   4.758   1.597
  777WAT      O 2849   6.020   3.262   1.385
  777WAT     H1 2850   6.073   3.183   1.373
  777WAT     H2 2851   6.083   3.330   1.408
  778WAT      O 2852   6.239   3.236   1.690
  778WAT     H1 2853   6.176   3.166   1.707
  778WAT     H2 2854   6.185   3.312   1.669
  779WAT      O 2855   6.533   4.898   2.957
  779WAT     H1 2856   6.626   4.874   2.962
  779WAT     H2 2857   6.532   4.980   2.909
  780WAT      O 2858   6.252   3.164   2.934
  780WAT     H1 2859   6.224   3.214   2.857
  780WAT     H2 2860   6.290   3.084   2.897
  781WAT      O 2861   6.142   4.892   1.412
  781WAT     H1 2862   6.214   4.862   1.358
  781WAT     H2 2863   6.167   4.867   1.501
  782WAT      O 2864   6.057   4.502   1.413
  782WAT     H1 2865   5.994   4.550   1.468
  782WAT     H2 2866   6.069   4.418   1.457
  783WAT      O 2867   6.912   3.106   2.991
  783WAT     H1 2868   6.901   3.137   3.081
  783WAT     H2 2869   6.994   3.146   2.962
  784WAT      O 2870   7.191   4.821   2.939
  784WAT     H1 2871   7.269   4.771   2.920
  784WAT     H2 2872   7.219   4.887   3.002
  785WAT      O 2873   6.615   4.085   0.215
  785WAT     H1 2874   6.538   4.037   0.245
  785WAT     H2 2875   6.681   4.017   0.199
  786WAT      O 2876   6.016   4.117   0.304
  786WAT     H1 2877   5.934   4.090   0.344
  786WAT     H2 2878   6.078   4.124   0.376
  787WAT      O 2879   6.015   4.520   0.324
  787WAT     H1 2880   6.046   4.431   0.306
  787WAT     H2 2881   6.090   4.576   0.301
  788WAT      O 2882   5.654   3.871   0.271
  788WAT     H1 2883   5.713   3.796   0.271
  788WAT     H2 2884   5.655   3.902   0.180
  789WAT      O 2885   6.559   4.353   0.217
  789WAT     H1 2886   6.554   4.259   0.201
  789WAT     H2 2887   6.635   4.363   0.274
  790WAT      O 2888   5.780   3.414   0.450
  790WAT     H1 2889   5.761   3.324   0.477
  790WAT     H2 2890   5.738   3.468   0.517
  791WAT      O 2891   5.839   3.664   0.311
  791WAT     H1 2892   5.910   3.689   0.371
  791WAT     H2 2893   5.809   3.579   0.344
  792WAT      O 2894   6.260   3.767   0.219
  792WAT     H1 2895   6.312   3.818   0.282
  792WAT     H2 2896   6.314   3.690   0.201
  793WAT      O 2897   6.088   3.231   0.646
  793WAT     H1 2898   6.089   3.283   0.566
  793WAT     H2 2899   6.005   3.184   0.643
  794WAT      O 2900   6.215   4.196   0.464
  794WAT     H1 2901   6.179   4.258   0.527
  794WAT     H2 2902   6.231   4.248   0.385
  795WAT      O 2903   7.065   3.577   0.210
  795WAT     H1 2904   6.994   3.605   0.268
  795WAT     H2 2905   7.101   3.658   0.174
  796WAT      O 2906   6.057   3.403   0.446
  796WAT     H1 2907   6.091   3.488   0.417
  796WAT     H2 2908   5.963   3.418   0.457
  797WAT      O 2909   6.136   4.393   0.645
  797WAT     H1 2910   6.196   4.461   0.617
  797WAT     H2 2911   6.049   4.432   0.636
  798WAT      O 2912   6.980   4.723   0.308
  798WAT     H1 2913   6.981   4.683   0.221
  798WAT     H2 2914   6.925   4.801   0.297
  799WAT      O 2915   6.920   4.214   0.440
  799WAT     H1 2916   6.962   4.191   0.358
  799WAT     H2 2917   6.992   4.238   0.498
  800WAT      O 2918   7.011   3.732   0.544
  800WAT     H1 2919   6.970   3.815   0.569
  800WAT     H2 2920   6.938   3.674   0.525
  801WAT      O 2921   6.271   4.378   0.248
  801WAT     H1 2922   6.241   4.319   0.179
  801WAT     H2 2923   6.366   4.383   0.236
  802WAT      O 2924   6.096   3.686   0.409
  802WAT     H1 2925   6.150   3.700   0.331
  802WAT     H2 2926   6.146   3.726   0.480
  803WAT      O 2927   7.080   4.737   0.614
  803WAT     H1 2928   7.032   4.817   0.593
  803WAT     H2 2929   7.012   4.671   0.627
  804WAT      O 2930   6.181   4.353   0.912
  804WAT     H1 2931   6.091   4.376   0.937
  804WAT     H2 2932   6.182   4.365   0.817
  805WAT      O 2933   6.063   4.041   0.770
  805WAT     H1 2934   6.049   4.128   0.805
  805WAT     H2 2935   5.976   4.006   0.755
  806WAT      O 2936   6.243   4.634   0.990
  806WAT     H1 2937   6.240   4.675   0.904
  806WAT     H2 2938   6.226   4.542   0.974
  807WAT      O 2939   5.658   4.216   0.361
  807WAT     H1 2940   5.667   4.231   0.267
  807WAT     H2 2941   5.719   4.146   0.381
  808WAT      O 2942   6.765   4.802   0.693
  808WAT     H1 2943   6.816   4.793   0.774
  808WAT     H2 2944   6.680   4.837   0.722
  809WAT      O 2945   5.663   4.322   0.615
  809WAT     H1 2946   5.679   4.274   0.533
  809WAT     H2 2947   5.711   4.271   0.682
  810WAT      O 2948   6.569   3.521   0.679
  810WAT     H1 2949   6.523   3.542   0.760
  810WAT     H2 2950   6.529   3.440   0.649
  811WAT      O 2951   7.070   3.643   0.792
  811WAT     H1 2952   6.985   3.613   0.824
  811WAT     H2 2953   7.055   3.668   0.701
  812WAT      O 2954   6.779   3.794   1.001
  812WAT     H1 2955   6.812   3.710   0.969
  812WAT     H2 2956   6.858   3.845   1.018
  813WAT      O 2957   6.346   3.289   0.306
  813WAT     H1 2958   6.374   3.380   0.296
  813WAT     H2 2959   6.400   3.241   0.243
  814WAT      O 2960   6.364   3.837   0.958
  814WAT     H1 2961   6.354   3.743   0.943
  814WAT     H2 2962   6.448   3.859   0.919
  815WAT      O 2963   5.878   3.478   0.774
  815WAT     H1 2964   5.837   3.563   0.794
  815WAT     H2 2965   5.808   3.414   0.792
  816WAT      O 2966   6.535   3.486   1.081
  816WAT     H1 2967   6.466   3.466   1.144
  816WAT     H2 2968   6.609   3.514   1.134
  817WAT      O 2969   5.607   3.269   0.177
  817WAT     H1 2970   5.578   3.328   0.247
  817WAT     H2 2971   5.682   3.222   0.213
  818WAT      O 2972   6.762   3.870   0.363
  818WAT     H1 2973   6.689   3.921   0.399
  818WAT     H2 2974   6.722   3.788   0.334
  819WAT      O 2975   6.807   3.416   0.305
  819WAT     H1 2976   6.810   3.461   0.390
  819WAT     H2 2977   6.784   3.326   0.327
  820WAT      O 2978   7.151   3.157   0.889
  820WAT     H1 2979   7.184   3.084   0.942
  820WAT     H2 2980   7.155   3.126   0.799
  821WAT      O 2981   5.821   4.258   0.831
  821WAT     H1 2982   5.783   4.195   0.892
  821WAT     H2 2983   5.852   4.329   0.887
  822WAT      O 2984   6.437   3.944   0.379
  822WAT     H1 2985   6.472   3.896   0.454
  822WAT     H2 2986   6.416   4.031   0.413
  823WAT      O 2987   6.216   3.848   0.611
  823WAT     H1 2988   6.185   3.935   0.634
  823WAT     H2 2989   6.311   3.854   0.615
  824WAT      O 2990   7.143   4.169   0.250
  824WAT     H1 2991   7.216   4.218   0.211
  824WAT     H2 2992   7.124   4.100   0.186
  825WAT      O 2993   6.683   4.175   0.840
  825WAT     H1 2994   6.675   4.084   0.812
  825WAT     H2 2995   6.618   4.185   0.910
  826WAT      O 2996   5.821   3.933   0.726
  826WAT     H1 2997   5.784   3.998   0.786
  826WAT     H2 2998   5.792   3.849   0.762
  827WAT      O 2999   6.140   3.977   1.014
  827WAT     H1 3000   6.112   3.992   0.924
  827WAT     H2 3001   6.218   3.923   1.006
  828WAT      O 3002   6.675   4.457   0.814
  828WAT     H1 3003   6.676   4.364   0.793
  828WAT     H2 3004   6.604   4.466   0.878
  829WAT      O 3005   6.618   4.621   0.523
  829WAT     H1 3006   6.682   4.642   0.591
  829WAT     H2 3007   6.655   4.544   0.479
  830WAT      O 3008   6.746   4.422   0.395
  830WAT     H1 3009   6.810   4.352   0.407
  830WAT     H2 3010   6.799   4.500   0.377
  831WAT      O 3011   6.923   4.502   0.715
  831WAT     H1 3012   6.957   4.560   0.783
  831WAT     H2 3013   6.831   4.489   0.738
  832WAT      O 3014   5.678   3.280   0.793
  832WAT     H1 3015   5.607   3.301   0.854
  832WAT     H2 3016   5.720   3.204   0.831
  833WAT      O 3017   5.708   4.680   0.891
  833WAT     H1 3018   5.718   4.585   0.878
  833WAT     H2 3019   5.641   4.706   0.827
  834WAT      O 3020   6.506   4.506   1.032
  834WAT     H1 3021   6.474   4.435   1.087
  834WAT     H2 3022   6.439   4.574   1.038
  835WAT      O 3023   6.827   3.530   0.568
  835WAT     H1 3024   6.865   3.448   0.601
  835WAT     H2 3025   6.742   3.536   0.610
  836WAT      O 3026   6.523   3.795   0.591
  836WAT     H1 3027   6.573   3.843   0.657
  836WAT     H2 3028   6.538   3.703   0.612
  837WAT      O 3029   5.922   4.786   1.074
  837WAT     H1 3030   6.002   4.818   1.115
  837WAT     H2 3031   5.870   4.750   1.146
  838WAT      O 3032   6.806   4.397   1.068
  838WAT     H1 3033   6.745   4.399   0.994
  838WAT     H2 3034   6.775   4.324   1.122
  839WAT      O 3035   6.948   4.771   0.928
  839WAT     H1 3036   7.043   4.761   0.925
  839WAT     H2 3037   6.933   4.835   0.997
  840WAT      O 3038   5.694   4.036   0.968
  840WAT     H1 3039   5.744   3.977   1.025
  840WAT     H2 3040   5.619   4.063   1.021
  841WAT      O 3041   6.400   4.177   0.921
  841WAT     H1 3042   6.322   4.232   0.913
  841WAT     H2 3043   6.416   4.146   0.832
  842WAT      O 3044   7.113   4.349   0.977
  842WAT     H1 3045   7.187   4.382   0.926
  842WAT     H2 3046   7.037   4.366   0.922
  843WAT      O 3047   5.897   3.849   1.057
  843WAT     H1 3048   5.901   3.820   1.148
  843WAT     H2 3049   5.982   3.889   1.040
  844WAT      O 3050   6.092   3.706   0.854
  844WAT     H1 3051   6.038   3.659   0.791
  844WAT     H2 3052   6.158   3.750   0.801
  845WAT      O 3053   6.980   4.152   0.830
  845WAT     H1 3054   7.022   4.170   0.915
  845WAT     H2 3055   6.887   4.167   0.847
  846WAT      O 3056   7.029   3.888   1.031
  846WAT     H1 3057   7.086   3.812   1.021
  846WAT     H2 3058   7.045   3.941   0.953
  847WAT      O 3059   6.139   3.404   0.862
  847WAT     H1 3060   6.130   3.342   0.789
  847WAT     H2 3061   6.080   3.476   0.839
  848WAT      O 3062   6.416   3.260   0.565
  848WAT     H1 3063   6.371   3.262   0.481
  848WAT     H2 3064   6.353   3.220   0.625
  849WAT      O 3065   6.456   4.149   0.627
  849WAT     H1 3066   6.499   4.233   0.610
  849WAT     H2 3067   6.365   4.163   0.603
  850WAT      O 3068   6.690   3.921   0.766
  850WAT     H1 3069   6.703   3.863   0.841
  850WAT     H2 3070   6.776   3.926   0.724
  851WAT      O 3071   6.923   3.978   0.624
  851WAT     H1 3072   6.873   4.030   0.562
  851WAT     H2 3073   6.960   4.041   0.686
  852WAT      O 3074   6.243   4.781   0.739
  852WAT     H1 3075   6.187   4.852   0.707
  852WAT     H2 3076   6.266   4.731   0.661
  853WAT      O 3077   6.367   3.576   0.891
  853WAT     H1 3078   6.426   3.545   0.960
  853WAT     H2 3079   6.286   3.529   0.906
  854WAT      O 3080   6.849   3.538   0.915
  854WAT     H1 3081   6.780   3.472   0.908
  854WAT     H2 3082   6.921   3.493   0.959
  855WAT      O 3083   6.527   4.903   0.765
  855WAT     H1 3084   6.520   4.993   0.795
  855WAT     H2 3085   6.437   4.871   0.762
  856WAT      O 3086   5.717   4.722   0.370
  856WAT     H1 3087   5.673   4.741   0.452
  856WAT     H2 3088   5.773   4.799   0.354
  857WAT      O 3089   7.148   4.345   0.607
  857WAT     H1 3090   7.067   4.388   0.634
  857WAT     H2 3091   7.189   4.406   0.546
  858WAT      O 3092   5.804   4.013   0.459
  858WAT     H1 3093   5.840   4.003   0.548
  858WAT     H2 3094   5.747   3.937   0.448
  859WAT      O 3095   5.759   3.703   0.850
  859WAT     H1 3096   5.669   3.700   0.883
  859WAT     H2 3097   5.812   3.724   0.926
  860WAT      O 3098   7.127   3.381   1.039
  860WAT     H1 3099   7.215   3.384   1.076
  860WAT     H2 3100   7.129   3.309   0.977
  861WAT      O 3101   5.809   3.130   0.284
  861WAT     H1 3102   5.875   3.076   0.240
  861WAT     H2 3103   5.851   3.156   0.366
  862WAT      O 3104   7.198   3.151   0.620
  862WAT     H1 3105   7.263   3.212   0.656
  862WAT     H2 3106   7.214   3.153   0.526
  863WAT      O 3107   5.785   3.146   0.560
  863WAT     H1 3108   5.749   3.192   0.636
  863WAT     H2 3109   5.751   3.057   0.567
  864WAT      O 3110   5.945   4.464   0.975
  864WAT     H1 3111   5.941   4.427   1.064
  864WAT     H2 3112   5.958   4.558   0.989
  865WAT      O 3113   6.315   4.619   0.535
  865WAT     H1 3114   6.291   4.645   0.446
  865WAT     H2 3115   6.409   4.635   0.540
  866WAT      O 3116   6.536   3.265   0.912
  866WAT     H1 3117   6.530   3.326   0.985
  866WAT     H2 3118   6.630   3.255   0.896
  867WAT      O 3119   6.800   3.232   0.875
  867WAT     H1 3120   6.861   3.263   0.808
  867WAT     H2 3121   6.854   3.183   0.937
  868WAT      O 3122   5.852   3.099   0.886
  868WAT     H1 3123   5.906   3.080   0.810
  868WAT     H2 3124   5.858   3.020   0.940
  869WAT      O 3125   5.929   4.758   0.687
  869WAT     H1 3126   5.870   4.745   0.761
  869WAT     H2 3127   5.928   4.675   0.640
  870WAT      O 3128   6.874   3.089   0.508
  870WAT     H1 3129   6.787   3.121   0.486
  870WAT     H2 3130   6.862   3.039   0.589
  871WAT      O 3131   6.964   3.308   0.647
  871WAT     H1 3132   6.931   3.227   0.607
  871WAT     H2 3133   7.058   3.304   0.633
  872WAT      O 3134   7.210   4.885   0.343
  872WAT     H1 3135   7.164   4.961   0.306
  872WAT     H2 3136   7.147   4.813   0.338
  873WAT      O 3137   5.892   4.496   0.582
  873WAT     H1 3138   5.819   4.434   0.576
  873WAT     H2 3139   5.898   4.533   0.494
  874WAT      O 3140   6.253   4.715   0.263
  874WAT     H1 3141   6.304   4.655   0.208
  874WAT     H2 3142   6.318   4.767   0.309
  875WAT      O 3143   6.527   4.806   0.343
  875WAT     H1 3144   6.555   4.780   0.256
  875WAT     H2 3145   6.577   4.750   0.402
  876WAT      O 3146   6.648   3.179   0.401
  876WAT     H1 3147   6.570   3.227   0.430
  876WAT     H2 3148   6.618   3.089   0.390
  877WAT      O 3149   6.533   4.898   1.080
  877WAT     H1 3150   6.626   4.874   1.084
  877WAT     H2 3151   6.532   4.980   1.032
  878WAT      O 3152   6.252   3.164   1.056
  878WAT     H1 3153   6.224   3.214   0.979
  878WAT     H2 3154   6.290   3.084   1.020
  879WAT      O 3155   6.912   3.106   1.114
  879WAT     H1 3156   6.901   3.136   1.204
  879WAT     H2 3157   6.994   3.146   1.085
  880WAT      O 3158   7.191   4.821   1.061
  880WAT     H1 3159   7.270   4.770   1.042
  880WAT     H2 3160   7.219   4.888   1.124
  881WAT      O 3161   6.803   2.030   5.660
  881WAT     H1 3162   6.794   1.939   5.633
  881WAT     H2 3163   6.761   2.080   5.590
  882WAT      O 3164   7.019   2.648   5.725
  882WAT     H1 3165   6.971   2.571   5.758
  882WAT     H2 3166   7.099   2.651   5.778
  883WAT      O 3167   5.859   1.735   5.314
  883WAT     H1 3168   5.770   1.768   5.304
  883WAT     H2 3169   5.887   1.715   5.225
  884WAT      O 3170   6.640   2.877   5.688
  884WAT     H1 3171   6.579   2.922   5.631
  884WAT     H2 3172   6.726   2.892   5.648
  885WAT      O 3173   6.076   1.593   5.418
  885WAT     H1 3174   6.087   1.683   5.449
  885WAT     H2 3175   5.985   1.589   5.389
  886WAT      O 3176   7.041   1.506   5.565
  886WAT     H1 3177   7.123   1.457   5.569
  886WAT     H2 3178   7.045   1.565   5.640
  887WAT      O 3179   6.727   2.365   5.428
  887WAT     H1 3180   6.665   2.411   5.371
  887WAT     H2 3181   6.778   2.435   5.469
  888WAT      O 3182   5.664   2.434   5.165
  888WAT     H1 3183   5.626   2.483   5.092
  888WAT     H2 3184   5.690   2.501   5.228
  889WAT      O 3185   6.425   1.275   5.711
  889WAT     H1 3186   6.456   1.219   5.639
  889WAT     H2 3187   6.332   1.288   5.693
  890WAT      O 3188   7.109   2.518   5.449
  890WAT     H1 3189   7.098   2.424   5.461
  890WAT     H2 3190   7.108   2.554   5.538
  891WAT      O 3191   6.664   2.081   5.386
  891WAT     H1 3192   6.571   2.074   5.406
  891WAT     H2 3193   6.679   2.174   5.373
  892WAT      O 3194   6.662   1.707   5.082
  892WAT     H1 3195   6.569   1.724   5.094
  892WAT     H2 3196   6.694   1.781   5.031
  893WAT      O 3197   7.066   2.237   5.435
  893WAT     H1 3198   7.005   2.203   5.370
  893WAT     H2 3199   7.066   2.172   5.506
  894WAT      O 3200   6.224   2.133   5.663
  894WAT     H1 3201   6.184   2.062   5.613
  894WAT     H2 3202   6.233   2.098   5.752
  895WAT      O 3203   6.884   2.161   5.136
  895WAT     H1 3204   6.927   2.077   5.121
  895WAT     H2 3205   6.956   2.224   5.144
  896WAT      O 3206   6.695   2.654   5.532
  896WAT     H1 3207   6.739   2.729   5.491
  896WAT     H2 3208   6.689   2.679   5.625
  897WAT      O 3209   5.894   2.023   5.413
  897WAT     H1 3210   5.882   2.095   5.352
  897WAT     H2 3211   5.863   1.946   5.365
  898WAT      O 3212   5.783   2.510   5.634
  898WAT     H1 3213   5.742   2.524   5.549
  898WAT     H2 3214   5.872   2.481   5.614
  899WAT      O 3215   6.961   2.953   5.268
  899WAT     H1 3216   6.946   2.924   5.358
  899WAT     H2 3217   6.946   2.875   5.215
  900WAT      O 3218   6.209   2.931   5.446
  900WAT     H1 3219   6.192   2.839   5.424
  900WAT     H2 3220   6.124   2.967   5.470
  901WAT      O 3221   6.932   2.705   5.124
  901WAT     H1 3222   6.862   2.704   5.058
  901WAT     H2 3223   7.006   2.662   5.082
  902WAT      O 3224   6.888   2.867   5.532
  902WAT     H1 3225   6.934   2.789   5.563
  902WAT     H2 3226   6.923   2.938   5.586
  903WAT      O 3227   6.141   1.357   5.751
  903WAT     H1 3228   6.097   1.435   5.718
  903WAT     H2 3229   6.197   1.389   5.822
  904WAT      O 3230   6.451   1.319   5.239
  904WAT     H1 3231   6.390   1.318   5.312
  904WAT     H2 3232   6.444   1.232   5.200
  905WAT      O 3233   6.120   1.870   5.524
  905WAT     H1 3234   6.096   1.847   5.614
  905WAT     H2 3235   6.042   1.913   5.489
  906WAT      O 3236   6.843   1.870   5.384
  906WAT     H1 3237   6.783   1.942   5.365
  906WAT     H2 3238   6.898   1.864   5.306
  907WAT      O 3239   6.705   1.735   5.588
  907WAT     H1 3240   6.743   1.765   5.505
  907WAT     H2 3241   6.739   1.645   5.598
  908WAT      O 3242   5.627   1.787   4.929
  908WAT     H1 3243   5.618   1.881   4.944
  908WAT     H2 3244   5.590   1.773   4.842
  909WAT      O 3245   6.406   1.660   5.837
  909WAT     H1 3246   6.406   1.616   5.752
  909WAT     H2 3247   6.496   1.692   5.848
  910WAT      O 3248   5.991   1.648   5.733
  910WAT     H1 3249   5.957   1.696   5.808
  910WAT     H2 3250   5.915   1.603   5.696
  911WAT      O 3251   6.411   1.760   5.137
  911WAT     H1 3252   6.424   1.756   5.232
  911WAT     H2 3253   6.374   1.846   5.120
  912WAT      O 3254   6.312   1.993   5.075
  912WAT     H1 3255   6.257   1.947   5.012
  912WAT     H2 3256   6.384   2.028   5.022
  913WAT      O 3257   5.722   1.540   5.624
  913WAT     H1 3258   5.694   1.504   5.708
  913WAT     H2 3259   5.716   1.467   5.563
  914WAT      O 3260   6.069   2.391   5.303
  914WAT     H1 3261   5.991   2.337   5.288
  914WAT     H2 3262   6.142   2.339   5.269
  915WAT      O 3263   6.690   1.430   5.296
  915WAT     H1 3264   6.609   1.380   5.289
  915WAT     H2 3265   6.671   1.514   5.255
  916WAT      O 3266   6.961   1.867   5.126
  916WAT     H1 3267   7.050   1.898   5.109
  916WAT     H2 3268   6.958   1.780   5.087
  917WAT      O 3269   6.072   2.358   5.667
  917WAT     H1 3270   6.124   2.278   5.661
  917WAT     H2 3271   6.027   2.352   5.751
  918WAT      O 3272   6.561   2.484   5.194
  918WAT     H1 3273   6.595   2.559   5.145
  918WAT     H2 3274   6.478   2.515   5.230
  919WAT      O 3275   7.188   1.998   5.073
  919WAT     H1 3276   7.180   2.041   4.988
  919WAT     H2 3277   7.260   2.044   5.116
  920WAT      O 3278   6.849   2.416   5.731
  920WAT     H1 3279   6.884   2.357   5.665
  920WAT     H2 3280   6.761   2.384   5.748
  921WAT      O 3281   6.458   2.492   5.472
  921WAT     H1 3282   6.527   2.547   5.508
  921WAT     H2 3283   6.379   2.547   5.475
  922WAT      O 3284   5.672   2.054   5.020
  922WAT     H1 3285   5.759   2.082   5.049
  922WAT     H2 3286   5.623   2.136   5.009
  923WAT      O 3287   6.390   2.192   5.434
  923WAT     H1 3288   6.433   2.274   5.455
  923WAT     H2 3289   6.353   2.162   5.517
  924WAT      O 3290   5.979   1.228   5.480
  924WAT     H1 3291   5.965   1.226   5.575
  924WAT     H2 3292   5.896   1.260   5.444
  925WAT      O 3293   7.129   2.573   5.000
  925WAT     H1 3294   7.109   2.501   5.059
  925WAT     H2 3295   7.092   2.547   4.915
  926WAT      O 3296   5.708   2.976   5.077
  926WAT     H1 3297   5.745   3.036   5.012
  926WAT     H2 3298   5.694   3.030   5.154
  927WAT      O 3299   7.088   2.364   5.167
  927WAT     H1 3300   7.060   2.412   5.245
  927WAT     H2 3301   7.168   2.319   5.193
  928WAT      O 3302   6.310   2.714   5.159
  928WAT     H1 3303   6.309   2.787   5.097
  928WAT     H2 3304   6.219   2.689   5.168
  929WAT      O 3305   5.870   2.236   5.233
  929WAT     H1 3306   5.809   2.310   5.233
  929WAT     H2 3307   5.918   2.244   5.151
  930WAT      O 3308   7.164   1.548   5.282
  930WAT     H1 3309   7.102   1.559   5.210
  930WAT     H2 3310   7.114   1.569   5.361
  931WAT      O 3311   6.609   2.719   5.025
  931WAT     H1 3312   6.619   2.699   4.932
  931WAT     H2 3313   6.519   2.695   5.046
  932WAT      O 3314   6.361   1.776   5.423
  932WAT     H1 3315   6.290   1.823   5.467
  932WAT     H2 3316   6.390   1.710   5.487
  933WAT      O 3317   6.765   1.448   5.567
  933WAT     H1 3318   6.751   1.449   5.472
  933WAT     H2 3319   6.860   1.453   5.578
  934WAT      O 3320   6.473   2.973   5.495
  934WAT     H1 3321   6.498   2.968   5.402
  934WAT     H2 3322   6.378   2.959   5.494
  935WAT      O 3323   6.180   1.608   5.160
  935WAT     H1 3324   6.266   1.650   5.154
  935WAT     H2 3325   6.145   1.638   5.244
  936WAT      O 3326   7.073   2.064   5.653
  936WAT     H1 3327   6.979   2.065   5.670
  936WAT     H2 3328   7.105   1.985   5.697
  937WAT      O 3329   6.070   2.231   5.009
  937WAT     H1 3330   6.148   2.222   5.064
  937WAT     H2 3331   6.080   2.163   4.942
  938WAT      O 3332   5.941   1.976   5.077
  938WAT     H1 3333   5.949   1.881   5.088
  938WAT     H2 3334   6.031   2.008   5.087
  939WAT      O 3335   6.021   2.990   5.787
  939WAT     H1 3336   6.095   2.935   5.814
  939WAT     H2 3337   6.059   3.077   5.773
  940WAT      O 3338   5.709   2.597   5.374
  940WAT     H1 3339   5.617   2.622   5.373
  940WAT     H2 3340   5.756   2.680   5.362
  941WAT      O 3341   6.331   2.907   4.969
  941WAT     H1 3342   6.411   2.938   4.925
  941WAT     H2 3343   6.280   2.865   4.900
  942WAT      O 3344   7.239   2.831   5.111
  942WAT     H1 3345   7.208   2.789   5.030
  942WAT     H2 3346   7.216   2.923   5.100
  943WAT      O 3347   6.384   2.430   4.955
  943WAT     H1 3348   6.373   2.369   5.028
  943WAT     H2 3349   6.367   2.376   4.877
  944WAT      O 3350   6.708   2.336   5.016
  944WAT     H1 3351   6.653   2.381   5.080
  944WAT     H2 3352   6.770   2.285   5.068
  945WAT      O 3353   6.273   2.231   5.205
  945WAT     H1 3354   6.317   2.216   5.289
  945WAT     H2 3355   6.288   2.150   5.156
  946WAT      O 3356   6.526   2.133   4.931
  946WAT     H1 3357   6.578   2.063   4.894
  946WAT     H2 3358   6.590   2.198   4.960
  947WAT      O 3359   6.164   1.839   4.900
  947WAT     H1 3360   6.144   1.752   4.936
  947WAT     H2 3361   6.147   1.830   4.806
  948WAT      O 3362   6.912   1.320   5.152
  948WAT     H1 3363   6.940   1.236   5.189
  948WAT     H2 3364   6.835   1.344   5.204
  949WAT      O 3365   6.044   1.550   4.899
  949WAT     H1 3366   6.075   1.549   4.808
  949WAT     H2 3367   6.118   1.514   4.949
  950WAT      O 3368   6.367   1.443   4.997
  950WAT     H1 3369   6.331   1.376   4.940
  950WAT     H2 3370   6.386   1.398   5.079
  951WAT      O 3371   6.582   2.944   5.159
  951WAT     H1 3372   6.672   2.976   5.162
  951WAT     H2 3373   6.585   2.870   5.098
  952WAT      O 3374   5.946   2.480   4.981
  952WAT     H1 3375   5.989   2.534   5.047
  952WAT     H2 3376   5.995   2.397   4.983
  953WAT      O 3377   5.668   2.758   5.727
  953WAT     H1 3378   5.701   2.672   5.704
  953WAT     H2 3379   5.711   2.779   5.810
  954WAT      O 3380   6.127   2.592   5.493
  954WAT     H1 3381   6.097   2.579   5.583
  954WAT     H2 3382   6.117   2.506   5.452
  955WAT      O 3383   5.700   2.096   5.637
  955WAT     H1 3384   5.634   2.069   5.573
  955WAT     H2 3385   5.784   2.085   5.591
  956WAT      O 3386   6.996   1.576   5.059
  956WAT     H1 3387   7.037   1.557   4.975
  956WAT     H2 3388   6.963   1.491   5.090
  957WAT      O 3389   5.621   1.817   5.231
  957WAT     H1 3390   5.531   1.844   5.214
  957WAT     H2 3391   5.669   1.844   5.153
  958WAT      O 3392   5.876   1.723   5.023
  958WAT     H1 3393   5.945   1.679   4.974
  958WAT     H2 3394   5.804   1.730   4.960
  959WAT      O 3395   5.839   1.328   4.926
  959WAT     H1 3396   5.912   1.382   4.958
  959WAT     H2 3397   5.867   1.301   4.838
  960WAT      O 3398   7.221   1.815   5.353
  960WAT     H1 3399   7.271   1.792   5.431
  960WAT     H2 3400   7.202   1.731   5.311
  961WAT      O 3401   7.155   2.944   5.593
  961WAT     H1 3402   7.214   2.911   5.525
  961WAT     H2 3403   7.180   2.896   5.672
  962WAT      O 3404   7.102   1.372   5.837
  962WAT     H1 3405   7.148   1.367   5.753
  962WAT     H2 3406   7.077   1.464   5.846
  963WAT      O 3407   5.721   2.949   5.535
  963WAT     H1 3408   5.704   2.886   5.605
  963WAT     H2 3409   5.634   2.970   5.500
  964WAT      O 3410   5.783   1.333   5.286
  964WAT     H1 3411   5.858   1.344   5.228
  964WAT     H2 3412   5.736   1.416   5.280
  965WAT      O 3413   6.436   1.544   5.586
  965WAT     H1 3414   6.356   1.505   5.550
  965WAT     H2 3415   6.488   1.468   5.615
  966WAT      O 3416   6.887   1.210   5.708
  966WAT     H1 3417   6.947   1.267   5.757
  966WAT     H2 3418   6.813   1.267   5.686
  967WAT      O 3419   7.202   1.250   5.236
  967WAT     H1 3420   7.220   1.340   5.263
  967WAT     H2 3421   7.123   1.227   5.285
  968WAT      O 3422   5.880   2.818   5.281
  968WAT     H1 3423   5.829   2.857   5.209
  968WAT     H2 3424   5.873   2.881   5.352
  969WAT      O 3425   6.020   1.385   5.140
  969WAT     H1 3426   6.073   1.306   5.128
  969WAT     H2 3427   6.083   1.453   5.162
  970WAT      O 3428   6.239   1.359   5.445
  970WAT     H1 3429   6.176   1.289   5.462
  970WAT     H2 3430   6.185   1.435   5.424
  971WAT      O 3431   6.141   3.014   5.167
  971WAT     H1 3432   6.214   2.985   5.112
  971WAT     H2 3433   6.167   2.989   5.256
  972WAT      O 3434   6.057   2.625   5.168
  972WAT     H1 3435   5.994   2.672   5.223
  972WAT     H2 3436   6.069   2.541   5.212
  973WAT      O 3437   6.803   2.030   3.782
  973WAT     H1 3438   6.795   1.939   3.756
  973WAT     H2 3439   6.761   2.080   3.712
  974WAT      O 3440   6.615   2.208   3.970
  974WAT     H1 3441   6.538   2.160   4.000
  974WAT     H2 3442   6.681   2.140   3.954
  975WAT      O 3443   6.016   2.240   4.059
  975WAT     H1 3444   5.934   2.212   4.099
  975WAT     H2 3445   6.078   2.246   4.131
  976WAT      O 3446   7.018   2.649   3.849
  976WAT     H1 3447   6.972   2.571   3.881
  976WAT     H2 3448   7.099   2.650   3.900
  977WAT      O 3449   6.015   2.642   4.078
  977WAT     H1 3450   6.046   2.553   4.060
  977WAT     H2 3451   6.090   2.698   4.056
  978WAT      O 3452   5.859   1.735   3.437
  978WAT     H1 3453   5.770   1.768   3.427
  978WAT     H2 3454   5.887   1.715   3.348
  979WAT      O 3455   5.653   1.993   4.025
  979WAT     H1 3456   5.713   1.918   4.026
  979WAT     H2 3457   5.656   2.026   3.935
  980WAT      O 3458   6.640   2.878   3.812
  980WAT     H1 3459   6.579   2.922   3.754
  980WAT     H2 3460   6.726   2.892   3.771
  981WAT      O 3461   6.559   2.475   3.972
  981WAT     H1 3462   6.554   2.380   3.956
  981WAT     H2 3463   6.635   2.485   4.029
  982WAT      O 3464   5.779   1.536   4.204
  982WAT     H1 3465   5.761   1.447   4.232
  982WAT     H2 3466   5.738   1.591   4.272
  983WAT      O 3467   6.662   1.756   3.994
  983WAT     H1 3468   6.702   1.670   3.984
  983WAT     H2 3469   6.654   1.789   3.904
  984WAT      O 3470   6.076   1.593   3.541
  984WAT     H1 3471   6.087   1.683   3.572
  984WAT     H2 3472   5.985   1.588   3.511
  985WAT      O 3473   7.041   1.506   3.688
  985WAT     H1 3474   7.123   1.457   3.692
  985WAT     H2 3475   7.045   1.565   3.763
  986WAT      O 3476   5.840   1.785   4.065
  986WAT     H1 3477   5.909   1.812   4.126
  986WAT     H2 3478   5.809   1.701   4.099
  987WAT      O 3479   6.261   1.891   3.973
  987WAT     H1 3480   6.312   1.940   4.038
  987WAT     H2 3481   6.313   1.813   3.956
  988WAT      O 3482   6.089   1.353   4.400
  988WAT     H1 3483   6.089   1.406   4.321
  988WAT     H2 3484   6.005   1.306   4.397
  989WAT      O 3485   6.727   2.365   3.550
  989WAT     H1 3486   6.665   2.411   3.494
  989WAT     H2 3487   6.778   2.435   3.592
  990WAT      O 3488   6.214   2.319   4.219
  990WAT     H1 3489   6.180   2.381   4.282
  990WAT     H2 3490   6.231   2.371   4.140
  991WAT      O 3491   7.065   1.699   3.964
  991WAT     H1 3492   6.995   1.727   4.023
  991WAT     H2 3493   7.101   1.781   3.930
  992WAT      O 3494   6.057   1.525   4.201
  992WAT     H1 3495   6.091   1.610   4.172
  992WAT     H2 3496   5.963   1.540   4.212
  993WAT      O 3497   6.135   2.515   4.400
  993WAT     H1 3498   6.197   2.583   4.371
  993WAT     H2 3499   6.049   2.555   4.390
  994WAT      O 3500   5.664   2.434   3.288
  994WAT     H1 3501   5.627   2.483   3.215
  994WAT     H2 3502   5.690   2.501   3.351
  995WAT      O 3503   6.425   1.274   3.834
  995WAT     H1 3504   6.456   1.219   3.762
  995WAT     H2 3505   6.332   1.288   3.815
  996WAT      O 3506   6.980   2.846   4.062
  996WAT     H1 3507   6.980   2.805   3.976
  996WAT     H2 3508   6.925   2.923   4.052
  997WAT      O 3509   7.109   2.518   3.572
  997WAT     H1 3510   7.098   2.424   3.584
  997WAT     H2 3511   7.108   2.554   3.660
  998WAT      O 3512   6.920   2.337   4.195
  998WAT     H1 3513   6.963   2.314   4.112
  998WAT     H2 3514   6.992   2.361   4.253
  999WAT      O 3515   6.664   2.081   3.508
  999WAT     H1 3516   6.571   2.074   3.529
  999WAT     H2 3517   6.679   2.174   3.496
 1000WAT      O 3518   6.662   1.707   3.205
 1000WAT     H1 3519   6.569   1.724   3.216
 1000WAT     H2 3520   6.694   1.780   3.153
 1001WAT      O 3521   7.066   2.237   3.558
 1001WAT     H1 3522   7.005   2.203   3.493
 1001WAT     H2 3523   7.066   2.172   3.628
 1002WAT      O 3524   7.011   1.855   4.299
 1002WAT     H1 3525   6.970   1.937   4.324
 1002WAT     H2 3526   6.938   1.796   4.280
 1003WAT      O 3527   6.224   2.133   3.785
 1003WAT     H1 3528   6.184   2.062   3.736
 1003WAT     H2 3529   6.233   2.098   3.874
 1004WAT      O 3530   6.271   2.501   4.002
 1004WAT     H1 3531   6.241   2.442   3.933
 1004WAT     H2 3532   6.366   2.506   3.991
 1005WAT      O 3533   6.096   1.809   4.164
 1005WAT     H1 3534   6.150   1.823   4.086
 1005WAT     H2 3535   6.146   1.849   4.235
 1006WAT      O 3536   7.080   2.859   4.369
 1006WAT     H1 3537   7.033   2.940   4.348
 1006WAT     H2 3538   7.011   2.794   4.382
 1007WAT      O 3539   6.181   2.476   4.667
 1007WAT     H1 3540   6.091   2.498   4.692
 1007WAT     H2 3541   6.182   2.488   4.572
 1008WAT      O 3542   6.884   2.161   3.258
 1008WAT     H1 3543   6.927   2.077   3.244
 1008WAT     H2 3544   6.956   2.224   3.267
 1009WAT      O 3545   6.063   2.164   4.524
 1009WAT     H1 3546   6.049   2.251   4.561
 1009WAT     H2 3547   5.975   2.128   4.509
 1010WAT      O 3548   6.695   2.654   3.655
 1010WAT     H1 3549   6.739   2.729   3.613
 1010WAT     H2 3550   6.688   2.679   3.747
 1011WAT      O 3551   6.243   2.757   4.745
 1011WAT     H1 3552   6.240   2.797   4.659
 1011WAT     H2 3553   6.226   2.664   4.729
 1012WAT      O 3554   5.894   2.023   3.536
 1012WAT     H1 3555   5.882   2.095   3.474
 1012WAT     H2 3556   5.863   1.946   3.488
 1013WAT      O 3557   5.658   2.340   4.116
 1013WAT     H1 3558   5.666   2.353   4.022
 1013WAT     H2 3559   5.720   2.269   4.135
 1014WAT      O 3560   5.782   2.509   3.757
 1014WAT     H1 3561   5.743   2.525   3.671
 1014WAT     H2 3562   5.872   2.481   3.737
 1015WAT      O 3563   6.765   2.925   4.448
 1015WAT     H1 3564   6.816   2.916   4.529
 1015WAT     H2 3565   6.680   2.959   4.477
 1016WAT      O 3566   6.961   2.953   3.391
 1016WAT     H1 3567   6.946   2.924   3.480
 1016WAT     H2 3568   6.946   2.875   3.337
 1017WAT      O 3569   6.209   2.931   3.568
 1017WAT     H1 3570   6.192   2.839   3.547
 1017WAT     H2 3571   6.124   2.967   3.592
 1018WAT      O 3572   6.932   2.705   3.247
 1018WAT     H1 3573   6.862   2.704   3.181
 1018WAT     H2 3574   7.006   2.662   3.205
 1019WAT      O 3575   6.888   2.867   3.655
 1019WAT     H1 3576   6.934   2.789   3.686
 1019WAT     H2 3577   6.923   2.938   3.708
 1020WAT      O 3578   5.664   2.444   4.370
 1020WAT     H1 3579   5.679   2.397   4.288
 1020WAT     H2 3580   5.710   2.393   4.436
 1021WAT      O 3581   6.141   1.357   3.874
 1021WAT     H1 3582   6.097   1.435   3.840
 1021WAT     H2 3583   6.197   1.389   3.945
 1022WAT      O 3584   6.570   1.644   4.434
 1022WAT     H1 3585   6.523   1.665   4.515
 1022WAT     H2 3586   6.529   1.562   4.404
 1023WAT      O 3587   7.070   1.766   4.547
 1023WAT     H1 3588   6.985   1.736   4.579
 1023WAT     H2 3589   7.055   1.790   4.456
 1024WAT      O 3590   6.779   1.916   4.756
 1024WAT     H1 3591   6.811   1.832   4.724
 1024WAT     H2 3592   6.858   1.967   4.773
 1025WAT      O 3593   6.452   1.319   3.361
 1025WAT     H1 3594   6.389   1.319   3.434
 1025WAT     H2 3595   6.444   1.232   3.323
 1026WAT      O 3596   6.346   1.411   4.060
 1026WAT     H1 3597   6.373   1.502   4.051
 1026WAT     H2 3598   6.400   1.363   3.998
 1027WAT      O 3599   6.120   1.869   3.647
 1027WAT     H1 3600   6.097   1.848   3.737
 1027WAT     H2 3601   6.042   1.913   3.612
 1028WAT      O 3602   6.843   1.870   3.506
 1028WAT     H1 3603   6.783   1.942   3.488
 1028WAT     H2 3604   6.898   1.864   3.428
 1029WAT      O 3605   6.364   1.959   4.713
 1029WAT     H1 3606   6.354   1.865   4.698
 1029WAT     H2 3607   6.448   1.981   4.674
 1030WAT      O 3608   6.705   1.735   3.710
 1030WAT     H1 3609   6.743   1.765   3.628
 1030WAT     H2 3610   6.739   1.646   3.720
 1031WAT      O 3611   5.877   1.600   4.528
 1031WAT     H1 3612   5.838   1.685   4.549
 1031WAT     H2 3613   5.808   1.537   4.546
 1032WAT      O 3614   6.535   1.609   4.836
 1032WAT     H1 3615   6.466   1.588   4.899
 1032WAT     H2 3616   6.609   1.637   4.889
 1033WAT      O 3617   5.607   1.393   3.932
 1033WAT     H1 3618   5.578   1.450   4.003
 1033WAT     H2 3619   5.682   1.345   3.969
 1034WAT      O 3620   5.627   1.787   3.052
 1034WAT     H1 3621   5.618   1.881   3.067
 1034WAT     H2 3622   5.590   1.773   2.965
 1035WAT      O 3623   6.762   1.993   4.119
 1035WAT     H1 3624   6.689   2.044   4.154
 1035WAT     H2 3625   6.722   1.911   4.089
 1036WAT      O 3626   6.406   1.660   3.959
 1036WAT     H1 3627   6.407   1.617   3.874
 1036WAT     H2 3628   6.496   1.692   3.970
 1037WAT      O 3629   5.991   1.648   3.855
 1037WAT     H1 3630   5.957   1.696   3.931
 1037WAT     H2 3631   5.915   1.604   3.819
 1038WAT      O 3632   6.411   1.760   3.259
 1038WAT     H1 3633   6.424   1.756   3.354
 1038WAT     H2 3634   6.374   1.847   3.243
 1039WAT      O 3635   6.808   1.538   4.060
 1039WAT     H1 3636   6.810   1.583   4.145
 1039WAT     H2 3637   6.784   1.448   4.081
 1040WAT      O 3638   6.312   1.993   3.198
 1040WAT     H1 3639   6.257   1.947   3.135
 1040WAT     H2 3640   6.384   2.028   3.145
 1041WAT      O 3641   7.151   1.279   4.644
 1041WAT     H1 3642   7.184   1.206   4.697
 1041WAT     H2 3643   7.155   1.248   4.554
 1042WAT      O 3644   5.821   2.380   4.586
 1042WAT     H1 3645   5.783   2.317   4.647
 1042WAT     H2 3646   5.852   2.452   4.642
 1043WAT      O 3647   6.436   2.066   4.134
 1043WAT     H1 3648   6.472   2.019   4.209
 1043WAT     H2 3649   6.417   2.154   4.168
 1044WAT      O 3650   5.723   1.540   3.747
 1044WAT     H1 3651   5.694   1.504   3.831
 1044WAT     H2 3652   5.716   1.467   3.686
 1045WAT      O 3653   6.215   1.970   4.366
 1045WAT     H1 3654   6.185   2.058   4.388
 1045WAT     H2 3655   6.311   1.976   4.370
 1046WAT      O 3656   6.069   2.391   3.426
 1046WAT     H1 3657   5.991   2.337   3.411
 1046WAT     H2 3658   6.142   2.339   3.392
 1047WAT      O 3659   7.143   2.291   4.004
 1047WAT     H1 3660   7.216   2.340   3.966
 1047WAT     H2 3661   7.124   2.223   3.940
 1048WAT      O 3662   6.690   1.430   3.419
 1048WAT     H1 3663   6.609   1.380   3.412
 1048WAT     H2 3664   6.670   1.514   3.378
 1049WAT      O 3665   6.683   2.298   4.595
 1049WAT     H1 3666   6.675   2.207   4.567
 1049WAT     H2 3667   6.618   2.307   4.665
 1050WAT      O 3668   6.961   1.867   3.249
 1050WAT     H1 3669   7.050   1.898   3.231
 1050WAT     H2 3670   6.958   1.780   3.210
 1051WAT      O 3671   6.072   2.358   3.790
 1051WAT     H1 3672   6.123   2.278   3.783
 1051WAT     H2 3673   6.027   2.351   3.874
 1052WAT      O 3674   6.561   2.485   3.317
 1052WAT     H1 3675   6.595   2.559   3.267
 1052WAT     H2 3676   6.478   2.515   3.353
 1053WAT      O 3677   5.821   2.055   4.481
 1053WAT     H1 3678   5.784   2.121   4.540
 1053WAT     H2 3679   5.792   1.971   4.518
 1054WAT      O 3680   6.140   2.099   4.769
 1054WAT     H1 3681   6.112   2.115   4.679
 1054WAT     H2 3682   6.218   2.045   4.760
 1055WAT      O 3683   6.675   2.580   4.569
 1055WAT     H1 3684   6.677   2.486   4.547
 1055WAT     H2 3685   6.604   2.589   4.632
 1056WAT      O 3686   7.188   1.998   3.196
 1056WAT     H1 3687   7.180   2.041   3.111
 1056WAT     H2 3688   7.260   2.044   3.239
 1057WAT      O 3689   6.849   2.416   3.853
 1057WAT     H1 3690   6.884   2.357   3.787
 1057WAT     H2 3691   6.761   2.384   3.870
 1058WAT      O 3692   6.458   2.492   3.595
 1058WAT     H1 3693   6.527   2.547   3.631
 1058WAT     H2 3694   6.379   2.547   3.597
 1059WAT      O 3695   5.671   2.054   3.143
 1059WAT     H1 3696   5.759   2.082   3.171
 1059WAT     H2 3697   5.623   2.136   3.131
 1060WAT      O 3698   6.390   2.192   3.556
 1060WAT     H1 3699   6.433   2.275   3.578
 1060WAT     H2 3700   6.352   2.162   3.639
 1061WAT      O 3701   6.618   2.744   4.278
 1061WAT     H1 3702   6.682   2.765   4.346
 1061WAT     H2 3703   6.655   2.668   4.234
 1062WAT      O 3704   5.979   1.227   3.602
 1062WAT     H1 3705   5.965   1.226   3.697
 1062WAT     H2 3706   5.896   1.260   3.566
 1063WAT      O 3707   6.746   2.544   4.150
 1063WAT     H1 3708   6.810   2.474   4.161
 1063WAT     H2 3709   6.799   2.622   4.132
 1064WAT      O 3710   7.129   2.573   3.122
 1064WAT     H1 3711   7.109   2.501   3.181
 1064WAT     H2 3712   7.092   2.547   3.038
 1065WAT      O 3713   6.923   2.625   4.470
 1065WAT     H1 3714   6.957   2.683   4.538
 1065WAT     H2 3715   6.831   2.611   4.493
 1066WAT      O 3716   5.708   2.976   3.200
 1066WAT     H1 3717   5.744   3.035   3.134
 1066WAT     H2 3718   5.694   3.031   3.277
 1067WAT      O 3719   5.678   1.403   4.548
 1067WAT     H1 3720   5.607   1.423   4.609
 1067WAT     H2 3721   5.721   1.326   4.586
 1068WAT      O 3722   7.088   2.364   3.289
 1068WAT     H1 3723   7.060   2.412   3.367
 1068WAT     H2 3724   7.168   2.319   3.315
 1069WAT      O 3725   5.708   2.802   4.646
 1069WAT     H1 3726   5.718   2.708   4.633
 1069WAT     H2 3727   5.642   2.829   4.582
 1070WAT      O 3728   6.506   2.629   4.787
 1070WAT     H1 3729   6.473   2.557   4.841
 1070WAT     H2 3730   6.439   2.696   4.794
 1071WAT      O 3731   6.310   2.714   3.282
 1071WAT     H1 3732   6.309   2.787   3.220
 1071WAT     H2 3733   6.219   2.689   3.291
 1072WAT      O 3734   5.870   2.236   3.356
 1072WAT     H1 3735   5.809   2.310   3.356
 1072WAT     H2 3736   5.917   2.244   3.273
 1073WAT      O 3737   6.827   1.652   4.322
 1073WAT     H1 3738   6.864   1.571   4.356
 1073WAT     H2 3739   6.742   1.659   4.365
 1074WAT      O 3740   7.164   1.548   3.404
 1074WAT     H1 3741   7.101   1.559   3.333
 1074WAT     H2 3742   7.114   1.569   3.483
 1075WAT      O 3743   6.609   2.719   3.148
 1075WAT     H1 3744   6.619   2.700   3.055
 1075WAT     H2 3745   6.519   2.695   3.168
 1076WAT      O 3746   6.361   1.776   3.546
 1076WAT     H1 3747   6.290   1.823   3.590
 1076WAT     H2 3748   6.389   1.710   3.609
 1077WAT      O 3749   6.523   1.918   4.346
 1077WAT     H1 3750   6.574   1.965   4.412
 1077WAT     H2 3751   6.538   1.826   4.366
 1078WAT      O 3752   6.764   1.448   3.690
 1078WAT     H1 3753   6.751   1.450   3.595
 1078WAT     H2 3754   6.859   1.453   3.701
 1079WAT      O 3755   6.473   2.973   3.617
 1079WAT     H1 3756   6.499   2.968   3.525
 1079WAT     H2 3757   6.378   2.959   3.616
 1080WAT      O 3758   6.180   1.608   3.283
 1080WAT     H1 3759   6.266   1.650   3.277
 1080WAT     H2 3760   6.145   1.637   3.367
 1081WAT      O 3761   7.073   2.065   3.776
 1081WAT     H1 3762   6.979   2.064   3.792
 1081WAT     H2 3763   7.105   1.985   3.819
 1082WAT      O 3764   6.070   2.231   3.132
 1082WAT     H1 3765   6.148   2.222   3.187
 1082WAT     H2 3766   6.080   2.164   3.065
 1083WAT      O 3767   5.941   1.976   3.200
 1083WAT     H1 3768   5.949   1.881   3.210
 1083WAT     H2 3769   6.031   2.008   3.210
 1084WAT      O 3770   6.021   2.990   3.910
 1084WAT     H1 3771   6.095   2.935   3.936
 1084WAT     H2 3772   6.060   3.077   3.895
 1085WAT      O 3773   5.709   2.597   3.497
 1085WAT     H1 3774   5.617   2.622   3.496
 1085WAT     H2 3775   5.756   2.680   3.485
 1086WAT      O 3776   5.922   2.909   4.828
 1086WAT     H1 3777   6.002   2.941   4.870
 1086WAT     H2 3778   5.870   2.873   4.900
 1087WAT      O 3779   6.332   2.907   3.092
 1087WAT     H1 3780   6.410   2.938   3.047
 1087WAT     H2 3781   6.280   2.865   3.024
 1088WAT      O 3782   6.806   2.519   4.823
 1088WAT     H1 3783   6.745   2.522   4.749
 1088WAT     H2 3784   6.775   2.447   4.877
 1089WAT      O 3785   6.948   2.893   4.683
 1089WAT     H1 3786   7.043   2.884   4.680
 1089WAT     H2 3787   6.932   2.958   4.751
 1090WAT      O 3788   7.239   2.831   3.234
 1090WAT     H1 3789   7.208   2.789   3.153
 1090WAT     H2 3790   7.216   2.923   3.223
 1091WAT      O 3791   5.694   2.159   4.723
 1091WAT     H1 3792   5.744   2.100   4.780
 1091WAT     H2 3793   5.619   2.186   4.776
 1092WAT      O 3794   6.384   2.430   3.078
 1092WAT     H1 3795   6.373   2.369   3.151
 1092WAT     H2 3796   6.367   2.376   3.000
 1093WAT      O 3797   6.399   2.299   4.676
 1093WAT     H1 3798   6.322   2.355   4.667
 1093WAT     H2 3799   6.417   2.269   4.587
 1094WAT      O 3800   6.708   2.336   3.138
 1094WAT     H1 3801   6.653   2.381   3.203
 1094WAT     H2 3802   6.770   2.285   3.191
 1095WAT      O 3803   7.113   2.472   4.732
 1095WAT     H1 3804   7.187   2.505   4.681
 1095WAT     H2 3805   7.037   2.488   4.676
 1096WAT      O 3806   5.897   1.971   4.812
 1096WAT     H1 3807   5.901   1.943   4.903
 1096WAT     H2 3808   5.982   2.012   4.795
 1097WAT      O 3809   6.273   2.231   3.328
 1097WAT     H1 3810   6.317   2.216   3.412
 1097WAT     H2 3811   6.288   2.150   3.279
 1098WAT      O 3812   6.092   1.829   4.609
 1098WAT     H1 3813   6.037   1.782   4.546
 1098WAT     H2 3814   6.158   1.873   4.555
 1099WAT      O 3815   6.526   2.133   3.054
 1099WAT     H1 3816   6.578   2.063   3.016
 1099WAT     H2 3817   6.590   2.198   3.083
 1100WAT      O 3818   6.980   2.274   4.585
 1100WAT     H1 3819   7.022   2.293   4.670
 1100WAT     H2 3820   6.887   2.290   4.601
 1101WAT      O 3821   7.029   2.011   4.786
 1101WAT     H1 3822   7.086   1.935   4.777
 1101WAT     H2 3823   7.045   2.063   4.708
 1102WAT      O 3824   6.139   1.526   4.617
 1102WAT     H1 3825   6.130   1.465   4.544
 1102WAT     H2 3826   6.081   1.599   4.594
 1103WAT      O 3827   6.416   1.382   4.320
 1103WAT     H1 3828   6.371   1.384   4.236
 1103WAT     H2 3829   6.353   1.342   4.380
 1104WAT      O 3830   6.456   2.272   4.382
 1104WAT     H1 3831   6.499   2.356   4.365
 1104WAT     H2 3832   6.365   2.285   4.358
 1105WAT      O 3833   6.690   2.044   4.521
 1105WAT     H1 3834   6.703   1.985   4.596
 1105WAT     H2 3835   6.776   2.048   4.479
 1106WAT      O 3836   6.923   2.100   4.379
 1106WAT     H1 3837   6.873   2.153   4.317
 1106WAT     H2 3838   6.960   2.163   4.441
 1107WAT      O 3839   6.164   1.839   3.023
 1107WAT     H1 3840   6.144   1.752   3.059
 1107WAT     H2 3841   6.147   1.830   2.929
 1108WAT      O 3842   6.243   2.903   4.494
 1108WAT     H1 3843   6.188   2.974   4.462
 1108WAT     H2 3844   6.266   2.854   4.416
 1109WAT      O 3845   6.367   1.699   4.646
 1109WAT     H1 3846   6.426   1.668   4.715
 1109WAT     H2 3847   6.285   1.652   4.661
 1110WAT      O 3848   6.849   1.661   4.670
 1110WAT     H1 3849   6.780   1.594   4.663
 1110WAT     H2 3850   6.921   1.616   4.714
 1111WAT      O 3851   6.912   1.320   3.275
 1111WAT     H1 3852   6.940   1.236   3.311
 1111WAT     H2 3853   6.835   1.344   3.327
 1112WAT      O 3854   6.044   1.550   3.021
 1112WAT     H1 3855   6.075   1.549   2.930
 1112WAT     H2 3856   6.118   1.514   3.071
 1113WAT      O 3857   6.527   3.026   4.520
 1113WAT     H1 3858   6.520   3.116   4.550
 1113WAT     H2 3859   6.437   2.994   4.517
 1114WAT      O 3860   6.367   1.443   3.119
 1114WAT     H1 3861   6.331   1.376   3.062
 1114WAT     H2 3862   6.386   1.397   3.201
 1115WAT      O 3863   6.582   2.943   3.282
 1115WAT     H1 3864   6.672   2.976   3.284
 1115WAT     H2 3865   6.585   2.870   3.220
 1116WAT      O 3866   5.946   2.479   3.104
 1116WAT     H1 3867   5.990   2.534   3.169
 1116WAT     H2 3868   5.995   2.397   3.106
 1117WAT      O 3869   5.667   2.758   3.851
 1117WAT     H1 3870   5.702   2.672   3.827
 1117WAT     H2 3871   5.711   2.779   3.933
 1118WAT      O 3872   6.128   2.592   3.616
 1118WAT     H1 3873   6.097   2.579   3.706
 1118WAT     H2 3874   6.117   2.507   3.574
 1119WAT      O 3875   5.717   2.845   4.124
 1119WAT     H1 3876   5.673   2.863   4.207
 1119WAT     H2 3877   5.773   2.921   4.110
 1120WAT      O 3878   5.700   2.095   3.759
 1120WAT     H1 3879   5.634   2.069   3.695
 1120WAT     H2 3880   5.784   2.085   3.715
 1121WAT      O 3881   7.148   2.468   4.362
 1121WAT     H1 3882   7.067   2.511   4.389
 1121WAT     H2 3883   7.189   2.530   4.301
 1122WAT      O 3884   6.996   1.576   3.182
 1122WAT     H1 3885   7.037   1.557   3.098
 1122WAT     H2 3886   6.964   1.491   3.213
 1123WAT      O 3887   5.805   2.135   4.214
 1123WAT     H1 3888   5.840   2.125   4.303
 1123WAT     H2 3889   5.747   2.060   4.203
 1124WAT      O 3890   5.759   1.825   4.605
 1124WAT     H1 3891   5.669   1.823   4.638
 1124WAT     H2 3892   5.812   1.847   4.681
 1125WAT      O 3893   7.127   1.503   4.794
 1125WAT     H1 3894   7.215   1.506   4.831
 1125WAT     H2 3895   7.129   1.431   4.731
 1126WAT      O 3896   5.621   1.817   3.353
 1126WAT     H1 3897   5.531   1.844   3.336
 1126WAT     H2 3898   5.669   1.844   3.276
 1127WAT      O 3899   5.876   1.723   3.145
 1127WAT     H1 3900   5.945   1.679   3.096
 1127WAT     H2 3901   5.803   1.730   3.083
 1128WAT      O 3902   5.839   1.328   3.049
 1128WAT     H1 3903   5.911   1.382   3.081
 1128WAT     H2 3904   5.867   1.301   2.961
 1129WAT      O 3905   7.221   1.815   3.476
 1129WAT     H1 3906   7.271   1.792   3.554
 1129WAT     H2 3907   7.202   1.731   3.434
 1130WAT      O 3908   5.809   1.253   4.039
 1130WAT     H1 3909   5.875   1.198   3.995
 1130WAT     H2 3910   5.851   1.279   4.121
 1131WAT      O 3911   7.198   1.274   4.375
 1131WAT     H1 3912   7.263   1.334   4.410
 1131WAT     H2 3913   7.213   1.275   4.280
 1132WAT      O 3914   7.155   2.944   3.715
 1132WAT     H1 3915   7.214   2.911   3.647
 1132WAT     H2 3916   7.180   2.896   3.794
 1133WAT      O 3917   5.784   1.269   4.314
 1133WAT     H1 3918   5.750   1.315   4.390
 1133WAT     H2 3919   5.751   1.180   4.322
 1134WAT      O 3920   5.945   2.586   4.730
 1134WAT     H1 3921   5.941   2.549   4.819
 1134WAT     H2 3922   5.958   2.680   4.744
 1135WAT      O 3923   6.315   2.742   4.290
 1135WAT     H1 3924   6.291   2.768   4.201
 1135WAT     H2 3925   6.409   2.758   4.295
 1136WAT      O 3926   6.536   1.387   4.667
 1136WAT     H1 3927   6.530   1.448   4.740
 1136WAT     H2 3928   6.630   1.377   4.651
 1137WAT      O 3929   6.800   1.355   4.630
 1137WAT     H1 3930   6.861   1.386   4.563
 1137WAT     H2 3931   6.854   1.305   4.691
 1138WAT      O 3932   5.852   1.222   4.641
 1138WAT     H1 3933   5.906   1.204   4.565
 1138WAT     H2 3934   5.858   1.143   4.695
 1139WAT      O 3935   5.929   2.881   4.442
 1139WAT     H1 3936   5.870   2.868   4.516
 1139WAT     H2 3937   5.928   2.797   4.396
 1140WAT      O 3938   6.874   1.211   4.263
 1140WAT     H1 3939   6.787   1.243   4.241
 1140WAT     H2 3940   6.862   1.162   4.344
 1141WAT      O 3941   6.964   1.430   4.402
 1141WAT     H1 3942   6.931   1.349   4.362
 1141WAT     H2 3943   7.058   1.427   4.388
 1142WAT      O 3944   7.210   3.008   4.098
 1142WAT     H1 3945   7.164   3.083   4.061
 1142WAT     H2 3946   7.147   2.936   4.093
 1143WAT      O 3947   5.892   2.618   4.337
 1143WAT     H1 3948   5.819   2.556   4.331
 1143WAT     H2 3949   5.898   2.656   4.249
 1144WAT      O 3950   6.253   2.839   4.016
 1144WAT     H1 3951   6.304   2.778   3.963
 1144WAT     H2 3952   6.318   2.890   4.064
 1145WAT      O 3953   6.527   2.928   4.098
 1145WAT     H1 3954   6.556   2.902   4.010
 1145WAT     H2 3955   6.578   2.873   4.157
 1146WAT      O 3956   6.648   1.302   4.156
 1146WAT     H1 3957   6.570   1.349   4.185
 1146WAT     H2 3958   6.618   1.211   4.144
 1147WAT      O 3959   7.102   1.372   3.961
 1147WAT     H1 3960   7.148   1.367   3.877
 1147WAT     H2 3961   7.077   1.464   3.969
 1148WAT      O 3962   5.721   2.949   3.658
 1148WAT     H1 3963   5.704   2.886   3.728
 1148WAT     H2 3964   5.634   2.970   3.623
 1149WAT      O 3965   5.783   1.332   3.408
 1149WAT     H1 3966   5.858   1.344   3.351
 1149WAT     H2 3967   5.736   1.416   3.403
 1150WAT      O 3968   6.436   1.544   3.708
 1150WAT     H1 3969   6.356   1.506   3.672
 1150WAT     H2 3970   6.488   1.468   3.737
 1151WAT      O 3971   6.887   1.210   3.831
 1151WAT     H1 3972   6.947   1.267   3.879
 1151WAT     H2 3973   6.813   1.267   3.809
 1152WAT      O 3974   7.202   1.250   3.359
 1152WAT     H1 3975   7.220   1.340   3.385
 1152WAT     H2 3976   7.123   1.227   3.408
 1153WAT      O 3977   5.879   2.818   3.403
 1153WAT     H1 3978   5.830   2.857   3.332
 1153WAT     H2 3979   5.873   2.881   3.475
 1154WAT      O 3980   6.020   1.385   3.262
 1154WAT     H1 3981   6.073   1.306   3.250
 1154WAT     H2 3982   6.083   1.453   3.285
 1155WAT      O 3983   6.239   1.359   3.568
 1155WAT     H1 3984   6.176   1.289   3.584
 1155WAT     H2 3985   6.185   1.435   3.546
 1156WAT      O 3986   6.533   3.020   4.835
 1156WAT     H1 3987   6.626   2.997   4.839
 1156WAT     H2 3988   6.532   3.103   4.787
 1157WAT      O 3989   6.252   1.287   4.811
 1157WAT     H1 3990   6.224   1.337   4.734
 1157WAT     H2 3991   6.290   1.207   4.775
 1158WAT      O 3992   6.142   3.014   3.290
 1158WAT     H1 3993   6.214   2.985   3.235
 1158WAT     H2 3994   6.167   2.989   3.379
 1159WAT      O 3995   6.057   2.625   3.290
 1159WAT     H1 3996   5.994   2.672   3.345
 1159WAT     H2 3997   6.069   2.541   3.335
 1160WAT      O 3998   6.912   1.229   4.869
 1160WAT     H1 3999   6.901   1.260   4.959
 1160WAT     H2 4000   6.994   1.268   4.840
 1161WAT      O 4001   7.191   2.944   4.816
 1161WAT     H1 4002   7.269   2.893   4.798
 1161WAT     H2 4003   7.219   3.010   4.879
 1162WAT      O 4004   6.803   2.030   1.905
 1162WAT     H1 4005   6.795   1.939   1.878
 1162WAT     H2 4006   6.761   2.080   1.835
 1163WAT      O 4007   6.616   2.208   2.093
 1163WAT     H1 4008   6.538   2.160   2.122
 1163WAT     H2 4009   6.681   2.140   2.076
 1164WAT      O 4010   6.017   2.240   2.181
 1164WAT     H1 4011   5.934   2.212   2.221
 1164WAT     H2 4012   6.078   2.246   2.254
 1165WAT      O 4013   7.018   2.648   1.971
 1165WAT     H1 4014   6.972   2.571   2.003
 1165WAT     H2 4015   7.099   2.650   2.022
 1166WAT      O 4016   6.016   2.642   2.201
 1166WAT     H1 4017   6.046   2.553   2.183
 1166WAT     H2 4018   6.090   2.698   2.178
 1167WAT      O 4019   5.859   1.735   1.559
 1167WAT     H1 4020   5.770   1.768   1.549
 1167WAT     H2 4021   5.887   1.715   1.470
 1168WAT      O 4022   5.653   1.993   2.147
 1168WAT     H1 4023   5.713   1.918   2.148
 1168WAT     H2 4024   5.656   2.026   2.057
 1169WAT      O 4025   6.640   2.878   1.934
 1169WAT     H1 4026   6.579   2.922   1.876
 1169WAT     H2 4027   6.726   2.892   1.894
 1170WAT      O 4028   6.559   2.475   2.094
 1170WAT     H1 4029   6.554   2.380   2.078
 1170WAT     H2 4030   6.635   2.485   2.151
 1171WAT      O 4031   5.779   1.536   2.327
 1171WAT     H1 4032   5.761   1.446   2.355
 1171WAT     H2 4033   5.738   1.591   2.394
 1172WAT      O 4034   6.662   1.756   2.117
 1172WAT     H1 4035   6.702   1.670   2.107
 1172WAT     H2 4036   6.654   1.789   2.027
 1173WAT      O 4037   6.076   1.593   1.663
 1173WAT     H1 4038   6.087   1.683   1.695
 1173WAT     H2 4039   5.985   1.588   1.634
 1174WAT      O 4040   7.041   1.506   1.810
 1174WAT     H1 4041   7.123   1.457   1.814
 1174WAT     H2 4042   7.045   1.565   1.886
 1175WAT      O 4043   5.840   1.785   2.188
 1175WAT     H1 4044   5.909   1.812   2.248
 1175WAT     H2 4045   5.809   1.701   2.222
 1176WAT      O 4046   6.261   1.891   2.096
 1176WAT     H1 4047   6.311   1.940   2.160
 1176WAT     H2 4048   6.313   1.812   2.079
 1177WAT      O 4049   6.089   1.353   2.523
 1177WAT     H1 4050   6.089   1.406   2.443
 1177WAT     H2 4051   6.005   1.306   2.520
 1178WAT      O 4052   6.727   2.365   1.672
 1178WAT     H1 4053   6.665   2.411   1.616
 1178WAT     H2 4054   6.777   2.435   1.715
 1179WAT      O 4055   6.214   2.319   2.342
 1179WAT     H1 4056   6.180   2.381   2.405
 1179WAT     H2 4057   6.231   2.371   2.263
 1180WAT      O 4058   7.065   1.699   2.086
 1180WAT     H1 4059   6.995   1.727   2.145
 1180WAT     H2 4060   7.101   1.781   2.052
 1181WAT      O 4061   6.057   1.525   2.324
 1181WAT     H1 4062   6.091   1.610   2.294
 1181WAT     H2 4063   5.963   1.540   2.335
 1182WAT      O 4064   6.135   2.515   2.522
 1182WAT     H1 4065   6.196   2.583   2.494
 1182WAT     H2 4066   6.049   2.555   2.513
 1183WAT      O 4067   5.664   2.434   1.410
 1183WAT     H1 4068   5.626   2.483   1.337
 1183WAT     H2 4069   5.690   2.501   1.473
 1184WAT      O 4070   6.425   1.275   1.956
 1184WAT     H1 4071   6.456   1.219   1.884
 1184WAT     H2 4072   6.332   1.288   1.938
 1185WAT      O 4073   6.980   2.846   2.185
 1185WAT     H1 4074   6.980   2.805   2.098
 1185WAT     H2 4075   6.925   2.923   2.175
 1186WAT      O 4076   7.109   2.518   1.694
 1186WAT     H1 4077   7.098   2.423   1.707
 1186WAT     H2 4078   7.108   2.554   1.783
 1187WAT      O 4079   6.920   2.337   2.318
 1187WAT     H1 4080   6.962   2.314   2.235
 1187WAT     H2 4081   6.992   2.362   2.376
 1188WAT      O 4082   6.664   2.081   1.631
 1188WAT     H1 4083   6.571   2.074   1.652
 1188WAT     H2 4084   6.679   2.174   1.618
 1189WAT      O 4085   6.662   1.707   1.327
 1189WAT     H1 4086   6.569   1.724   1.339
 1189WAT     H2 4087   6.694   1.781   1.276
 1190WAT      O 4088   7.066   2.237   1.680
 1190WAT     H1 4089   7.005   2.203   1.615
 1190WAT     H2 4090   7.066   2.172   1.751
 1191WAT      O 4091   7.011   1.854   2.422
 1191WAT     H1 4092   6.970   1.937   2.446
 1191WAT     H2 4093   6.938   1.796   2.402
 1192WAT      O 4094   6.224   2.133   1.908
 1192WAT     H1 4095   6.184   2.062   1.858
 1192WAT     H2 4096   6.233   2.098   1.997
 1193WAT      O 4097   6.271   2.501   2.124
 1193WAT     H1 4098   6.241   2.442   2.056
 1193WAT     H2 4099   6.366   2.506   2.113
 1194WAT      O 4100   6.096   1.809   2.286
 1194WAT     H1 4101   6.150   1.823   2.208
 1194WAT     H2 4102   6.147   1.849   2.357
 1195WAT      O 4103   7.080   2.859   2.492
 1195WAT     H1 4104   7.033   2.939   2.470
 1195WAT     H2 4105   7.011   2.794   2.505
 1196WAT      O 4106   6.181   2.476   2.789
 1196WAT     H1 4107   6.091   2.498   2.814
 1196WAT     H2 4108   6.182   2.488   2.694
 1197WAT      O 4109   6.884   2.161   1.381
 1197WAT     H1 4110   6.927   2.077   1.366
 1197WAT     H2 4111   6.956   2.224   1.389
 1198WAT      O 4112   6.063   2.163   2.647
 1198WAT     H1 4113   6.049   2.251   2.683
 1198WAT     H2 4114   5.975   2.129   2.632
 1199WAT      O 4115   6.695   2.654   1.778
 1199WAT     H1 4116   6.739   2.729   1.736
 1199WAT     H2 4117   6.689   2.679   1.870
 1200WAT      O 4118   6.243   2.757   2.868
 1200WAT     H1 4119   6.240   2.797   2.781
 1200WAT     H2 4120   6.226   2.664   2.852
 1201WAT      O 4121   5.894   2.023   1.658
 1201WAT     H1 4122   5.882   2.095   1.597
 1201WAT     H2 4123   5.863   1.946   1.610
 1202WAT      O 4124   5.658   2.340   2.239
 1202WAT     H1 4125   5.665   2.353   2.144
 1202WAT     H2 4126   5.720   2.269   2.258
 1203WAT      O 4127   5.783   2.509   1.879
 1203WAT     H1 4128   5.743   2.525   1.794
 1203WAT     H2 4129   5.872   2.481   1.859
 1204WAT      O 4130   6.765   2.925   2.571
 1204WAT     H1 4131   6.816   2.916   2.652
 1204WAT     H2 4132   6.680   2.959   2.600
 1205WAT      O 4133   6.961   2.953   1.513
 1205WAT     H1 4134   6.946   2.924   1.603
 1205WAT     H2 4135   6.946   2.875   1.460
 1206WAT      O 4136   6.209   2.931   1.691
 1206WAT     H1 4137   6.192   2.839   1.670
 1206WAT     H2 4138   6.124   2.967   1.715
 1207WAT      O 4139   6.932   2.705   1.369
 1207WAT     H1 4140   6.862   2.704   1.303
 1207WAT     H2 4141   7.006   2.662   1.327
 1208WAT      O 4142   6.888   2.867   1.777
 1208WAT     H1 4143   6.935   2.789   1.808
 1208WAT     H2 4144   6.923   2.938   1.831
 1209WAT      O 4145   5.664   2.445   2.493
 1209WAT     H1 4146   5.679   2.397   2.411
 1209WAT     H2 4147   5.710   2.393   2.559
 1210WAT      O 4148   6.141   1.357   1.996
 1210WAT     H1 4149   6.097   1.435   1.963
 1210WAT     H2 4150   6.197   1.389   2.067
 1211WAT      O 4151   6.570   1.644   2.557
 1211WAT     H1 4152   6.523   1.665   2.638
 1211WAT     H2 4153   6.529   1.563   2.526
 1212WAT      O 4154   7.070   1.766   2.670
 1212WAT     H1 4155   6.985   1.736   2.702
 1212WAT     H2 4156   7.055   1.790   2.579
 1213WAT      O 4157   6.779   1.916   2.879
 1213WAT     H1 4158   6.811   1.832   2.847
 1213WAT     H2 4159   6.858   1.968   2.895
 1214WAT      O 4160   6.452   1.319   1.484
 1214WAT     H1 4161   6.390   1.319   1.557
 1214WAT     H2 4162   6.444   1.232   1.446
 1215WAT      O 4163   6.345   1.411   2.183
 1215WAT     H1 4164   6.373   1.502   2.174
 1215WAT     H2 4165   6.400   1.363   2.121
 1216WAT      O 4166   6.120   1.869   1.769
 1216WAT     H1 4167   6.097   1.848   1.859
 1216WAT     H2 4168   6.042   1.913   1.734
 1217WAT      O 4169   6.843   1.870   1.629
 1217WAT     H1 4170   6.783   1.942   1.611
 1217WAT     H2 4171   6.898   1.864   1.551
 1218WAT      O 4172   6.364   1.959   2.836
 1218WAT     H1 4173   6.354   1.865   2.821
 1218WAT     H2 4174   6.448   1.981   2.796
 1219WAT      O 4175   6.705   1.735   1.833
 1219WAT     H1 4176   6.743   1.766   1.751
 1219WAT     H2 4177   6.739   1.645   1.843
 1220WAT      O 4178   5.877   1.600   2.651
 1220WAT     H1 4179   5.838   1.685   2.672
 1220WAT     H2 4180   5.808   1.537   2.669
 1221WAT      O 4181   6.535   1.609   2.958
 1221WAT     H1 4182   6.466   1.588   3.022
 1221WAT     H2 4183   6.609   1.637   3.011
 1222WAT      O 4184   5.607   1.393   2.055
 1222WAT     H1 4185   5.578   1.450   2.126
 1222WAT     H2 4186   5.682   1.345   2.092
 1223WAT      O 4187   5.627   1.787   1.174
 1223WAT     H1 4188   5.618   1.881   1.189
 1223WAT     H2 4189   5.590   1.773   1.087
 1224WAT      O 4190   6.762   1.993   2.241
 1224WAT     H1 4191   6.689   2.044   2.276
 1224WAT     H2 4192   6.722   1.911   2.211
 1225WAT      O 4193   6.406   1.660   2.082
 1225WAT     H1 4194   6.407   1.617   1.997
 1225WAT     H2 4195   6.496   1.692   2.093
 1226WAT      O 4196   5.991   1.648   1.978
 1226WAT     H1 4197   5.957   1.696   2.054
 1226WAT     H2 4198   5.915   1.604   1.942
 1227WAT      O 4199   6.411   1.760   1.382
 1227WAT     H1 4200   6.424   1.756   1.477
 1227WAT     H2 4201   6.374   1.847   1.366
 1228WAT      O 4202   6.808   1.538   2.183
 1228WAT     H1 4203   6.810   1.583   2.267
 1228WAT     H2 4204   6.784   1.448   2.204
 1229WAT      O 4205   6.312   1.993   1.320
 1229WAT     H1 4206   6.257   1.947   1.257
 1229WAT     H2 4207   6.384   2.028   1.268
 1230WAT      O 4208   7.151   1.279   2.767
 1230WAT     H1 4209   7.184   1.205   2.819
 1230WAT     H2 4210   7.155   1.248   2.676
 1231WAT      O 4211   5.822   2.380   2.709
 1231WAT     H1 4212   5.782   2.317   2.769
 1231WAT     H2 4213   5.852   2.452   2.765
 1232WAT      O 4214   6.436   2.067   2.257
 1232WAT     H1 4215   6.473   2.019   2.331
 1232WAT     H2 4216   6.417   2.154   2.291
 1233WAT      O 4217   5.723   1.540   1.869
 1233WAT     H1 4218   5.693   1.504   1.953
 1233WAT     H2 4219   5.716   1.467   1.808
 1234WAT      O 4220   6.215   1.970   2.488
 1234WAT     H1 4221   6.185   2.057   2.511
 1234WAT     H2 4222   6.311   1.976   2.492
 1235WAT      O 4223   6.069   2.391   1.548
 1235WAT     H1 4224   5.991   2.337   1.533
 1235WAT     H2 4225   6.142   2.339   1.514
 1236WAT      O 4226   7.143   2.291   2.127
 1236WAT     H1 4227   7.216   2.340   2.088
 1236WAT     H2 4228   7.124   2.223   2.063
 1237WAT      O 4229   6.690   1.430   1.542
 1237WAT     H1 4230   6.609   1.380   1.534
 1237WAT     H2 4231   6.671   1.514   1.500
 1238WAT      O 4232   6.682   2.298   2.717
 1238WAT     H1 4233   6.675   2.207   2.690
 1238WAT     H2 4234   6.618   2.307   2.788
 1239WAT      O 4235   6.961   1.867   1.371
 1239WAT     H1 4236   7.050   1.898   1.354
 1239WAT     H2 4237   6.958   1.780   1.332
 1240WAT      O 4238   6.072   2.358   1.913
 1240WAT     H1 4239   6.124   2.278   1.906
 1240WAT     H2 4240   6.027   2.351   1.996
 1241WAT      O 4241   6.561   2.484   1.439
 1241WAT     H1 4242   6.595   2.559   1.390
 1241WAT     H2 4243   6.478   2.515   1.475
 1242WAT      O 4244   5.821   2.055   2.603
 1242WAT     H1 4245   5.784   2.121   2.662
 1242WAT     H2 4246   5.792   1.971   2.640
 1243WAT      O 4247   6.140   2.099   2.892
 1243WAT     H1 4248   6.111   2.115   2.802
 1243WAT     H2 4249   6.218   2.045   2.883
 1244WAT      O 4250   6.675   2.580   2.691
 1244WAT     H1 4251   6.676   2.486   2.669
 1244WAT     H2 4252   6.604   2.589   2.755
 1245WAT      O 4253   7.188   1.998   1.318
 1245WAT     H1 4254   7.180   2.041   1.233
 1245WAT     H2 4255   7.260   2.044   1.361
 1246WAT      O 4256   6.849   2.417   1.976
 1246WAT     H1 4257   6.884   2.357   1.910
 1246WAT     H2 4258   6.761   2.384   1.993
 1247WAT      O 4259   6.458   2.492   1.717
 1247WAT     H1 4260   6.527   2.547   1.753
 1247WAT     H2 4261   6.379   2.547   1.720
 1248WAT      O 4262   5.671   2.054   1.266
 1248WAT     H1 4263   5.759   2.082   1.294
 1248WAT     H2 4264   5.623   2.136   1.254
 1249WAT      O 4265   6.390   2.192   1.679
 1249WAT     H1 4266   6.433   2.274   1.700
 1249WAT     H2 4267   6.353   2.162   1.762
 1250WAT      O 4268   6.618   2.744   2.400
 1250WAT     H1 4269   6.682   2.765   2.468
 1250WAT     H2 4270   6.655   2.668   2.356
 1251WAT      O 4271   5.979   1.227   1.725
 1251WAT     H1 4272   5.965   1.226   1.820
 1251WAT     H2 4273   5.896   1.260   1.689
 1252WAT      O 4274   6.746   2.544   2.272
 1252WAT     H1 4275   6.810   2.474   2.284
 1252WAT     H2 4276   6.799   2.622   2.254
 1253WAT      O 4277   7.129   2.573   1.245
 1253WAT     H1 4278   7.109   2.501   1.304
 1253WAT     H2 4279   7.092   2.547   1.160
 1254WAT      O 4280   6.923   2.624   2.593
 1254WAT     H1 4281   6.957   2.683   2.661
 1254WAT     H2 4282   6.831   2.611   2.616
 1255WAT      O 4283   5.708   2.976   1.322
 1255WAT     H1 4284   5.744   3.036   1.257
 1255WAT     H2 4285   5.694   3.030   1.400
 1256WAT      O 4286   5.678   1.403   2.670
 1256WAT     H1 4287   5.607   1.423   2.731
 1256WAT     H2 4288   5.721   1.326   2.709
 1257WAT      O 4289   7.088   2.364   1.412
 1257WAT     H1 4290   7.060   2.412   1.490
 1257WAT     H2 4291   7.168   2.319   1.438
 1258WAT      O 4292   6.506   2.629   2.910
 1258WAT     H1 4293   6.473   2.557   2.964
 1258WAT     H2 4294   6.439   2.696   2.917
 1259WAT      O 4295   6.310   2.714   1.404
 1259WAT     H1 4296   6.309   2.787   1.342
 1259WAT     H2 4297   6.219   2.689   1.413
 1260WAT      O 4298   5.870   2.236   1.478
 1260WAT     H1 4299   5.809   2.310   1.478
 1260WAT     H2 4300   5.918   2.244   1.396
 1261WAT      O 4301   6.827   1.652   2.445
 1261WAT     H1 4302   6.864   1.571   2.479
 1261WAT     H2 4303   6.742   1.659   2.487
 1262WAT      O 4304   7.164   1.548   1.527
 1262WAT     H1 4305   7.101   1.559   1.455
 1262WAT     H2 4306   7.114   1.569   1.606
 1263WAT      O 4307   6.609   2.719   1.270
 1263WAT     H1 4308   6.619   2.699   1.177
 1263WAT     H2 4309   6.519   2.695   1.291
 1264WAT      O 4310   6.361   1.776   1.668
 1264WAT     H1 4311   6.290   1.823   1.712
 1264WAT     H2 4312   6.390   1.710   1.732
 1265WAT      O 4313   6.523   1.918   2.468
 1265WAT     H1 4314   6.573   1.965   2.535
 1265WAT     H2 4315   6.538   1.826   2.489
 1266WAT      O 4316   6.764   1.448   1.812
 1266WAT     H1 4317   6.751   1.450   1.717
 1266WAT     H2 4318   6.859   1.453   1.823
 1267WAT      O 4319   6.473   2.973   1.740
 1267WAT     H1 4320   6.498   2.968   1.648
 1267WAT     H2 4321   6.378   2.959   1.739
 1268WAT      O 4322   6.180   1.608   1.406
 1268WAT     H1 4323   6.266   1.650   1.399
 1268WAT     H2 4324   6.146   1.638   1.490
 1269WAT      O 4325   7.073   2.065   1.898
 1269WAT     H1 4326   6.979   2.064   1.915
 1269WAT     H2 4327   7.105   1.985   1.941
 1270WAT      O 4328   6.070   2.231   1.254
 1270WAT     H1 4329   6.148   2.222   1.309
 1270WAT     H2 4330   6.080   2.163   1.187
 1271WAT      O 4331   5.941   1.976   1.323
 1271WAT     H1 4332   5.949   1.881   1.333
 1271WAT     H2 4333   6.031   2.008   1.332
 1272WAT      O 4334   6.021   2.990   2.033
 1272WAT     H1 4335   6.095   2.935   2.059
 1272WAT     H2 4336   6.060   3.077   2.018
 1273WAT      O 4337   5.709   2.597   1.619
 1273WAT     H1 4338   5.616   2.622   1.618
 1273WAT     H2 4339   5.756   2.680   1.607
 1274WAT      O 4340   6.331   2.907   1.214
 1274WAT     H1 4341   6.411   2.938   1.170
 1274WAT     H2 4342   6.280   2.865   1.145
 1275WAT      O 4343   6.806   2.520   2.946
 1275WAT     H1 4344   6.745   2.522   2.872
 1275WAT     H2 4345   6.775   2.446   2.999
 1276WAT      O 4346   6.948   2.893   2.806
 1276WAT     H1 4347   7.043   2.884   2.803
 1276WAT     H2 4348   6.932   2.958   2.874
 1277WAT      O 4349   7.239   2.830   1.357
 1277WAT     H1 4350   7.208   2.789   1.276
 1277WAT     H2 4351   7.216   2.923   1.346
 1278WAT      O 4352   5.694   2.159   2.845
 1278WAT     H1 4353   5.744   2.100   2.902
 1278WAT     H2 4354   5.620   2.186   2.899
 1279WAT      O 4355   6.384   2.430   1.200
 1279WAT     H1 4356   6.373   2.369   1.273
 1279WAT     H2 4357   6.367   2.377   1.122
 1280WAT      O 4358   6.400   2.299   2.798
 1280WAT     H1 4359   6.322   2.355   2.790
 1280WAT     H2 4360   6.417   2.269   2.709
 1281WAT      O 4361   6.708   2.336   1.261
 1281WAT     H1 4362   6.653   2.381   1.325
 1281WAT     H2 4363   6.770   2.285   1.313
 1282WAT      O 4364   7.113   2.471   2.854
 1282WAT     H1 4365   7.187   2.505   2.804
 1282WAT     H2 4366   7.037   2.488   2.799
 1283WAT      O 4367   5.897   1.971   2.935
 1283WAT     H1 4368   5.901   1.943   3.026
 1283WAT     H2 4369   5.982   2.012   2.918
 1284WAT      O 4370   6.273   2.231   1.450
 1284WAT     H1 4371   6.317   2.216   1.534
 1284WAT     H2 4372   6.288   2.150   1.401
 1285WAT      O 4373   6.092   1.829   2.731
 1285WAT     H1 4374   6.037   1.782   2.668
 1285WAT     H2 4375   6.158   1.873   2.678
 1286WAT      O 4376   6.526   2.133   1.176
 1286WAT     H1 4377   6.578   2.063   1.139
 1286WAT     H2 4378   6.590   2.198   1.205
 1287WAT      O 4379   6.980   2.274   2.708
 1287WAT     H1 4380   7.022   2.293   2.793
 1287WAT     H2 4381   6.887   2.290   2.724
 1288WAT      O 4382   7.028   2.010   2.908
 1288WAT     H1 4383   7.086   1.935   2.899
 1288WAT     H2 4384   7.045   2.063   2.830
 1289WAT      O 4385   6.139   1.526   2.740
 1289WAT     H1 4386   6.130   1.465   2.667
 1289WAT     H2 4387   6.081   1.598   2.717
 1290WAT      O 4388   6.416   1.382   2.443
 1290WAT     H1 4389   6.371   1.384   2.358
 1290WAT     H2 4390   6.353   1.342   2.502
 1291WAT      O 4391   6.456   2.272   2.505
 1291WAT     H1 4392   6.499   2.356   2.488
 1291WAT     H2 4393   6.365   2.285   2.481
 1292WAT      O 4394   6.690   2.044   2.643
 1292WAT     H1 4395   6.703   1.985   2.718
 1292WAT     H2 4396   6.776   2.048   2.601
 1293WAT      O 4397   6.922   2.100   2.502
 1293WAT     H1 4398   6.873   2.153   2.440
 1293WAT     H2 4399   6.959   2.163   2.564
 1294WAT      O 4400   6.164   1.839   1.145
 1294WAT     H1 4401   6.144   1.752   1.181
 1294WAT     H2 4402   6.147   1.830   1.051
 1295WAT      O 4403   6.243   2.903   2.616
 1295WAT     H1 4404   6.187   2.974   2.584
 1295WAT     H2 4405   6.266   2.854   2.538
 1296WAT      O 4406   6.367   1.699   2.769
 1296WAT     H1 4407   6.426   1.668   2.838
 1296WAT     H2 4408   6.285   1.652   2.784
 1297WAT      O 4409   6.849   1.661   2.793
 1297WAT     H1 4410   6.780   1.594   2.786
 1297WAT     H2 4411   6.921   1.616   2.837
 1298WAT      O 4412   6.911   1.320   1.398
 1298WAT     H1 4413   6.940   1.236   1.434
 1298WAT     H2 4414   6.835   1.344   1.450
 1299WAT      O 4415   6.044   1.550   1.144
 1299WAT     H1 4416   6.075   1.549   1.053
 1299WAT     H2 4417   6.118   1.514   1.194
 1300WAT      O 4418   6.527   3.026   2.642
 1300WAT     H1 4419   6.520   3.116   2.673
 1300WAT     H2 4420   6.437   2.994   2.639
 1301WAT      O 4421   6.367   1.443   1.242
 1301WAT     H1 4422   6.331   1.376   1.185
 1301WAT     H2 4423   6.386   1.398   1.324
 1302WAT      O 4424   6.582   2.944   1.404
 1302WAT     H1 4425   6.672   2.976   1.407
 1302WAT     H2 4426   6.585   2.870   1.343
 1303WAT      O 4427   5.947   2.480   1.226
 1303WAT     H1 4428   5.989   2.534   1.292
 1303WAT     H2 4429   5.995   2.397   1.228
 1304WAT      O 4430   5.668   2.758   1.973
 1304WAT     H1 4431   5.702   2.672   1.949
 1304WAT     H2 4432   5.711   2.779   2.056
 1305WAT      O 4433   6.128   2.592   1.739
 1305WAT     H1 4434   6.097   2.579   1.829
 1305WAT     H2 4435   6.117   2.507   1.697
 1306WAT      O 4436   5.717   2.845   2.246
 1306WAT     H1 4437   5.673   2.863   2.329
 1306WAT     H2 4438   5.773   2.921   2.232
 1307WAT      O 4439   5.700   2.096   1.882
 1307WAT     H1 4440   5.634   2.069   1.817
 1307WAT     H2 4441   5.784   2.085   1.837
 1308WAT      O 4442   7.148   2.468   2.485
 1308WAT     H1 4443   7.067   2.511   2.512
 1308WAT     H2 4444   7.189   2.529   2.424
 1309WAT      O 4445   6.996   1.576   1.304
 1309WAT     H1 4446   7.037   1.557   1.220
 1309WAT     H2 4447   6.964   1.491   1.335
 1310WAT      O 4448   5.805   2.135   2.336
 1310WAT     H1 4449   5.840   2.125   2.425
 1310WAT     H2 4450   5.747   2.060   2.325
 1311WAT      O 4451   5.758   1.825   2.727
 1311WAT     H1 4452   5.669   1.823   2.761
 1311WAT     H2 4453   5.813   1.847   2.803
 1312WAT      O 4454   7.127   1.503   2.916
 1312WAT     H1 4455   7.215   1.506   2.954
 1312WAT     H2 4456   7.129   1.431   2.853
 1313WAT      O 4457   5.621   1.817   1.476
 1313WAT     H1 4458   5.531   1.844   1.459
 1313WAT     H2 4459   5.669   1.844   1.399
 1314WAT      O 4460   5.876   1.723   1.268
 1314WAT     H1 4461   5.945   1.679   1.219
 1314WAT     H2 4462   5.804   1.730   1.205
 1315WAT      O 4463   5.839   1.328   1.171
 1315WAT     H1 4464   5.912   1.382   1.203
 1315WAT     H2 4465   5.867   1.301   1.083
 1316WAT      O 4466   7.221   1.815   1.598
 1316WAT     H1 4467   7.271   1.792   1.677
 1316WAT     H2 4468   7.202   1.731   1.557
 1317WAT      O 4469   5.809   1.253   2.161
 1317WAT     H1 4470   5.875   1.198   2.118
 1317WAT     H2 4471   5.851   1.279   2.244
 1318WAT      O 4472   7.198   1.274   2.498
 1318WAT     H1 4473   7.263   1.334   2.533
 1318WAT     H2 4474   7.213   1.275   2.403
 1319WAT      O 4475   7.155   2.944   1.838
 1319WAT     H1 4476   7.214   2.911   1.770
 1319WAT     H2 4477   7.180   2.896   1.917
 1320WAT      O 4478   5.785   1.269   2.437
 1320WAT     H1 4479   5.750   1.315   2.513
 1320WAT     H2 4480   5.751   1.180   2.444
 1321WAT      O 4481   5.945   2.586   2.853
 1321WAT     H1 4482   5.941   2.549   2.941
 1321WAT     H2 4483   5.958   2.680   2.867
 1322WAT      O 4484   6.315   2.742   2.413
 1322WAT     H1 4485   6.291   2.768   2.324
 1322WAT     H2 4486   6.409   2.758   2.418
 1323WAT      O 4487   6.536   1.387   2.789
 1323WAT     H1 4488   6.530   1.448   2.862
 1323WAT     H2 4489   6.630   1.377   2.774
 1324WAT      O 4490   6.800   1.355   2.752
 1324WAT     H1 4491   6.861   1.386   2.686
 1324WAT     H2 4492   6.854   1.305   2.814
 1325WAT      O 4493   5.852   1.222   2.763
 1325WAT     H1 4494   5.906   1.203   2.687
 1325WAT     H2 4495   5.858   1.143   2.817
 1326WAT      O 4496   5.928   2.881   2.563
 1326WAT     H1 4497   5.870   2.868   2.638
 1326WAT     H2 4498   5.928   2.797   2.518
 1327WAT      O 4499   6.875   1.211   2.386
 1327WAT     H1 4500   6.787   1.243   2.363
 1327WAT     H2 4501   6.862   1.162   2.467
 1328WAT      O 4502   6.964   1.430   2.524
 1328WAT     H1 4503   6.931   1.349   2.484
 1328WAT     H2 4504   7.058   1.427   2.511
 1329WAT      O 4505   7.210   3.008   2.220
 1329WAT     H1 4506   7.164   3.083   2.183
 1329WAT     H2 4507   7.147   2.936   2.216
 1330WAT      O 4508   5.892   2.618   2.460
 1330WAT     H1 4509   5.819   2.556   2.454
 1330WAT     H2 4510   5.898   2.656   2.372
 1331WAT      O 4511   6.253   2.839   2.139
 1331WAT     H1 4512   6.304   2.778   2.085
 1331WAT     H2 4513   6.318   2.890   2.186
 1332WAT      O 4514   6.527   2.928   2.221
 1332WAT     H1 4515   6.556   2.902   2.133
 1332WAT     H2 4516   6.577   2.873   2.280
 1333WAT      O 4517   6.648   1.302   2.279
 1333WAT     H1 4518   6.570   1.349   2.308
 1333WAT     H2 4519   6.618   1.211   2.267
 1334WAT      O 4520   7.102   1.372   2.083
 1334WAT     H1 4521   7.148   1.367   1.999
 1334WAT     H2 4522   7.077   1.464   2.091
 1335WAT      O 4523   5.721   2.949   1.780
 1335WAT     H1 4524   5.704   2.886   1.850
 1335WAT     H2 4525   5.634   2.970   1.745
 1336WAT      O 4526   5.783   1.333   1.531
 1336WAT     H1 4527   5.858   1.344   1.473
 1336WAT     H2 4528   5.736   1.416   1.525
 1337WAT      O 4529   6.436   1.544   1.831
 1337WAT     H1 4530   6.356   1.506   1.795
 1337WAT     H2 4531   6.488   1.468   1.860
 1338WAT      O 4532   6.887   1.210   1.954
 1338WAT     H1 4533   6.947   1.267   2.001
 1338WAT     H2 4534   6.813   1.267   1.931
 1339WAT      O 4535   7.202   1.250   1.481
 1339WAT     H1 4536   7.221   1.340   1.508
 1339WAT     H2 4537   7.123   1.227   1.530
 1340WAT      O 4538   5.880   2.818   1.526
 1340WAT     H1 4539   5.829   2.857   1.454
 1340WAT     H2 4540   5.873   2.881   1.597
 1341WAT      O 4541   6.020   1.385   1.385
 1341WAT     H1 4542   6.073   1.306   1.373
 1341WAT     H2 4543   6.083   1.453   1.407
 1342WAT      O 4544   6.239   1.359   1.690
 1342WAT     H1 4545   6.176   1.289   1.707
 1342WAT     H2 4546   6.185   1.435   1.669
 1343WAT      O 4547   6.533   3.020   2.957
 1343WAT     H1 4548   6.626   2.997   2.962
 1343WAT     H2 4549   6.532   3.103   2.909
 1344WAT      O 4550   6.252   1.287   2.934
 1344WAT     H1 4551   6.224   1.337   2.857
 1344WAT     H2 4552   6.290   1.207   2.897
 1345WAT      O 4553   6.142   3.014   1.412
 1345WAT     H1 4554   6.214   2.985   1.358
 1345WAT     H2 4555   6.167   2.989   1.501
 1346WAT      O 4556   6.057   2.625   1.413
 1346WAT     H1 4557   5.994   2.672   1.468
 1346WAT     H2 4558   6.069   2.541   1.457
 1347WAT      O 4559   6.912   1.229   2.991
 1347WAT     H1 4560   6.901   1.260   3.081
 1347WAT     H2 4561   6.994   1.268   2.962
 1348WAT      O 4562   7.191   2.944   2.939
 1348WAT     H1 4563   7.269   2.893   2.920
 1348WAT     H2 4564   7.220   3.010   3.002
 1349WAT      O 4565   6.615   2.208   0.215
 1349WAT     H1 4566   6.538   2.159   0.245
 1349WAT     H2 4567   6.681   2.140   0.199
 1350WAT      O 4568   6.016   2.240   0.304
 1350WAT     H1 4569   5.934   2.212   0.344
 1350WAT     H2 4570   6.078   2.246   0.376
 1351WAT      O 4571   6.015   2.642   0.324
 1351WAT     H1 4572   6.046   2.553   0.306
 1351WAT     H2 4573   6.090   2.698   0.301
 1352WAT      O 4574   5.654   1.994   0.271
 1352WAT     H1 4575   5.712   1.918   0.271
 1352WAT     H2 4576   5.655   2.025   0.180
 1353WAT      O 4577   6.559   2.475   0.217
 1353WAT     H1 4578   6.554   2.381   0.201
 1353WAT     H2 4579   6.635   2.485   0.274
 1354WAT      O 4580   5.780   1.536   0.450
 1354WAT     H1 4581   5.761   1.447   0.477
 1354WAT     H2 4582   5.738   1.591   0.517
 1355WAT      O 4583   5.839   1.786   0.311
 1355WAT     H1 4584   5.910   1.811   0.371
 1355WAT     H2 4585   5.809   1.701   0.344
 1356WAT      O 4586   6.260   1.890   0.219
 1356WAT     H1 4587   6.312   1.940   0.282
 1356WAT     H2 4588   6.314   1.813   0.201
 1357WAT      O 4589   6.088   1.353   0.646
 1357WAT     H1 4590   6.089   1.406   0.566
 1357WAT     H2 4591   6.005   1.306   0.643
 1358WAT      O 4592   6.215   2.319   0.464
 1358WAT     H1 4593   6.179   2.381   0.527
 1358WAT     H2 4594   6.231   2.371   0.385
 1359WAT      O 4595   7.065   1.700   0.210
 1359WAT     H1 4596   6.994   1.728   0.268
 1359WAT     H2 4597   7.101   1.781   0.175
 1360WAT      O 4598   6.057   1.526   0.446
 1360WAT     H1 4599   6.091   1.610   0.417
 1360WAT     H2 4600   5.963   1.540   0.457
 1361WAT      O 4601   6.135   2.515   0.645
 1361WAT     H1 4602   6.197   2.583   0.616
 1361WAT     H2 4603   6.049   2.555   0.636
 1362WAT      O 4604   6.980   2.846   0.308
 1362WAT     H1 4605   6.981   2.805   0.221
 1362WAT     H2 4606   6.925   2.923   0.297
 1363WAT      O 4607   6.920   2.337   0.440
 1363WAT     H1 4608   6.963   2.314   0.358
 1363WAT     H2 4609   6.992   2.361   0.498
 1364WAT      O 4610   7.011   1.855   0.544
 1364WAT     H1 4611   6.970   1.937   0.569
 1364WAT     H2 4612   6.938   1.796   0.525
 1365WAT      O 4613   6.271   2.501   0.247
 1365WAT     H1 4614   6.241   2.441   0.179
 1365WAT     H2 4615   6.366   2.506   0.236
 1366WAT      O 4616   6.096   1.809   0.409
 1366WAT     H1 4617   6.150   1.823   0.331
 1366WAT     H2 4618   6.146   1.849   0.480
 1367WAT      O 4619   7.080   2.859   0.614
 1367WAT     H1 4620   7.033   2.940   0.593
 1367WAT     H2 4621   7.011   2.794   0.627
 1368WAT      O 4622   6.181   2.476   0.912
 1368WAT     H1 4623   6.091   2.498   0.937
 1368WAT     H2 4624   6.182   2.488   0.817
 1369WAT      O 4625   6.063   2.163   0.770
 1369WAT     H1 4626   6.049   2.251   0.806
 1369WAT     H2 4627   5.975   2.129   0.754
 1370WAT      O 4628   6.243   2.757   0.990
 1370WAT     H1 4629   6.240   2.797   0.904
 1370WAT     H2 4630   6.226   2.664   0.974
 1371WAT      O 4631   5.658   2.339   0.361
 1371WAT     H1 4632   5.667   2.353   0.267
 1371WAT     H2 4633   5.720   2.269   0.381
 1372WAT      O 4634   6.765   2.925   0.693
 1372WAT     H1 4635   6.816   2.916   0.774
 1372WAT     H2 4636   6.680   2.959   0.722
 1373WAT      O 4637   5.664   2.444   0.615
 1373WAT     H1 4638   5.679   2.397   0.533
 1373WAT     H2 4639   5.711   2.394   0.681
 1374WAT      O 4640   6.569   1.644   0.679
 1374WAT     H1 4641   6.523   1.665   0.760
 1374WAT     H2 4642   6.529   1.562   0.649
 1375WAT      O 4643   7.070   1.766   0.792
 1375WAT     H1 4644   6.985   1.736   0.824
 1375WAT     H2 4645   7.055   1.790   0.701
 1376WAT      O 4646   6.779   1.916   1.001
 1376WAT     H1 4647   6.811   1.832   0.969
 1376WAT     H2 4648   6.858   1.967   1.018
 1377WAT      O 4649   6.346   1.411   0.306
 1377WAT     H1 4650   6.374   1.502   0.297
 1377WAT     H2 4651   6.400   1.363   0.242
 1378WAT      O 4652   6.364   1.959   0.958
 1378WAT     H1 4653   6.354   1.865   0.943
 1378WAT     H2 4654   6.448   1.981   0.919
 1379WAT      O 4655   5.877   1.600   0.774
 1379WAT     H1 4656   5.838   1.685   0.794
 1379WAT     H2 4657   5.808   1.537   0.792
 1380WAT      O 4658   6.535   1.609   1.081
 1380WAT     H1 4659   6.466   1.588   1.144
 1380WAT     H2 4660   6.609   1.637   1.134
 1381WAT      O 4661   5.607   1.392   0.177
 1381WAT     H1 4662   5.578   1.451   0.247
 1381WAT     H2 4663   5.682   1.345   0.213
 1382WAT      O 4664   6.762   1.993   0.363
 1382WAT     H1 4665   6.689   2.044   0.399
 1382WAT     H2 4666   6.722   1.911   0.334
 1383WAT      O 4667   6.807   1.538   0.305
 1383WAT     H1 4668   6.810   1.583   0.390
 1383WAT     H2 4669   6.784   1.448   0.327
 1384WAT      O 4670   7.151   1.279   0.889
 1384WAT     H1 4671   7.184   1.206   0.942
 1384WAT     H2 4672   7.155   1.248   0.799
 1385WAT      O 4673   5.821   2.380   0.831
 1385WAT     H1 4674   5.783   2.317   0.892
 1385WAT     H2 4675   5.852   2.452   0.887
 1386WAT      O 4676   6.437   2.066   0.379
 1386WAT     H1 4677   6.472   2.019   0.454
 1386WAT     H2 4678   6.416   2.153   0.413
 1387WAT      O 4679   6.216   1.970   0.611
 1387WAT     H1 4680   6.185   2.057   0.634
 1387WAT     H2 4681   6.311   1.976   0.615
 1388WAT      O 4682   7.143   2.292   0.250
 1388WAT     H1 4683   7.216   2.340   0.211
 1388WAT     H2 4684   7.124   2.223   0.186
 1389WAT      O 4685   6.683   2.298   0.840
 1389WAT     H1 4686   6.675   2.207   0.812
 1389WAT     H2 4687   6.618   2.307   0.910
 1390WAT      O 4688   5.821   2.055   0.726
 1390WAT     H1 4689   5.784   2.121   0.785
 1390WAT     H2 4690   5.792   1.971   0.763
 1391WAT      O 4691   6.140   2.099   1.014
 1391WAT     H1 4692   6.112   2.115   0.924
 1391WAT     H2 4693   6.218   2.045   1.005
 1392WAT      O 4694   6.675   2.580   0.814
 1392WAT     H1 4695   6.676   2.486   0.793
 1392WAT     H2 4696   6.604   2.589   0.878
 1393WAT      O 4697   6.618   2.744   0.523
 1393WAT     H1 4698   6.682   2.765   0.591
 1393WAT     H2 4699   6.655   2.667   0.479
 1394WAT      O 4700   6.746   2.544   0.395
 1394WAT     H1 4701   6.810   2.474   0.407
 1394WAT     H2 4702   6.799   2.622   0.377
 1395WAT      O 4703   6.923   2.625   0.715
 1395WAT     H1 4704   6.957   2.683   0.783
 1395WAT     H2 4705   6.831   2.611   0.738
 1396WAT      O 4706   5.678   1.403   0.793
 1396WAT     H1 4707   5.607   1.423   0.854
 1396WAT     H2 4708   5.721   1.326   0.831
 1397WAT      O 4709   5.708   2.802   0.891
 1397WAT     H1 4710   5.718   2.708   0.878
 1397WAT     H2 4711   5.642   2.829   0.827
 1398WAT      O 4712   6.506   2.629   1.032
 1398WAT     H1 4713   6.473   2.557   1.087
 1398WAT     H2 4714   6.439   2.696   1.039
 1399WAT      O 4715   6.827   1.653   0.568
 1399WAT     H1 4716   6.864   1.571   0.601
 1399WAT     H2 4717   6.742   1.659   0.610
 1400WAT      O 4718   6.523   1.918   0.591
 1400WAT     H1 4719   6.573   1.966   0.657
 1400WAT     H2 4720   6.538   1.826   0.612
 1401WAT      O 4721   5.922   2.909   1.074
 1401WAT     H1 4722   6.002   2.941   1.115
 1401WAT     H2 4723   5.870   2.873   1.146
 1402WAT      O 4724   6.806   2.519   1.068
 1402WAT     H1 4725   6.745   2.522   0.994
 1402WAT     H2 4726   6.775   2.447   1.122
 1403WAT      O 4727   6.948   2.893   0.928
 1403WAT     H1 4728   7.043   2.884   0.925
 1403WAT     H2 4729   6.932   2.958   0.997
 1404WAT      O 4730   5.694   2.159   0.968
 1404WAT     H1 4731   5.744   2.100   1.025
 1404WAT     H2 4732   5.619   2.186   1.021
 1405WAT      O 4733   6.400   2.299   0.921
 1405WAT     H1 4734   6.322   2.355   0.913
 1405WAT     H2 4735   6.417   2.269   0.832
 1406WAT      O 4736   7.113   2.472   0.977
 1406WAT     H1 4737   7.187   2.505   0.926
 1406WAT     H2 4738   7.037   2.488   0.922
 1407WAT      O 4739   5.897   1.972   1.057
 1407WAT     H1 4740   5.901   1.943   1.148
 1407WAT     H2 4741   5.982   2.012   1.040
 1408WAT      O 4742   6.092   1.829   0.854
 1408WAT     H1 4743   6.038   1.782   0.791
 1408WAT     H2 4744   6.158   1.873   0.801
 1409WAT      O 4745   6.980   2.274   0.831
 1409WAT     H1 4746   7.022   2.293   0.915
 1409WAT     H2 4747   6.887   2.289   0.847
 1410WAT      O 4748   7.029   2.011   1.031
 1410WAT     H1 4749   7.086   1.935   1.022
 1410WAT     H2 4750   7.045   2.063   0.953
 1411WAT      O 4751   6.139   1.526   0.862
 1411WAT     H1 4752   6.130   1.465   0.789
 1411WAT     H2 4753   6.081   1.598   0.839
 1412WAT      O 4754   6.416   1.382   0.565
 1412WAT     H1 4755   6.371   1.384   0.481
 1412WAT     H2 4756   6.353   1.342   0.625
 1413WAT      O 4757   6.456   2.272   0.627
 1413WAT     H1 4758   6.499   2.356   0.610
 1413WAT     H2 4759   6.365   2.285   0.603
 1414WAT      O 4760   6.690   2.044   0.766
 1414WAT     H1 4761   6.703   1.985   0.841
 1414WAT     H2 4762   6.776   2.048   0.724
 1415WAT      O 4763   6.922   2.100   0.624
 1415WAT     H1 4764   6.873   2.153   0.562
 1415WAT     H2 4765   6.960   2.163   0.686
 1416WAT      O 4766   6.243   2.903   0.739
 1416WAT     H1 4767   6.187   2.974   0.707
 1416WAT     H2 4768   6.266   2.854   0.661
 1417WAT      O 4769   6.367   1.699   0.891
 1417WAT     H1 4770   6.426   1.668   0.960
 1417WAT     H2 4771   6.285   1.652   0.906
 1418WAT      O 4772   6.849   1.661   0.915
 1418WAT     H1 4773   6.780   1.594   0.908
 1418WAT     H2 4774   6.921   1.616   0.959
 1419WAT      O 4775   6.527   3.026   0.765
 1419WAT     H1 4776   6.520   3.116   0.795
 1419WAT     H2 4777   6.437   2.994   0.762
 1420WAT      O 4778   5.717   2.845   0.370
 1420WAT     H1 4779   5.673   2.863   0.452
 1420WAT     H2 4780   5.773   2.921   0.355
 1421WAT      O 4781   7.148   2.468   0.607
 1421WAT     H1 4782   7.067   2.511   0.634
 1421WAT     H2 4783   7.189   2.529   0.546
 1422WAT      O 4784   5.804   2.136   0.459
 1422WAT     H1 4785   5.840   2.125   0.548
 1422WAT     H2 4786   5.747   2.060   0.448
 1423WAT      O 4787   5.759   1.826   0.850
 1423WAT     H1 4788   5.669   1.823   0.883
 1423WAT     H2 4789   5.812   1.847   0.926
 1424WAT      O 4790   7.127   1.503   1.039
 1424WAT     H1 4791   7.215   1.506   1.076
 1424WAT     H2 4792   7.129   1.431   0.976
 1425WAT      O 4793   5.809   1.252   0.284
 1425WAT     H1 4794   5.875   1.198   0.240
 1425WAT     H2 4795   5.851   1.279   0.366
 1426WAT      O 4796   7.198   1.274   0.620
 1426WAT     H1 4797   7.263   1.334   0.656
 1426WAT     H2 4798   7.214   1.275   0.526
 1427WAT      O 4799   5.785   1.269   0.560
 1427WAT     H1 4800   5.749   1.315   0.636
 1427WAT     H2 4801   5.751   1.180   0.567
 1428WAT      O 4802   5.945   2.586   0.975
 1428WAT     H1 4803   5.941   2.549   1.064
 1428WAT     H2 4804   5.958   2.680   0.989
 1429WAT      O 4805   6.315   2.742   0.535
 1429WAT     H1 4806   6.291   2.768   0.446
 1429WAT     H2 4807   6.409   2.758   0.540
 1430WAT      O 4808   6.536   1.387   0.912
 1430WAT     H1 4809   6.530   1.448   0.985
 1430WAT     H2 4810   6.630   1.377   0.896
 1431WAT      O 4811   6.800   1.355   0.875
 1431WAT     H1 4812   6.861   1.385   0.808
 1431WAT     H2 4813   6.854   1.305   0.937
 1432WAT      O 4814   5.852   1.222   0.886
 1432WAT     H1 4815   5.906   1.203   0.810
 1432WAT     H2 4816   5.858   1.143   0.940
 1433WAT      O 4817   5.929   2.881   0.687
 1433WAT     H1 4818   5.870   2.868   0.761
 1433WAT     H2 4819   5.928   2.797   0.640
 1434WAT      O 4820   6.874   1.211   0.508
 1434WAT     H1 4821   6.787   1.243   0.486
 1434WAT     H2 4822   6.862   1.162   0.589
 1435WAT      O 4823   6.964   1.430   0.647
 1435WAT     H1 4824   6.931   1.349   0.607
 1435WAT     H2 4825   7.058   1.427   0.633
 1436WAT      O 4826   7.210   3.008   0.343
 1436WAT     H1 4827   7.164   3.083   0.306
 1436WAT     H2 4828   7.147   2.936   0.338
 1437WAT      O 4829   5.892   2.618   0.582
 1437WAT     H1 4830   5.819   2.556   0.576
 1437WAT     H2 4831   5.898   2.656   0.494
 1438WAT      O 4832   6.253   2.838   0.262
 1438WAT     H1 4833   6.304   2.778   0.208
 1438WAT     H2 4834   6.319   2.890   0.309
 1439WAT      O 4835   6.527   2.928   0.343
 1439WAT     H1 4836   6.555   2.902   0.256
 1439WAT     H2 4837   6.577   2.873   0.402
 1440WAT      O 4838   6.648   1.302   0.401
 1440WAT     H1 4839   6.570   1.349   0.430
 1440WAT     H2 4840   6.618   1.211   0.390
 1441WAT      O 4841   6.533   3.020   1.080
 1441WAT     H1 4842   6.626   2.997   1.084
 1441WAT     H2 4843   6.532   3.103   1.032
 1442WAT      O 4844   6.252   1.287   1.056
 1442WAT     H1 4845   6.224   1.337   0.980
 1442WAT     H2 4846   6.290   1.207   1.020
 1443WAT      O 4847   6.912   1.229   1.114
 1443WAT     H1 4848   6.901   1.260   1.204
 1443WAT     H2 4849   6.994   1.268   1.085
 1444WAT      O 4850   7.191   2.944   1.061
 1444WAT     H1 4851   7.269   2.893   1.043
 1444WAT     H2 4852   7.219   3.010   1.124
 1445WAT      O 4853   7.019   0.771   5.725
 1445WAT     H1 4854   6.971   0.694   5.758
 1445WAT     H2 4855   7.099   0.774   5.778
 1446WAT      O 4856   6.641   1.000   5.688
 1446WAT     H1 4857   6.579   1.045   5.631
 1446WAT     H2 4858   6.726   1.015   5.648
 1447WAT      O 4859   6.727   0.488   5.427
 1447WAT     H1 4860   6.665   0.534   5.371
 1447WAT     H2 4861   6.778   0.558   5.469
 1448WAT      O 4862   5.664   0.556   5.165
 1448WAT     H1 4863   5.626   0.605   5.092
 1448WAT     H2 4864   5.690   0.624   5.228
 1449WAT      O 4865   7.109   0.640   5.449
 1449WAT     H1 4866   7.098   0.546   5.462
 1449WAT     H2 4867   7.108   0.676   5.537
 1450WAT      O 4868   6.664   0.203   5.385
 1450WAT     H1 4869   6.571   0.197   5.407
 1450WAT     H2 4870   6.680   0.297   5.373
 1451WAT      O 4871   7.067   0.359   5.435
 1451WAT     H1 4872   7.005   0.326   5.370
 1451WAT     H2 4873   7.065   0.295   5.506
 1452WAT      O 4874   6.224   0.256   5.663
 1452WAT     H1 4875   6.184   0.185   5.613
 1452WAT     H2 4876   6.233   0.221   5.752
 1453WAT      O 4877   6.885   0.283   5.136
 1453WAT     H1 4878   6.928   0.199   5.121
 1453WAT     H2 4879   6.956   0.346   5.144
 1454WAT      O 4880   6.695   0.776   5.532
 1454WAT     H1 4881   6.739   0.851   5.491
 1454WAT     H2 4882   6.689   0.801   5.625
 1455WAT      O 4883   5.783   0.632   5.634
 1455WAT     H1 4884   5.743   0.647   5.549
 1455WAT     H2 4885   5.872   0.604   5.614
 1456WAT      O 4886   6.961   1.076   5.268
 1456WAT     H1 4887   6.946   1.047   5.358
 1456WAT     H2 4888   6.946   0.998   5.215
 1457WAT      O 4889   6.209   1.054   5.445
 1457WAT     H1 4890   6.192   0.962   5.425
 1457WAT     H2 4891   6.124   1.090   5.470
 1458WAT      O 4892   6.932   0.828   5.124
 1458WAT     H1 4893   6.862   0.827   5.058
 1458WAT     H2 4894   7.006   0.785   5.082
 1459WAT      O 4895   6.888   0.989   5.532
 1459WAT     H1 4896   6.934   0.911   5.563
 1459WAT     H2 4897   6.923   1.060   5.586
 1460WAT      O 4898   6.068   0.514   5.303
 1460WAT     H1 4899   5.992   0.459   5.288
 1460WAT     H2 4900   6.142   0.462   5.269
 1461WAT      O 4901   6.071   0.480   5.667
 1461WAT     H1 4902   6.124   0.401   5.661
 1461WAT     H2 4903   6.027   0.474   5.751
 1462WAT      O 4904   6.561   0.607   5.194
 1462WAT     H1 4905   6.595   0.682   5.145
 1462WAT     H2 4906   6.478   0.638   5.230
 1463WAT      O 4907   6.850   0.539   5.731
 1463WAT     H1 4908   6.884   0.479   5.665
 1463WAT     H2 4909   6.761   0.507   5.748
 1464WAT      O 4910   6.457   0.615   5.472
 1464WAT     H1 4911   6.527   0.670   5.508
 1464WAT     H2 4912   6.379   0.670   5.475
 1465WAT      O 4913   5.672   0.177   5.019
 1465WAT     H1 4914   5.759   0.205   5.050
 1465WAT     H2 4915   5.623   0.258   5.009
 1466WAT      O 4916   6.389   0.315   5.434
 1466WAT     H1 4917   6.433   0.397   5.455
 1466WAT     H2 4918   6.353   0.285   5.517
 1467WAT      O 4919   7.129   0.696   5.000
 1467WAT     H1 4920   7.109   0.624   5.059
 1467WAT     H2 4921   7.092   0.670   4.916
 1468WAT      O 4922   5.709   1.098   5.077
 1468WAT     H1 4923   5.744   1.159   5.012
 1468WAT     H2 4924   5.694   1.153   5.154
 1469WAT      O 4925   7.088   0.486   5.167
 1469WAT     H1 4926   7.060   0.534   5.245
 1469WAT     H2 4927   7.168   0.441   5.193
 1470WAT      O 4928   6.310   0.836   5.159
 1470WAT     H1 4929   6.310   0.910   5.097
 1470WAT     H2 4930   6.218   0.811   5.168
 1471WAT      O 4931   5.870   0.359   5.233
 1471WAT     H1 4932   5.809   0.433   5.233
 1471WAT     H2 4933   5.918   0.368   5.150
 1472WAT      O 4934   6.609   0.842   5.025
 1472WAT     H1 4935   6.619   0.822   4.932
 1472WAT     H2 4936   6.519   0.817   5.046
 1473WAT      O 4937   6.473   1.096   5.495
 1473WAT     H1 4938   6.498   1.091   5.402
 1473WAT     H2 4939   6.378   1.082   5.494
 1474WAT      O 4940   6.070   0.354   5.009
 1474WAT     H1 4941   6.148   0.344   5.064
 1474WAT     H2 4942   6.079   0.286   4.942
 1475WAT      O 4943   6.021   1.113   5.787
 1475WAT     H1 4944   6.095   1.058   5.814
 1475WAT     H2 4945   6.059   1.199   5.773
 1476WAT      O 4946   5.709   0.720   5.375
 1476WAT     H1 4947   5.616   0.745   5.373
 1476WAT     H2 4948   5.756   0.802   5.362
 1477WAT      O 4949   6.331   1.029   4.969
 1477WAT     H1 4950   6.411   1.060   4.925
 1477WAT     H2 4951   6.280   0.987   4.900
 1478WAT      O 4952   7.239   0.954   5.111
 1478WAT     H1 4953   7.208   0.912   5.030
 1478WAT     H2 4954   7.216   1.046   5.100
 1479WAT      O 4955   6.384   0.552   4.955
 1479WAT     H1 4956   6.373   0.492   5.028
 1479WAT     H2 4957   6.367   0.499   4.877
 1480WAT      O 4958   6.708   0.458   5.016
 1480WAT     H1 4959   6.653   0.503   5.080
 1480WAT     H2 4960   6.770   0.408   5.068
 1481WAT      O 4961   6.273   0.353   5.205
 1481WAT     H1 4962   6.317   0.339   5.289
 1481WAT     H2 4963   6.288   0.273   5.156
 1482WAT      O 4964   6.526   0.257   4.930
 1482WAT     H1 4965   6.578   0.185   4.894
 1482WAT     H2 4966   6.590   0.321   4.960
 1483WAT      O 4967   6.582   1.067   5.159
 1483WAT     H1 4968   6.672   1.099   5.162
 1483WAT     H2 4969   6.585   0.993   5.098
 1484WAT      O 4970   5.946   0.602   4.981
 1484WAT     H1 4971   5.989   0.656   5.047
 1484WAT     H2 4972   5.995   0.519   4.983
 1485WAT      O 4973   5.668   0.881   5.727
 1485WAT     H1 4974   5.701   0.794   5.704
 1485WAT     H2 4975   5.711   0.902   5.810
 1486WAT      O 4976   6.127   0.714   5.493
 1486WAT     H1 4977   6.097   0.702   5.583
 1486WAT     H2 4978   6.117   0.628   5.452
 1487WAT      O 4979   5.700   0.220   5.636
 1487WAT     H1 4980   5.634   0.191   5.573
 1487WAT     H2 4981   5.784   0.208   5.592
 1488WAT      O 4982   7.155   1.067   5.593
 1488WAT     H1 4983   7.214   1.033   5.525
 1488WAT     H2 4984   7.180   1.018   5.671
 1489WAT      O 4985   5.720   1.072   5.535
 1489WAT     H1 4986   5.704   1.008   5.605
 1489WAT     H2 4987   5.634   1.092   5.500
 1490WAT      O 4988   5.880   0.941   5.281
 1490WAT     H1 4989   5.829   0.979   5.209
 1490WAT     H2 4990   5.873   1.004   5.352
 1491WAT      O 4991   6.142   1.137   5.167
 1491WAT     H1 4992   6.214   1.107   5.112
 1491WAT     H2 4993   6.167   1.112   5.256
 1492WAT      O 4994   6.057   0.747   5.168
 1492WAT     H1 4995   5.994   0.795   5.223
 1492WAT     H2 4996   6.069   0.663   5.212
 1493WAT      O 4997   6.615   0.330   3.970
 1493WAT     H1 4998   6.538   0.282   4.000
 1493WAT     H2 4999   6.681   0.262   3.954
 1494WAT      O 5000   6.016   0.363   4.058
 1494WAT     H1 5001   5.934   0.335   4.099
 1494WAT     H2 5002   6.078   0.369   4.131
 1495WAT      O 5003   7.018   0.771   3.849
 1495WAT     H1 5004   6.972   0.694   3.881
 1495WAT     H2 5005   7.099   0.773   3.900
 1496WAT      O 5006   6.015   0.765   4.078
 1496WAT     H1 5007   6.046   0.676   4.060
 1496WAT     H2 5008   6.090   0.821   4.056
 1497WAT      O 5009   6.641   1.001   3.812
 1497WAT     H1 5010   6.579   1.044   3.754
 1497WAT     H2 5011   6.726   1.015   3.771
 1498WAT      O 5012   6.559   0.598   3.972
 1498WAT     H1 5013   6.554   0.503   3.956
 1498WAT     H2 5014   6.635   0.608   4.029
 1499WAT      O 5015   6.728   0.488   3.550
 1499WAT     H1 5016   6.665   0.534   3.494
 1499WAT     H2 5017   6.777   0.558   3.592
 1500WAT      O 5018   6.214   0.441   4.218
 1500WAT     H1 5019   6.180   0.503   4.282
 1500WAT     H2 5020   6.231   0.494   4.140
 1501WAT      O 5021   6.136   0.638   4.400
 1501WAT     H1 5022   6.196   0.706   4.371
 1501WAT     H2 5023   6.049   0.677   4.390
 1502WAT      O 5024   5.664   0.556   3.288
 1502WAT     H1 5025   5.626   0.605   3.215
 1502WAT     H2 5026   5.690   0.624   3.351
 1503WAT      O 5027   6.980   0.968   4.062
 1503WAT     H1 5028   6.980   0.928   3.976
 1503WAT     H2 5029   6.925   1.046   4.052
 1504WAT      O 5030   7.109   0.640   3.571
 1504WAT     H1 5031   7.098   0.546   3.584
 1504WAT     H2 5032   7.108   0.677   3.660
 1505WAT      O 5033   6.920   0.460   4.195
 1505WAT     H1 5034   6.963   0.437   4.112
 1505WAT     H2 5035   6.992   0.483   4.253
 1506WAT      O 5036   6.664   0.203   3.507
 1506WAT     H1 5037   6.571   0.197   3.530
 1506WAT     H2 5038   6.680   0.297   3.496
 1507WAT      O 5039   7.067   0.359   3.558
 1507WAT     H1 5040   7.004   0.326   3.493
 1507WAT     H2 5041   7.065   0.294   3.628
 1508WAT      O 5042   6.224   0.256   3.785
 1508WAT     H1 5043   6.184   0.185   3.736
 1508WAT     H2 5044   6.233   0.221   3.874
 1509WAT      O 5045   6.271   0.623   4.003
 1509WAT     H1 5046   6.241   0.564   3.933
 1509WAT     H2 5047   6.366   0.628   3.991
 1510WAT      O 5048   7.080   0.982   4.369
 1510WAT     H1 5049   7.033   1.062   4.348
 1510WAT     H2 5050   7.011   0.916   4.383
 1511WAT      O 5051   6.181   0.598   4.666
 1511WAT     H1 5052   6.091   0.621   4.692
 1511WAT     H2 5053   6.182   0.611   4.572
 1512WAT      O 5054   6.884   0.283   3.258
 1512WAT     H1 5055   6.928   0.199   3.244
 1512WAT     H2 5056   6.956   0.346   3.266
 1513WAT      O 5057   6.063   0.286   4.524
 1513WAT     H1 5058   6.049   0.373   4.560
 1513WAT     H2 5059   5.975   0.251   4.510
 1514WAT      O 5060   6.695   0.776   3.655
 1514WAT     H1 5061   6.739   0.851   3.613
 1514WAT     H2 5062   6.688   0.801   3.747
 1515WAT      O 5063   6.243   0.880   4.745
 1515WAT     H1 5064   6.240   0.920   4.659
 1515WAT     H2 5065   6.226   0.787   4.729
 1516WAT      O 5066   5.658   0.462   4.116
 1516WAT     H1 5067   5.666   0.476   4.022
 1516WAT     H2 5068   5.720   0.391   4.135
 1517WAT      O 5069   5.782   0.631   3.757
 1517WAT     H1 5070   5.743   0.648   3.671
 1517WAT     H2 5071   5.872   0.604   3.737
 1518WAT      O 5072   6.765   1.047   4.448
 1518WAT     H1 5073   6.816   1.038   4.529
 1518WAT     H2 5074   6.680   1.082   4.477
 1519WAT      O 5075   6.961   1.076   3.390
 1519WAT     H1 5076   6.946   1.047   3.480
 1519WAT     H2 5077   6.946   0.998   3.337
 1520WAT      O 5078   6.209   1.054   3.568
 1520WAT     H1 5079   6.192   0.962   3.547
 1520WAT     H2 5080   6.124   1.090   3.592
 1521WAT      O 5081   6.932   0.828   3.247
 1521WAT     H1 5082   6.862   0.827   3.181
 1521WAT     H2 5083   7.006   0.785   3.205
 1522WAT      O 5084   6.888   0.989   3.655
 1522WAT     H1 5085   6.934   0.911   3.686
 1522WAT     H2 5086   6.923   1.060   3.708
 1523WAT      O 5087   5.664   0.568   4.370
 1523WAT     H1 5088   5.679   0.520   4.288
 1523WAT     H2 5089   5.710   0.516   4.437
 1524WAT      O 5090   5.822   0.503   4.586
 1524WAT     H1 5091   5.782   0.440   4.646
 1524WAT     H2 5092   5.852   0.574   4.643
 1525WAT      O 5093   6.437   0.189   4.134
 1525WAT     H1 5094   6.473   0.141   4.208
 1525WAT     H2 5095   6.416   0.276   4.169
 1526WAT      O 5096   6.068   0.514   3.426
 1526WAT     H1 5097   5.992   0.459   3.411
 1526WAT     H2 5098   6.142   0.462   3.392
 1527WAT      O 5099   7.143   0.414   4.004
 1527WAT     H1 5100   7.216   0.463   3.966
 1527WAT     H2 5101   7.124   0.345   3.940
 1528WAT      O 5102   6.683   0.420   4.595
 1528WAT     H1 5103   6.675   0.329   4.568
 1528WAT     H2 5104   6.618   0.430   4.665
 1529WAT      O 5105   6.072   0.481   3.790
 1529WAT     H1 5106   6.124   0.401   3.783
 1529WAT     H2 5107   6.027   0.473   3.874
 1530WAT      O 5108   6.561   0.607   3.317
 1530WAT     H1 5109   6.595   0.681   3.267
 1530WAT     H2 5110   6.478   0.638   3.353
 1531WAT      O 5111   6.141   0.222   4.769
 1531WAT     H1 5112   6.111   0.237   4.680
 1531WAT     H2 5113   6.218   0.167   4.760
 1532WAT      O 5114   6.675   0.702   4.568
 1532WAT     H1 5115   6.676   0.608   4.548
 1532WAT     H2 5116   6.604   0.711   4.632
 1533WAT      O 5117   6.850   0.538   3.853
 1533WAT     H1 5118   6.884   0.479   3.787
 1533WAT     H2 5119   6.761   0.507   3.870
 1534WAT      O 5120   6.457   0.615   3.595
 1534WAT     H1 5121   6.527   0.670   3.631
 1534WAT     H2 5122   6.379   0.670   3.597
 1535WAT      O 5123   5.672   0.177   3.142
 1535WAT     H1 5124   5.759   0.205   3.172
 1535WAT     H2 5125   5.623   0.258   3.131
 1536WAT      O 5126   6.389   0.315   3.556
 1536WAT     H1 5127   6.434   0.397   3.578
 1536WAT     H2 5128   6.353   0.285   3.639
 1537WAT      O 5129   6.618   0.867   4.278
 1537WAT     H1 5130   6.682   0.888   4.346
 1537WAT     H2 5131   6.654   0.790   4.233
 1538WAT      O 5132   6.746   0.667   4.150
 1538WAT     H1 5133   6.810   0.597   4.162
 1538WAT     H2 5134   6.799   0.745   4.132
 1539WAT      O 5135   7.129   0.696   3.122
 1539WAT     H1 5136   7.109   0.624   3.181
 1539WAT     H2 5137   7.092   0.670   3.038
 1540WAT      O 5138   6.923   0.748   4.470
 1540WAT     H1 5139   6.957   0.806   4.538
 1540WAT     H2 5140   6.831   0.734   4.493
 1541WAT      O 5141   5.709   1.098   3.200
 1541WAT     H1 5142   5.744   1.159   3.134
 1541WAT     H2 5143   5.694   1.153   3.277
 1542WAT      O 5144   7.088   0.486   3.289
 1542WAT     H1 5145   7.060   0.534   3.367
 1542WAT     H2 5146   7.168   0.441   3.315
 1543WAT      O 5147   5.708   0.925   4.646
 1543WAT     H1 5148   5.718   0.831   4.633
 1543WAT     H2 5149   5.641   0.951   4.582
 1544WAT      O 5150   6.506   0.751   4.787
 1544WAT     H1 5151   6.474   0.680   4.841
 1544WAT     H2 5152   6.439   0.819   4.793
 1545WAT      O 5153   6.310   0.836   3.281
 1545WAT     H1 5154   6.309   0.910   3.220
 1545WAT     H2 5155   6.218   0.812   3.291
 1546WAT      O 5156   5.870   0.359   3.355
 1546WAT     H1 5157   5.809   0.433   3.356
 1546WAT     H2 5158   5.918   0.368   3.273
 1547WAT      O 5159   6.609   0.842   3.148
 1547WAT     H1 5160   6.619   0.822   3.055
 1547WAT     H2 5161   6.519   0.817   3.168
 1548WAT      O 5162   6.473   1.096   3.617
 1548WAT     H1 5163   6.499   1.091   3.525
 1548WAT     H2 5164   6.378   1.082   3.616
 1549WAT      O 5165   6.070   0.354   3.132
 1549WAT     H1 5166   6.148   0.344   3.187
 1549WAT     H2 5167   6.079   0.286   3.065
 1550WAT      O 5168   6.021   1.113   3.910
 1550WAT     H1 5169   6.095   1.058   3.936
 1550WAT     H2 5170   6.060   1.199   3.895
 1551WAT      O 5171   5.709   0.720   3.498
 1551WAT     H1 5172   5.616   0.745   3.496
 1551WAT     H2 5173   5.756   0.802   3.485
 1552WAT      O 5174   5.922   1.031   4.828
 1552WAT     H1 5175   6.002   1.063   4.870
 1552WAT     H2 5176   5.870   0.995   4.900
 1553WAT      O 5177   6.332   1.030   3.092
 1553WAT     H1 5178   6.410   1.060   3.047
 1553WAT     H2 5179   6.280   0.987   3.023
 1554WAT      O 5180   6.806   0.642   4.823
 1554WAT     H1 5181   6.745   0.644   4.749
 1554WAT     H2 5182   6.775   0.569   4.877
 1555WAT      O 5183   6.948   1.016   4.683
 1555WAT     H1 5184   7.043   1.007   4.680
 1555WAT     H2 5185   6.932   1.080   4.752
 1556WAT      O 5186   7.239   0.953   3.234
 1556WAT     H1 5187   7.208   0.912   3.153
 1556WAT     H2 5188   7.216   1.046   3.223
 1557WAT      O 5189   5.695   0.281   4.723
 1557WAT     H1 5190   5.743   0.222   4.780
 1557WAT     H2 5191   5.619   0.308   4.776
 1558WAT      O 5192   6.384   0.552   3.078
 1558WAT     H1 5193   6.373   0.492   3.151
 1558WAT     H2 5194   6.367   0.499   3.000
 1559WAT      O 5195   6.399   0.422   4.676
 1559WAT     H1 5196   6.322   0.478   4.668
 1559WAT     H2 5197   6.417   0.392   4.587
 1560WAT      O 5198   6.708   0.458   3.138
 1560WAT     H1 5199   6.653   0.503   3.203
 1560WAT     H2 5200   6.770   0.408   3.191
 1561WAT      O 5201   7.113   0.595   4.732
 1561WAT     H1 5202   7.187   0.628   4.681
 1561WAT     H2 5203   7.037   0.611   4.676
 1562WAT      O 5204   6.273   0.353   3.327
 1562WAT     H1 5205   6.317   0.339   3.411
 1562WAT     H2 5206   6.288   0.272   3.279
 1563WAT      O 5207   6.526   0.257   3.053
 1563WAT     H1 5208   6.578   0.186   3.016
 1563WAT     H2 5209   6.590   0.321   3.083
 1564WAT      O 5210   6.980   0.398   4.585
 1564WAT     H1 5211   7.022   0.414   4.670
 1564WAT     H2 5212   6.887   0.412   4.601
 1565WAT      O 5213   6.457   0.394   4.383
 1565WAT     H1 5214   6.499   0.478   4.365
 1565WAT     H2 5215   6.365   0.408   4.358
 1566WAT      O 5216   6.924   0.223   4.379
 1566WAT     H1 5217   6.872   0.276   4.318
 1566WAT     H2 5218   6.959   0.286   4.441
 1567WAT      O 5219   6.243   1.026   4.494
 1567WAT     H1 5220   6.187   1.097   4.462
 1567WAT     H2 5221   6.267   0.976   4.416
 1568WAT      O 5222   6.527   1.148   4.520
 1568WAT     H1 5223   6.520   1.239   4.550
 1568WAT     H2 5224   6.437   1.116   4.517
 1569WAT      O 5225   6.582   1.066   3.282
 1569WAT     H1 5226   6.672   1.099   3.284
 1569WAT     H2 5227   6.585   0.993   3.220
 1570WAT      O 5228   5.946   0.602   3.104
 1570WAT     H1 5229   5.989   0.656   3.169
 1570WAT     H2 5230   5.995   0.519   3.106
 1571WAT      O 5231   5.668   0.881   3.850
 1571WAT     H1 5232   5.702   0.794   3.827
 1571WAT     H2 5233   5.711   0.902   3.933
 1572WAT      O 5234   6.128   0.714   3.616
 1572WAT     H1 5235   6.097   0.701   3.706
 1572WAT     H2 5236   6.117   0.629   3.575
 1573WAT      O 5237   5.717   0.968   4.124
 1573WAT     H1 5238   5.673   0.986   4.207
 1573WAT     H2 5239   5.773   1.044   4.110
 1574WAT      O 5240   5.700   0.220   3.759
 1574WAT     H1 5241   5.635   0.191   3.695
 1574WAT     H2 5242   5.784   0.208   3.715
 1575WAT      O 5243   7.148   0.590   4.361
 1575WAT     H1 5244   7.067   0.633   4.389
 1575WAT     H2 5245   7.189   0.652   4.301
 1576WAT      O 5246   5.804   0.257   4.214
 1576WAT     H1 5247   5.840   0.249   4.302
 1576WAT     H2 5248   5.747   0.181   4.204
 1577WAT      O 5249   7.155   1.066   3.715
 1577WAT     H1 5250   7.214   1.033   3.647
 1577WAT     H2 5251   7.180   1.018   3.794
 1578WAT      O 5252   5.945   0.709   4.730
 1578WAT     H1 5253   5.941   0.672   4.819
 1578WAT     H2 5254   5.958   0.803   4.744
 1579WAT      O 5255   6.315   0.864   4.290
 1579WAT     H1 5256   6.291   0.890   4.201
 1579WAT     H2 5257   6.409   0.880   4.296
 1580WAT      O 5258   5.929   1.003   4.442
 1580WAT     H1 5259   5.870   0.990   4.516
 1580WAT     H2 5260   5.928   0.920   4.395
 1581WAT      O 5261   7.210   1.131   4.098
 1581WAT     H1 5262   7.164   1.206   4.061
 1581WAT     H2 5263   7.147   1.059   4.093
 1582WAT      O 5264   5.892   0.741   4.337
 1582WAT     H1 5265   5.819   0.679   4.331
 1582WAT     H2 5266   5.898   0.778   4.249
 1583WAT      O 5267   6.253   0.961   4.016
 1583WAT     H1 5268   6.304   0.900   3.963
 1583WAT     H2 5269   6.318   1.012   4.064
 1584WAT      O 5270   6.527   1.050   4.098
 1584WAT     H1 5271   6.556   1.025   4.010
 1584WAT     H2 5272   6.578   0.995   4.157
 1585WAT      O 5273   5.721   1.072   3.658
 1585WAT     H1 5274   5.704   1.008   3.728
 1585WAT     H2 5275   5.634   1.092   3.623
 1586WAT      O 5276   5.880   0.941   3.403
 1586WAT     H1 5277   5.829   0.980   3.332
 1586WAT     H2 5278   5.873   1.004   3.475
 1587WAT      O 5279   6.533   1.143   4.835
 1587WAT     H1 5280   6.626   1.119   4.839
 1587WAT     H2 5281   6.532   1.225   4.787
 1588WAT      O 5282   6.142   1.137   3.290
 1588WAT     H1 5283   6.214   1.107   3.235
 1588WAT     H2 5284   6.167   1.112   3.379
 1589WAT      O 5285   6.057   0.747   3.290
 1589WAT     H1 5286   5.994   0.795   3.345
 1589WAT     H2 5287   6.069   0.663   3.335
 1590WAT      O 5288   7.191   1.066   4.816
 1590WAT     H1 5289   7.270   1.015   4.797
 1590WAT     H2 5290   7.219   1.133   4.879
 1591WAT      O 5291   6.616   0.330   2.093
 1591WAT     H1 5292   6.538   0.282   2.123
 1591WAT     H2 5293   6.681   0.262   2.076
 1592WAT      O 5294   6.017   0.363   2.181
 1592WAT     H1 5295   5.934   0.335   2.221
 1592WAT     H2 5296   6.078   0.369   2.254
 1593WAT      O 5297   7.018   0.771   1.971
 1593WAT     H1 5298   6.972   0.694   2.003
 1593WAT     H2 5299   7.099   0.773   2.023
 1594WAT      O 5300   6.016   0.765   2.201
 1594WAT     H1 5301   6.046   0.676   2.183
 1594WAT     H2 5302   6.090   0.821   2.178
 1595WAT      O 5303   6.641   1.001   1.934
 1595WAT     H1 5304   6.578   1.044   1.876
 1595WAT     H2 5305   6.726   1.015   1.894
 1596WAT      O 5306   6.559   0.598   2.094
 1596WAT     H1 5307   6.554   0.503   2.078
 1596WAT     H2 5308   6.635   0.608   2.151
 1597WAT      O 5309   6.727   0.488   1.672
 1597WAT     H1 5310   6.665   0.534   1.616
 1597WAT     H2 5311   6.777   0.558   1.715
 1598WAT      O 5312   6.214   0.441   2.341
 1598WAT     H1 5313   6.180   0.503   2.405
 1598WAT     H2 5314   6.231   0.494   2.263
 1599WAT      O 5315   6.136   0.637   2.522
 1599WAT     H1 5316   6.196   0.706   2.494
 1599WAT     H2 5317   6.049   0.677   2.513
 1600WAT      O 5318   5.664   0.556   1.410
 1600WAT     H1 5319   5.626   0.605   1.337
 1600WAT     H2 5320   5.690   0.624   1.473
 1601WAT      O 5321   6.980   0.968   2.185
 1601WAT     H1 5322   6.980   0.928   2.098
 1601WAT     H2 5323   6.925   1.046   2.175
 1602WAT      O 5324   7.109   0.640   1.694
 1602WAT     H1 5325   7.098   0.546   1.707
 1602WAT     H2 5326   7.108   0.677   1.782
 1603WAT      O 5327   6.920   0.460   2.318
 1603WAT     H1 5328   6.963   0.437   2.235
 1603WAT     H2 5329   6.992   0.484   2.376
 1604WAT      O 5330   6.664   0.203   1.630
 1604WAT     H1 5331   6.571   0.197   1.653
 1604WAT     H2 5332   6.680   0.297   1.618
 1605WAT      O 5333   7.067   0.359   1.680
 1605WAT     H1 5334   7.005   0.326   1.615
 1605WAT     H2 5335   7.065   0.294   1.751
 1606WAT      O 5336   6.224   0.256   1.908
 1606WAT     H1 5337   6.184   0.185   1.858
 1606WAT     H2 5338   6.233   0.221   1.997
 1607WAT      O 5339   6.271   0.623   2.125
 1607WAT     H1 5340   6.241   0.564   2.055
 1607WAT     H2 5341   6.366   0.628   2.113
 1608WAT      O 5342   7.080   0.982   2.492
 1608WAT     H1 5343   7.033   1.062   2.470
 1608WAT     H2 5344   7.011   0.916   2.506
 1609WAT      O 5345   6.181   0.598   2.789
 1609WAT     H1 5346   6.091   0.621   2.814
 1609WAT     H2 5347   6.182   0.611   2.694
 1610WAT      O 5348   6.885   0.283   1.381
 1610WAT     H1 5349   6.928   0.199   1.366
 1610WAT     H2 5350   6.956   0.346   1.389
 1611WAT      O 5351   6.063   0.285   2.647
 1611WAT     H1 5352   6.049   0.373   2.683
 1611WAT     H2 5353   5.975   0.251   2.632
 1612WAT      O 5354   6.695   0.776   1.778
 1612WAT     H1 5355   6.739   0.851   1.736
 1612WAT     H2 5356   6.689   0.801   1.870
 1613WAT      O 5357   6.243   0.880   2.868
 1613WAT     H1 5358   6.240   0.920   2.781
 1613WAT     H2 5359   6.226   0.787   2.852
 1614WAT      O 5360   5.658   0.462   2.239
 1614WAT     H1 5361   5.666   0.476   2.144
 1614WAT     H2 5362   5.720   0.392   2.258
 1615WAT      O 5363   5.782   0.631   1.879
 1615WAT     H1 5364   5.743   0.648   1.794
 1615WAT     H2 5365   5.872   0.604   1.859
 1616WAT      O 5366   6.765   1.047   2.571
 1616WAT     H1 5367   6.816   1.038   2.652
 1616WAT     H2 5368   6.680   1.082   2.600
 1617WAT      O 5369   6.961   1.076   1.513
 1617WAT     H1 5370   6.946   1.047   1.603
 1617WAT     H2 5371   6.946   0.998   1.460
 1618WAT      O 5372   6.209   1.054   1.691
 1618WAT     H1 5373   6.192   0.962   1.670
 1618WAT     H2 5374   6.124   1.090   1.715
 1619WAT      O 5375   6.932   0.828   1.369
 1619WAT     H1 5376   6.862   0.827   1.303
 1619WAT     H2 5377   7.006   0.785   1.327
 1620WAT      O 5378   6.888   0.989   1.777
 1620WAT     H1 5379   6.935   0.911   1.808
 1620WAT     H2 5380   6.923   1.060   1.831
 1621WAT      O 5381   5.664   0.568   2.493
 1621WAT     H1 5382   5.679   0.520   2.411
 1621WAT     H2 5383   5.710   0.516   2.559
 1622WAT      O 5384   5.822   0.503   2.709
 1622WAT     H1 5385   5.782   0.440   2.768
 1622WAT     H2 5386   5.852   0.574   2.766
 1623WAT      O 5387   6.436   0.189   2.257
 1623WAT     H1 5388   6.473   0.141   2.331
 1623WAT     H2 5389   6.417   0.276   2.292
 1624WAT      O 5390   6.068   0.514   1.548
 1624WAT     H1 5391   5.992   0.459   1.533
 1624WAT     H2 5392   6.142   0.462   1.514
 1625WAT      O 5393   7.143   0.414   2.127
 1625WAT     H1 5394   7.216   0.462   2.088
 1625WAT     H2 5395   7.124   0.345   2.063
 1626WAT      O 5396   6.682   0.420   2.717
 1626WAT     H1 5397   6.675   0.328   2.690
 1626WAT     H2 5398   6.619   0.430   2.788
 1627WAT      O 5399   6.072   0.481   1.913
 1627WAT     H1 5400   6.124   0.400   1.906
 1627WAT     H2 5401   6.027   0.473   1.997
 1628WAT      O 5402   6.561   0.607   1.439
 1628WAT     H1 5403   6.595   0.682   1.390
 1628WAT     H2 5404   6.478   0.638   1.475
 1629WAT      O 5405   6.141   0.222   2.892
 1629WAT     H1 5406   6.111   0.237   2.802
 1629WAT     H2 5407   6.219   0.167   2.883
 1630WAT      O 5408   6.675   0.702   2.691
 1630WAT     H1 5409   6.676   0.609   2.670
 1630WAT     H2 5410   6.604   0.711   2.755
 1631WAT      O 5411   6.850   0.538   1.976
 1631WAT     H1 5412   6.884   0.479   1.910
 1631WAT     H2 5413   6.761   0.507   1.993
 1632WAT      O 5414   6.457   0.615   1.717
 1632WAT     H1 5415   6.527   0.670   1.753
 1632WAT     H2 5416   6.379   0.670   1.720
 1633WAT      O 5417   5.672   0.177   1.265
 1633WAT     H1 5418   5.759   0.205   1.295
 1633WAT     H2 5419   5.623   0.258   1.254
 1634WAT      O 5420   6.389   0.315   1.679
 1634WAT     H1 5421   6.434   0.397   1.700
 1634WAT     H2 5422   6.353   0.285   1.762
 1635WAT      O 5423   6.618   0.867   2.400
 1635WAT     H1 5424   6.682   0.888   2.468
 1635WAT     H2 5425   6.654   0.791   2.356
 1636WAT      O 5426   6.746   0.667   2.272
 1636WAT     H1 5427   6.810   0.597   2.284
 1636WAT     H2 5428   6.799   0.745   2.254
 1637WAT      O 5429   7.129   0.696   1.245
 1637WAT     H1 5430   7.109   0.624   1.304
 1637WAT     H2 5431   7.092   0.670   1.161
 1638WAT      O 5432   6.923   0.747   2.593
 1638WAT     H1 5433   6.957   0.806   2.661
 1638WAT     H2 5434   6.831   0.734   2.616
 1639WAT      O 5435   5.708   1.098   1.322
 1639WAT     H1 5436   5.744   1.159   1.257
 1639WAT     H2 5437   5.694   1.153   1.400
 1640WAT      O 5438   7.088   0.486   1.412
 1640WAT     H1 5439   7.060   0.534   1.490
 1640WAT     H2 5440   7.168   0.441   1.438
 1641WAT      O 5441   5.708   0.925   2.769
 1641WAT     H1 5442   5.718   0.831   2.756
 1641WAT     H2 5443   5.641   0.951   2.705
 1642WAT      O 5444   6.506   0.751   2.910
 1642WAT     H1 5445   6.474   0.680   2.964
 1642WAT     H2 5446   6.439   0.819   2.916
 1643WAT      O 5447   6.310   0.837   1.404
 1643WAT     H1 5448   6.310   0.910   1.342
 1643WAT     H2 5449   6.218   0.811   1.413
 1644WAT      O 5450   5.870   0.359   1.478
 1644WAT     H1 5451   5.809   0.433   1.478
 1644WAT     H2 5452   5.918   0.368   1.395
 1645WAT      O 5453   6.609   0.842   1.270
 1645WAT     H1 5454   6.619   0.822   1.177
 1645WAT     H2 5455   6.519   0.817   1.291
 1646WAT      O 5456   6.473   1.096   1.740
 1646WAT     H1 5457   6.499   1.091   1.648
 1646WAT     H2 5458   6.378   1.082   1.739
 1647WAT      O 5459   6.070   0.354   1.254
 1647WAT     H1 5460   6.148   0.344   1.310
 1647WAT     H2 5461   6.079   0.286   1.187
 1648WAT      O 5462   6.021   1.113   2.033
 1648WAT     H1 5463   6.095   1.058   2.059
 1648WAT     H2 5464   6.060   1.199   2.018
 1649WAT      O 5465   5.709   0.720   1.620
 1649WAT     H1 5466   5.616   0.745   1.618
 1649WAT     H2 5467   5.756   0.802   1.607
 1650WAT      O 5468   5.922   1.031   2.951
 1650WAT     H1 5469   6.002   1.063   2.993
 1650WAT     H2 5470   5.870   0.995   3.023
 1651WAT      O 5471   6.331   1.029   1.214
 1651WAT     H1 5472   6.410   1.060   1.170
 1651WAT     H2 5473   6.280   0.987   1.145
 1652WAT      O 5474   6.806   0.642   2.946
 1652WAT     H1 5475   6.745   0.644   2.871
 1652WAT     H2 5476   6.775   0.569   3.000
 1653WAT      O 5477   6.948   1.016   2.806
 1653WAT     H1 5478   7.043   1.007   2.802
 1653WAT     H2 5479   6.932   1.080   2.874
 1654WAT      O 5480   7.239   0.953   1.357
 1654WAT     H1 5481   7.208   0.912   1.276
 1654WAT     H2 5482   7.216   1.046   1.346
 1655WAT      O 5483   5.694   0.281   2.846
 1655WAT     H1 5484   5.743   0.222   2.902
 1655WAT     H2 5485   5.619   0.308   2.899
 1656WAT      O 5486   6.384   0.552   1.200
 1656WAT     H1 5487   6.373   0.491   1.273
 1656WAT     H2 5488   6.367   0.499   1.122
 1657WAT      O 5489   6.399   0.422   2.798
 1657WAT     H1 5490   6.322   0.478   2.790
 1657WAT     H2 5491   6.417   0.392   2.709
 1658WAT      O 5492   6.708   0.458   1.261
 1658WAT     H1 5493   6.653   0.503   1.325
 1658WAT     H2 5494   6.770   0.408   1.313
 1659WAT      O 5495   7.113   0.595   2.855
 1659WAT     H1 5496   7.187   0.628   2.804
 1659WAT     H2 5497   7.037   0.611   2.799
 1660WAT      O 5498   6.273   0.353   1.450
 1660WAT     H1 5499   6.317   0.339   1.534
 1660WAT     H2 5500   6.288   0.273   1.401
 1661WAT      O 5501   6.526   0.257   1.175
 1661WAT     H1 5502   6.578   0.185   1.139
 1661WAT     H2 5503   6.590   0.321   1.205
 1662WAT      O 5504   6.980   0.398   2.708
 1662WAT     H1 5505   7.022   0.414   2.793
 1662WAT     H2 5506   6.887   0.412   2.724
 1663WAT      O 5507   6.457   0.394   2.506
 1663WAT     H1 5508   6.499   0.478   2.488
 1663WAT     H2 5509   6.365   0.408   2.481
 1664WAT      O 5510   6.924   0.223   2.501
 1664WAT     H1 5511   6.873   0.276   2.440
 1664WAT     H2 5512   6.959   0.286   2.564
 1665WAT      O 5513   6.243   1.026   2.616
 1665WAT     H1 5514   6.187   1.097   2.584
 1665WAT     H2 5515   6.267   0.976   2.538
 1666WAT      O 5516   6.527   1.148   2.642
 1666WAT     H1 5517   6.520   1.238   2.673
 1666WAT     H2 5518   6.437   1.116   2.639
 1667WAT      O 5519   6.582   1.066   1.404
 1667WAT     H1 5520   6.672   1.099   1.407
 1667WAT     H2 5521   6.585   0.993   1.343
 1668WAT      O 5522   5.946   0.602   1.226
 1668WAT     H1 5523   5.989   0.656   1.292
 1668WAT     H2 5524   5.995   0.519   1.228
 1669WAT      O 5525   5.667   0.881   1.973
 1669WAT     H1 5526   5.702   0.794   1.950
 1669WAT     H2 5527   5.711   0.902   2.056
 1670WAT      O 5528   6.128   0.714   1.739
 1670WAT     H1 5529   6.097   0.701   1.829
 1670WAT     H2 5530   6.117   0.629   1.698
 1671WAT      O 5531   5.716   0.968   2.246
 1671WAT     H1 5532   5.673   0.986   2.330
 1671WAT     H2 5533   5.773   1.044   2.232
 1672WAT      O 5534   5.700   0.220   1.881
 1672WAT     H1 5535   5.635   0.191   1.818
 1672WAT     H2 5536   5.784   0.207   1.837
 1673WAT      O 5537   7.148   0.590   2.484
 1673WAT     H1 5538   7.067   0.633   2.512
 1673WAT     H2 5539   7.189   0.652   2.424
 1674WAT      O 5540   5.804   0.257   2.336
 1674WAT     H1 5541   5.840   0.249   2.424
 1674WAT     H2 5542   5.747   0.181   2.326
 1675WAT      O 5543   7.155   1.066   1.838
 1675WAT     H1 5544   7.214   1.033   1.770
 1675WAT     H2 5545   7.180   1.018   1.917
 1676WAT      O 5546   5.945   0.709   2.853
 1676WAT     H1 5547   5.941   0.672   2.941
 1676WAT     H2 5548   5.958   0.803   2.867
 1677WAT      O 5549   6.315   0.864   2.413
 1677WAT     H1 5550   6.291   0.890   2.324
 1677WAT     H2 5551   6.409   0.880   2.418
 1678WAT      O 5552   5.929   1.003   2.564
 1678WAT     H1 5553   5.870   0.990   2.639
 1678WAT     H2 5554   5.928   0.920   2.518
 1679WAT      O 5555   7.210   1.131   2.220
 1679WAT     H1 5556   7.164   1.206   2.183
 1679WAT     H2 5557   7.147   1.059   2.216
 1680WAT      O 5558   5.892   0.741   2.460
 1680WAT     H1 5559   5.819   0.679   2.454
 1680WAT     H2 5560   5.898   0.778   2.372
 1681WAT      O 5561   6.253   0.961   2.139
 1681WAT     H1 5562   6.304   0.900   2.086
 1681WAT     H2 5563   6.318   1.013   2.186
 1682WAT      O 5564   6.527   1.050   2.221
 1682WAT     H1 5565   6.556   1.025   2.133
 1682WAT     H2 5566   6.578   0.995   2.280
 1683WAT      O 5567   5.721   1.072   1.781
 1683WAT     H1 5568   5.704   1.008   1.850
 1683WAT     H2 5569   5.634   1.092   1.745
 1684WAT      O 5570   5.880   0.941   1.526
 1684WAT     H1 5571   5.829   0.979   1.454
 1684WAT     H2 5572   5.873   1.004   1.597
 1685WAT      O 5573   6.533   1.143   2.957
 1685WAT     H1 5574   6.626   1.119   2.962
 1685WAT     H2 5575   6.532   1.225   2.909
 1686WAT      O 5576   6.142   1.137   1.412
 1686WAT     H1 5577   6.214   1.107   1.358
 1686WAT     H2 5578   6.167   1.112   1.501
 1687WAT      O 5579   6.057   0.747   1.413
 1687WAT     H1 5580   5.994   0.795   1.468
 1687WAT     H2 5581   6.069   0.663   1.457
 1688WAT      O 5582   7.191   1.066   2.939
 1688WAT     H1 5583   7.269   1.016   2.920
 1688WAT     H2 5584   7.219   1.132   3.002
 1689WAT      O 5585   6.615   0.330   0.215
 1689WAT     H1 5586   6.538   0.282   0.245
 1689WAT     H2 5587   6.681   0.262   0.199
 1690WAT      O 5588   6.016   0.363   0.304
 1690WAT     H1 5589   5.934   0.335   0.344
 1690WAT     H2 5590   6.078   0.369   0.376
 1691WAT      O 5591   6.015   0.765   0.324
 1691WAT     H1 5592   6.046   0.676   0.306
 1691WAT     H2 5593   6.090   0.821   0.301
 1692WAT      O 5594   6.559   0.598   0.217
 1692WAT     H1 5595   6.554   0.504   0.201
 1692WAT     H2 5596   6.635   0.608   0.274
 1693WAT      O 5597   6.214   0.441   0.464
 1693WAT     H1 5598   6.180   0.503   0.527
 1693WAT     H2 5599   6.231   0.494   0.385
 1694WAT      O 5600   6.136   0.638   0.645
 1694WAT     H1 5601   6.196   0.706   0.617
 1694WAT     H2 5602   6.049   0.677   0.636
 1695WAT      O 5603   6.980   0.968   0.308
 1695WAT     H1 5604   6.981   0.928   0.221
 1695WAT     H2 5605   6.925   1.046   0.297
 1696WAT      O 5606   6.920   0.460   0.440
 1696WAT     H1 5607   6.963   0.437   0.358
 1696WAT     H2 5608   6.992   0.483   0.498
 1697WAT      O 5609   6.271   0.624   0.247
 1697WAT     H1 5610   6.241   0.564   0.179
 1697WAT     H2 5611   6.366   0.628   0.236
 1698WAT      O 5612   7.080   0.982   0.614
 1698WAT     H1 5613   7.033   1.062   0.593
 1698WAT     H2 5614   7.011   0.916   0.628
 1699WAT      O 5615   6.181   0.598   0.912
 1699WAT     H1 5616   6.091   0.621   0.937
 1699WAT     H2 5617   6.182   0.611   0.817
 1700WAT      O 5618   6.063   0.285   0.770
 1700WAT     H1 5619   6.049   0.373   0.805
 1700WAT     H2 5620   5.975   0.251   0.755
 1701WAT      O 5621   6.243   0.880   0.990
 1701WAT     H1 5622   6.240   0.920   0.904
 1701WAT     H2 5623   6.226   0.787   0.974
 1702WAT      O 5624   5.657   0.462   0.361
 1702WAT     H1 5625   5.667   0.476   0.267
 1702WAT     H2 5626   5.720   0.392   0.381
 1703WAT      O 5627   6.765   1.047   0.693
 1703WAT     H1 5628   6.816   1.038   0.774
 1703WAT     H2 5629   6.680   1.082   0.722
 1704WAT      O 5630   5.664   0.568   0.615
 1704WAT     H1 5631   5.679   0.520   0.533
 1704WAT     H2 5632   5.710   0.516   0.682
 1705WAT      O 5633   5.822   0.503   0.831
 1705WAT     H1 5634   5.783   0.440   0.891
 1705WAT     H2 5635   5.852   0.574   0.888
 1706WAT      O 5636   6.437   0.189   0.379
 1706WAT     H1 5637   6.473   0.141   0.454
 1706WAT     H2 5638   6.416   0.276   0.414
 1707WAT      O 5639   7.143   0.414   0.250
 1707WAT     H1 5640   7.216   0.463   0.211
 1707WAT     H2 5641   7.124   0.345   0.186
 1708WAT      O 5642   6.683   0.420   0.840
 1708WAT     H1 5643   6.675   0.329   0.813
 1708WAT     H2 5644   6.618   0.430   0.910
 1709WAT      O 5645   6.141   0.222   1.014
 1709WAT     H1 5646   6.111   0.237   0.925
 1709WAT     H2 5647   6.218   0.167   1.005
 1710WAT      O 5648   6.675   0.702   0.814
 1710WAT     H1 5649   6.676   0.609   0.793
 1710WAT     H2 5650   6.604   0.711   0.878
 1711WAT      O 5651   6.618   0.867   0.523
 1711WAT     H1 5652   6.682   0.888   0.591
 1711WAT     H2 5653   6.654   0.790   0.479
 1712WAT      O 5654   6.746   0.667   0.395
 1712WAT     H1 5655   6.810   0.597   0.407
 1712WAT     H2 5656   6.799   0.745   0.377
 1713WAT      O 5657   6.923   0.748   0.715
 1713WAT     H1 5658   6.957   0.806   0.783
 1713WAT     H2 5659   6.831   0.734   0.738
 1714WAT      O 5660   5.708   0.925   0.891
 1714WAT     H1 5661   5.718   0.831   0.878
 1714WAT     H2 5662   5.641   0.951   0.827
 1715WAT      O 5663   6.506   0.751   1.032
 1715WAT     H1 5664   6.474   0.680   1.087
 1715WAT     H2 5665   6.439   0.819   1.038
 1716WAT      O 5666   5.922   1.031   1.074
 1716WAT     H1 5667   6.002   1.063   1.115
 1716WAT     H2 5668   5.870   0.995   1.146
 1717WAT      O 5669   6.806   0.642   1.068
 1717WAT     H1 5670   6.745   0.644   0.994
 1717WAT     H2 5671   6.775   0.569   1.122
 1718WAT      O 5672   6.948   1.016   0.928
 1718WAT     H1 5673   7.043   1.007   0.925
 1718WAT     H2 5674   6.932   1.080   0.997
 1719WAT      O 5675   5.695   0.281   0.968
 1719WAT     H1 5676   5.743   0.222   1.025
 1719WAT     H2 5677   5.619   0.308   1.021
 1720WAT      O 5678   6.400   0.422   0.921
 1720WAT     H1 5679   6.322   0.478   0.913
 1720WAT     H2 5680   6.416   0.392   0.832
 1721WAT      O 5681   7.113   0.595   0.977
 1721WAT     H1 5682   7.187   0.628   0.926
 1721WAT     H2 5683   7.037   0.611   0.922
 1722WAT      O 5684   6.980   0.398   0.830
 1722WAT     H1 5685   7.022   0.414   0.915
 1722WAT     H2 5686   6.887   0.412   0.847
 1723WAT      O 5687   6.457   0.394   0.628
 1723WAT     H1 5688   6.499   0.478   0.610
 1723WAT     H2 5689   6.365   0.408   0.603
 1724WAT      O 5690   6.924   0.223   0.624
 1724WAT     H1 5691   6.872   0.276   0.563
 1724WAT     H2 5692   6.959   0.286   0.686
 1725WAT      O 5693   6.243   1.026   0.739
 1725WAT     H1 5694   6.187   1.097   0.707
 1725WAT     H2 5695   6.266   0.976   0.661
 1726WAT      O 5696   6.527   1.148   0.765
 1726WAT     H1 5697   6.520   1.239   0.795
 1726WAT     H2 5698   6.437   1.116   0.762
 1727WAT      O 5699   5.717   0.967   0.370
 1727WAT     H1 5700   5.673   0.986   0.452
 1727WAT     H2 5701   5.773   1.044   0.355
 1728WAT      O 5702   7.148   0.590   0.606
 1728WAT     H1 5703   7.067   0.633   0.634
 1728WAT     H2 5704   7.189   0.652   0.546
 1729WAT      O 5705   5.804   0.257   0.459
 1729WAT     H1 5706   5.840   0.249   0.547
 1729WAT     H2 5707   5.747   0.181   0.449
 1730WAT      O 5708   5.945   0.709   0.975
 1730WAT     H1 5709   5.941   0.672   1.064
 1730WAT     H2 5710   5.958   0.803   0.989
 1731WAT      O 5711   6.315   0.864   0.535
 1731WAT     H1 5712   6.291   0.890   0.446
 1731WAT     H2 5713   6.409   0.880   0.540
 1732WAT      O 5714   5.929   1.003   0.687
 1732WAT     H1 5715   5.870   0.990   0.761
 1732WAT     H2 5716   5.928   0.920   0.640
 1733WAT      O 5717   7.210   1.131   0.343
 1733WAT     H1 5718   7.164   1.206   0.306
 1733WAT     H2 5719   7.147   1.059   0.338
 1734WAT      O 5720   5.892   0.741   0.582
 1734WAT     H1 5721   5.819   0.679   0.576
 1734WAT     H2 5722   5.898   0.779   0.494
 1735WAT      O 5723   6.253   0.960   0.263
 1735WAT     H1 5724   6.304   0.900   0.208
 1735WAT     H2 5725   6.318   1.012   0.309
 1736WAT      O 5726   6.527   1.051   0.343
 1736WAT     H1 5727   6.555   1.025   0.256
 1736WAT     H2 5728   6.577   0.995   0.402
 1737WAT      O 5729   6.533   1.143   1.080
 1737WAT     H1 5730   6.626   1.119   1.084
 1737WAT     H2 5731   6.532   1.225   1.032
 1738WAT      O 5732   7.191   1.066   1.061
 1738WAT     H1 5733   7.270   1.015   1.042
 1738WAT     H2 5734   7.219   1.133   1.124
 1739WAT      O 5735   4.925   5.785   5.660
 1739WAT     H1 5736   4.917   5.693   5.633
 1739WAT     H2 5737   4.884   5.835   5.590
 1740WAT      O 5738   3.981   5.491   5.314
 1740WAT     H1 5739   3.892   5.523   5.305
 1740WAT     H2 5740   4.009   5.470   5.225
 1741WAT      O 5741   4.199   5.348   5.418
 1741WAT     H1 5742   4.209   5.438   5.449
 1741WAT     H2 5743   4.107   5.343   5.389
 1742WAT      O 5744   5.164   5.260   5.565
 1742WAT     H1 5745   5.246   5.211   5.569
 1742WAT     H2 5746   5.167   5.319   5.640
 1743WAT      O 5747   4.547   5.029   5.711
 1743WAT     H1 5748   4.578   4.973   5.639
 1743WAT     H2 5749   4.454   5.042   5.693
 1744WAT      O 5750   4.786   5.836   5.385
 1744WAT     H1 5751   4.693   5.828   5.407
 1744WAT     H2 5752   4.801   5.929   5.373
 1745WAT      O 5753   4.785   5.461   5.083
 1745WAT     H1 5754   4.692   5.479   5.094
 1745WAT     H2 5755   4.817   5.535   5.031
 1746WAT      O 5756   4.347   5.888   5.663
 1746WAT     H1 5757   4.307   5.817   5.613
 1746WAT     H2 5758   4.355   5.854   5.752
 1747WAT      O 5759   5.365   5.041   4.967
 1747WAT     H1 5760   5.335   5.049   5.057
 1747WAT     H2 5761   5.441   5.099   4.962
 1748WAT      O 5762   4.017   5.778   5.413
 1748WAT     H1 5763   4.005   5.850   5.352
 1748WAT     H2 5764   3.986   5.701   5.365
 1749WAT      O 5765   4.263   5.112   5.751
 1749WAT     H1 5766   4.219   5.190   5.718
 1749WAT     H2 5767   4.319   5.144   5.822
 1750WAT      O 5768   4.574   5.074   5.239
 1750WAT     H1 5769   4.513   5.074   5.312
 1750WAT     H2 5770   4.566   4.987   5.200
 1751WAT      O 5771   4.243   5.624   5.524
 1751WAT     H1 5772   4.219   5.602   5.614
 1751WAT     H2 5773   4.165   5.668   5.489
 1752WAT      O 5774   4.966   5.625   5.384
 1752WAT     H1 5775   4.906   5.697   5.366
 1752WAT     H2 5776   5.020   5.619   5.305
 1753WAT      O 5777   4.827   5.489   5.587
 1753WAT     H1 5778   4.866   5.520   5.506
 1753WAT     H2 5779   4.861   5.400   5.598
 1754WAT      O 5780   3.749   5.542   4.929
 1754WAT     H1 5781   3.740   5.636   4.944
 1754WAT     H2 5782   3.712   5.527   4.842
 1755WAT      O 5783   4.529   5.415   5.837
 1755WAT     H1 5784   4.529   5.371   5.752
 1755WAT     H2 5785   4.618   5.447   5.848
 1756WAT      O 5786   4.114   5.403   5.733
 1756WAT     H1 5787   4.080   5.451   5.808
 1756WAT     H2 5788   4.037   5.359   5.697
 1757WAT      O 5789   4.535   5.514   5.137
 1757WAT     H1 5790   4.547   5.511   5.232
 1757WAT     H2 5791   4.496   5.601   5.120
 1758WAT      O 5792   4.436   5.746   5.075
 1758WAT     H1 5793   4.379   5.702   5.012
 1758WAT     H2 5794   4.506   5.783   5.022
 1759WAT      O 5795   3.845   5.295   5.624
 1759WAT     H1 5796   3.817   5.259   5.708
 1759WAT     H2 5797   3.839   5.222   5.563
 1760WAT      O 5798   4.813   5.185   5.297
 1760WAT     H1 5799   4.731   5.135   5.289
 1760WAT     H2 5800   4.793   5.269   5.255
 1761WAT      O 5801   5.084   5.622   5.126
 1761WAT     H1 5802   5.172   5.653   5.109
 1761WAT     H2 5803   5.081   5.534   5.087
 1762WAT      O 5804   5.312   5.752   5.072
 1762WAT     H1 5805   5.303   5.796   4.988
 1762WAT     H2 5806   5.383   5.799   5.116
 1763WAT      O 5807   3.793   5.809   5.020
 1763WAT     H1 5808   3.881   5.836   5.049
 1763WAT     H2 5809   3.745   5.891   5.010
 1764WAT      O 5810   4.101   4.983   5.480
 1764WAT     H1 5811   4.087   4.980   5.575
 1764WAT     H2 5812   4.019   5.015   5.445
 1765WAT      O 5813   5.287   5.303   5.282
 1765WAT     H1 5814   5.224   5.313   5.210
 1765WAT     H2 5815   5.237   5.324   5.361
 1766WAT      O 5816   4.484   5.531   5.423
 1766WAT     H1 5817   4.413   5.578   5.467
 1766WAT     H2 5818   4.513   5.465   5.487
 1767WAT      O 5819   4.887   5.203   5.567
 1767WAT     H1 5820   4.874   5.205   5.473
 1767WAT     H2 5821   4.982   5.208   5.578
 1768WAT      O 5822   4.303   5.363   5.160
 1768WAT     H1 5823   4.389   5.405   5.154
 1768WAT     H2 5824   4.268   5.393   5.244
 1769WAT      O 5825   5.196   5.819   5.652
 1769WAT     H1 5826   5.102   5.820   5.669
 1769WAT     H2 5827   5.228   5.741   5.697
 1770WAT      O 5828   4.063   5.731   5.078
 1770WAT     H1 5829   4.071   5.636   5.087
 1770WAT     H2 5830   4.153   5.763   5.087
 1771WAT      O 5831   4.648   5.889   4.930
 1771WAT     H1 5832   4.700   5.817   4.894
 1771WAT     H2 5833   4.713   5.953   4.960
 1772WAT      O 5834   4.287   5.594   4.900
 1772WAT     H1 5835   4.267   5.507   4.936
 1772WAT     H2 5836   4.270   5.585   4.806
 1773WAT      O 5837   5.035   5.075   5.153
 1773WAT     H1 5838   5.063   4.991   5.189
 1773WAT     H2 5839   4.957   5.099   5.204
 1774WAT      O 5840   4.167   5.305   4.898
 1774WAT     H1 5841   4.198   5.304   4.808
 1774WAT     H2 5842   4.240   5.269   4.949
 1775WAT      O 5843   4.489   5.198   4.997
 1775WAT     H1 5844   4.453   5.130   4.940
 1775WAT     H2 5845   4.508   5.153   5.079
 1776WAT      O 5846   3.822   5.851   5.637
 1776WAT     H1 5847   3.757   5.824   5.573
 1776WAT     H2 5848   3.906   5.840   5.592
 1777WAT      O 5849   5.118   5.330   5.059
 1777WAT     H1 5850   5.159   5.312   4.975
 1777WAT     H2 5851   5.086   5.245   5.090
 1778WAT      O 5852   5.467   5.822   5.429
 1778WAT     H1 5853   5.430   5.745   5.386
 1778WAT     H2 5854   5.394   5.860   5.478
 1779WAT      O 5855   3.744   5.572   5.231
 1779WAT     H1 5856   3.653   5.598   5.214
 1779WAT     H2 5857   3.791   5.599   5.152
 1780WAT      O 5858   5.394   5.643   5.760
 1780WAT     H1 5859   5.447   5.596   5.696
 1780WAT     H2 5860   5.453   5.658   5.833
 1781WAT      O 5861   3.999   5.478   5.023
 1781WAT     H1 5862   4.068   5.434   4.974
 1781WAT     H2 5863   3.926   5.485   4.960
 1782WAT      O 5864   3.962   5.083   4.926
 1782WAT     H1 5865   4.035   5.137   4.958
 1782WAT     H2 5866   3.990   5.056   4.838
 1783WAT      O 5867   5.345   5.570   5.353
 1783WAT     H1 5868   5.393   5.546   5.432
 1783WAT     H2 5869   5.324   5.486   5.311
 1784WAT      O 5870   5.487   5.434   5.606
 1784WAT     H1 5871   5.476   5.418   5.700
 1784WAT     H2 5872   5.563   5.382   5.582
 1785WAT      O 5873   5.575   5.216   4.931
 1785WAT     H1 5874   5.668   5.204   4.910
 1785WAT     H2 5875   5.573   5.226   5.026
 1786WAT      O 5876   5.583   5.293   5.194
 1786WAT     H1 5877   5.503   5.287   5.246
 1786WAT     H2 5878   5.603   5.387   5.192
 1787WAT      O 5879   5.225   5.127   5.838
 1787WAT     H1 5880   5.270   5.121   5.754
 1787WAT     H2 5881   5.200   5.219   5.845
 1788WAT      O 5882   5.412   5.091   5.639
 1788WAT     H1 5883   5.405   4.996   5.624
 1788WAT     H2 5884   5.490   5.100   5.694
 1789WAT      O 5885   3.905   5.087   5.286
 1789WAT     H1 5886   3.981   5.098   5.228
 1789WAT     H2 5887   3.859   5.171   5.280
 1790WAT      O 5888   4.558   5.299   5.586
 1790WAT     H1 5889   4.478   5.260   5.550
 1790WAT     H2 5890   4.610   5.224   5.615
 1791WAT      O 5891   5.010   4.965   5.708
 1791WAT     H1 5892   5.070   5.022   5.756
 1791WAT     H2 5893   4.936   5.021   5.686
 1792WAT      O 5894   5.324   5.005   5.237
 1792WAT     H1 5895   5.342   5.095   5.263
 1792WAT     H2 5896   5.245   4.982   5.284
 1793WAT      O 5897   4.142   5.140   5.140
 1793WAT     H1 5898   4.195   5.061   5.128
 1793WAT     H2 5899   4.206   5.208   5.162
 1794WAT      O 5900   4.362   5.114   5.445
 1794WAT     H1 5901   4.299   5.044   5.462
 1794WAT     H2 5902   4.308   5.190   5.424
 1795WAT      O 5903   4.924   5.785   3.783
 1795WAT     H1 5904   4.917   5.693   3.756
 1795WAT     H2 5905   4.884   5.834   3.712
 1796WAT      O 5906   4.738   5.963   3.971
 1796WAT     H1 5907   4.661   5.915   4.000
 1796WAT     H2 5908   4.804   5.895   3.954
 1797WAT      O 5909   3.981   5.491   3.437
 1797WAT     H1 5910   3.892   5.523   3.427
 1797WAT     H2 5911   4.009   5.470   3.347
 1798WAT      O 5912   3.774   5.748   4.025
 1798WAT     H1 5913   3.835   5.674   4.026
 1798WAT     H2 5914   3.778   5.781   3.936
 1799WAT      O 5915   3.902   5.291   4.205
 1799WAT     H1 5916   3.884   5.201   4.232
 1799WAT     H2 5917   3.860   5.345   4.272
 1800WAT      O 5918   4.784   5.511   3.994
 1800WAT     H1 5919   4.824   5.425   3.984
 1800WAT     H2 5920   4.777   5.545   3.904
 1801WAT      O 5921   4.199   5.348   3.540
 1801WAT     H1 5922   4.209   5.438   3.572
 1801WAT     H2 5923   4.107   5.343   3.512
 1802WAT      O 5924   5.164   5.260   3.688
 1802WAT     H1 5925   5.246   5.211   3.692
 1802WAT     H2 5926   5.167   5.319   3.763
 1803WAT      O 5927   3.962   5.540   4.065
 1803WAT     H1 5928   4.031   5.567   4.126
 1803WAT     H2 5929   3.932   5.456   4.099
 1804WAT      O 5930   4.383   5.645   3.974
 1804WAT     H1 5931   4.434   5.695   4.038
 1804WAT     H2 5932   4.436   5.567   3.956
 1805WAT      O 5933   5.592   5.462   4.344
 1805WAT     H1 5934   5.522   5.502   4.292
 1805WAT     H2 5935   5.620   5.532   4.404
 1806WAT      O 5936   4.211   5.108   4.400
 1806WAT     H1 5937   4.211   5.161   4.321
 1806WAT     H2 5938   4.128   5.061   4.398
 1807WAT      O 5939   5.188   5.454   3.965
 1807WAT     H1 5940   5.117   5.482   4.023
 1807WAT     H2 5941   5.223   5.535   3.929
 1808WAT      O 5942   4.179   5.280   4.201
 1808WAT     H1 5943   4.213   5.365   4.172
 1808WAT     H2 5944   4.085   5.295   4.212
 1809WAT      O 5945   5.494   5.399   4.004
 1809WAT     H1 5946   5.399   5.402   4.017
 1809WAT     H2 5947   5.527   5.480   4.043
 1810WAT      O 5948   4.547   5.029   3.833
 1810WAT     H1 5949   4.578   4.973   3.762
 1810WAT     H2 5950   4.454   5.042   3.815
 1811WAT      O 5951   4.786   5.835   3.508
 1811WAT     H1 5952   4.693   5.828   3.530
 1811WAT     H2 5953   4.801   5.929   3.496
 1812WAT      O 5954   4.785   5.462   3.205
 1812WAT     H1 5955   4.692   5.479   3.216
 1812WAT     H2 5956   4.817   5.535   3.153
 1813WAT      O 5957   5.133   5.609   4.299
 1813WAT     H1 5958   5.092   5.692   4.324
 1813WAT     H2 5959   5.060   5.551   4.280
 1814WAT      O 5960   4.347   5.888   3.785
 1814WAT     H1 5961   4.306   5.817   3.736
 1814WAT     H2 5962   4.355   5.854   3.874
 1815WAT      O 5963   4.218   5.564   4.164
 1815WAT     H1 5964   4.272   5.577   4.086
 1815WAT     H2 5965   4.269   5.604   4.235
 1816WAT      O 5966   5.365   5.041   3.090
 1816WAT     H1 5967   5.335   5.049   3.180
 1816WAT     H2 5968   5.441   5.099   3.085
 1817WAT      O 5969   4.017   5.778   3.536
 1817WAT     H1 5970   4.005   5.850   3.474
 1817WAT     H2 5971   3.986   5.701   3.488
 1818WAT      O 5972   5.487   5.515   4.687
 1818WAT     H1 5973   5.424   5.566   4.635
 1818WAT     H2 5974   5.454   5.425   4.682
 1819WAT      O 5975   4.263   5.112   3.874
 1819WAT     H1 5976   4.219   5.190   3.840
 1819WAT     H2 5977   4.319   5.144   3.944
 1820WAT      O 5978   4.692   5.399   4.434
 1820WAT     H1 5979   4.645   5.419   4.515
 1820WAT     H2 5980   4.652   5.317   4.404
 1821WAT      O 5981   5.192   5.520   4.547
 1821WAT     H1 5982   5.107   5.491   4.579
 1821WAT     H2 5983   5.176   5.545   4.456
 1822WAT      O 5984   4.901   5.671   4.756
 1822WAT     H1 5985   4.934   5.587   4.724
 1822WAT     H2 5986   4.981   5.722   4.773
 1823WAT      O 5987   4.575   5.074   3.361
 1823WAT     H1 5988   4.512   5.074   3.434
 1823WAT     H2 5989   4.566   4.987   3.323
 1824WAT      O 5990   4.468   5.166   4.060
 1824WAT     H1 5991   4.496   5.257   4.051
 1824WAT     H2 5992   4.522   5.118   3.998
 1825WAT      O 5993   4.243   5.624   3.646
 1825WAT     H1 5994   4.220   5.603   3.737
 1825WAT     H2 5995   4.165   5.668   3.612
 1826WAT      O 5996   4.966   5.625   3.506
 1826WAT     H1 5997   4.906   5.697   3.488
 1826WAT     H2 5998   5.020   5.619   3.428
 1827WAT      O 5999   4.487   5.714   4.712
 1827WAT     H1 6000   4.477   5.620   4.698
 1827WAT     H2 6001   4.572   5.736   4.674
 1828WAT      O 6002   4.827   5.489   3.710
 1828WAT     H1 6003   4.866   5.520   3.628
 1828WAT     H2 6004   4.861   5.400   3.720
 1829WAT      O 6005   4.000   5.355   4.528
 1829WAT     H1 6006   3.960   5.440   4.549
 1829WAT     H2 6007   3.931   5.291   4.546
 1830WAT      O 6008   4.657   5.364   4.836
 1830WAT     H1 6009   4.588   5.343   4.899
 1830WAT     H2 6010   4.731   5.392   4.889
 1831WAT      O 6011   3.730   5.147   3.932
 1831WAT     H1 6012   3.701   5.205   4.003
 1831WAT     H2 6013   3.804   5.099   3.969
 1832WAT      O 6014   3.749   5.542   3.052
 1832WAT     H1 6015   3.740   5.636   3.067
 1832WAT     H2 6016   3.712   5.527   2.965
 1833WAT      O 6017   4.885   5.747   4.120
 1833WAT     H1 6018   4.812   5.798   4.154
 1833WAT     H2 6019   4.845   5.666   4.089
 1834WAT      O 6020   4.529   5.415   3.959
 1834WAT     H1 6021   4.530   5.372   3.874
 1834WAT     H2 6022   4.618   5.447   3.970
 1835WAT      O 6023   4.114   5.402   3.855
 1835WAT     H1 6024   4.080   5.451   3.930
 1835WAT     H2 6025   4.037   5.359   3.819
 1836WAT      O 6026   4.535   5.515   3.259
 1836WAT     H1 6027   4.547   5.511   3.354
 1836WAT     H2 6028   4.496   5.601   3.243
 1837WAT      O 6029   4.931   5.293   4.060
 1837WAT     H1 6030   4.933   5.338   4.145
 1837WAT     H2 6031   4.906   5.203   4.081
 1838WAT      O 6032   4.436   5.746   3.198
 1838WAT     H1 6033   4.379   5.702   3.135
 1838WAT     H2 6034   4.506   5.783   3.145
 1839WAT      O 6035   5.273   5.034   4.644
 1839WAT     H1 6036   5.306   4.961   4.697
 1839WAT     H2 6037   5.277   5.002   4.554
 1840WAT      O 6038   4.559   5.821   4.134
 1840WAT     H1 6039   4.595   5.774   4.209
 1840WAT     H2 6040   4.540   5.909   4.168
 1841WAT      O 6041   3.846   5.295   3.747
 1841WAT     H1 6042   3.817   5.259   3.831
 1841WAT     H2 6043   3.839   5.222   3.686
 1842WAT      O 6044   4.338   5.725   4.367
 1842WAT     H1 6045   4.307   5.813   4.388
 1842WAT     H2 6046   4.433   5.731   4.370
 1843WAT      O 6047   4.813   5.185   3.419
 1843WAT     H1 6048   4.731   5.135   3.412
 1843WAT     H2 6049   4.793   5.269   3.378
 1844WAT      O 6050   5.084   5.622   3.249
 1844WAT     H1 6051   5.172   5.653   3.231
 1844WAT     H2 6052   5.081   5.534   3.210
 1845WAT      O 6053   3.943   5.810   4.480
 1845WAT     H1 6054   3.907   5.876   4.540
 1845WAT     H2 6055   3.915   5.726   4.518
 1846WAT      O 6056   4.262   5.855   4.769
 1846WAT     H1 6057   4.234   5.870   4.679
 1846WAT     H2 6058   4.340   5.800   4.760
 1847WAT      O 6059   5.312   5.752   3.195
 1847WAT     H1 6060   5.303   5.796   3.111
 1847WAT     H2 6061   5.383   5.799   3.239
 1848WAT      O 6062   3.793   5.809   3.143
 1848WAT     H1 6063   3.881   5.836   3.171
 1848WAT     H2 6064   3.745   5.891   3.132
 1849WAT      O 6065   4.101   4.983   3.602
 1849WAT     H1 6066   4.087   4.980   3.697
 1849WAT     H2 6067   4.019   5.015   3.567
 1850WAT      O 6068   3.800   5.158   4.548
 1850WAT     H1 6069   3.729   5.178   4.609
 1850WAT     H2 6070   3.844   5.081   4.586
 1851WAT      O 6071   4.949   5.407   4.323
 1851WAT     H1 6072   4.987   5.326   4.356
 1851WAT     H2 6073   4.864   5.413   4.365
 1852WAT      O 6074   5.287   5.303   3.404
 1852WAT     H1 6075   5.224   5.313   3.333
 1852WAT     H2 6076   5.237   5.324   3.483
 1853WAT      O 6077   4.484   5.531   3.546
 1853WAT     H1 6078   4.413   5.578   3.590
 1853WAT     H2 6079   4.512   5.465   3.609
 1854WAT      O 6080   4.645   5.673   4.346
 1854WAT     H1 6081   4.697   5.720   4.412
 1854WAT     H2 6082   4.660   5.581   4.366
 1855WAT      O 6083   4.887   5.203   3.690
 1855WAT     H1 6084   4.874   5.205   3.596
 1855WAT     H2 6085   4.982   5.208   3.701
 1856WAT      O 6086   4.303   5.363   3.283
 1856WAT     H1 6087   4.389   5.405   3.277
 1856WAT     H2 6088   4.268   5.393   3.366
 1857WAT      O 6089   5.367   5.295   4.430
 1857WAT     H1 6090   5.317   5.369   4.464
 1857WAT     H2 6091   5.448   5.333   4.398
 1858WAT      O 6092   5.196   5.819   3.775
 1858WAT     H1 6093   5.102   5.820   3.792
 1858WAT     H2 6094   5.228   5.741   3.819
 1859WAT      O 6095   4.063   5.731   3.201
 1859WAT     H1 6096   4.071   5.636   3.210
 1859WAT     H2 6097   4.153   5.763   3.210
 1860WAT      O 6098   3.816   5.912   4.722
 1860WAT     H1 6099   3.866   5.854   4.780
 1860WAT     H2 6100   3.742   5.941   4.776
 1861WAT      O 6101   4.019   5.726   4.812
 1861WAT     H1 6102   4.023   5.698   4.903
 1861WAT     H2 6103   4.104   5.767   4.796
 1862WAT      O 6104   4.214   5.584   4.609
 1862WAT     H1 6105   4.159   5.536   4.546
 1862WAT     H2 6106   4.280   5.627   4.555
 1863WAT      O 6107   4.648   5.888   3.053
 1863WAT     H1 6108   4.700   5.817   3.016
 1863WAT     H2 6109   4.713   5.953   3.083
 1864WAT      O 6110   5.151   5.765   4.786
 1864WAT     H1 6111   5.209   5.690   4.777
 1864WAT     H2 6112   5.168   5.818   4.708
 1865WAT      O 6113   4.262   5.281   4.617
 1865WAT     H1 6114   4.253   5.219   4.544
 1865WAT     H2 6115   4.204   5.353   4.594
 1866WAT      O 6116   4.539   5.137   4.320
 1866WAT     H1 6117   4.494   5.139   4.236
 1866WAT     H2 6118   4.475   5.097   4.380
 1867WAT      O 6119   4.813   5.799   4.521
 1867WAT     H1 6120   4.825   5.741   4.596
 1867WAT     H2 6121   4.899   5.803   4.479
 1868WAT      O 6122   5.046   5.855   4.379
 1868WAT     H1 6123   4.995   5.907   4.317
 1868WAT     H2 6124   5.081   5.919   4.441
 1869WAT      O 6125   4.287   5.594   3.023
 1869WAT     H1 6126   4.267   5.507   3.059
 1869WAT     H2 6127   4.270   5.585   2.929
 1870WAT      O 6128   4.490   5.454   4.646
 1870WAT     H1 6129   4.549   5.423   4.715
 1870WAT     H2 6130   4.408   5.406   4.661
 1871WAT      O 6131   4.972   5.416   4.670
 1871WAT     H1 6132   4.903   5.349   4.663
 1871WAT     H2 6133   5.044   5.371   4.714
 1872WAT      O 6134   5.035   5.075   3.275
 1872WAT     H1 6135   5.063   4.991   3.311
 1872WAT     H2 6136   4.957   5.098   3.327
 1873WAT      O 6137   4.167   5.305   3.021
 1873WAT     H1 6138   4.198   5.304   2.930
 1873WAT     H2 6139   4.240   5.269   3.071
 1874WAT      O 6140   4.489   5.198   3.119
 1874WAT     H1 6141   4.454   5.131   3.062
 1874WAT     H2 6142   4.508   5.153   3.201
 1875WAT      O 6143   3.822   5.850   3.760
 1875WAT     H1 6144   3.757   5.825   3.695
 1875WAT     H2 6145   3.906   5.840   3.715
 1876WAT      O 6146   5.118   5.330   3.182
 1876WAT     H1 6147   5.159   5.312   3.098
 1876WAT     H2 6148   5.086   5.245   3.213
 1877WAT      O 6149   5.467   5.822   3.552
 1877WAT     H1 6150   5.430   5.745   3.508
 1877WAT     H2 6151   5.394   5.860   3.600
 1878WAT      O 6152   3.926   5.890   4.215
 1878WAT     H1 6153   3.963   5.880   4.303
 1878WAT     H2 6154   3.870   5.814   4.203
 1879WAT      O 6155   5.406   5.737   4.515
 1879WAT     H1 6156   5.383   5.714   4.425
 1879WAT     H2 6157   5.432   5.829   4.510
 1880WAT      O 6158   3.881   5.580   4.605
 1880WAT     H1 6159   3.792   5.577   4.638
 1880WAT     H2 6160   3.935   5.602   4.681
 1881WAT      O 6161   5.250   5.259   4.793
 1881WAT     H1 6162   5.338   5.260   4.831
 1881WAT     H2 6163   5.251   5.185   4.732
 1882WAT      O 6164   3.744   5.572   3.353
 1882WAT     H1 6165   3.653   5.598   3.336
 1882WAT     H2 6166   3.792   5.599   3.275
 1883WAT      O 6167   5.394   5.643   3.883
 1883WAT     H1 6168   5.447   5.595   3.819
 1883WAT     H2 6169   5.454   5.659   3.956
 1884WAT      O 6170   5.413   5.653   4.235
 1884WAT     H1 6171   5.318   5.649   4.244
 1884WAT     H2 6172   5.431   5.743   4.209
 1885WAT      O 6173   3.999   5.478   3.145
 1885WAT     H1 6174   4.068   5.434   3.096
 1885WAT     H2 6175   3.926   5.485   3.083
 1886WAT      O 6176   3.962   5.083   3.048
 1886WAT     H1 6177   4.034   5.137   3.081
 1886WAT     H2 6178   3.990   5.056   2.961
 1887WAT      O 6179   5.345   5.570   3.475
 1887WAT     H1 6180   5.393   5.546   3.555
 1887WAT     H2 6181   5.324   5.486   3.434
 1888WAT      O 6182   3.932   5.008   4.039
 1888WAT     H1 6183   3.997   4.953   3.995
 1888WAT     H2 6184   3.974   5.034   4.121
 1889WAT      O 6185   5.487   5.434   3.729
 1889WAT     H1 6186   5.476   5.418   3.823
 1889WAT     H2 6187   5.563   5.382   3.705
 1890WAT      O 6188   5.322   5.027   4.375
 1890WAT     H1 6189   5.384   5.090   4.411
 1890WAT     H2 6190   5.336   5.031   4.280
 1891WAT      O 6191   5.575   5.216   3.053
 1891WAT     H1 6192   5.668   5.204   3.032
 1891WAT     H2 6193   5.573   5.226   3.148
 1892WAT      O 6194   5.583   5.293   3.316
 1892WAT     H1 6195   5.503   5.287   3.369
 1892WAT     H2 6196   5.603   5.387   3.314
 1893WAT      O 6197   3.907   5.024   4.314
 1893WAT     H1 6198   3.872   5.069   4.390
 1893WAT     H2 6199   3.874   4.934   4.322
 1894WAT      O 6200   4.658   5.142   4.667
 1894WAT     H1 6201   4.652   5.203   4.740
 1894WAT     H2 6202   4.752   5.132   4.651
 1895WAT      O 6203   4.922   5.110   4.630
 1895WAT     H1 6204   4.983   5.140   4.563
 1895WAT     H2 6205   4.977   5.060   4.691
 1896WAT      O 6206   3.974   4.976   4.641
 1896WAT     H1 6207   4.029   4.958   4.565
 1896WAT     H2 6208   3.981   4.898   4.695
 1897WAT      O 6209   4.997   4.966   4.263
 1897WAT     H1 6210   4.910   4.998   4.241
 1897WAT     H2 6211   4.984   4.917   4.345
 1898WAT      O 6212   5.087   5.185   4.401
 1898WAT     H1 6213   5.054   5.104   4.362
 1898WAT     H2 6214   5.182   5.182   4.389
 1899WAT      O 6215   4.771   5.057   4.156
 1899WAT     H1 6216   4.693   5.104   4.185
 1899WAT     H2 6217   4.741   4.966   4.144
 1900WAT      O 6218   5.225   5.127   3.961
 1900WAT     H1 6219   5.271   5.121   3.877
 1900WAT     H2 6220   5.199   5.219   3.968
 1901WAT      O 6221   5.411   5.090   3.762
 1901WAT     H1 6222   5.406   4.996   3.747
 1901WAT     H2 6223   5.489   5.101   3.816
 1902WAT      O 6224   3.905   5.087   3.408
 1902WAT     H1 6225   3.981   5.098   3.351
 1902WAT     H2 6226   3.859   5.171   3.403
 1903WAT      O 6227   4.558   5.299   3.708
 1903WAT     H1 6228   4.478   5.260   3.672
 1903WAT     H2 6229   4.610   5.223   3.736
 1904WAT      O 6230   5.010   4.965   3.831
 1904WAT     H1 6231   5.070   5.022   3.879
 1904WAT     H2 6232   4.936   5.021   3.809
 1905WAT      O 6233   5.324   5.005   3.359
 1905WAT     H1 6234   5.342   5.096   3.386
 1905WAT     H2 6235   5.245   4.982   3.407
 1906WAT      O 6236   4.142   5.140   3.262
 1906WAT     H1 6237   4.195   5.061   3.250
 1906WAT     H2 6238   4.206   5.208   3.285
 1907WAT      O 6239   4.362   5.114   3.568
 1907WAT     H1 6240   4.299   5.044   3.584
 1907WAT     H2 6241   4.308   5.190   3.546
 1908WAT      O 6242   4.373   5.041   4.811
 1908WAT     H1 6243   4.346   5.092   4.735
 1908WAT     H2 6244   4.413   4.962   4.775
 1909WAT      O 6245   5.034   4.984   4.869
 1909WAT     H1 6246   5.023   5.015   4.959
 1909WAT     H2 6247   5.117   5.023   4.840
 1910WAT      O 6248   4.925   5.785   1.905
 1910WAT     H1 6249   4.917   5.693   1.878
 1910WAT     H2 6250   4.884   5.835   1.835
 1911WAT      O 6251   4.738   5.963   2.094
 1911WAT     H1 6252   4.661   5.915   2.122
 1911WAT     H2 6253   4.803   5.895   2.076
 1912WAT      O 6254   3.981   5.491   1.559
 1912WAT     H1 6255   3.892   5.523   1.550
 1912WAT     H2 6256   4.009   5.470   1.470
 1913WAT      O 6257   3.774   5.748   2.147
 1913WAT     H1 6258   3.835   5.674   2.148
 1913WAT     H2 6259   3.778   5.781   2.058
 1914WAT      O 6260   3.902   5.291   2.327
 1914WAT     H1 6261   3.884   5.201   2.355
 1914WAT     H2 6262   3.860   5.345   2.394
 1915WAT      O 6263   4.784   5.511   2.117
 1915WAT     H1 6264   4.824   5.425   2.107
 1915WAT     H2 6265   4.777   5.545   2.027
 1916WAT      O 6266   4.199   5.348   1.663
 1916WAT     H1 6267   4.209   5.438   1.695
 1916WAT     H2 6268   4.107   5.343   1.634
 1917WAT      O 6269   5.164   5.260   1.810
 1917WAT     H1 6270   5.246   5.211   1.814
 1917WAT     H2 6271   5.167   5.319   1.885
 1918WAT      O 6272   3.962   5.540   2.188
 1918WAT     H1 6273   4.031   5.567   2.248
 1918WAT     H2 6274   3.932   5.456   2.222
 1919WAT      O 6275   4.383   5.645   2.096
 1919WAT     H1 6276   4.434   5.695   2.160
 1919WAT     H2 6277   4.436   5.567   2.079
 1920WAT      O 6278   5.592   5.462   2.467
 1920WAT     H1 6279   5.522   5.502   2.415
 1920WAT     H2 6280   5.620   5.532   2.527
 1921WAT      O 6281   4.211   5.108   2.523
 1921WAT     H1 6282   4.211   5.161   2.443
 1921WAT     H2 6283   4.128   5.061   2.521
 1922WAT      O 6284   5.188   5.454   2.087
 1922WAT     H1 6285   5.117   5.482   2.145
 1922WAT     H2 6286   5.223   5.535   2.051
 1923WAT      O 6287   4.179   5.280   2.324
 1923WAT     H1 6288   4.213   5.365   2.294
 1923WAT     H2 6289   4.085   5.295   2.335
 1924WAT      O 6290   5.494   5.399   2.127
 1924WAT     H1 6291   5.399   5.402   2.140
 1924WAT     H2 6292   5.527   5.480   2.166
 1925WAT      O 6293   4.547   5.029   1.956
 1925WAT     H1 6294   4.578   4.973   1.884
 1925WAT     H2 6295   4.454   5.042   1.938
 1926WAT      O 6296   4.786   5.835   1.631
 1926WAT     H1 6297   4.694   5.829   1.653
 1926WAT     H2 6298   4.801   5.929   1.618
 1927WAT      O 6299   4.785   5.461   1.328
 1927WAT     H1 6300   4.692   5.479   1.339
 1927WAT     H2 6301   4.817   5.535   1.276
 1928WAT      O 6302   5.133   5.609   2.422
 1928WAT     H1 6303   5.092   5.692   2.446
 1928WAT     H2 6304   5.060   5.551   2.402
 1929WAT      O 6305   4.347   5.888   1.908
 1929WAT     H1 6306   4.306   5.817   1.858
 1929WAT     H2 6307   4.355   5.853   1.997
 1930WAT      O 6308   4.218   5.564   2.287
 1930WAT     H1 6309   4.272   5.577   2.208
 1930WAT     H2 6310   4.269   5.604   2.357
 1931WAT      O 6311   5.365   5.041   1.212
 1931WAT     H1 6312   5.335   5.049   1.302
 1931WAT     H2 6313   5.441   5.099   1.207
 1932WAT      O 6314   4.017   5.778   1.658
 1932WAT     H1 6315   4.005   5.850   1.597
 1932WAT     H2 6316   3.986   5.701   1.610
 1933WAT      O 6317   5.486   5.515   2.810
 1933WAT     H1 6318   5.424   5.566   2.757
 1933WAT     H2 6319   5.454   5.425   2.804
 1934WAT      O 6320   4.263   5.112   1.996
 1934WAT     H1 6321   4.219   5.190   1.963
 1934WAT     H2 6322   4.319   5.144   2.067
 1935WAT      O 6323   4.692   5.399   2.557
 1935WAT     H1 6324   4.645   5.419   2.638
 1935WAT     H2 6325   4.652   5.317   2.526
 1936WAT      O 6326   5.192   5.521   2.670
 1936WAT     H1 6327   5.107   5.491   2.702
 1936WAT     H2 6328   5.176   5.545   2.579
 1937WAT      O 6329   4.902   5.671   2.879
 1937WAT     H1 6330   4.933   5.587   2.847
 1937WAT     H2 6331   4.981   5.722   2.895
 1938WAT      O 6332   4.574   5.074   1.484
 1938WAT     H1 6333   4.513   5.074   1.557
 1938WAT     H2 6334   4.566   4.987   1.446
 1939WAT      O 6335   4.468   5.166   2.183
 1939WAT     H1 6336   4.496   5.257   2.174
 1939WAT     H2 6337   4.522   5.118   2.121
 1940WAT      O 6338   4.243   5.624   1.769
 1940WAT     H1 6339   4.220   5.603   1.859
 1940WAT     H2 6340   4.165   5.668   1.734
 1941WAT      O 6341   4.966   5.625   1.629
 1941WAT     H1 6342   4.906   5.697   1.611
 1941WAT     H2 6343   5.020   5.619   1.551
 1942WAT      O 6344   4.487   5.714   2.835
 1942WAT     H1 6345   4.477   5.620   2.821
 1942WAT     H2 6346   4.571   5.736   2.796
 1943WAT      O 6347   4.827   5.489   1.833
 1943WAT     H1 6348   4.866   5.520   1.751
 1943WAT     H2 6349   4.861   5.400   1.843
 1944WAT      O 6350   4.000   5.355   2.651
 1944WAT     H1 6351   3.960   5.440   2.672
 1944WAT     H2 6352   3.932   5.291   2.669
 1945WAT      O 6353   4.657   5.364   2.958
 1945WAT     H1 6354   4.588   5.343   3.022
 1945WAT     H2 6355   4.731   5.392   3.012
 1946WAT      O 6356   3.730   5.147   2.055
 1946WAT     H1 6357   3.701   5.205   2.125
 1946WAT     H2 6358   3.804   5.099   2.092
 1947WAT      O 6359   3.749   5.542   1.174
 1947WAT     H1 6360   3.740   5.636   1.189
 1947WAT     H2 6361   3.712   5.527   1.087
 1948WAT      O 6362   4.885   5.747   2.242
 1948WAT     H1 6363   4.812   5.798   2.276
 1948WAT     H2 6364   4.845   5.666   2.211
 1949WAT      O 6365   4.529   5.415   2.082
 1949WAT     H1 6366   4.530   5.372   1.996
 1949WAT     H2 6367   4.618   5.447   2.093
 1950WAT      O 6368   4.114   5.402   1.978
 1950WAT     H1 6369   4.080   5.451   2.053
 1950WAT     H2 6370   4.037   5.359   1.942
 1951WAT      O 6371   4.535   5.515   1.382
 1951WAT     H1 6372   4.547   5.511   1.477
 1951WAT     H2 6373   4.496   5.601   1.366
 1952WAT      O 6374   4.931   5.293   2.183
 1952WAT     H1 6375   4.933   5.338   2.267
 1952WAT     H2 6376   4.906   5.203   2.204
 1953WAT      O 6377   4.436   5.746   1.321
 1953WAT     H1 6378   4.379   5.702   1.257
 1953WAT     H2 6379   4.506   5.783   1.268
 1954WAT      O 6380   5.273   5.034   2.767
 1954WAT     H1 6381   5.306   4.960   2.819
 1954WAT     H2 6382   5.277   5.003   2.676
 1955WAT      O 6383   4.559   5.821   2.257
 1955WAT     H1 6384   4.595   5.773   2.331
 1955WAT     H2 6385   4.540   5.909   2.291
 1956WAT      O 6386   3.846   5.295   1.869
 1956WAT     H1 6387   3.816   5.259   1.953
 1956WAT     H2 6388   3.839   5.222   1.808
 1957WAT      O 6389   4.338   5.725   2.489
 1957WAT     H1 6390   4.307   5.813   2.511
 1957WAT     H2 6391   4.433   5.731   2.492
 1958WAT      O 6392   4.812   5.185   1.542
 1958WAT     H1 6393   4.731   5.135   1.534
 1958WAT     H2 6394   4.793   5.269   1.500
 1959WAT      O 6395   5.084   5.622   1.371
 1959WAT     H1 6396   5.172   5.653   1.354
 1959WAT     H2 6397   5.081   5.534   1.332
 1960WAT      O 6398   3.943   5.810   2.603
 1960WAT     H1 6399   3.907   5.876   2.662
 1960WAT     H2 6400   3.915   5.726   2.640
 1961WAT      O 6401   4.263   5.855   2.892
 1961WAT     H1 6402   4.233   5.870   2.802
 1961WAT     H2 6403   4.341   5.800   2.882
 1962WAT      O 6404   5.312   5.752   1.317
 1962WAT     H1 6405   5.303   5.796   1.233
 1962WAT     H2 6406   5.383   5.799   1.361
 1963WAT      O 6407   3.793   5.809   1.266
 1963WAT     H1 6408   3.881   5.836   1.294
 1963WAT     H2 6409   3.745   5.891   1.255
 1964WAT      O 6410   4.101   4.982   1.725
 1964WAT     H1 6411   4.087   4.980   1.820
 1964WAT     H2 6412   4.019   5.015   1.690
 1965WAT      O 6413   3.800   5.158   2.671
 1965WAT     H1 6414   3.729   5.178   2.731
 1965WAT     H2 6415   3.844   5.081   2.709
 1966WAT      O 6416   4.950   5.407   2.445
 1966WAT     H1 6417   4.987   5.326   2.479
 1966WAT     H2 6418   4.864   5.413   2.487
 1967WAT      O 6419   5.287   5.303   1.527
 1967WAT     H1 6420   5.224   5.313   1.455
 1967WAT     H2 6421   5.237   5.324   1.606
 1968WAT      O 6422   4.484   5.531   1.668
 1968WAT     H1 6423   4.413   5.578   1.712
 1968WAT     H2 6424   4.513   5.465   1.732
 1969WAT      O 6425   4.645   5.673   2.469
 1969WAT     H1 6426   4.696   5.720   2.535
 1969WAT     H2 6427   4.660   5.581   2.488
 1970WAT      O 6428   4.887   5.203   1.812
 1970WAT     H1 6429   4.874   5.205   1.718
 1970WAT     H2 6430   4.982   5.208   1.823
 1971WAT      O 6431   4.303   5.363   1.406
 1971WAT     H1 6432   4.389   5.405   1.399
 1971WAT     H2 6433   4.268   5.393   1.489
 1972WAT      O 6434   5.367   5.295   2.553
 1972WAT     H1 6435   5.317   5.369   2.587
 1972WAT     H2 6436   5.448   5.333   2.521
 1973WAT      O 6437   5.196   5.819   1.897
 1973WAT     H1 6438   5.102   5.820   1.915
 1973WAT     H2 6439   5.228   5.741   1.942
 1974WAT      O 6440   4.063   5.731   1.324
 1974WAT     H1 6441   4.071   5.636   1.332
 1974WAT     H2 6442   4.153   5.763   1.332
 1975WAT      O 6443   3.816   5.912   2.845
 1975WAT     H1 6444   3.866   5.854   2.902
 1975WAT     H2 6445   3.742   5.941   2.899
 1976WAT      O 6446   4.019   5.726   2.935
 1976WAT     H1 6447   4.023   5.698   3.026
 1976WAT     H2 6448   4.104   5.767   2.919
 1977WAT      O 6449   4.214   5.584   2.731
 1977WAT     H1 6450   4.159   5.536   2.669
 1977WAT     H2 6451   4.280   5.627   2.678
 1978WAT      O 6452   4.648   5.889   1.175
 1978WAT     H1 6453   4.700   5.817   1.139
 1978WAT     H2 6454   4.713   5.953   1.205
 1979WAT      O 6455   5.151   5.765   2.908
 1979WAT     H1 6456   5.209   5.690   2.899
 1979WAT     H2 6457   5.168   5.818   2.830
 1980WAT      O 6458   4.262   5.281   2.739
 1980WAT     H1 6459   4.253   5.219   2.667
 1980WAT     H2 6460   4.204   5.353   2.717
 1981WAT      O 6461   4.539   5.137   2.443
 1981WAT     H1 6462   4.494   5.139   2.358
 1981WAT     H2 6463   4.475   5.097   2.502
 1982WAT      O 6464   4.813   5.799   2.643
 1982WAT     H1 6465   4.825   5.741   2.718
 1982WAT     H2 6466   4.899   5.803   2.601
 1983WAT      O 6467   5.046   5.855   2.502
 1983WAT     H1 6468   4.995   5.907   2.440
 1983WAT     H2 6469   5.081   5.919   2.564
 1984WAT      O 6470   4.287   5.594   1.145
 1984WAT     H1 6471   4.267   5.507   1.181
 1984WAT     H2 6472   4.270   5.585   1.051
 1985WAT      O 6473   4.490   5.454   2.769
 1985WAT     H1 6474   4.549   5.423   2.838
 1985WAT     H2 6475   4.408   5.406   2.784
 1986WAT      O 6476   4.972   5.416   2.793
 1986WAT     H1 6477   4.903   5.349   2.786
 1986WAT     H2 6478   5.044   5.371   2.837
 1987WAT      O 6479   5.034   5.075   1.398
 1987WAT     H1 6480   5.063   4.991   1.434
 1987WAT     H2 6481   4.957   5.099   1.450
 1988WAT      O 6482   4.167   5.305   1.143
 1988WAT     H1 6483   4.197   5.304   1.053
 1988WAT     H2 6484   4.240   5.269   1.194
 1989WAT      O 6485   4.489   5.198   1.242
 1989WAT     H1 6486   4.454   5.131   1.185
 1989WAT     H2 6487   4.508   5.153   1.324
 1990WAT      O 6488   3.822   5.850   1.882
 1990WAT     H1 6489   3.757   5.824   1.817
 1990WAT     H2 6490   3.906   5.840   1.837
 1991WAT      O 6491   5.118   5.330   1.304
 1991WAT     H1 6492   5.159   5.312   1.220
 1991WAT     H2 6493   5.086   5.245   1.335
 1992WAT      O 6494   5.467   5.822   1.674
 1992WAT     H1 6495   5.430   5.745   1.631
 1992WAT     H2 6496   5.394   5.860   1.723
 1993WAT      O 6497   3.926   5.890   2.337
 1993WAT     H1 6498   3.963   5.880   2.425
 1993WAT     H2 6499   3.870   5.814   2.325
 1994WAT      O 6500   5.406   5.737   2.638
 1994WAT     H1 6501   5.383   5.714   2.548
 1994WAT     H2 6502   5.432   5.829   2.633
 1995WAT      O 6503   3.881   5.580   2.727
 1995WAT     H1 6504   3.791   5.577   2.762
 1995WAT     H2 6505   3.935   5.602   2.803
 1996WAT      O 6506   5.250   5.259   2.915
 1996WAT     H1 6507   5.337   5.260   2.954
 1996WAT     H2 6508   5.251   5.185   2.854
 1997WAT      O 6509   3.744   5.572   1.476
 1997WAT     H1 6510   3.653   5.598   1.459
 1997WAT     H2 6511   3.792   5.599   1.398
 1998WAT      O 6512   5.394   5.643   2.005
 1998WAT     H1 6513   5.447   5.596   1.941
 1998WAT     H2 6514   5.453   5.659   2.078
 1999WAT      O 6515   5.413   5.653   2.357
 1999WAT     H1 6516   5.318   5.649   2.367
 1999WAT     H2 6517   5.431   5.744   2.332
 2000WAT      O 6518   3.999   5.479   1.267
 2000WAT     H1 6519   4.068   5.434   1.219
 2000WAT     H2 6520   3.926   5.485   1.205
 2001WAT      O 6521   3.962   5.083   1.171
 2001WAT     H1 6522   4.035   5.137   1.203
 2001WAT     H2 6523   3.990   5.056   1.083
 2002WAT      O 6524   5.345   5.570   1.598
 2002WAT     H1 6525   5.393   5.547   1.678
 2002WAT     H2 6526   5.324   5.486   1.557
 2003WAT      O 6527   3.932   5.008   2.162
 2003WAT     H1 6528   3.997   4.953   2.118
 2003WAT     H2 6529   3.974   5.034   2.244
 2004WAT      O 6530   5.487   5.434   1.852
 2004WAT     H1 6531   5.476   5.418   1.945
 2004WAT     H2 6532   5.563   5.382   1.827
 2005WAT      O 6533   5.322   5.027   2.497
 2005WAT     H1 6534   5.384   5.090   2.533
 2005WAT     H2 6535   5.336   5.031   2.403
 2006WAT      O 6536   5.575   5.216   1.176
 2006WAT     H1 6537   5.668   5.204   1.155
 2006WAT     H2 6538   5.573   5.226   1.271
 2007WAT      O 6539   5.583   5.293   1.439
 2007WAT     H1 6540   5.503   5.287   1.491
 2007WAT     H2 6541   5.603   5.387   1.437
 2008WAT      O 6542   3.907   5.024   2.437
 2008WAT     H1 6543   3.872   5.069   2.513
 2008WAT     H2 6544   3.874   4.935   2.444
 2009WAT      O 6545   4.658   5.142   2.789
 2009WAT     H1 6546   4.652   5.203   2.862
 2009WAT     H2 6547   4.752   5.132   2.774
 2010WAT      O 6548   4.922   5.110   2.753
 2010WAT     H1 6549   4.983   5.140   2.686
 2010WAT     H2 6550   4.977   5.060   2.814
 2011WAT      O 6551   3.974   4.976   2.763
 2011WAT     H1 6552   4.029   4.958   2.687
 2011WAT     H2 6553   3.981   4.898   2.817
 2012WAT      O 6554   4.997   4.966   2.386
 2012WAT     H1 6555   4.910   4.998   2.363
 2012WAT     H2 6556   4.984   4.917   2.467
 2013WAT      O 6557   5.087   5.185   2.524
 2013WAT     H1 6558   5.054   5.104   2.484
 2013WAT     H2 6559   5.182   5.181   2.512
 2014WAT      O 6560   4.771   5.057   2.279
 2014WAT     H1 6561   4.693   5.104   2.308
 2014WAT     H2 6562   4.741   4.966   2.267
 2015WAT      O 6563   5.225   5.127   2.083
 2015WAT     H1 6564   5.271   5.121   1.999
 2015WAT     H2 6565   5.199   5.219   2.090
 2016WAT      O 6566   5.412   5.090   1.884
 2016WAT     H1 6567   5.406   4.996   1.869
 2016WAT     H2 6568   5.489   5.101   1.939
 2017WAT      O 6569   3.905   5.087   1.531
 2017WAT     H1 6570   3.981   5.098   1.473
 2017WAT     H2 6571   3.859   5.171   1.525
 2018WAT      O 6572   4.558   5.299   1.831
 2018WAT     H1 6573   4.478   5.260   1.795
 2018WAT     H2 6574   4.610   5.223   1.859
 2019WAT      O 6575   5.010   4.965   1.954
 2019WAT     H1 6576   5.070   5.022   2.001
 2019WAT     H2 6577   4.936   5.021   1.931
 2020WAT      O 6578   5.324   5.005   1.482
 2020WAT     H1 6579   5.342   5.095   1.508
 2020WAT     H2 6580   5.245   4.982   1.529
 2021WAT      O 6581   4.142   5.140   1.385
 2021WAT     H1 6582   4.195   5.061   1.373
 2021WAT     H2 6583   4.206   5.208   1.407
 2022WAT      O 6584   4.362   5.114   1.690
 2022WAT     H1 6585   4.299   5.044   1.707
 2022WAT     H2 6586   4.308   5.190   1.669
 2023WAT      O 6587   4.374   5.041   2.934
 2023WAT     H1 6588   4.346   5.092   2.857
 2023WAT     H2 6589   4.413   4.962   2.897
 2024WAT      O 6590   5.034   4.984   2.991
 2024WAT     H1 6591   5.023   5.015   3.081
 2024WAT     H2 6592   5.117   5.023   2.963
 2025WAT      O 6593   4.738   5.963   0.216
 2025WAT     H1 6594   4.661   5.915   0.245
 2025WAT     H2 6595   4.803   5.895   0.199
 2026WAT      O 6596   3.776   5.749   0.271
 2026WAT     H1 6597   3.835   5.673   0.271
 2026WAT     H2 6598   3.778   5.780   0.180
 2027WAT      O 6599   3.903   5.291   0.450
 2027WAT     H1 6600   3.884   5.201   0.477
 2027WAT     H2 6601   3.860   5.345   0.517
 2028WAT      O 6602   3.961   5.541   0.311
 2028WAT     H1 6603   4.032   5.567   0.371
 2028WAT     H2 6604   3.932   5.456   0.344
 2029WAT      O 6605   4.383   5.644   0.219
 2029WAT     H1 6606   4.434   5.695   0.282
 2029WAT     H2 6607   4.437   5.568   0.201
 2030WAT      O 6608   5.592   5.462   0.590
 2030WAT     H1 6609   5.523   5.502   0.537
 2030WAT     H2 6610   5.620   5.532   0.649
 2031WAT      O 6611   4.211   5.108   0.646
 2031WAT     H1 6612   4.211   5.161   0.566
 2031WAT     H2 6613   4.128   5.061   0.643
 2032WAT      O 6614   5.188   5.454   0.211
 2032WAT     H1 6615   5.117   5.482   0.268
 2032WAT     H2 6616   5.223   5.535   0.174
 2033WAT      O 6617   4.179   5.281   0.446
 2033WAT     H1 6618   4.213   5.365   0.417
 2033WAT     H2 6619   4.085   5.295   0.457
 2034WAT      O 6620   5.494   5.399   0.250
 2034WAT     H1 6621   5.399   5.402   0.262
 2034WAT     H2 6622   5.526   5.480   0.288
 2035WAT      O 6623   5.134   5.610   0.544
 2035WAT     H1 6624   5.092   5.692   0.569
 2035WAT     H2 6625   5.060   5.551   0.525
 2036WAT      O 6626   4.219   5.564   0.409
 2036WAT     H1 6627   4.272   5.577   0.331
 2036WAT     H2 6628   4.269   5.604   0.480
 2037WAT      O 6629   5.486   5.515   0.933
 2037WAT     H1 6630   5.424   5.566   0.880
 2037WAT     H2 6631   5.454   5.425   0.927
 2038WAT      O 6632   4.692   5.399   0.679
 2038WAT     H1 6633   4.646   5.419   0.760
 2038WAT     H2 6634   4.652   5.317   0.649
 2039WAT      O 6635   5.192   5.521   0.792
 2039WAT     H1 6636   5.107   5.491   0.824
 2039WAT     H2 6637   5.176   5.545   0.701
 2040WAT      O 6638   4.901   5.671   1.001
 2040WAT     H1 6639   4.934   5.587   0.969
 2040WAT     H2 6640   4.981   5.722   1.018
 2041WAT      O 6641   4.468   5.166   0.306
 2041WAT     H1 6642   4.497   5.257   0.297
 2041WAT     H2 6643   4.522   5.118   0.242
 2042WAT      O 6644   4.486   5.714   0.957
 2042WAT     H1 6645   4.477   5.620   0.943
 2042WAT     H2 6646   4.572   5.736   0.919
 2043WAT      O 6647   4.000   5.355   0.775
 2043WAT     H1 6648   3.960   5.440   0.794
 2043WAT     H2 6649   3.931   5.291   0.792
 2044WAT      O 6650   4.657   5.364   1.081
 2044WAT     H1 6651   4.588   5.343   1.144
 2044WAT     H2 6652   4.731   5.392   1.134
 2045WAT      O 6653   3.729   5.147   0.177
 2045WAT     H1 6654   3.701   5.206   0.247
 2045WAT     H2 6655   3.804   5.100   0.213
 2046WAT      O 6656   4.885   5.748   0.364
 2046WAT     H1 6657   4.812   5.798   0.399
 2046WAT     H2 6658   4.845   5.666   0.334
 2047WAT      O 6659   4.930   5.293   0.306
 2047WAT     H1 6660   4.933   5.338   0.390
 2047WAT     H2 6661   4.906   5.203   0.327
 2048WAT      O 6662   5.273   5.034   0.889
 2048WAT     H1 6663   5.306   4.961   0.942
 2048WAT     H2 6664   5.277   5.002   0.799
 2049WAT      O 6665   4.559   5.821   0.379
 2049WAT     H1 6666   4.595   5.774   0.454
 2049WAT     H2 6667   4.540   5.909   0.413
 2050WAT      O 6668   4.338   5.725   0.612
 2050WAT     H1 6669   4.307   5.813   0.634
 2050WAT     H2 6670   4.433   5.731   0.615
 2051WAT      O 6671   3.943   5.810   0.726
 2051WAT     H1 6672   3.907   5.876   0.785
 2051WAT     H2 6673   3.915   5.726   0.763
 2052WAT      O 6674   4.262   5.855   1.014
 2052WAT     H1 6675   4.234   5.870   0.924
 2052WAT     H2 6676   4.340   5.800   1.005
 2053WAT      O 6677   3.800   5.158   0.793
 2053WAT     H1 6678   3.729   5.178   0.854
 2053WAT     H2 6679   3.844   5.081   0.831
 2054WAT      O 6680   4.949   5.407   0.568
 2054WAT     H1 6681   4.987   5.326   0.601
 2054WAT     H2 6682   4.864   5.412   0.610
 2055WAT      O 6683   4.646   5.673   0.591
 2055WAT     H1 6684   4.696   5.720   0.657
 2055WAT     H2 6685   4.660   5.580   0.612
 2056WAT      O 6686   5.367   5.295   0.676
 2056WAT     H1 6687   5.317   5.369   0.709
 2056WAT     H2 6688   5.449   5.333   0.644
 2057WAT      O 6689   3.816   5.912   0.967
 2057WAT     H1 6690   3.866   5.854   1.025
 2057WAT     H2 6691   3.742   5.941   1.021
 2058WAT      O 6692   4.019   5.726   1.057
 2058WAT     H1 6693   4.023   5.698   1.148
 2058WAT     H2 6694   4.104   5.767   1.041
 2059WAT      O 6695   4.214   5.584   0.854
 2059WAT     H1 6696   4.159   5.537   0.791
 2059WAT     H2 6697   4.280   5.627   0.801
 2060WAT      O 6698   5.151   5.765   1.031
 2060WAT     H1 6699   5.209   5.690   1.022
 2060WAT     H2 6700   5.168   5.818   0.953
 2061WAT      O 6701   4.262   5.281   0.862
 2061WAT     H1 6702   4.253   5.219   0.790
 2061WAT     H2 6703   4.204   5.353   0.839
 2062WAT      O 6704   4.539   5.137   0.565
 2062WAT     H1 6705   4.494   5.139   0.481
 2062WAT     H2 6706   4.475   5.097   0.625
 2063WAT      O 6707   4.813   5.799   0.766
 2063WAT     H1 6708   4.825   5.741   0.841
 2063WAT     H2 6709   4.899   5.803   0.724
 2064WAT      O 6710   5.046   5.855   0.624
 2064WAT     H1 6711   4.994   5.907   0.562
 2064WAT     H2 6712   5.081   5.919   0.686
 2065WAT      O 6713   4.490   5.454   0.891
 2065WAT     H1 6714   4.549   5.423   0.960
 2065WAT     H2 6715   4.408   5.407   0.906
 2066WAT      O 6716   4.972   5.416   0.915
 2066WAT     H1 6717   4.903   5.349   0.908
 2066WAT     H2 6718   5.044   5.371   0.959
 2067WAT      O 6719   3.926   5.890   0.460
 2067WAT     H1 6720   3.963   5.880   0.548
 2067WAT     H2 6721   3.870   5.814   0.448
 2068WAT      O 6722   5.406   5.737   0.760
 2068WAT     H1 6723   5.384   5.714   0.670
 2068WAT     H2 6724   5.432   5.829   0.756
 2069WAT      O 6725   3.881   5.580   0.850
 2069WAT     H1 6726   3.792   5.577   0.883
 2069WAT     H2 6727   3.935   5.602   0.926
 2070WAT      O 6728   5.250   5.259   1.038
 2070WAT     H1 6729   5.338   5.260   1.076
 2070WAT     H2 6730   5.251   5.185   0.977
 2071WAT      O 6731   5.413   5.653   0.480
 2071WAT     H1 6732   5.318   5.649   0.489
 2071WAT     H2 6733   5.431   5.743   0.455
 2072WAT      O 6734   3.932   5.008   0.284
 2072WAT     H1 6735   3.997   4.953   0.240
 2072WAT     H2 6736   3.974   5.034   0.366
 2073WAT      O 6737   5.321   5.027   0.620
 2073WAT     H1 6738   5.384   5.090   0.656
 2073WAT     H2 6739   5.336   5.031   0.525
 2074WAT      O 6740   3.908   5.024   0.560
 2074WAT     H1 6741   3.871   5.069   0.636
 2074WAT     H2 6742   3.874   4.934   0.567
 2075WAT      O 6743   4.658   5.142   0.912
 2075WAT     H1 6744   4.652   5.203   0.985
 2075WAT     H2 6745   4.752   5.132   0.896
 2076WAT      O 6746   4.922   5.110   0.875
 2076WAT     H1 6747   4.983   5.140   0.808
 2076WAT     H2 6748   4.977   5.060   0.937
 2077WAT      O 6749   3.974   4.976   0.886
 2077WAT     H1 6750   4.029   4.958   0.810
 2077WAT     H2 6751   3.981   4.898   0.940
 2078WAT      O 6752   4.997   4.965   0.508
 2078WAT     H1 6753   4.910   4.998   0.486
 2078WAT     H2 6754   4.984   4.917   0.590
 2079WAT      O 6755   5.087   5.185   0.646
 2079WAT     H1 6756   5.054   5.104   0.607
 2079WAT     H2 6757   5.182   5.182   0.634
 2080WAT      O 6758   4.771   5.057   0.401
 2080WAT     H1 6759   4.693   5.104   0.430
 2080WAT     H2 6760   4.740   4.966   0.390
 2081WAT      O 6761   4.374   5.041   1.056
 2081WAT     H1 6762   4.346   5.092   0.980
 2081WAT     H2 6763   4.413   4.962   1.020
 2082WAT      O 6764   5.034   4.984   1.114
 2082WAT     H1 6765   5.023   5.015   1.204
 2082WAT     H2 6766   5.117   5.023   1.085
 2083WAT      O 6767   4.925   3.907   5.660
 2083WAT     H1 6768   4.917   3.816   5.633
 2083WAT     H2 6769   4.884   3.957   5.590
 2084WAT      O 6770   5.141   4.526   5.726
 2084WAT     H1 6771   5.093   4.449   5.758
 2084WAT     H2 6772   5.222   4.528   5.777
 2085WAT      O 6773   3.981   3.613   5.314
 2085WAT     H1 6774   3.892   3.646   5.304
 2085WAT     H2 6775   4.009   3.592   5.225
 2086WAT      O 6776   4.763   4.754   5.688
 2086WAT     H1 6777   4.701   4.799   5.631
 2086WAT     H2 6778   4.849   4.770   5.648
 2087WAT      O 6779   4.199   3.471   5.418
 2087WAT     H1 6780   4.209   3.561   5.449
 2087WAT     H2 6781   4.107   3.466   5.389
 2088WAT      O 6782   5.164   3.383   5.565
 2088WAT     H1 6783   5.246   3.334   5.569
 2088WAT     H2 6784   5.167   3.442   5.640
 2089WAT      O 6785   4.850   4.243   5.427
 2089WAT     H1 6786   4.788   4.289   5.371
 2089WAT     H2 6787   4.901   4.313   5.469
 2090WAT      O 6788   3.787   4.311   5.165
 2090WAT     H1 6789   3.749   4.360   5.092
 2090WAT     H2 6790   3.812   4.378   5.228
 2091WAT      O 6791   4.547   3.152   5.711
 2091WAT     H1 6792   4.578   3.096   5.639
 2091WAT     H2 6793   4.454   3.165   5.693
 2092WAT      O 6794   5.232   4.395   5.449
 2092WAT     H1 6795   5.221   4.301   5.461
 2092WAT     H2 6796   5.231   4.431   5.538
 2093WAT      O 6797   4.787   3.958   5.386
 2093WAT     H1 6798   4.693   3.951   5.407
 2093WAT     H2 6799   4.801   4.052   5.373
 2094WAT      O 6800   4.785   3.584   5.082
 2094WAT     H1 6801   4.692   3.601   5.094
 2094WAT     H2 6802   4.817   3.658   5.031
 2095WAT      O 6803   5.189   4.114   5.435
 2095WAT     H1 6804   5.127   4.080   5.371
 2095WAT     H2 6805   5.187   4.050   5.506
 2096WAT      O 6806   4.346   4.010   5.663
 2096WAT     H1 6807   4.307   3.939   5.613
 2096WAT     H2 6808   4.355   3.976   5.752
 2097WAT      O 6809   5.007   4.038   5.136
 2097WAT     H1 6810   5.050   3.954   5.121
 2097WAT     H2 6811   5.079   4.101   5.144
 2098WAT      O 6812   4.818   4.531   5.532
 2098WAT     H1 6813   4.862   4.606   5.491
 2098WAT     H2 6814   4.812   4.556   5.625
 2099WAT      O 6815   5.365   3.164   4.967
 2099WAT     H1 6816   5.335   3.172   5.057
 2099WAT     H2 6817   5.441   3.221   4.962
 2100WAT      O 6818   4.017   3.900   5.413
 2100WAT     H1 6819   4.005   3.973   5.352
 2100WAT     H2 6820   3.986   3.823   5.365
 2101WAT      O 6821   3.905   4.387   5.634
 2101WAT     H1 6822   3.864   4.401   5.549
 2101WAT     H2 6823   3.994   4.359   5.614
 2102WAT      O 6824   5.084   4.831   5.268
 2102WAT     H1 6825   5.069   4.802   5.358
 2102WAT     H2 6826   5.069   4.753   5.215
 2103WAT      O 6827   4.332   4.809   5.445
 2103WAT     H1 6828   4.315   4.717   5.425
 2103WAT     H2 6829   4.247   4.845   5.470
 2104WAT      O 6830   5.055   4.583   5.124
 2104WAT     H1 6831   4.985   4.581   5.058
 2104WAT     H2 6832   5.129   4.539   5.081
 2105WAT      O 6833   5.011   4.744   5.532
 2105WAT     H1 6834   5.057   4.666   5.563
 2105WAT     H2 6835   5.045   4.815   5.586
 2106WAT      O 6836   4.263   3.235   5.751
 2106WAT     H1 6837   4.219   3.313   5.718
 2106WAT     H2 6838   4.319   3.267   5.822
 2107WAT      O 6839   4.574   3.197   5.239
 2107WAT     H1 6840   4.513   3.196   5.312
 2107WAT     H2 6841   4.567   3.110   5.200
 2108WAT      O 6842   4.243   3.748   5.524
 2108WAT     H1 6843   4.219   3.724   5.614
 2108WAT     H2 6844   4.165   3.790   5.489
 2109WAT      O 6845   4.966   3.747   5.384
 2109WAT     H1 6846   4.906   3.820   5.366
 2109WAT     H2 6847   5.020   3.741   5.305
 2110WAT      O 6848   4.827   3.612   5.588
 2110WAT     H1 6849   4.866   3.643   5.506
 2110WAT     H2 6850   4.861   3.523   5.597
 2111WAT      O 6851   3.749   3.665   4.929
 2111WAT     H1 6852   3.740   3.759   4.944
 2111WAT     H2 6853   3.712   3.650   4.842
 2112WAT      O 6854   4.529   3.538   5.837
 2112WAT     H1 6855   4.529   3.494   5.752
 2112WAT     H2 6856   4.618   3.570   5.848
 2113WAT      O 6857   4.114   3.526   5.733
 2113WAT     H1 6858   4.080   3.574   5.808
 2113WAT     H2 6859   4.037   3.481   5.697
 2114WAT      O 6860   4.534   3.637   5.137
 2114WAT     H1 6861   4.547   3.634   5.232
 2114WAT     H2 6862   4.496   3.724   5.120
 2115WAT      O 6863   4.435   3.871   5.075
 2115WAT     H1 6864   4.379   3.824   5.012
 2115WAT     H2 6865   4.507   3.905   5.022
 2116WAT      O 6866   3.845   3.418   5.624
 2116WAT     H1 6867   3.817   3.381   5.708
 2116WAT     H2 6868   3.839   3.345   5.563
 2117WAT      O 6869   4.191   4.268   5.303
 2117WAT     H1 6870   4.113   4.214   5.288
 2117WAT     H2 6871   4.264   4.216   5.269
 2118WAT      O 6872   4.813   3.307   5.297
 2118WAT     H1 6873   4.731   3.258   5.289
 2118WAT     H2 6874   4.794   3.391   5.255
 2119WAT      O 6875   5.084   3.745   5.126
 2119WAT     H1 6876   5.173   3.776   5.109
 2119WAT     H2 6877   5.081   3.657   5.087
 2120WAT      O 6878   4.194   4.236   5.667
 2120WAT     H1 6879   4.247   4.156   5.661
 2120WAT     H2 6880   4.150   4.229   5.751
 2121WAT      O 6881   4.684   4.362   5.194
 2121WAT     H1 6882   4.718   4.437   5.145
 2121WAT     H2 6883   4.601   4.393   5.230
 2122WAT      O 6884   5.312   3.876   5.073
 2122WAT     H1 6885   5.303   3.919   4.988
 2122WAT     H2 6886   5.383   3.922   5.116
 2123WAT      O 6887   5.415   4.561   5.345
 2123WAT     H1 6888   5.350   4.496   5.373
 2123WAT     H2 6889   5.376   4.602   5.268
 2124WAT      O 6890   4.972   4.294   5.731
 2124WAT     H1 6891   5.007   4.234   5.665
 2124WAT     H2 6892   4.883   4.261   5.748
 2125WAT      O 6893   4.580   4.370   5.472
 2125WAT     H1 6894   4.649   4.425   5.508
 2125WAT     H2 6895   4.502   4.424   5.475
 2126WAT      O 6896   3.794   3.932   5.020
 2126WAT     H1 6897   3.881   3.959   5.049
 2126WAT     H2 6898   3.745   4.014   5.009
 2127WAT      O 6899   4.512   4.069   5.434
 2127WAT     H1 6900   4.556   4.152   5.455
 2127WAT     H2 6901   4.475   4.039   5.517
 2128WAT      O 6902   4.101   3.106   5.480
 2128WAT     H1 6903   4.087   3.103   5.575
 2128WAT     H2 6904   4.019   3.138   5.445
 2129WAT      O 6905   5.252   4.450   5.000
 2129WAT     H1 6906   5.230   4.378   5.059
 2129WAT     H2 6907   5.215   4.425   4.916
 2130WAT      O 6908   3.832   4.853   5.077
 2130WAT     H1 6909   3.867   4.914   5.012
 2130WAT     H2 6910   3.817   4.908   5.154
 2131WAT      O 6911   5.211   4.241   5.166
 2131WAT     H1 6912   5.182   4.288   5.245
 2131WAT     H2 6913   5.291   4.196   5.193
 2132WAT      O 6914   4.433   4.592   5.159
 2132WAT     H1 6915   4.433   4.665   5.097
 2132WAT     H2 6916   4.341   4.566   5.168
 2133WAT      O 6917   3.992   4.113   5.233
 2133WAT     H1 6918   3.931   4.187   5.233
 2133WAT     H2 6919   4.040   4.121   5.150
 2134WAT      O 6920   5.287   3.426   5.282
 2134WAT     H1 6921   5.224   3.436   5.210
 2134WAT     H2 6922   5.237   3.446   5.361
 2135WAT      O 6923   4.731   4.597   5.025
 2135WAT     H1 6924   4.741   4.577   4.932
 2135WAT     H2 6925   4.641   4.572   5.046
 2136WAT      O 6926   4.484   3.653   5.423
 2136WAT     H1 6927   4.413   3.700   5.467
 2136WAT     H2 6928   4.513   3.588   5.487
 2137WAT      O 6929   4.887   3.326   5.567
 2137WAT     H1 6930   4.874   3.328   5.473
 2137WAT     H2 6931   4.982   3.331   5.578
 2138WAT      O 6932   4.596   4.850   5.495
 2138WAT     H1 6933   4.621   4.846   5.402
 2138WAT     H2 6934   4.501   4.837   5.494
 2139WAT      O 6935   4.303   3.485   5.160
 2139WAT     H1 6936   4.389   3.527   5.154
 2139WAT     H2 6937   4.268   3.515   5.244
 2140WAT      O 6938   5.196   3.941   5.652
 2140WAT     H1 6939   5.102   3.942   5.670
 2140WAT     H2 6940   5.228   3.864   5.697
 2141WAT      O 6941   4.193   4.109   5.009
 2141WAT     H1 6942   4.271   4.099   5.064
 2141WAT     H2 6943   4.202   4.041   4.942
 2142WAT      O 6944   4.063   3.853   5.077
 2142WAT     H1 6945   4.071   3.759   5.088
 2142WAT     H2 6946   4.153   3.886   5.087
 2143WAT      O 6947   4.143   4.868   5.787
 2143WAT     H1 6948   4.217   4.813   5.814
 2143WAT     H2 6949   4.182   4.954   5.773
 2144WAT      O 6950   3.831   4.474   5.374
 2144WAT     H1 6951   3.739   4.500   5.373
 2144WAT     H2 6952   3.879   4.557   5.362
 2145WAT      O 6953   4.454   4.785   4.969
 2145WAT     H1 6954   4.533   4.815   4.925
 2145WAT     H2 6955   4.403   4.742   4.900
 2146WAT      O 6956   5.360   4.708   5.111
 2146WAT     H1 6957   5.331   4.666   5.030
 2146WAT     H2 6958   5.340   4.801   5.099
 2147WAT      O 6959   4.506   4.307   4.955
 2147WAT     H1 6960   4.496   4.247   5.028
 2147WAT     H2 6961   4.490   4.254   4.877
 2148WAT      O 6962   4.830   4.213   5.016
 2148WAT     H1 6963   4.775   4.258   5.080
 2148WAT     H2 6964   4.893   4.163   5.068
 2149WAT      O 6965   4.396   4.108   5.205
 2149WAT     H1 6966   4.439   4.094   5.289
 2149WAT     H2 6967   4.411   4.027   5.156
 2150WAT      O 6968   4.648   4.011   4.931
 2150WAT     H1 6969   4.700   3.940   4.894
 2150WAT     H2 6970   4.713   4.076   4.960
 2151WAT      O 6971   4.287   3.716   4.900
 2151WAT     H1 6972   4.267   3.630   4.936
 2151WAT     H2 6973   4.270   3.708   4.806
 2152WAT      O 6974   5.035   3.198   5.153
 2152WAT     H1 6975   5.062   3.113   5.189
 2152WAT     H2 6976   4.957   3.221   5.204
 2153WAT      O 6977   4.167   3.428   4.898
 2153WAT     H1 6978   4.197   3.426   4.808
 2153WAT     H2 6979   4.240   3.392   4.949
 2154WAT      O 6980   4.489   3.321   4.997
 2154WAT     H1 6981   4.454   3.253   4.940
 2154WAT     H2 6982   4.508   3.276   5.079
 2155WAT      O 6983   4.704   4.821   5.159
 2155WAT     H1 6984   4.794   4.854   5.162
 2155WAT     H2 6985   4.708   4.747   5.098
 2156WAT      O 6986   4.069   4.357   4.981
 2156WAT     H1 6987   4.112   4.411   5.047
 2156WAT     H2 6988   4.117   4.274   4.983
 2157WAT      O 6989   3.790   4.636   5.727
 2157WAT     H1 6990   3.823   4.549   5.704
 2157WAT     H2 6991   3.833   4.656   5.810
 2158WAT      O 6992   4.250   4.469   5.493
 2158WAT     H1 6993   4.220   4.457   5.583
 2158WAT     H2 6994   4.239   4.383   5.452
 2159WAT      O 6995   5.528   4.447   4.965
 2159WAT     H1 6996   5.443   4.454   5.010
 2159WAT     H2 6997   5.544   4.536   4.932
 2160WAT      O 6998   5.472   4.121   5.214
 2160WAT     H1 6999   5.548   4.178   5.224
 2160WAT     H2 7000   5.474   4.065   5.291
 2161WAT      O 7001   3.822   3.974   5.637
 2161WAT     H1 7002   3.757   3.947   5.572
 2161WAT     H2 7003   3.906   3.963   5.591
 2162WAT      O 7004   5.572   4.208   5.698
 2162WAT     H1 7005   5.610   4.129   5.659
 2162WAT     H2 7006   5.637   4.276   5.681
 2163WAT      O 7007   5.480   4.151   4.930
 2163WAT     H1 7008   5.504   4.242   4.917
 2163WAT     H2 7009   5.459   4.144   5.023
 2164WAT      O 7010   5.118   3.453   5.059
 2164WAT     H1 7011   5.159   3.434   4.975
 2164WAT     H2 7012   5.086   3.368   5.090
 2165WAT      O 7013   5.467   3.945   5.429
 2165WAT     H1 7014   5.429   3.868   5.386
 2165WAT     H2 7015   5.394   3.983   5.478
 2166WAT      O 7016   3.744   3.695   5.231
 2166WAT     H1 7017   3.653   3.721   5.214
 2166WAT     H2 7018   3.791   3.722   5.152
 2167WAT      O 7019   5.394   3.766   5.760
 2167WAT     H1 7020   5.447   3.719   5.696
 2167WAT     H2 7021   5.453   3.780   5.834
 2168WAT      O 7022   3.999   3.601   5.023
 2168WAT     H1 7023   4.068   3.556   4.974
 2168WAT     H2 7024   3.926   3.607   4.960
 2169WAT      O 7025   3.962   3.206   4.926
 2169WAT     H1 7026   4.035   3.260   4.958
 2169WAT     H2 7027   3.990   3.178   4.839
 2170WAT      O 7028   5.345   3.693   5.353
 2170WAT     H1 7029   5.393   3.669   5.432
 2170WAT     H2 7030   5.324   3.610   5.311
 2171WAT      O 7031   5.486   3.556   5.606
 2171WAT     H1 7032   5.476   3.541   5.700
 2171WAT     H2 7033   5.564   3.505   5.582
 2172WAT      O 7034   5.575   3.338   4.931
 2172WAT     H1 7035   5.668   3.326   4.910
 2172WAT     H2 7036   5.573   3.348   5.026
 2173WAT      O 7037   5.583   3.416   5.194
 2173WAT     H1 7038   5.503   3.410   5.246
 2173WAT     H2 7039   5.603   3.510   5.192
 2174WAT      O 7040   5.278   4.820   5.593
 2174WAT     H1 7041   5.337   4.788   5.525
 2174WAT     H2 7042   5.303   4.773   5.672
 2175WAT      O 7043   5.225   3.249   5.837
 2175WAT     H1 7044   5.271   3.244   5.754
 2175WAT     H2 7045   5.199   3.341   5.845
 2176WAT      O 7046   5.412   3.213   5.639
 2176WAT     H1 7047   5.405   3.119   5.624
 2176WAT     H2 7048   5.490   3.223   5.694
 2177WAT      O 7049   3.843   4.827   5.535
 2177WAT     H1 7050   3.826   4.763   5.605
 2177WAT     H2 7051   3.756   4.847   5.500
 2178WAT      O 7052   3.906   3.210   5.286
 2178WAT     H1 7053   3.981   3.221   5.228
 2178WAT     H2 7054   3.858   3.293   5.280
 2179WAT      O 7055   4.558   3.421   5.586
 2179WAT     H1 7056   4.478   3.383   5.550
 2179WAT     H2 7057   4.610   3.346   5.615
 2180WAT      O 7058   5.010   3.088   5.708
 2180WAT     H1 7059   5.070   3.145   5.756
 2180WAT     H2 7060   4.936   3.144   5.686
 2181WAT      O 7061   5.324   3.128   5.237
 2181WAT     H1 7062   5.342   3.218   5.263
 2181WAT     H2 7063   5.245   3.105   5.284
 2182WAT      O 7064   4.003   4.695   5.280
 2182WAT     H1 7065   3.951   4.734   5.210
 2182WAT     H2 7066   3.996   4.758   5.352
 2183WAT      O 7067   4.142   3.262   5.141
 2183WAT     H1 7068   4.195   3.183   5.128
 2183WAT     H2 7069   4.206   3.330   5.162
 2184WAT      O 7070   4.362   3.236   5.445
 2184WAT     H1 7071   4.299   3.166   5.462
 2184WAT     H2 7072   4.308   3.312   5.424
 2185WAT      O 7073   5.479   4.852   5.412
 2185WAT     H1 7074   5.497   4.783   5.348
 2185WAT     H2 7075   5.410   4.904   5.372
 2186WAT      O 7076   4.264   4.892   5.167
 2186WAT     H1 7077   4.337   4.862   5.113
 2186WAT     H2 7078   4.289   4.867   5.256
 2187WAT      O 7079   4.180   4.502   5.168
 2187WAT     H1 7080   4.117   4.550   5.223
 2187WAT     H2 7081   4.191   4.418   5.212
 2188WAT      O 7082   4.924   3.907   3.783
 2188WAT     H1 7083   4.917   3.816   3.756
 2188WAT     H2 7084   4.884   3.957   3.712
 2189WAT      O 7085   4.738   4.085   3.970
 2189WAT     H1 7086   4.661   4.037   4.000
 2189WAT     H2 7087   4.804   4.017   3.954
 2190WAT      O 7088   4.139   4.117   4.058
 2190WAT     H1 7089   4.057   4.090   4.099
 2190WAT     H2 7090   4.201   4.124   4.131
 2191WAT      O 7091   5.140   4.526   3.849
 2191WAT     H1 7092   5.094   4.449   3.881
 2191WAT     H2 7093   5.222   4.528   3.899
 2192WAT      O 7094   4.138   4.520   4.079
 2192WAT     H1 7095   4.168   4.431   4.060
 2192WAT     H2 7096   4.212   4.576   4.056
 2193WAT      O 7097   3.776   3.871   4.025
 2193WAT     H1 7098   3.835   3.796   4.026
 2193WAT     H2 7099   3.777   3.902   3.935
 2194WAT      O 7100   4.763   4.755   3.812
 2194WAT     H1 7101   4.701   4.799   3.754
 2194WAT     H2 7102   4.849   4.770   3.771
 2195WAT      O 7103   4.681   4.353   3.972
 2195WAT     H1 7104   4.677   4.258   3.956
 2195WAT     H2 7105   4.758   4.363   4.029
 2196WAT      O 7106   3.902   3.414   4.205
 2196WAT     H1 7107   3.884   3.324   4.232
 2196WAT     H2 7108   3.860   3.468   4.272
 2197WAT      O 7109   4.785   3.634   3.994
 2197WAT     H1 7110   4.823   3.547   3.984
 2197WAT     H2 7111   4.776   3.667   3.904
 2198WAT      O 7112   5.165   3.384   3.687
 2198WAT     H1 7113   5.246   3.334   3.692
 2198WAT     H2 7114   5.167   3.442   3.763
 2199WAT      O 7115   3.962   3.663   4.065
 2199WAT     H1 7116   4.032   3.689   4.126
 2199WAT     H2 7117   3.932   3.578   4.098
 2200WAT      O 7118   4.383   3.768   3.974
 2200WAT     H1 7119   4.434   3.817   4.038
 2200WAT     H2 7120   4.436   3.690   3.956
 2201WAT      O 7121   5.592   3.585   4.344
 2201WAT     H1 7122   5.522   3.624   4.292
 2201WAT     H2 7123   5.619   3.654   4.404
 2202WAT      O 7124   4.211   3.231   4.400
 2202WAT     H1 7125   4.211   3.284   4.320
 2202WAT     H2 7126   4.128   3.184   4.398
 2203WAT      O 7127   4.850   4.243   3.550
 2203WAT     H1 7128   4.788   4.289   3.494
 2203WAT     H2 7129   4.900   4.312   3.592
 2204WAT      O 7130   4.337   4.196   4.219
 2204WAT     H1 7131   4.303   4.258   4.282
 2204WAT     H2 7132   4.354   4.249   4.140
 2205WAT      O 7133   5.188   3.577   3.965
 2205WAT     H1 7134   5.117   3.605   4.023
 2205WAT     H2 7135   5.223   3.658   3.929
 2206WAT      O 7136   4.179   3.403   4.201
 2206WAT     H1 7137   4.213   3.488   4.172
 2206WAT     H2 7138   4.085   3.418   4.212
 2207WAT      O 7139   4.258   4.393   4.400
 2207WAT     H1 7140   4.319   4.460   4.371
 2207WAT     H2 7141   4.171   4.432   4.390
 2208WAT      O 7142   5.349   4.539   4.191
 2208WAT     H1 7143   5.281   4.606   4.190
 2208WAT     H2 7144   5.403   4.559   4.115
 2209WAT      O 7145   5.494   3.522   4.004
 2209WAT     H1 7146   5.399   3.525   4.017
 2209WAT     H2 7147   5.527   3.603   4.043
 2210WAT      O 7148   5.103   4.723   4.063
 2210WAT     H1 7149   5.104   4.683   3.976
 2210WAT     H2 7150   5.047   4.801   4.052
 2211WAT      O 7151   5.232   4.395   3.572
 2211WAT     H1 7152   5.221   4.301   3.584
 2211WAT     H2 7153   5.231   4.431   3.660
 2212WAT      O 7154   5.043   4.214   4.195
 2212WAT     H1 7155   5.084   4.192   4.112
 2212WAT     H2 7156   5.115   4.239   4.253
 2213WAT      O 7157   4.786   3.958   3.508
 2213WAT     H1 7158   4.693   3.951   3.529
 2213WAT     H2 7159   4.801   4.052   3.496
 2214WAT      O 7160   4.785   3.584   3.206
 2214WAT     H1 7161   4.691   3.601   3.216
 2214WAT     H2 7162   4.817   3.657   3.153
 2215WAT      O 7163   5.437   4.053   4.204
 2215WAT     H1 7164   5.354   4.061   4.157
 2215WAT     H2 7165   5.497   4.112   4.159
 2216WAT      O 7166   5.189   4.114   3.557
 2216WAT     H1 7167   5.127   4.080   3.493
 2216WAT     H2 7168   5.187   4.050   3.628
 2217WAT      O 7169   5.133   3.733   4.299
 2217WAT     H1 7170   5.092   3.815   4.324
 2217WAT     H2 7171   5.060   3.674   4.280
 2218WAT      O 7172   4.347   4.010   3.785
 2218WAT     H1 7173   4.306   3.939   3.736
 2218WAT     H2 7174   4.355   3.976   3.874
 2219WAT      O 7175   4.394   4.378   4.003
 2219WAT     H1 7176   4.364   4.319   3.933
 2219WAT     H2 7177   4.489   4.383   3.991
 2220WAT      O 7178   4.219   3.686   4.164
 2220WAT     H1 7179   4.272   3.700   4.086
 2220WAT     H2 7180   4.269   3.726   4.235
 2221WAT      O 7181   5.202   4.736   4.369
 2221WAT     H1 7182   5.155   4.817   4.348
 2221WAT     H2 7183   5.133   4.671   4.383
 2222WAT      O 7184   4.303   4.353   4.667
 2222WAT     H1 7185   4.214   4.376   4.692
 2222WAT     H2 7186   4.305   4.365   4.572
 2223WAT      O 7187   5.007   4.038   3.258
 2223WAT     H1 7188   5.051   3.954   3.244
 2223WAT     H2 7189   5.079   4.101   3.266
 2224WAT      O 7190   4.186   4.041   4.524
 2224WAT     H1 7191   4.171   4.128   4.560
 2224WAT     H2 7192   4.097   4.006   4.510
 2225WAT      O 7193   4.818   4.531   3.655
 2225WAT     H1 7194   4.862   4.606   3.613
 2225WAT     H2 7195   4.811   4.556   3.747
 2226WAT      O 7196   4.365   4.635   4.745
 2226WAT     H1 7197   4.362   4.675   4.659
 2226WAT     H2 7198   4.349   4.542   4.729
 2227WAT      O 7199   5.561   4.713   4.875
 2227WAT     H1 7200   5.608   4.761   4.943
 2227WAT     H2 7201   5.623   4.706   4.802
 2228WAT      O 7202   3.781   4.217   4.116
 2228WAT     H1 7203   3.788   4.231   4.022
 2228WAT     H2 7204   3.842   4.146   4.135
 2229WAT      O 7205   3.904   4.386   3.757
 2229WAT     H1 7206   3.865   4.402   3.671
 2229WAT     H2 7207   3.994   4.359   3.737
 2230WAT      O 7208   5.500   4.431   4.591
 2230WAT     H1 7209   5.514   4.407   4.499
 2230WAT     H2 7210   5.506   4.348   4.638
 2231WAT      O 7211   4.888   4.802   4.448
 2231WAT     H1 7212   4.938   4.793   4.529
 2231WAT     H2 7213   4.803   4.837   4.477
 2232WAT      O 7214   5.084   4.831   3.390
 2232WAT     H1 7215   5.069   4.802   3.480
 2232WAT     H2 7216   5.069   4.753   3.337
 2233WAT      O 7217   4.332   4.809   3.568
 2233WAT     H1 7218   4.315   4.717   3.547
 2233WAT     H2 7219   4.247   4.845   3.592
 2234WAT      O 7220   5.055   4.583   3.247
 2234WAT     H1 7221   4.985   4.581   3.181
 2234WAT     H2 7222   5.129   4.539   3.204
 2235WAT      O 7223   5.011   4.744   3.655
 2235WAT     H1 7224   5.057   4.666   3.686
 2235WAT     H2 7225   5.045   4.815   3.708
 2236WAT      O 7226   5.487   3.637   4.687
 2236WAT     H1 7227   5.424   3.688   4.635
 2236WAT     H2 7228   5.453   3.547   4.682
 2237WAT      O 7229   3.786   4.321   4.370
 2237WAT     H1 7230   3.802   4.274   4.288
 2237WAT     H2 7231   3.833   4.271   4.437
 2238WAT      O 7232   4.263   3.235   3.874
 2238WAT     H1 7233   4.219   3.313   3.840
 2238WAT     H2 7234   4.319   3.267   3.944
 2239WAT      O 7235   4.692   3.521   4.434
 2239WAT     H1 7236   4.646   3.542   4.515
 2239WAT     H2 7237   4.652   3.440   4.404
 2240WAT      O 7238   5.192   3.642   4.547
 2240WAT     H1 7239   5.107   3.613   4.579
 2240WAT     H2 7240   5.176   3.668   4.456
 2241WAT      O 7241   4.901   3.794   4.756
 2241WAT     H1 7242   4.934   3.710   4.724
 2241WAT     H2 7243   4.981   3.845   4.773
 2242WAT      O 7244   4.468   3.289   4.060
 2242WAT     H1 7245   4.497   3.380   4.051
 2242WAT     H2 7246   4.522   3.240   3.998
 2243WAT      O 7247   4.966   3.748   3.506
 2243WAT     H1 7248   4.906   3.820   3.488
 2243WAT     H2 7249   5.020   3.741   3.428
 2244WAT      O 7250   4.487   3.837   4.713
 2244WAT     H1 7251   4.477   3.743   4.698
 2244WAT     H2 7252   4.571   3.859   4.674
 2245WAT      O 7253   4.000   3.478   4.528
 2245WAT     H1 7254   3.960   3.563   4.549
 2245WAT     H2 7255   3.932   3.414   4.546
 2246WAT      O 7256   4.657   3.486   4.836
 2246WAT     H1 7257   4.588   3.466   4.899
 2246WAT     H2 7258   4.731   3.514   4.889
 2247WAT      O 7259   3.730   3.270   3.932
 2247WAT     H1 7260   3.701   3.327   4.003
 2247WAT     H2 7261   3.804   3.222   3.969
 2248WAT      O 7262   4.885   3.870   4.119
 2248WAT     H1 7263   4.812   3.921   4.154
 2248WAT     H2 7264   4.845   3.788   4.089
 2249WAT      O 7265   4.114   3.525   3.856
 2249WAT     H1 7266   4.080   3.574   3.930
 2249WAT     H2 7267   4.037   3.482   3.819
 2250WAT      O 7268   4.931   3.416   4.060
 2250WAT     H1 7269   4.933   3.460   4.145
 2250WAT     H2 7270   4.906   3.326   4.081
 2251WAT      O 7271   4.436   3.869   3.198
 2251WAT     H1 7272   4.379   3.824   3.136
 2251WAT     H2 7273   4.507   3.905   3.144
 2252WAT      O 7274   5.273   3.157   4.644
 2252WAT     H1 7275   5.306   3.084   4.697
 2252WAT     H2 7276   5.277   3.125   4.554
 2253WAT      O 7277   3.944   4.258   4.586
 2253WAT     H1 7278   3.905   4.195   4.646
 2253WAT     H2 7279   3.975   4.329   4.643
 2254WAT      O 7280   4.559   3.944   4.134
 2254WAT     H1 7281   4.595   3.896   4.209
 2254WAT     H2 7282   4.540   4.031   4.169
 2255WAT      O 7283   3.846   3.418   3.747
 2255WAT     H1 7284   3.816   3.382   3.831
 2255WAT     H2 7285   3.839   3.345   3.686
 2256WAT      O 7286   4.338   3.848   4.366
 2256WAT     H1 7287   4.307   3.935   4.388
 2256WAT     H2 7288   4.433   3.854   4.370
 2257WAT      O 7289   4.190   4.268   3.426
 2257WAT     H1 7290   4.113   4.214   3.410
 2257WAT     H2 7291   4.263   4.216   3.392
 2258WAT      O 7292   5.266   4.168   4.005
 2258WAT     H1 7293   5.338   4.218   3.966
 2258WAT     H2 7294   5.246   4.100   3.940
 2259WAT      O 7295   4.806   4.175   4.595
 2259WAT     H1 7296   4.798   4.084   4.568
 2259WAT     H2 7297   4.741   4.185   4.665
 2260WAT      O 7298   5.084   3.745   3.249
 2260WAT     H1 7299   5.173   3.776   3.231
 2260WAT     H2 7300   5.081   3.657   3.210
 2261WAT      O 7301   4.195   4.236   3.790
 2261WAT     H1 7302   4.247   4.155   3.783
 2261WAT     H2 7303   4.150   4.228   3.874
 2262WAT      O 7304   4.685   4.362   3.317
 2262WAT     H1 7305   4.718   4.436   3.267
 2262WAT     H2 7306   4.601   4.393   3.353
 2263WAT      O 7307   3.943   3.933   4.481
 2263WAT     H1 7308   3.906   3.998   4.540
 2263WAT     H2 7309   3.915   3.849   4.518
 2264WAT      O 7310   4.262   3.977   4.769
 2264WAT     H1 7311   4.234   3.992   4.679
 2264WAT     H2 7312   4.341   3.923   4.760
 2265WAT      O 7313   4.798   4.457   4.568
 2265WAT     H1 7314   4.799   4.363   4.547
 2265WAT     H2 7315   4.727   4.467   4.632
 2266WAT      O 7316   5.311   3.876   3.196
 2266WAT     H1 7317   5.303   3.919   3.111
 2266WAT     H2 7318   5.383   3.922   3.239
 2267WAT      O 7319   5.420   4.122   4.503
 2267WAT     H1 7320   5.346   4.181   4.484
 2267WAT     H2 7321   5.471   4.122   4.422
 2268WAT      O 7322   5.415   4.561   3.468
 2268WAT     H1 7323   5.350   4.496   3.496
 2268WAT     H2 7324   5.375   4.602   3.391
 2269WAT      O 7325   4.972   4.293   3.853
 2269WAT     H1 7326   5.007   4.234   3.787
 2269WAT     H2 7327   4.883   4.261   3.870
 2270WAT      O 7328   4.580   4.369   3.595
 2270WAT     H1 7329   4.649   4.425   3.631
 2270WAT     H2 7330   4.502   4.424   3.597
 2271WAT      O 7331   4.513   4.069   3.556
 2271WAT     H1 7332   4.556   4.152   3.578
 2271WAT     H2 7333   4.475   4.039   3.639
 2272WAT      O 7334   4.741   4.621   4.278
 2272WAT     H1 7335   4.804   4.642   4.346
 2272WAT     H2 7336   4.777   4.545   4.234
 2273WAT      O 7337   4.869   4.422   4.150
 2273WAT     H1 7338   4.933   4.352   4.161
 2273WAT     H2 7339   4.922   4.500   4.132
 2274WAT      O 7340   5.252   4.450   3.122
 2274WAT     H1 7341   5.230   4.378   3.181
 2274WAT     H2 7342   5.215   4.425   3.038
 2275WAT      O 7343   5.046   4.503   4.470
 2275WAT     H1 7344   5.079   4.560   4.539
 2275WAT     H2 7345   4.954   4.489   4.493
 2276WAT      O 7346   3.831   4.853   3.200
 2276WAT     H1 7347   3.867   4.914   3.134
 2276WAT     H2 7348   3.817   4.908   3.277
 2277WAT      O 7349   3.801   3.281   4.548
 2277WAT     H1 7350   3.729   3.301   4.609
 2277WAT     H2 7351   3.843   3.204   4.586
 2278WAT      O 7352   5.211   4.241   3.289
 2278WAT     H1 7353   5.182   4.288   3.367
 2278WAT     H2 7354   5.291   4.196   3.315
 2279WAT      O 7355   3.830   4.680   4.646
 2279WAT     H1 7356   3.840   4.585   4.633
 2279WAT     H2 7357   3.763   4.706   4.582
 2280WAT      O 7358   4.629   4.507   4.787
 2280WAT     H1 7359   4.597   4.435   4.841
 2280WAT     H2 7360   4.561   4.574   4.793
 2281WAT      O 7361   4.433   4.591   3.281
 2281WAT     H1 7362   4.432   4.665   3.220
 2281WAT     H2 7363   4.341   4.566   3.291
 2282WAT      O 7364   4.949   3.530   4.322
 2282WAT     H1 7365   4.987   3.449   4.356
 2282WAT     H2 7366   4.864   3.536   4.365
 2283WAT      O 7367   5.287   3.428   3.404
 2283WAT     H1 7368   5.224   3.435   3.333
 2283WAT     H2 7369   5.237   3.446   3.483
 2284WAT      O 7370   4.731   4.597   3.148
 2284WAT     H1 7371   4.741   4.577   3.055
 2284WAT     H2 7372   4.641   4.572   3.168
 2285WAT      O 7373   4.645   3.795   4.346
 2285WAT     H1 7374   4.696   3.843   4.412
 2285WAT     H2 7375   4.660   3.703   4.366
 2286WAT      O 7376   4.596   4.850   3.617
 2286WAT     H1 7377   4.622   4.846   3.525
 2286WAT     H2 7378   4.501   4.837   3.616
 2287WAT      O 7379   5.367   3.417   4.430
 2287WAT     H1 7380   5.317   3.491   4.464
 2287WAT     H2 7381   5.448   3.457   4.398
 2288WAT      O 7382   5.196   3.942   3.775
 2288WAT     H1 7383   5.102   3.942   3.792
 2288WAT     H2 7384   5.228   3.863   3.819
 2289WAT      O 7385   4.194   4.110   3.131
 2289WAT     H1 7386   4.271   4.098   3.187
 2289WAT     H2 7387   4.202   4.041   3.065
 2290WAT      O 7388   5.397   4.658   3.942
 2290WAT     H1 7389   5.409   4.741   3.989
 2290WAT     H2 7390   5.483   4.637   3.907
 2291WAT      O 7391   4.143   4.868   3.910
 2291WAT     H1 7392   4.217   4.813   3.936
 2291WAT     H2 7393   4.183   4.954   3.895
 2292WAT      O 7394   3.832   4.474   3.499
 2292WAT     H1 7395   3.739   4.499   3.495
 2292WAT     H2 7396   3.879   4.556   3.484
 2293WAT      O 7397   4.044   4.786   4.828
 2293WAT     H1 7398   4.124   4.818   4.870
 2293WAT     H2 7399   3.993   4.750   4.900
 2294WAT      O 7400   4.454   4.785   3.092
 2294WAT     H1 7401   4.533   4.815   3.047
 2294WAT     H2 7402   4.403   4.742   3.024
 2295WAT      O 7403   4.928   4.396   4.823
 2295WAT     H1 7404   4.867   4.399   4.749
 2295WAT     H2 7405   4.897   4.324   4.877
 2296WAT      O 7406   5.071   4.771   4.682
 2296WAT     H1 7407   5.166   4.761   4.680
 2296WAT     H2 7408   5.056   4.835   4.751
 2297WAT      O 7409   5.360   4.708   3.234
 2297WAT     H1 7410   5.331   4.666   3.153
 2297WAT     H2 7411   5.340   4.801   3.222
 2298WAT      O 7412   3.817   4.036   4.723
 2298WAT     H1 7413   3.866   3.977   4.780
 2298WAT     H2 7414   3.742   4.063   4.776
 2299WAT      O 7415   4.506   4.307   3.078
 2299WAT     H1 7416   4.496   4.247   3.151
 2299WAT     H2 7417   4.490   4.254   3.000
 2300WAT      O 7418   4.522   4.177   4.676
 2300WAT     H1 7419   4.445   4.233   4.667
 2300WAT     H2 7420   4.539   4.146   4.587
 2301WAT      O 7421   4.830   4.213   3.138
 2301WAT     H1 7422   4.775   4.258   3.203
 2301WAT     H2 7423   4.893   4.163   3.191
 2302WAT      O 7424   5.236   4.350   4.732
 2302WAT     H1 7425   5.310   4.382   4.681
 2302WAT     H2 7426   5.159   4.366   4.676
 2303WAT      O 7427   4.019   3.849   4.812
 2303WAT     H1 7428   4.023   3.820   4.903
 2303WAT     H2 7429   4.104   3.889   4.796
 2304WAT      O 7430   4.396   4.109   3.327
 2304WAT     H1 7431   4.439   4.094   3.412
 2304WAT     H2 7432   4.410   4.027   3.279
 2305WAT      O 7433   4.214   3.706   4.609
 2305WAT     H1 7434   4.159   3.659   4.546
 2305WAT     H2 7435   4.280   3.750   4.555
 2306WAT      O 7436   4.648   4.011   3.054
 2306WAT     H1 7437   4.700   3.940   3.016
 2306WAT     H2 7438   4.713   4.076   3.083
 2307WAT      O 7439   5.103   4.153   4.585
 2307WAT     H1 7440   5.145   4.170   4.669
 2307WAT     H2 7441   5.010   4.167   4.601
 2308WAT      O 7442   5.151   3.888   4.785
 2308WAT     H1 7443   5.209   3.812   4.777
 2308WAT     H2 7444   5.169   3.941   4.708
 2309WAT      O 7445   4.262   3.404   4.617
 2309WAT     H1 7446   4.253   3.342   4.544
 2309WAT     H2 7447   4.203   3.476   4.594
 2310WAT      O 7448   4.539   3.260   4.320
 2310WAT     H1 7449   4.494   3.262   4.236
 2310WAT     H2 7450   4.475   3.221   4.380
 2311WAT      O 7451   4.578   4.149   4.382
 2311WAT     H1 7452   4.621   4.233   4.365
 2311WAT     H2 7453   4.487   4.163   4.358
 2312WAT      O 7454   4.813   3.921   4.521
 2312WAT     H1 7455   4.826   3.863   4.596
 2312WAT     H2 7456   4.899   3.926   4.479
 2313WAT      O 7457   5.046   3.978   4.379
 2313WAT     H1 7458   4.995   4.030   4.317
 2313WAT     H2 7459   5.082   4.041   4.441
 2314WAT      O 7460   4.288   3.716   3.023
 2314WAT     H1 7461   4.266   3.630   3.059
 2314WAT     H2 7462   4.269   3.708   2.930
 2315WAT      O 7463   4.365   4.781   4.494
 2315WAT     H1 7464   4.310   4.852   4.462
 2315WAT     H2 7465   4.389   4.731   4.416
 2316WAT      O 7466   4.490   3.576   4.646
 2316WAT     H1 7467   4.549   3.546   4.715
 2316WAT     H2 7468   4.409   3.528   4.661
 2317WAT      O 7469   4.972   3.538   4.670
 2317WAT     H1 7470   4.903   3.472   4.663
 2317WAT     H2 7471   5.044   3.493   4.714
 2318WAT      O 7472   4.650   4.903   4.520
 2318WAT     H1 7473   4.643   4.993   4.550
 2318WAT     H2 7474   4.560   4.871   4.517
 2319WAT      O 7475   4.705   4.821   3.282
 2319WAT     H1 7476   4.794   4.854   3.284
 2319WAT     H2 7477   4.708   4.747   3.221
 2320WAT      O 7478   4.070   4.357   3.103
 2320WAT     H1 7479   4.112   4.411   3.170
 2320WAT     H2 7480   4.117   4.273   3.106
 2321WAT      O 7481   3.790   4.635   3.851
 2321WAT     H1 7482   3.823   4.549   3.827
 2321WAT     H2 7483   3.833   4.656   3.933
 2322WAT      O 7484   4.251   4.469   3.616
 2322WAT     H1 7485   4.220   4.457   3.706
 2322WAT     H2 7486   4.239   4.384   3.575
 2323WAT      O 7487   3.839   4.723   4.124
 2323WAT     H1 7488   3.795   4.741   4.207
 2323WAT     H2 7489   3.896   4.798   4.110
 2324WAT      O 7490   5.403   4.674   4.552
 2324WAT     H1 7491   5.342   4.679   4.478
 2324WAT     H2 7492   5.416   4.580   4.566
 2325WAT      O 7493   5.527   4.447   3.087
 2325WAT     H1 7494   5.443   4.454   3.132
 2325WAT     H2 7495   5.544   4.536   3.055
 2326WAT      O 7496   5.472   4.121   3.337
 2326WAT     H1 7497   5.548   4.178   3.346
 2326WAT     H2 7498   5.474   4.065   3.414
 2327WAT      O 7499   5.573   4.208   3.821
 2327WAT     H1 7500   5.610   4.129   3.781
 2327WAT     H2 7501   5.637   4.276   3.803
 2328WAT      O 7502   5.271   4.345   4.362
 2328WAT     H1 7503   5.190   4.388   4.389
 2328WAT     H2 7504   5.312   4.406   4.301
 2329WAT      O 7505   5.480   4.151   3.053
 2329WAT     H1 7506   5.504   4.242   3.040
 2329WAT     H2 7507   5.459   4.144   3.146
 2330WAT      O 7508   5.467   3.945   3.552
 2330WAT     H1 7509   5.430   3.868   3.509
 2330WAT     H2 7510   5.394   3.983   3.600
 2331WAT      O 7511   3.927   4.013   4.214
 2331WAT     H1 7512   3.962   4.003   4.303
 2331WAT     H2 7513   3.869   3.937   4.203
 2332WAT      O 7514   5.407   3.858   4.515
 2332WAT     H1 7515   5.383   3.836   4.425
 2332WAT     H2 7516   5.431   3.951   4.511
 2333WAT      O 7517   3.881   3.703   4.605
 2333WAT     H1 7518   3.791   3.700   4.638
 2333WAT     H2 7519   3.935   3.724   4.681
 2334WAT      O 7520   5.250   3.382   4.793
 2334WAT     H1 7521   5.338   3.383   4.831
 2334WAT     H2 7522   5.251   3.308   4.732
 2335WAT      O 7523   5.394   3.767   3.882
 2335WAT     H1 7524   5.446   3.718   3.819
 2335WAT     H2 7525   5.453   3.781   3.956
 2336WAT      O 7526   5.413   3.775   4.234
 2336WAT     H1 7527   5.318   3.772   4.245
 2336WAT     H2 7528   5.431   3.866   4.210
 2337WAT      O 7529   5.345   3.693   3.476
 2337WAT     H1 7530   5.393   3.669   3.555
 2337WAT     H2 7531   5.324   3.609   3.434
 2338WAT      O 7532   3.932   3.131   4.039
 2338WAT     H1 7533   3.997   3.076   3.994
 2338WAT     H2 7534   3.974   3.156   4.121
 2339WAT      O 7535   5.487   3.557   3.729
 2339WAT     H1 7536   5.476   3.540   3.823
 2339WAT     H2 7537   5.563   3.504   3.705
 2340WAT      O 7538   5.322   3.149   4.375
 2340WAT     H1 7539   5.384   3.213   4.411
 2340WAT     H2 7540   5.336   3.153   4.280
 2341WAT      O 7541   5.583   3.416   3.317
 2341WAT     H1 7542   5.503   3.410   3.368
 2341WAT     H2 7543   5.603   3.510   3.314
 2342WAT      O 7544   5.277   4.820   3.715
 2342WAT     H1 7545   5.337   4.788   3.648
 2342WAT     H2 7546   5.303   4.772   3.794
 2343WAT      O 7547   3.907   3.146   4.314
 2343WAT     H1 7548   3.872   3.192   4.390
 2343WAT     H2 7549   3.874   3.057   4.322
 2344WAT      O 7550   4.068   4.464   4.730
 2344WAT     H1 7551   4.063   4.427   4.819
 2344WAT     H2 7552   4.081   4.557   4.744
 2345WAT      O 7553   4.438   4.619   4.290
 2345WAT     H1 7554   4.414   4.645   4.201
 2345WAT     H2 7555   4.532   4.635   4.296
 2346WAT      O 7556   4.658   3.265   4.667
 2346WAT     H1 7557   4.652   3.326   4.740
 2346WAT     H2 7558   4.752   3.255   4.651
 2347WAT      O 7559   4.922   3.232   4.630
 2347WAT     H1 7560   4.983   3.263   4.563
 2347WAT     H2 7561   4.977   3.183   4.691
 2348WAT      O 7562   5.564   4.820   4.368
 2348WAT     H1 7563   5.514   4.861   4.298
 2348WAT     H2 7564   5.503   4.760   4.410
 2349WAT      O 7565   3.974   3.099   4.641
 2349WAT     H1 7566   4.029   3.081   4.565
 2349WAT     H2 7567   3.981   3.020   4.695
 2350WAT      O 7568   4.051   4.758   4.442
 2350WAT     H1 7569   3.992   4.745   4.516
 2350WAT     H2 7570   4.051   4.675   4.395
 2351WAT      O 7571   4.997   3.088   4.263
 2351WAT     H1 7572   4.910   3.121   4.241
 2351WAT     H2 7573   4.984   3.039   4.344
 2352WAT      O 7574   5.087   3.308   4.402
 2352WAT     H1 7575   5.054   3.227   4.362
 2352WAT     H2 7576   5.181   3.304   4.389
 2353WAT      O 7577   5.332   4.885   4.097
 2353WAT     H1 7578   5.286   4.961   4.061
 2353WAT     H2 7579   5.268   4.814   4.093
 2354WAT      O 7580   4.015   4.496   4.337
 2354WAT     H1 7581   3.942   4.434   4.331
 2354WAT     H2 7582   4.021   4.533   4.249
 2355WAT      O 7583   4.375   4.716   4.016
 2355WAT     H1 7584   4.427   4.655   3.963
 2355WAT     H2 7585   4.440   4.767   4.064
 2356WAT      O 7586   4.649   4.805   4.098
 2356WAT     H1 7587   4.679   4.780   4.010
 2356WAT     H2 7588   4.700   4.750   4.157
 2357WAT      O 7589   4.771   3.179   4.156
 2357WAT     H1 7590   4.693   3.227   4.185
 2357WAT     H2 7591   4.740   3.089   4.145
 2358WAT      O 7592   5.226   3.249   3.962
 2358WAT     H1 7593   5.270   3.244   3.877
 2358WAT     H2 7594   5.199   3.341   3.968
 2359WAT      O 7595   5.412   3.213   3.762
 2359WAT     H1 7596   5.406   3.118   3.747
 2359WAT     H2 7597   5.490   3.223   3.816
 2360WAT      O 7598   3.843   4.827   3.658
 2360WAT     H1 7599   3.826   4.763   3.728
 2360WAT     H2 7600   3.756   4.847   3.623
 2361WAT      O 7601   4.003   4.696   3.403
 2361WAT     H1 7602   3.951   4.734   3.332
 2361WAT     H2 7603   3.996   4.758   3.475
 2362WAT      O 7604   4.656   4.898   4.835
 2362WAT     H1 7605   4.748   4.874   4.839
 2362WAT     H2 7606   4.654   4.980   4.787
 2363WAT      O 7607   5.479   4.851   3.534
 2363WAT     H1 7608   5.497   4.783   3.470
 2363WAT     H2 7609   5.410   4.904   3.494
 2364WAT      O 7610   4.374   3.164   4.811
 2364WAT     H1 7611   4.346   3.214   4.734
 2364WAT     H2 7612   4.413   3.084   4.775
 2365WAT      O 7613   4.264   4.892   3.290
 2365WAT     H1 7614   4.337   4.862   3.235
 2365WAT     H2 7615   4.289   4.867   3.379
 2366WAT      O 7616   4.180   4.502   3.291
 2366WAT     H1 7617   4.117   4.550   3.345
 2366WAT     H2 7618   4.191   4.418   3.335
 2367WAT      O 7619   5.035   3.106   4.869
 2367WAT     H1 7620   5.023   3.137   4.959
 2367WAT     H2 7621   5.117   3.146   4.840
 2368WAT      O 7622   5.313   4.821   4.816
 2368WAT     H1 7623   5.392   4.770   4.798
 2368WAT     H2 7624   5.342   4.888   4.878
 2369WAT      O 7625   4.924   3.907   1.905
 2369WAT     H1 7626   4.917   3.816   1.878
 2369WAT     H2 7627   4.884   3.957   1.834
 2370WAT      O 7628   4.738   4.085   2.093
 2370WAT     H1 7629   4.661   4.037   2.123
 2370WAT     H2 7630   4.803   4.017   2.076
 2371WAT      O 7631   5.140   4.526   1.971
 2371WAT     H1 7632   5.094   4.449   2.003
 2371WAT     H2 7633   5.222   4.528   2.022
 2372WAT      O 7634   4.138   4.520   2.201
 2372WAT     H1 7635   4.168   4.431   2.183
 2372WAT     H2 7636   4.212   4.576   2.178
 2373WAT      O 7637   4.763   4.755   1.934
 2373WAT     H1 7638   4.701   4.799   1.876
 2373WAT     H2 7639   4.849   4.770   1.894
 2374WAT      O 7640   4.682   4.353   2.094
 2374WAT     H1 7641   4.677   4.258   2.078
 2374WAT     H2 7642   4.758   4.363   2.151
 2375WAT      O 7643   5.593   3.585   2.467
 2375WAT     H1 7644   5.522   3.623   2.415
 2375WAT     H2 7645   5.619   3.654   2.527
 2376WAT      O 7646   4.850   4.243   1.673
 2376WAT     H1 7647   4.788   4.289   1.616
 2376WAT     H2 7648   4.900   4.312   1.715
 2377WAT      O 7649   4.337   4.196   2.341
 2377WAT     H1 7650   4.302   4.258   2.405
 2377WAT     H2 7651   4.354   4.249   2.263
 2378WAT      O 7652   4.258   4.392   2.522
 2378WAT     H1 7653   4.319   4.461   2.494
 2378WAT     H2 7654   4.171   4.433   2.513
 2379WAT      O 7655   3.787   4.311   1.410
 2379WAT     H1 7656   3.749   4.360   1.337
 2379WAT     H2 7657   3.812   4.378   1.473
 2380WAT      O 7658   5.349   4.539   2.314
 2380WAT     H1 7659   5.281   4.606   2.313
 2380WAT     H2 7660   5.403   4.559   2.237
 2381WAT      O 7661   5.494   3.522   2.127
 2381WAT     H1 7662   5.399   3.525   2.141
 2381WAT     H2 7663   5.527   3.603   2.166
 2382WAT      O 7664   5.103   4.723   2.185
 2382WAT     H1 7665   5.104   4.683   2.098
 2382WAT     H2 7666   5.047   4.800   2.175
 2383WAT      O 7667   5.232   4.395   1.694
 2383WAT     H1 7668   5.221   4.301   1.707
 2383WAT     H2 7669   5.231   4.432   1.783
 2384WAT      O 7670   5.043   4.213   2.318
 2384WAT     H1 7671   5.084   4.192   2.235
 2384WAT     H2 7672   5.115   4.239   2.375
 2385WAT      O 7673   4.786   3.958   1.631
 2385WAT     H1 7674   4.693   3.952   1.652
 2385WAT     H2 7675   4.801   4.052   1.618
 2386WAT      O 7676   4.785   3.584   1.328
 2386WAT     H1 7677   4.692   3.601   1.338
 2386WAT     H2 7678   4.817   3.658   1.276
 2387WAT      O 7679   5.437   4.053   2.327
 2387WAT     H1 7680   5.354   4.061   2.280
 2387WAT     H2 7681   5.497   4.112   2.281
 2388WAT      O 7682   5.189   4.114   1.680
 2388WAT     H1 7683   5.127   4.080   1.615
 2388WAT     H2 7684   5.187   4.050   1.751
 2389WAT      O 7685   5.133   3.732   2.422
 2389WAT     H1 7686   5.093   3.815   2.447
 2389WAT     H2 7687   5.060   3.674   2.402
 2390WAT      O 7688   4.394   4.379   2.124
 2390WAT     H1 7689   4.364   4.319   2.056
 2390WAT     H2 7690   4.489   4.383   2.113
 2391WAT      O 7691   5.202   4.736   2.491
 2391WAT     H1 7692   5.155   4.817   2.471
 2391WAT     H2 7693   5.133   4.671   2.506
 2392WAT      O 7694   4.303   4.353   2.789
 2392WAT     H1 7695   4.214   4.376   2.814
 2392WAT     H2 7696   4.304   4.365   2.694
 2393WAT      O 7697   5.007   4.038   1.381
 2393WAT     H1 7698   5.050   3.954   1.366
 2393WAT     H2 7699   5.079   4.101   1.388
 2394WAT      O 7700   4.185   4.040   2.647
 2394WAT     H1 7701   4.172   4.128   2.683
 2394WAT     H2 7702   4.097   4.007   2.632
 2395WAT      O 7703   4.818   4.531   1.778
 2395WAT     H1 7704   4.862   4.605   1.736
 2395WAT     H2 7705   4.812   4.556   1.870
 2396WAT      O 7706   4.365   4.635   2.868
 2396WAT     H1 7707   4.362   4.675   2.781
 2396WAT     H2 7708   4.349   4.542   2.852
 2397WAT      O 7709   5.364   3.164   1.212
 2397WAT     H1 7710   5.335   3.172   1.302
 2397WAT     H2 7711   5.441   3.221   1.207
 2398WAT      O 7712   5.561   4.713   2.997
 2398WAT     H1 7713   5.608   4.761   3.065
 2398WAT     H2 7714   5.623   4.706   2.925
 2399WAT      O 7715   5.500   4.431   2.713
 2399WAT     H1 7716   5.514   4.407   2.622
 2399WAT     H2 7717   5.506   4.349   2.761
 2400WAT      O 7718   4.888   4.802   2.571
 2400WAT     H1 7719   4.938   4.793   2.652
 2400WAT     H2 7720   4.803   4.837   2.599
 2401WAT      O 7721   5.084   4.831   1.513
 2401WAT     H1 7722   5.069   4.802   1.603
 2401WAT     H2 7723   5.069   4.753   1.460
 2402WAT      O 7724   4.332   4.809   1.691
 2402WAT     H1 7725   4.314   4.717   1.670
 2402WAT     H2 7726   4.247   4.845   1.715
 2403WAT      O 7727   5.055   4.583   1.369
 2403WAT     H1 7728   4.985   4.581   1.303
 2403WAT     H2 7729   5.129   4.540   1.326
 2404WAT      O 7730   5.010   4.744   1.777
 2404WAT     H1 7731   5.057   4.666   1.808
 2404WAT     H2 7732   5.045   4.815   1.831
 2405WAT      O 7733   5.486   3.637   2.810
 2405WAT     H1 7734   5.425   3.688   2.757
 2405WAT     H2 7735   5.454   3.547   2.804
 2406WAT      O 7736   3.785   4.321   2.492
 2406WAT     H1 7737   3.803   4.273   2.411
 2406WAT     H2 7738   3.833   4.272   2.559
 2407WAT      O 7739   4.573   3.197   1.483
 2407WAT     H1 7740   4.513   3.196   1.558
 2407WAT     H2 7741   4.567   3.109   1.446
 2408WAT      O 7742   4.966   3.748   1.629
 2408WAT     H1 7743   4.906   3.820   1.611
 2408WAT     H2 7744   5.020   3.741   1.551
 2409WAT      O 7745   4.487   3.837   2.836
 2409WAT     H1 7746   4.478   3.743   2.821
 2409WAT     H2 7747   4.571   3.859   2.796
 2410WAT      O 7748   3.749   3.665   1.174
 2410WAT     H1 7749   3.740   3.759   1.189
 2410WAT     H2 7750   3.712   3.650   1.087
 2411WAT      O 7751   4.534   3.637   1.382
 2411WAT     H1 7752   4.548   3.634   1.477
 2411WAT     H2 7753   4.496   3.724   1.366
 2412WAT      O 7754   4.435   3.870   1.320
 2412WAT     H1 7755   4.379   3.824   1.257
 2412WAT     H2 7756   4.507   3.905   1.268
 2413WAT      O 7757   3.944   4.258   2.709
 2413WAT     H1 7758   3.905   4.195   2.769
 2413WAT     H2 7759   3.975   4.329   2.765
 2414WAT      O 7760   4.191   4.268   1.548
 2414WAT     H1 7761   4.113   4.214   1.533
 2414WAT     H2 7762   4.264   4.216   1.514
 2415WAT      O 7763   5.266   4.168   2.127
 2415WAT     H1 7764   5.338   4.218   2.088
 2415WAT     H2 7765   5.246   4.100   2.062
 2416WAT      O 7766   4.813   3.307   1.541
 2416WAT     H1 7767   4.731   3.258   1.534
 2416WAT     H2 7768   4.794   3.391   1.500
 2417WAT      O 7769   4.806   4.175   2.718
 2417WAT     H1 7770   4.798   4.084   2.690
 2417WAT     H2 7771   4.741   4.185   2.788
 2418WAT      O 7772   5.084   3.745   1.371
 2418WAT     H1 7773   5.173   3.776   1.354
 2418WAT     H2 7774   5.081   3.657   1.332
 2419WAT      O 7775   4.684   4.362   1.439
 2419WAT     H1 7776   4.718   4.437   1.390
 2419WAT     H2 7777   4.601   4.393   1.475
 2420WAT      O 7778   4.263   3.977   2.892
 2420WAT     H1 7779   4.233   3.993   2.802
 2420WAT     H2 7780   4.341   3.923   2.883
 2421WAT      O 7781   4.798   4.457   2.691
 2421WAT     H1 7782   4.798   4.363   2.670
 2421WAT     H2 7783   4.727   4.466   2.755
 2422WAT      O 7784   5.311   3.876   1.318
 2422WAT     H1 7785   5.303   3.919   1.233
 2422WAT     H2 7786   5.383   3.922   1.361
 2423WAT      O 7787   5.419   4.122   2.626
 2423WAT     H1 7788   5.346   4.181   2.606
 2423WAT     H2 7789   5.472   4.121   2.545
 2424WAT      O 7790   5.415   4.561   1.590
 2424WAT     H1 7791   5.350   4.496   1.618
 2424WAT     H2 7792   5.376   4.602   1.513
 2425WAT      O 7793   4.972   4.293   1.976
 2425WAT     H1 7794   5.007   4.234   1.910
 2425WAT     H2 7795   4.883   4.262   1.993
 2426WAT      O 7796   4.580   4.369   1.717
 2426WAT     H1 7797   4.649   4.425   1.753
 2426WAT     H2 7798   4.502   4.425   1.720
 2427WAT      O 7799   3.793   3.932   1.265
 2427WAT     H1 7800   3.880   3.959   1.294
 2427WAT     H2 7801   3.745   4.014   1.254
 2428WAT      O 7802   4.512   4.069   1.679
 2428WAT     H1 7803   4.556   4.152   1.700
 2428WAT     H2 7804   4.476   4.039   1.762
 2429WAT      O 7805   4.740   4.621   2.400
 2429WAT     H1 7806   4.805   4.642   2.468
 2429WAT     H2 7807   4.777   4.545   2.356
 2430WAT      O 7808   4.101   3.106   1.725
 2430WAT     H1 7809   4.087   3.104   1.820
 2430WAT     H2 7810   4.019   3.138   1.689
 2431WAT      O 7811   4.869   4.422   2.272
 2431WAT     H1 7812   4.933   4.352   2.284
 2431WAT     H2 7813   4.922   4.500   2.254
 2432WAT      O 7814   5.252   4.450   1.245
 2432WAT     H1 7815   5.230   4.378   1.304
 2432WAT     H2 7816   5.215   4.425   1.161
 2433WAT      O 7817   5.046   4.502   2.593
 2433WAT     H1 7818   5.079   4.561   2.661
 2433WAT     H2 7819   4.954   4.489   2.616
 2434WAT      O 7820   3.831   4.853   1.322
 2434WAT     H1 7821   3.867   4.914   1.257
 2434WAT     H2 7822   3.817   4.908   1.400
 2435WAT      O 7823   5.211   4.241   1.412
 2435WAT     H1 7824   5.182   4.288   1.490
 2435WAT     H2 7825   5.291   4.196   1.438
 2436WAT      O 7826   3.830   4.680   2.769
 2436WAT     H1 7827   3.839   4.585   2.756
 2436WAT     H2 7828   3.763   4.706   2.705
 2437WAT      O 7829   4.629   4.507   2.910
 2437WAT     H1 7830   4.597   4.435   2.964
 2437WAT     H2 7831   4.561   4.574   2.916
 2438WAT      O 7832   4.433   4.592   1.404
 2438WAT     H1 7833   4.433   4.665   1.342
 2438WAT     H2 7834   4.341   4.566   1.413
 2439WAT      O 7835   3.993   4.114   1.478
 2439WAT     H1 7836   3.931   4.187   1.478
 2439WAT     H2 7837   4.040   4.121   1.395
 2440WAT      O 7838   5.287   3.426   1.527
 2440WAT     H1 7839   5.224   3.436   1.455
 2440WAT     H2 7840   5.237   3.447   1.606
 2441WAT      O 7841   4.731   4.597   1.270
 2441WAT     H1 7842   4.741   4.577   1.177
 2441WAT     H2 7843   4.641   4.572   1.291
 2442WAT      O 7844   4.596   4.850   1.740
 2442WAT     H1 7845   4.621   4.846   1.648
 2442WAT     H2 7846   4.501   4.837   1.739
 2443WAT      O 7847   4.304   3.484   1.406
 2443WAT     H1 7848   4.389   3.528   1.399
 2443WAT     H2 7849   4.267   3.516   1.489
 2444WAT      O 7850   5.196   3.942   1.898
 2444WAT     H1 7851   5.102   3.942   1.915
 2444WAT     H2 7852   5.228   3.863   1.941
 2445WAT      O 7853   4.194   4.109   1.254
 2445WAT     H1 7854   4.271   4.099   1.310
 2445WAT     H2 7855   4.203   4.041   1.187
 2446WAT      O 7856   4.063   3.853   1.322
 2446WAT     H1 7857   4.070   3.759   1.333
 2446WAT     H2 7858   4.153   3.885   1.333
 2447WAT      O 7859   5.397   4.658   2.065
 2447WAT     H1 7860   5.409   4.741   2.112
 2447WAT     H2 7861   5.483   4.637   2.030
 2448WAT      O 7862   4.143   4.868   2.033
 2448WAT     H1 7863   4.217   4.813   2.059
 2448WAT     H2 7864   4.182   4.954   2.018
 2449WAT      O 7865   3.832   4.474   1.619
 2449WAT     H1 7866   3.739   4.500   1.618
 2449WAT     H2 7867   3.879   4.557   1.607
 2450WAT      O 7868   4.044   4.786   2.951
 2450WAT     H1 7869   4.124   4.818   2.992
 2450WAT     H2 7870   3.993   4.750   3.023
 2451WAT      O 7871   4.454   4.784   1.214
 2451WAT     H1 7872   4.533   4.815   1.170
 2451WAT     H2 7873   4.403   4.742   1.145
 2452WAT      O 7874   4.928   4.397   2.946
 2452WAT     H1 7875   4.867   4.399   2.872
 2452WAT     H2 7876   4.897   4.324   3.000
 2453WAT      O 7877   5.071   4.771   2.805
 2453WAT     H1 7878   5.166   4.761   2.803
 2453WAT     H2 7879   5.056   4.835   2.874
 2454WAT      O 7880   5.360   4.708   1.357
 2454WAT     H1 7881   5.331   4.666   1.276
 2454WAT     H2 7882   5.340   4.801   1.345
 2455WAT      O 7883   4.506   4.307   1.200
 2455WAT     H1 7884   4.496   4.246   1.273
 2455WAT     H2 7885   4.490   4.254   1.122
 2456WAT      O 7886   4.522   4.177   2.798
 2456WAT     H1 7887   4.445   4.232   2.790
 2456WAT     H2 7888   4.539   4.146   2.709
 2457WAT      O 7889   4.830   4.213   1.261
 2457WAT     H1 7890   4.775   4.258   1.325
 2457WAT     H2 7891   4.893   4.163   1.313
 2458WAT      O 7892   5.236   4.349   2.854
 2458WAT     H1 7893   5.310   4.382   2.804
 2458WAT     H2 7894   5.159   4.366   2.799
 2459WAT      O 7895   4.396   4.108   1.450
 2459WAT     H1 7896   4.439   4.094   1.534
 2459WAT     H2 7897   4.411   4.028   1.401
 2460WAT      O 7898   4.648   4.011   1.176
 2460WAT     H1 7899   4.700   3.940   1.139
 2460WAT     H2 7900   4.713   4.076   1.205
 2461WAT      O 7901   5.103   4.152   2.708
 2461WAT     H1 7902   5.145   4.170   2.792
 2461WAT     H2 7903   5.010   4.167   2.724
 2462WAT      O 7904   5.150   3.887   2.908
 2462WAT     H1 7905   5.209   3.812   2.899
 2462WAT     H2 7906   5.168   3.941   2.831
 2463WAT      O 7907   4.578   4.149   2.506
 2463WAT     H1 7908   4.621   4.233   2.488
 2463WAT     H2 7909   4.487   4.163   2.481
 2464WAT      O 7910   4.813   3.921   2.643
 2464WAT     H1 7911   4.826   3.862   2.717
 2464WAT     H2 7912   4.899   3.926   2.601
 2465WAT      O 7913   5.046   3.978   2.501
 2465WAT     H1 7914   4.995   4.031   2.440
 2465WAT     H2 7915   5.081   4.041   2.564
 2466WAT      O 7916   4.287   3.716   1.145
 2466WAT     H1 7917   4.267   3.630   1.181
 2466WAT     H2 7918   4.270   3.708   1.052
 2467WAT      O 7919   4.365   4.781   2.616
 2467WAT     H1 7920   4.310   4.852   2.584
 2467WAT     H2 7921   4.389   4.731   2.538
 2468WAT      O 7922   5.034   3.198   1.398
 2468WAT     H1 7923   5.062   3.113   1.434
 2468WAT     H2 7924   4.958   3.221   1.450
 2469WAT      O 7925   4.167   3.428   1.143
 2469WAT     H1 7926   4.197   3.426   1.053
 2469WAT     H2 7927   4.240   3.392   1.194
 2470WAT      O 7928   4.650   4.903   2.642
 2470WAT     H1 7929   4.643   4.993   2.673
 2470WAT     H2 7930   4.560   4.871   2.639
 2471WAT      O 7931   4.488   3.321   1.243
 2471WAT     H1 7932   4.454   3.253   1.185
 2471WAT     H2 7933   4.508   3.275   1.324
 2472WAT      O 7934   4.705   4.821   1.404
 2472WAT     H1 7935   4.794   4.854   1.407
 2472WAT     H2 7936   4.708   4.747   1.343
 2473WAT      O 7937   4.069   4.357   1.226
 2473WAT     H1 7938   4.112   4.411   1.292
 2473WAT     H2 7939   4.117   4.274   1.228
 2474WAT      O 7940   3.789   4.635   1.973
 2474WAT     H1 7941   3.823   4.549   1.949
 2474WAT     H2 7942   3.833   4.656   2.056
 2475WAT      O 7943   4.251   4.469   1.739
 2475WAT     H1 7944   4.219   4.457   1.829
 2475WAT     H2 7945   4.238   4.384   1.697
 2476WAT      O 7946   3.839   4.723   2.246
 2476WAT     H1 7947   3.795   4.741   2.330
 2476WAT     H2 7948   3.896   4.798   2.232
 2477WAT      O 7949   5.403   4.674   2.675
 2477WAT     H1 7950   5.342   4.679   2.601
 2477WAT     H2 7951   5.417   4.580   2.688
 2478WAT      O 7952   5.527   4.447   1.210
 2478WAT     H1 7953   5.443   4.454   1.255
 2478WAT     H2 7954   5.544   4.536   1.178
 2479WAT      O 7955   5.472   4.121   1.459
 2479WAT     H1 7956   5.548   4.178   1.469
 2479WAT     H2 7957   5.474   4.065   1.536
 2480WAT      O 7958   5.573   4.208   1.944
 2480WAT     H1 7959   5.610   4.129   1.904
 2480WAT     H2 7960   5.637   4.276   1.926
 2481WAT      O 7961   5.271   4.345   2.485
 2481WAT     H1 7962   5.190   4.388   2.512
 2481WAT     H2 7963   5.312   4.406   2.424
 2482WAT      O 7964   5.480   4.151   1.175
 2482WAT     H1 7965   5.504   4.242   1.162
 2482WAT     H2 7966   5.459   4.145   1.269
 2483WAT      O 7967   5.118   3.453   1.304
 2483WAT     H1 7968   5.159   3.434   1.220
 2483WAT     H2 7969   5.086   3.368   1.335
 2484WAT      O 7970   5.467   3.945   1.674
 2484WAT     H1 7971   5.430   3.867   1.631
 2484WAT     H2 7972   5.394   3.983   1.723
 2485WAT      O 7973   5.406   3.858   2.638
 2485WAT     H1 7974   5.383   3.836   2.548
 2485WAT     H2 7975   5.431   3.950   2.634
 2486WAT      O 7976   3.743   3.694   1.477
 2486WAT     H1 7977   3.653   3.721   1.459
 2486WAT     H2 7978   3.792   3.722   1.399
 2487WAT      O 7979   5.394   3.767   2.004
 2487WAT     H1 7980   5.447   3.718   1.941
 2487WAT     H2 7981   5.453   3.781   2.079
 2488WAT      O 7982   5.413   3.775   2.356
 2488WAT     H1 7983   5.318   3.772   2.368
 2488WAT     H2 7984   5.431   3.866   2.333
 2489WAT      O 7985   3.999   3.601   1.267
 2489WAT     H1 7986   4.068   3.556   1.219
 2489WAT     H2 7987   3.926   3.607   1.205
 2490WAT      O 7988   3.962   3.206   1.171
 2490WAT     H1 7989   4.034   3.260   1.203
 2490WAT     H2 7990   3.990   3.178   1.084
 2491WAT      O 7991   5.345   3.693   1.598
 2491WAT     H1 7992   5.393   3.669   1.678
 2491WAT     H2 7993   5.324   3.609   1.557
 2492WAT      O 7994   5.487   3.556   1.851
 2492WAT     H1 7995   5.476   3.540   1.945
 2492WAT     H2 7996   5.563   3.504   1.827
 2493WAT      O 7997   5.575   3.338   1.176
 2493WAT     H1 7998   5.668   3.326   1.155
 2493WAT     H2 7999   5.573   3.348   1.271
 2494WAT      O 8000   5.583   3.417   1.438
 2494WAT     H1 8001   5.503   3.410   1.491
 2494WAT     H2 8002   5.603   3.510   1.437
 2495WAT      O 8003   5.277   4.820   1.838
 2495WAT     H1 8004   5.337   4.788   1.771
 2495WAT     H2 8005   5.303   4.772   1.917
 2496WAT      O 8006   4.068   4.464   2.853
 2496WAT     H1 8007   4.063   4.427   2.941
 2496WAT     H2 8008   4.081   4.558   2.867
 2497WAT      O 8009   4.438   4.619   2.413
 2497WAT     H1 8010   4.414   4.645   2.324
 2497WAT     H2 8011   4.532   4.635   2.418
 2498WAT      O 8012   5.564   4.820   2.491
 2498WAT     H1 8013   5.514   4.861   2.421
 2498WAT     H2 8014   5.503   4.760   2.533
 2499WAT      O 8015   4.051   4.758   2.564
 2499WAT     H1 8016   3.992   4.745   2.638
 2499WAT     H2 8017   4.051   4.675   2.518
 2500WAT      O 8018   5.332   4.885   2.220
 2500WAT     H1 8019   5.286   4.961   2.183
 2500WAT     H2 8020   5.268   4.814   2.216
 2501WAT      O 8021   4.015   4.496   2.460
 2501WAT     H1 8022   3.942   4.434   2.454
 2501WAT     H2 8023   4.021   4.533   2.372
 2502WAT      O 8024   4.375   4.715   2.139
 2502WAT     H1 8025   4.427   4.655   2.086
 2502WAT     H2 8026   4.440   4.768   2.186
 2503WAT      O 8027   4.649   4.805   2.221
 2503WAT     H1 8028   4.679   4.780   2.133
 2503WAT     H2 8029   4.700   4.750   2.280
 2504WAT      O 8030   3.843   4.827   1.781
 2504WAT     H1 8031   3.826   4.763   1.850
 2504WAT     H2 8032   3.756   4.847   1.745
 2505WAT      O 8033   3.906   3.210   1.531
 2505WAT     H1 8034   3.981   3.221   1.473
 2505WAT     H2 8035   3.859   3.293   1.525
 2506WAT      O 8036   5.324   3.129   1.481
 2506WAT     H1 8037   5.343   3.218   1.509
 2506WAT     H2 8038   5.245   3.105   1.530
 2507WAT      O 8039   4.003   4.695   1.525
 2507WAT     H1 8040   3.951   4.734   1.455
 2507WAT     H2 8041   3.996   4.758   1.597
 2508WAT      O 8042   4.142   3.262   1.386
 2508WAT     H1 8043   4.195   3.183   1.373
 2508WAT     H2 8044   4.206   3.330   1.407
 2509WAT      O 8045   4.362   3.236   1.690
 2509WAT     H1 8046   4.299   3.166   1.707
 2509WAT     H2 8047   4.308   3.312   1.669
 2510WAT      O 8048   4.656   4.898   2.957
 2510WAT     H1 8049   4.748   4.874   2.962
 2510WAT     H2 8050   4.654   4.980   2.909
 2511WAT      O 8051   5.479   4.852   1.657
 2511WAT     H1 8052   5.497   4.783   1.593
 2511WAT     H2 8053   5.410   4.904   1.617
 2512WAT      O 8054   4.264   4.892   1.412
 2512WAT     H1 8055   4.337   4.862   1.358
 2512WAT     H2 8056   4.289   4.867   1.501
 2513WAT      O 8057   4.180   4.502   1.413
 2513WAT     H1 8058   4.117   4.550   1.468
 2513WAT     H2 8059   4.191   4.418   1.457
 2514WAT      O 8060   5.313   4.821   2.939
 2514WAT     H1 8061   5.392   4.771   2.920
 2514WAT     H2 8062   5.342   4.888   3.001
 2515WAT      O 8063   4.738   4.085   0.216
 2515WAT     H1 8064   4.661   4.036   0.245
 2515WAT     H2 8065   4.803   4.017   0.199
 2516WAT      O 8066   4.139   4.117   0.304
 2516WAT     H1 8067   4.057   4.090   0.344
 2516WAT     H2 8068   4.201   4.124   0.376
 2517WAT      O 8069   4.138   4.520   0.324
 2517WAT     H1 8070   4.168   4.431   0.306
 2517WAT     H2 8071   4.212   4.576   0.301
 2518WAT      O 8072   3.776   3.871   0.271
 2518WAT     H1 8073   3.835   3.796   0.271
 2518WAT     H2 8074   3.777   3.902   0.180
 2519WAT      O 8075   4.681   4.353   0.218
 2519WAT     H1 8076   4.677   4.259   0.200
 2519WAT     H2 8077   4.758   4.363   0.274
 2520WAT      O 8078   3.902   3.414   0.450
 2520WAT     H1 8079   3.884   3.324   0.477
 2520WAT     H2 8080   3.860   3.468   0.517
 2521WAT      O 8081   3.961   3.664   0.311
 2521WAT     H1 8082   4.032   3.689   0.371
 2521WAT     H2 8083   3.932   3.578   0.343
 2522WAT      O 8084   4.383   3.767   0.219
 2522WAT     H1 8085   4.434   3.818   0.283
 2522WAT     H2 8086   4.437   3.690   0.201
 2523WAT      O 8087   5.592   3.584   0.589
 2523WAT     H1 8088   5.522   3.624   0.537
 2523WAT     H2 8089   5.619   3.654   0.649
 2524WAT      O 8090   4.211   3.231   0.646
 2524WAT     H1 8091   4.211   3.284   0.566
 2524WAT     H2 8092   4.128   3.184   0.643
 2525WAT      O 8093   4.338   4.196   0.464
 2525WAT     H1 8094   4.302   4.258   0.527
 2525WAT     H2 8095   4.354   4.248   0.385
 2526WAT      O 8096   5.188   3.577   0.211
 2526WAT     H1 8097   5.117   3.605   0.268
 2526WAT     H2 8098   5.223   3.658   0.174
 2527WAT      O 8099   4.179   3.403   0.446
 2527WAT     H1 8100   4.213   3.488   0.417
 2527WAT     H2 8101   4.085   3.418   0.457
 2528WAT      O 8102   4.258   4.392   0.645
 2528WAT     H1 8103   4.319   4.461   0.617
 2528WAT     H2 8104   4.171   4.432   0.636
 2529WAT      O 8105   5.348   4.539   0.436
 2529WAT     H1 8106   5.281   4.607   0.435
 2529WAT     H2 8107   5.404   4.559   0.360
 2530WAT      O 8108   5.494   3.522   0.249
 2530WAT     H1 8109   5.399   3.525   0.262
 2530WAT     H2 8110   5.526   3.603   0.288
 2531WAT      O 8111   5.103   4.723   0.308
 2531WAT     H1 8112   5.104   4.683   0.221
 2531WAT     H2 8113   5.047   4.801   0.298
 2532WAT      O 8114   5.043   4.214   0.441
 2532WAT     H1 8115   5.084   4.192   0.357
 2532WAT     H2 8116   5.115   4.239   0.498
 2533WAT      O 8117   5.437   4.053   0.450
 2533WAT     H1 8118   5.354   4.061   0.402
 2533WAT     H2 8119   5.497   4.112   0.404
 2534WAT      O 8120   5.133   3.733   0.544
 2534WAT     H1 8121   5.092   3.815   0.569
 2534WAT     H2 8122   5.060   3.674   0.525
 2535WAT      O 8123   4.394   4.378   0.248
 2535WAT     H1 8124   4.364   4.319   0.179
 2535WAT     H2 8125   4.489   4.383   0.236
 2536WAT      O 8126   4.219   3.686   0.409
 2536WAT     H1 8127   4.272   3.700   0.331
 2536WAT     H2 8128   4.269   3.726   0.480
 2537WAT      O 8129   5.202   4.736   0.614
 2537WAT     H1 8130   5.155   4.817   0.594
 2537WAT     H2 8131   5.133   4.671   0.628
 2538WAT      O 8132   4.303   4.353   0.912
 2538WAT     H1 8133   4.214   4.376   0.937
 2538WAT     H2 8134   4.304   4.365   0.817
 2539WAT      O 8135   4.186   4.040   0.770
 2539WAT     H1 8136   4.171   4.128   0.805
 2539WAT     H2 8137   4.098   4.006   0.755
 2540WAT      O 8138   4.366   4.634   0.990
 2540WAT     H1 8139   4.362   4.675   0.904
 2540WAT     H2 8140   4.349   4.542   0.974
 2541WAT      O 8141   5.561   4.713   1.120
 2541WAT     H1 8142   5.608   4.761   1.188
 2541WAT     H2 8143   5.623   4.706   1.047
 2542WAT      O 8144   3.780   4.217   0.361
 2542WAT     H1 8145   3.789   4.231   0.267
 2542WAT     H2 8146   3.842   4.146   0.381
 2543WAT      O 8147   5.500   4.431   0.836
 2543WAT     H1 8148   5.514   4.408   0.744
 2543WAT     H2 8149   5.506   4.348   0.883
 2544WAT      O 8150   4.888   4.802   0.693
 2544WAT     H1 8151   4.938   4.793   0.774
 2544WAT     H2 8152   4.803   4.837   0.722
 2545WAT      O 8153   5.486   3.637   0.933
 2545WAT     H1 8154   5.425   3.688   0.880
 2545WAT     H2 8155   5.454   3.547   0.927
 2546WAT      O 8156   3.786   4.321   0.615
 2546WAT     H1 8157   3.802   4.274   0.533
 2546WAT     H2 8158   3.834   4.271   0.682
 2547WAT      O 8159   4.692   3.521   0.679
 2547WAT     H1 8160   4.646   3.542   0.760
 2547WAT     H2 8161   4.652   3.440   0.649
 2548WAT      O 8162   5.192   3.642   0.792
 2548WAT     H1 8163   5.107   3.613   0.824
 2548WAT     H2 8164   5.176   3.668   0.701
 2549WAT      O 8165   4.901   3.794   1.001
 2549WAT     H1 8166   4.934   3.710   0.969
 2549WAT     H2 8167   4.981   3.845   1.018
 2550WAT      O 8168   4.468   3.289   0.306
 2550WAT     H1 8169   4.497   3.380   0.296
 2550WAT     H2 8170   4.522   3.240   0.243
 2551WAT      O 8171   4.487   3.837   0.958
 2551WAT     H1 8172   4.477   3.743   0.943
 2551WAT     H2 8173   4.571   3.859   0.919
 2552WAT      O 8174   4.000   3.478   0.774
 2552WAT     H1 8175   3.960   3.563   0.794
 2552WAT     H2 8176   3.931   3.414   0.792
 2553WAT      O 8177   4.657   3.486   1.081
 2553WAT     H1 8178   4.588   3.466   1.144
 2553WAT     H2 8179   4.731   3.514   1.134
 2554WAT      O 8180   3.729   3.269   0.177
 2554WAT     H1 8181   3.701   3.328   0.247
 2554WAT     H2 8182   3.804   3.222   0.213
 2555WAT      O 8183   4.885   3.870   0.363
 2555WAT     H1 8184   4.812   3.921   0.399
 2555WAT     H2 8185   4.845   3.788   0.334
 2556WAT      O 8186   4.930   3.416   0.305
 2556WAT     H1 8187   4.933   3.461   0.390
 2556WAT     H2 8188   4.906   3.326   0.327
 2557WAT      O 8189   5.273   3.157   0.889
 2557WAT     H1 8190   5.306   3.084   0.942
 2557WAT     H2 8191   5.277   3.125   0.799
 2558WAT      O 8192   3.944   4.258   0.831
 2558WAT     H1 8193   3.905   4.195   0.891
 2558WAT     H2 8194   3.975   4.329   0.888
 2559WAT      O 8195   4.560   3.944   0.379
 2559WAT     H1 8196   4.594   3.896   0.454
 2559WAT     H2 8197   4.539   4.031   0.413
 2560WAT      O 8198   4.338   3.848   0.611
 2560WAT     H1 8199   4.307   3.935   0.634
 2560WAT     H2 8200   4.433   3.854   0.615
 2561WAT      O 8201   5.266   4.168   0.250
 2561WAT     H1 8202   5.337   4.218   0.211
 2561WAT     H2 8203   5.246   4.100   0.185
 2562WAT      O 8204   4.806   4.175   0.840
 2562WAT     H1 8205   4.798   4.084   0.813
 2562WAT     H2 8206   4.741   4.185   0.910
 2563WAT      O 8207   3.943   3.933   0.726
 2563WAT     H1 8208   3.906   3.998   0.786
 2563WAT     H2 8209   3.915   3.849   0.762
 2564WAT      O 8210   4.262   3.977   1.014
 2564WAT     H1 8211   4.234   3.992   0.924
 2564WAT     H2 8212   4.341   3.923   1.005
 2565WAT      O 8213   4.798   4.457   0.814
 2565WAT     H1 8214   4.798   4.363   0.793
 2565WAT     H2 8215   4.727   4.466   0.878
 2566WAT      O 8216   5.419   4.122   0.748
 2566WAT     H1 8217   5.346   4.181   0.729
 2566WAT     H2 8218   5.472   4.122   0.668
 2567WAT      O 8219   4.741   4.622   0.522
 2567WAT     H1 8220   4.804   4.642   0.591
 2567WAT     H2 8221   4.777   4.544   0.479
 2568WAT      O 8222   4.869   4.422   0.395
 2568WAT     H1 8223   4.933   4.352   0.407
 2568WAT     H2 8224   4.922   4.500   0.377
 2569WAT      O 8225   5.046   4.503   0.715
 2569WAT     H1 8226   5.079   4.560   0.784
 2569WAT     H2 8227   4.954   4.489   0.738
 2570WAT      O 8228   3.801   3.281   0.793
 2570WAT     H1 8229   3.729   3.301   0.854
 2570WAT     H2 8230   3.843   3.204   0.831
 2571WAT      O 8231   3.830   4.680   0.891
 2571WAT     H1 8232   3.840   4.585   0.878
 2571WAT     H2 8233   3.763   4.706   0.827
 2572WAT      O 8234   4.629   4.506   1.032
 2572WAT     H1 8235   4.597   4.435   1.087
 2572WAT     H2 8236   4.561   4.574   1.038
 2573WAT      O 8237   4.949   3.530   0.568
 2573WAT     H1 8238   4.987   3.449   0.601
 2573WAT     H2 8239   4.864   3.536   0.610
 2574WAT      O 8240   4.646   3.795   0.591
 2574WAT     H1 8241   4.696   3.843   0.657
 2574WAT     H2 8242   4.660   3.703   0.612
 2575WAT      O 8243   5.367   3.417   0.675
 2575WAT     H1 8244   5.317   3.491   0.709
 2575WAT     H2 8245   5.449   3.456   0.644
 2576WAT      O 8246   4.044   4.786   1.074
 2576WAT     H1 8247   4.124   4.818   1.115
 2576WAT     H2 8248   3.993   4.750   1.146
 2577WAT      O 8249   4.928   4.397   1.068
 2577WAT     H1 8250   4.867   4.399   0.994
 2577WAT     H2 8251   4.897   4.324   1.122
 2578WAT      O 8252   5.071   4.771   0.928
 2578WAT     H1 8253   5.166   4.761   0.925
 2578WAT     H2 8254   5.056   4.835   0.997
 2579WAT      O 8255   3.817   4.036   0.968
 2579WAT     H1 8256   3.866   3.977   1.025
 2579WAT     H2 8257   3.742   4.063   1.021
 2580WAT      O 8258   4.522   4.177   0.921
 2580WAT     H1 8259   4.445   4.233   0.913
 2580WAT     H2 8260   4.539   4.146   0.832
 2581WAT      O 8261   5.236   4.349   0.977
 2581WAT     H1 8262   5.310   4.382   0.926
 2581WAT     H2 8263   5.159   4.366   0.922
 2582WAT      O 8264   4.019   3.849   1.057
 2582WAT     H1 8265   4.023   3.820   1.148
 2582WAT     H2 8266   4.104   3.889   1.041
 2583WAT      O 8267   4.214   3.706   0.854
 2583WAT     H1 8268   4.160   3.659   0.791
 2583WAT     H2 8269   4.280   3.750   0.801
 2584WAT      O 8270   5.103   4.153   0.830
 2584WAT     H1 8271   5.145   4.170   0.914
 2584WAT     H2 8272   5.009   4.167   0.847
 2585WAT      O 8273   5.151   3.888   1.030
 2585WAT     H1 8274   5.209   3.812   1.022
 2585WAT     H2 8275   5.169   3.941   0.953
 2586WAT      O 8276   4.262   3.404   0.862
 2586WAT     H1 8277   4.253   3.342   0.789
 2586WAT     H2 8278   4.203   3.476   0.839
 2587WAT      O 8279   4.539   3.260   0.565
 2587WAT     H1 8280   4.494   3.262   0.481
 2587WAT     H2 8281   4.475   3.221   0.625
 2588WAT      O 8282   4.578   4.149   0.627
 2588WAT     H1 8283   4.621   4.233   0.610
 2588WAT     H2 8284   4.487   4.163   0.603
 2589WAT      O 8285   4.813   3.921   0.766
 2589WAT     H1 8286   4.826   3.863   0.841
 2589WAT     H2 8287   4.899   3.926   0.724
 2590WAT      O 8288   5.046   3.978   0.624
 2590WAT     H1 8289   4.995   4.030   0.562
 2590WAT     H2 8290   5.082   4.041   0.686
 2591WAT      O 8291   4.366   4.781   0.739
 2591WAT     H1 8292   4.310   4.852   0.707
 2591WAT     H2 8293   4.389   4.731   0.661
 2592WAT      O 8294   4.490   3.576   0.891
 2592WAT     H1 8295   4.549   3.545   0.960
 2592WAT     H2 8296   4.409   3.529   0.906
 2593WAT      O 8297   4.972   3.538   0.915
 2593WAT     H1 8298   4.903   3.472   0.908
 2593WAT     H2 8299   5.044   3.493   0.959
 2594WAT      O 8300   4.650   4.903   0.765
 2594WAT     H1 8301   4.643   4.993   0.795
 2594WAT     H2 8302   4.560   4.871   0.762
 2595WAT      O 8303   3.839   4.722   0.369
 2595WAT     H1 8304   3.795   4.741   0.452
 2595WAT     H2 8305   3.895   4.798   0.355
 2596WAT      O 8306   5.403   4.674   0.797
 2596WAT     H1 8307   5.342   4.679   0.723
 2596WAT     H2 8308   5.417   4.580   0.811
 2597WAT      O 8309   5.271   4.344   0.607
 2597WAT     H1 8310   5.190   4.388   0.634
 2597WAT     H2 8311   5.312   4.406   0.546
 2598WAT      O 8312   3.927   4.013   0.459
 2598WAT     H1 8313   3.963   4.003   0.547
 2598WAT     H2 8314   3.869   3.937   0.448
 2599WAT      O 8315   5.407   3.858   0.760
 2599WAT     H1 8316   5.383   3.836   0.670
 2599WAT     H2 8317   5.431   3.951   0.757
 2600WAT      O 8318   3.881   3.703   0.850
 2600WAT     H1 8319   3.791   3.700   0.883
 2600WAT     H2 8320   3.935   3.724   0.926
 2601WAT      O 8321   5.250   3.382   1.038
 2601WAT     H1 8322   5.338   3.383   1.076
 2601WAT     H2 8323   5.251   3.308   0.977
 2602WAT      O 8324   5.413   3.775   0.479
 2602WAT     H1 8325   5.318   3.772   0.490
 2602WAT     H2 8326   5.431   3.866   0.456
 2603WAT      O 8327   3.932   3.131   0.284
 2603WAT     H1 8328   3.997   3.076   0.240
 2603WAT     H2 8329   3.974   3.156   0.366
 2604WAT      O 8330   5.322   3.150   0.620
 2604WAT     H1 8331   5.384   3.212   0.656
 2604WAT     H2 8332   5.336   3.154   0.525
 2605WAT      O 8333   3.908   3.146   0.560
 2605WAT     H1 8334   3.871   3.192   0.635
 2605WAT     H2 8335   3.874   3.057   0.567
 2606WAT      O 8336   4.068   4.464   0.975
 2606WAT     H1 8337   4.063   4.427   1.064
 2606WAT     H2 8338   4.081   4.558   0.989
 2607WAT      O 8339   4.438   4.619   0.535
 2607WAT     H1 8340   4.414   4.645   0.446
 2607WAT     H2 8341   4.532   4.635   0.540
 2608WAT      O 8342   4.658   3.265   0.912
 2608WAT     H1 8343   4.652   3.326   0.985
 2608WAT     H2 8344   4.752   3.255   0.896
 2609WAT      O 8345   4.922   3.232   0.875
 2609WAT     H1 8346   4.983   3.263   0.808
 2609WAT     H2 8347   4.977   3.183   0.937
 2610WAT      O 8348   5.565   4.820   0.614
 2610WAT     H1 8349   5.514   4.861   0.544
 2610WAT     H2 8350   5.503   4.760   0.656
 2611WAT      O 8351   3.974   3.099   0.886
 2611WAT     H1 8352   4.029   3.081   0.810
 2611WAT     H2 8353   3.981   3.020   0.940
 2612WAT      O 8354   4.052   4.758   0.687
 2612WAT     H1 8355   3.992   4.745   0.761
 2612WAT     H2 8356   4.051   4.675   0.640
 2613WAT      O 8357   4.997   3.088   0.508
 2613WAT     H1 8358   4.910   3.121   0.486
 2613WAT     H2 8359   4.984   3.039   0.589
 2614WAT      O 8360   5.087   3.308   0.647
 2614WAT     H1 8361   5.054   3.227   0.607
 2614WAT     H2 8362   5.181   3.304   0.634
 2615WAT      O 8363   5.332   4.885   0.344
 2615WAT     H1 8364   5.286   4.961   0.306
 2615WAT     H2 8365   5.269   4.814   0.337
 2616WAT      O 8366   4.015   4.496   0.582
 2616WAT     H1 8367   3.942   4.434   0.576
 2616WAT     H2 8368   4.021   4.533   0.494
 2617WAT      O 8369   4.375   4.715   0.262
 2617WAT     H1 8370   4.427   4.655   0.208
 2617WAT     H2 8371   4.440   4.768   0.309
 2618WAT      O 8372   4.649   4.805   0.343
 2618WAT     H1 8373   4.678   4.780   0.256
 2618WAT     H2 8374   4.699   4.750   0.402
 2619WAT      O 8375   4.771   3.179   0.401
 2619WAT     H1 8376   4.693   3.227   0.430
 2619WAT     H2 8377   4.740   3.089   0.390
 2620WAT      O 8378   4.656   4.898   1.080
 2620WAT     H1 8379   4.748   4.874   1.084
 2620WAT     H2 8380   4.654   4.980   1.032
 2621WAT      O 8381   4.374   3.164   1.056
 2621WAT     H1 8382   4.346   3.214   0.979
 2621WAT     H2 8383   4.413   3.084   1.020
 2622WAT      O 8384   5.035   3.106   1.114
 2622WAT     H1 8385   5.023   3.136   1.204
 2622WAT     H2 8386   5.117   3.146   1.085
 2623WAT      O 8387   5.313   4.821   1.061
 2623WAT     H1 8388   5.392   4.770   1.043
 2623WAT     H2 8389   5.342   4.888   1.123
 2624WAT      O 8390   4.925   2.030   5.660
 2624WAT     H1 8391   4.917   1.939   5.633
 2624WAT     H2 8392   4.884   2.080   5.590
 2625WAT      O 8393   5.141   2.648   5.726
 2625WAT     H1 8394   5.094   2.571   5.758
 2625WAT     H2 8395   5.221   2.651   5.777
 2626WAT      O 8396   3.981   1.735   5.314
 2626WAT     H1 8397   3.892   1.768   5.304
 2626WAT     H2 8398   4.009   1.715   5.225
 2627WAT      O 8399   4.763   2.877   5.688
 2627WAT     H1 8400   4.701   2.922   5.631
 2627WAT     H2 8401   4.849   2.893   5.648
 2628WAT      O 8402   4.199   1.593   5.418
 2628WAT     H1 8403   4.209   1.683   5.449
 2628WAT     H2 8404   4.107   1.588   5.389
 2629WAT      O 8405   5.164   1.506   5.565
 2629WAT     H1 8406   5.246   1.457   5.569
 2629WAT     H2 8407   5.167   1.565   5.640
 2630WAT      O 8408   4.850   2.365   5.427
 2630WAT     H1 8409   4.788   2.411   5.371
 2630WAT     H2 8410   4.901   2.435   5.469
 2631WAT      O 8411   3.787   2.434   5.165
 2631WAT     H1 8412   3.749   2.483   5.092
 2631WAT     H2 8413   3.812   2.501   5.228
 2632WAT      O 8414   4.547   1.274   5.711
 2632WAT     H1 8415   4.578   1.219   5.639
 2632WAT     H2 8416   4.454   1.288   5.693
 2633WAT      O 8417   5.232   2.518   5.449
 2633WAT     H1 8418   5.221   2.424   5.461
 2633WAT     H2 8419   5.231   2.554   5.538
 2634WAT      O 8420   4.787   2.081   5.386
 2634WAT     H1 8421   4.693   2.074   5.407
 2634WAT     H2 8422   4.801   2.175   5.373
 2635WAT      O 8423   4.785   1.707   5.082
 2635WAT     H1 8424   4.692   1.724   5.094
 2635WAT     H2 8425   4.817   1.781   5.031
 2636WAT      O 8426   5.189   2.237   5.435
 2636WAT     H1 8427   5.127   2.203   5.371
 2636WAT     H2 8428   5.187   2.172   5.506
 2637WAT      O 8429   4.347   2.133   5.663
 2637WAT     H1 8430   4.306   2.062   5.613
 2637WAT     H2 8431   4.355   2.098   5.752
 2638WAT      O 8432   5.007   2.161   5.136
 2638WAT     H1 8433   5.050   2.077   5.121
 2638WAT     H2 8434   5.079   2.224   5.143
 2639WAT      O 8435   4.818   2.654   5.532
 2639WAT     H1 8436   4.862   2.729   5.491
 2639WAT     H2 8437   4.812   2.679   5.625
 2640WAT      O 8438   5.365   1.286   4.967
 2640WAT     H1 8439   5.335   1.294   5.057
 2640WAT     H2 8440   5.441   1.344   4.962
 2641WAT      O 8441   4.017   2.023   5.413
 2641WAT     H1 8442   4.005   2.095   5.352
 2641WAT     H2 8443   3.986   1.946   5.365
 2642WAT      O 8444   3.905   2.510   5.634
 2642WAT     H1 8445   3.864   2.524   5.549
 2642WAT     H2 8446   3.994   2.481   5.614
 2643WAT      O 8447   5.084   2.953   5.268
 2643WAT     H1 8448   5.069   2.924   5.358
 2643WAT     H2 8449   5.069   2.875   5.215
 2644WAT      O 8450   4.332   2.931   5.445
 2644WAT     H1 8451   4.315   2.839   5.424
 2644WAT     H2 8452   4.246   2.967   5.470
 2645WAT      O 8453   5.055   2.705   5.124
 2645WAT     H1 8454   4.985   2.704   5.058
 2645WAT     H2 8455   5.129   2.662   5.081
 2646WAT      O 8456   5.011   2.867   5.532
 2646WAT     H1 8457   5.057   2.789   5.563
 2646WAT     H2 8458   5.045   2.938   5.586
 2647WAT      O 8459   4.263   1.357   5.751
 2647WAT     H1 8460   4.219   1.435   5.718
 2647WAT     H2 8461   4.319   1.389   5.822
 2648WAT      O 8462   4.574   1.319   5.239
 2648WAT     H1 8463   4.513   1.319   5.312
 2648WAT     H2 8464   4.566   1.232   5.200
 2649WAT      O 8465   4.243   1.870   5.524
 2649WAT     H1 8466   4.219   1.847   5.614
 2649WAT     H2 8467   4.165   1.913   5.489
 2650WAT      O 8468   4.966   1.870   5.384
 2650WAT     H1 8469   4.906   1.942   5.366
 2650WAT     H2 8470   5.020   1.864   5.305
 2651WAT      O 8471   4.827   1.735   5.588
 2651WAT     H1 8472   4.866   1.765   5.506
 2651WAT     H2 8473   4.861   1.645   5.598
 2652WAT      O 8474   3.749   1.787   4.929
 2652WAT     H1 8475   3.740   1.881   4.944
 2652WAT     H2 8476   3.712   1.773   4.842
 2653WAT      O 8477   4.529   1.660   5.837
 2653WAT     H1 8478   4.529   1.616   5.752
 2653WAT     H2 8479   4.618   1.692   5.848
 2654WAT      O 8480   4.114   1.648   5.733
 2654WAT     H1 8481   4.080   1.696   5.808
 2654WAT     H2 8482   4.037   1.603   5.697
 2655WAT      O 8483   4.534   1.760   5.137
 2655WAT     H1 8484   4.547   1.756   5.232
 2655WAT     H2 8485   4.497   1.846   5.120
 2656WAT      O 8486   4.435   1.993   5.075
 2656WAT     H1 8487   4.379   1.947   5.012
 2656WAT     H2 8488   4.507   2.027   5.022
 2657WAT      O 8489   3.845   1.540   5.624
 2657WAT     H1 8490   3.817   1.504   5.708
 2657WAT     H2 8491   3.839   1.467   5.563
 2658WAT      O 8492   4.191   2.391   5.303
 2658WAT     H1 8493   4.113   2.337   5.288
 2658WAT     H2 8494   4.264   2.339   5.269
 2659WAT      O 8495   4.813   1.430   5.297
 2659WAT     H1 8496   4.731   1.380   5.289
 2659WAT     H2 8497   4.793   1.514   5.255
 2660WAT      O 8498   5.084   1.867   5.126
 2660WAT     H1 8499   5.173   1.898   5.109
 2660WAT     H2 8500   5.081   1.780   5.087
 2661WAT      O 8501   4.195   2.358   5.667
 2661WAT     H1 8502   4.247   2.278   5.661
 2661WAT     H2 8503   4.150   2.352   5.751
 2662WAT      O 8504   4.684   2.484   5.194
 2662WAT     H1 8505   4.718   2.559   5.145
 2662WAT     H2 8506   4.601   2.515   5.230
 2663WAT      O 8507   5.312   1.998   5.073
 2663WAT     H1 8508   5.303   2.041   4.988
 2663WAT     H2 8509   5.383   2.044   5.116
 2664WAT      O 8510   5.414   2.684   5.345
 2664WAT     H1 8511   5.350   2.619   5.373
 2664WAT     H2 8512   5.376   2.724   5.268
 2665WAT      O 8513   4.972   2.417   5.731
 2665WAT     H1 8514   5.007   2.357   5.665
 2665WAT     H2 8515   4.883   2.384   5.748
 2666WAT      O 8516   4.580   2.492   5.472
 2666WAT     H1 8517   4.649   2.547   5.508
 2666WAT     H2 8518   4.502   2.547   5.475
 2667WAT      O 8519   3.794   2.054   5.020
 2667WAT     H1 8520   3.881   2.082   5.049
 2667WAT     H2 8521   3.745   2.136   5.009
 2668WAT      O 8522   4.512   2.192   5.434
 2668WAT     H1 8523   4.556   2.275   5.455
 2668WAT     H2 8524   4.476   2.162   5.517
 2669WAT      O 8525   4.101   1.228   5.480
 2669WAT     H1 8526   4.088   1.226   5.575
 2669WAT     H2 8527   4.019   1.260   5.444
 2670WAT      O 8528   5.252   2.573   5.000
 2670WAT     H1 8529   5.230   2.501   5.059
 2670WAT     H2 8530   5.215   2.548   4.916
 2671WAT      O 8531   3.831   2.976   5.077
 2671WAT     H1 8532   3.868   3.036   5.012
 2671WAT     H2 8533   3.817   3.030   5.154
 2672WAT      O 8534   5.211   2.364   5.166
 2672WAT     H1 8535   5.182   2.411   5.245
 2672WAT     H2 8536   5.291   2.319   5.193
 2673WAT      O 8537   4.433   2.714   5.159
 2673WAT     H1 8538   4.432   2.787   5.097
 2673WAT     H2 8539   4.342   2.689   5.168
 2674WAT      O 8540   3.992   2.236   5.233
 2674WAT     H1 8541   3.931   2.310   5.233
 2674WAT     H2 8542   4.040   2.244   5.150
 2675WAT      O 8543   5.287   1.548   5.282
 2675WAT     H1 8544   5.224   1.559   5.210
 2675WAT     H2 8545   5.237   1.569   5.361
 2676WAT      O 8546   4.731   2.719   5.025
 2676WAT     H1 8547   4.741   2.699   4.932
 2676WAT     H2 8548   4.641   2.695   5.046
 2677WAT      O 8549   4.484   1.776   5.423
 2677WAT     H1 8550   4.413   1.823   5.467
 2677WAT     H2 8551   4.513   1.710   5.487
 2678WAT      O 8552   4.887   1.448   5.567
 2678WAT     H1 8553   4.874   1.450   5.473
 2678WAT     H2 8554   4.982   1.453   5.578
 2679WAT      O 8555   4.596   2.973   5.495
 2679WAT     H1 8556   4.621   2.968   5.402
 2679WAT     H2 8557   4.501   2.959   5.494
 2680WAT      O 8558   4.303   1.608   5.160
 2680WAT     H1 8559   4.389   1.650   5.154
 2680WAT     H2 8560   4.268   1.638   5.244
 2681WAT      O 8561   5.196   2.064   5.652
 2681WAT     H1 8562   5.102   2.065   5.670
 2681WAT     H2 8563   5.228   1.986   5.697
 2682WAT      O 8564   4.193   2.231   5.009
 2682WAT     H1 8565   4.271   2.222   5.064
 2682WAT     H2 8566   4.203   2.163   4.942
 2683WAT      O 8567   4.063   1.976   5.077
 2683WAT     H1 8568   4.071   1.881   5.088
 2683WAT     H2 8569   4.153   2.008   5.087
 2684WAT      O 8570   4.143   2.990   5.787
 2684WAT     H1 8571   4.217   2.935   5.814
 2684WAT     H2 8572   4.182   3.077   5.773
 2685WAT      O 8573   3.832   2.597   5.374
 2685WAT     H1 8574   3.739   2.622   5.373
 2685WAT     H2 8575   3.879   2.680   5.362
 2686WAT      O 8576   4.454   2.908   4.969
 2686WAT     H1 8577   4.533   2.938   4.925
 2686WAT     H2 8578   4.403   2.865   4.900
 2687WAT      O 8579   5.360   2.830   5.111
 2687WAT     H1 8580   5.331   2.789   5.030
 2687WAT     H2 8581   5.340   2.923   5.099
 2688WAT      O 8582   4.506   2.430   4.955
 2688WAT     H1 8583   4.496   2.369   5.028
 2688WAT     H2 8584   4.490   2.376   4.877
 2689WAT      O 8585   4.830   2.336   5.016
 2689WAT     H1 8586   4.775   2.381   5.080
 2689WAT     H2 8587   4.892   2.285   5.068
 2690WAT      O 8588   4.396   2.231   5.205
 2690WAT     H1 8589   4.439   2.216   5.289
 2690WAT     H2 8590   4.411   2.150   5.156
 2691WAT      O 8591   4.648   2.134   4.931
 2691WAT     H1 8592   4.700   2.063   4.894
 2691WAT     H2 8593   4.713   2.198   4.960
 2692WAT      O 8594   4.287   1.839   4.900
 2692WAT     H1 8595   4.267   1.752   4.936
 2692WAT     H2 8596   4.270   1.830   4.806
 2693WAT      O 8597   5.035   1.320   5.153
 2693WAT     H1 8598   5.063   1.236   5.189
 2693WAT     H2 8599   4.957   1.344   5.204
 2694WAT      O 8600   4.167   1.550   4.898
 2694WAT     H1 8601   4.197   1.549   4.808
 2694WAT     H2 8602   4.240   1.514   4.949
 2695WAT      O 8603   4.489   1.443   4.997
 2695WAT     H1 8604   4.453   1.376   4.940
 2695WAT     H2 8605   4.508   1.398   5.079
 2696WAT      O 8606   4.705   2.943   5.159
 2696WAT     H1 8607   4.794   2.976   5.162
 2696WAT     H2 8608   4.708   2.870   5.098
 2697WAT      O 8609   4.069   2.480   4.981
 2697WAT     H1 8610   4.112   2.534   5.047
 2697WAT     H2 8611   4.117   2.397   4.983
 2698WAT      O 8612   3.790   2.758   5.727
 2698WAT     H1 8613   3.823   2.672   5.704
 2698WAT     H2 8614   3.833   2.779   5.810
 2699WAT      O 8615   4.250   2.592   5.493
 2699WAT     H1 8616   4.220   2.579   5.583
 2699WAT     H2 8617   4.239   2.506   5.452
 2700WAT      O 8618   5.528   2.570   4.965
 2700WAT     H1 8619   5.443   2.576   5.010
 2700WAT     H2 8620   5.544   2.658   4.933
 2701WAT      O 8621   5.472   2.244   5.214
 2701WAT     H1 8622   5.548   2.301   5.224
 2701WAT     H2 8623   5.474   2.187   5.291
 2702WAT      O 8624   3.822   2.096   5.637
 2702WAT     H1 8625   3.757   2.069   5.572
 2702WAT     H2 8626   3.906   2.085   5.591
 2703WAT      O 8627   5.572   2.330   5.698
 2703WAT     H1 8628   5.610   2.251   5.659
 2703WAT     H2 8629   5.637   2.398   5.681
 2704WAT      O 8630   5.480   2.273   4.930
 2704WAT     H1 8631   5.504   2.364   4.917
 2704WAT     H2 8632   5.459   2.267   5.023
 2705WAT      O 8633   5.118   1.576   5.059
 2705WAT     H1 8634   5.159   1.557   4.975
 2705WAT     H2 8635   5.086   1.491   5.090
 2706WAT      O 8636   5.467   2.067   5.429
 2706WAT     H1 8637   5.430   1.990   5.386
 2706WAT     H2 8638   5.394   2.105   5.478
 2707WAT      O 8639   3.744   1.817   5.231
 2707WAT     H1 8640   3.653   1.844   5.214
 2707WAT     H2 8641   3.791   1.844   5.152
 2708WAT      O 8642   5.394   1.889   5.760
 2708WAT     H1 8643   5.447   1.841   5.696
 2708WAT     H2 8644   5.453   1.903   5.834
 2709WAT      O 8645   3.999   1.723   5.023
 2709WAT     H1 8646   4.068   1.679   4.974
 2709WAT     H2 8647   3.926   1.730   4.960
 2710WAT      O 8648   3.962   1.328   4.926
 2710WAT     H1 8649   4.035   1.382   4.958
 2710WAT     H2 8650   3.990   1.301   4.838
 2711WAT      O 8651   5.345   1.815   5.353
 2711WAT     H1 8652   5.393   1.791   5.432
 2711WAT     H2 8653   5.324   1.732   5.311
 2712WAT      O 8654   5.487   1.679   5.606
 2712WAT     H1 8655   5.476   1.663   5.700
 2712WAT     H2 8656   5.563   1.627   5.582
 2713WAT      O 8657   5.575   1.461   4.931
 2713WAT     H1 8658   5.668   1.449   4.910
 2713WAT     H2 8659   5.573   1.471   5.026
 2714WAT      O 8660   5.583   1.539   5.194
 2714WAT     H1 8661   5.503   1.533   5.246
 2714WAT     H2 8662   5.603   1.633   5.192
 2715WAT      O 8663   5.278   2.943   5.593
 2715WAT     H1 8664   5.337   2.911   5.525
 2715WAT     H2 8665   5.303   2.896   5.672
 2716WAT      O 8666   5.225   1.372   5.837
 2716WAT     H1 8667   5.271   1.367   5.754
 2716WAT     H2 8668   5.199   1.464   5.845
 2717WAT      O 8669   5.412   1.336   5.639
 2717WAT     H1 8670   5.405   1.241   5.624
 2717WAT     H2 8671   5.490   1.345   5.694
 2718WAT      O 8672   3.843   2.949   5.535
 2718WAT     H1 8673   3.826   2.886   5.605
 2718WAT     H2 8674   3.756   2.970   5.500
 2719WAT      O 8675   3.906   1.333   5.286
 2719WAT     H1 8676   3.981   1.344   5.228
 2719WAT     H2 8677   3.858   1.416   5.280
 2720WAT      O 8678   4.558   1.544   5.586
 2720WAT     H1 8679   4.478   1.505   5.550
 2720WAT     H2 8680   4.610   1.469   5.615
 2721WAT      O 8681   5.010   1.210   5.708
 2721WAT     H1 8682   5.070   1.267   5.757
 2721WAT     H2 8683   4.936   1.267   5.686
 2722WAT      O 8684   5.324   1.250   5.237
 2722WAT     H1 8685   5.342   1.341   5.263
 2722WAT     H2 8686   5.245   1.227   5.284
 2723WAT      O 8687   4.002   2.818   5.281
 2723WAT     H1 8688   3.951   2.857   5.210
 2723WAT     H2 8689   3.996   2.881   5.352
 2724WAT      O 8690   4.142   1.385   5.141
 2724WAT     H1 8691   4.195   1.306   5.128
 2724WAT     H2 8692   4.206   1.453   5.162
 2725WAT      O 8693   4.362   1.359   5.445
 2725WAT     H1 8694   4.299   1.289   5.462
 2725WAT     H2 8695   4.308   1.435   5.424
 2726WAT      O 8696   5.479   2.974   5.412
 2726WAT     H1 8697   5.497   2.905   5.348
 2726WAT     H2 8698   5.410   3.027   5.372
 2727WAT      O 8699   4.264   3.014   5.167
 2727WAT     H1 8700   4.337   2.984   5.113
 2727WAT     H2 8701   4.289   2.989   5.256
 2728WAT      O 8702   4.180   2.625   5.168
 2728WAT     H1 8703   4.117   2.672   5.223
 2728WAT     H2 8704   4.191   2.541   5.212
 2729WAT      O 8705   4.925   2.030   3.783
 2729WAT     H1 8706   4.917   1.939   3.756
 2729WAT     H2 8707   4.884   2.080   3.712
 2730WAT      O 8708   4.738   2.208   3.971
 2730WAT     H1 8709   4.661   2.160   4.000
 2730WAT     H2 8710   4.804   2.140   3.954
 2731WAT      O 8711   4.139   2.240   4.059
 2731WAT     H1 8712   4.057   2.212   4.099
 2731WAT     H2 8713   4.201   2.246   4.131
 2732WAT      O 8714   5.140   2.649   3.849
 2732WAT     H1 8715   5.094   2.571   3.882
 2732WAT     H2 8716   5.222   2.651   3.899
 2733WAT      O 8717   4.138   2.642   4.079
 2733WAT     H1 8718   4.168   2.553   4.060
 2733WAT     H2 8719   4.212   2.698   4.056
 2734WAT      O 8720   3.981   1.735   3.437
 2734WAT     H1 8721   3.892   1.768   3.427
 2734WAT     H2 8722   4.009   1.715   3.348
 2735WAT      O 8723   3.775   1.993   4.025
 2735WAT     H1 8724   3.835   1.919   4.026
 2735WAT     H2 8725   3.778   2.026   3.935
 2736WAT      O 8726   4.681   2.475   3.972
 2736WAT     H1 8727   4.676   2.381   3.956
 2736WAT     H2 8728   4.758   2.485   4.029
 2737WAT      O 8729   3.902   1.537   4.205
 2737WAT     H1 8730   3.884   1.447   4.232
 2737WAT     H2 8731   3.860   1.591   4.272
 2738WAT      O 8732   4.784   1.756   3.994
 2738WAT     H1 8733   4.824   1.670   3.984
 2738WAT     H2 8734   4.777   1.790   3.904
 2739WAT      O 8735   4.198   1.592   3.541
 2739WAT     H1 8736   4.210   1.682   3.571
 2739WAT     H2 8737   4.107   1.589   3.511
 2740WAT      O 8738   5.164   1.506   3.688
 2740WAT     H1 8739   5.246   1.457   3.692
 2740WAT     H2 8740   5.167   1.565   3.763
 2741WAT      O 8741   3.962   1.786   4.065
 2741WAT     H1 8742   4.031   1.812   4.126
 2741WAT     H2 8743   3.932   1.701   4.099
 2742WAT      O 8744   4.383   1.891   3.974
 2742WAT     H1 8745   4.434   1.940   4.038
 2742WAT     H2 8746   4.436   1.813   3.956
 2743WAT      O 8747   5.592   1.707   4.344
 2743WAT     H1 8748   5.522   1.747   4.292
 2743WAT     H2 8749   5.619   1.777   4.404
 2744WAT      O 8750   4.211   1.353   4.400
 2744WAT     H1 8751   4.211   1.406   4.321
 2744WAT     H2 8752   4.128   1.306   4.398
 2745WAT      O 8753   4.851   2.365   3.549
 2745WAT     H1 8754   4.787   2.411   3.495
 2745WAT     H2 8755   4.901   2.435   3.592
 2746WAT      O 8756   4.337   2.319   4.219
 2746WAT     H1 8757   4.303   2.381   4.282
 2746WAT     H2 8758   4.354   2.371   4.140
 2747WAT      O 8759   5.188   1.700   3.965
 2747WAT     H1 8760   5.117   1.728   4.023
 2747WAT     H2 8761   5.223   1.781   3.929
 2748WAT      O 8762   4.179   1.525   4.201
 2748WAT     H1 8763   4.213   1.610   4.172
 2748WAT     H2 8764   4.085   1.540   4.212
 2749WAT      O 8765   4.258   2.515   4.400
 2749WAT     H1 8766   4.319   2.583   4.371
 2749WAT     H2 8767   4.171   2.555   4.390
 2750WAT      O 8768   3.788   2.434   3.288
 2750WAT     H1 8769   3.749   2.483   3.215
 2750WAT     H2 8770   3.812   2.501   3.351
 2751WAT      O 8771   5.349   2.661   4.191
 2751WAT     H1 8772   5.281   2.728   4.190
 2751WAT     H2 8773   5.403   2.681   4.115
 2752WAT      O 8774   5.494   1.644   4.004
 2752WAT     H1 8775   5.399   1.647   4.017
 2752WAT     H2 8776   5.527   1.725   4.043
 2753WAT      O 8777   4.547   1.274   3.834
 2753WAT     H1 8778   4.578   1.219   3.762
 2753WAT     H2 8779   4.454   1.288   3.815
 2754WAT      O 8780   5.103   2.846   4.063
 2754WAT     H1 8781   5.104   2.805   3.976
 2754WAT     H2 8782   5.047   2.923   4.052
 2755WAT      O 8783   5.232   2.518   3.572
 2755WAT     H1 8784   5.221   2.424   3.584
 2755WAT     H2 8785   5.231   2.554   3.660
 2756WAT      O 8786   5.043   2.337   4.195
 2756WAT     H1 8787   5.084   2.315   4.112
 2756WAT     H2 8788   5.115   2.362   4.253
 2757WAT      O 8789   4.787   2.081   3.508
 2757WAT     H1 8790   4.694   2.074   3.530
 2757WAT     H2 8791   4.801   2.175   3.496
 2758WAT      O 8792   5.437   2.175   4.205
 2758WAT     H1 8793   5.354   2.184   4.157
 2758WAT     H2 8794   5.497   2.234   4.159
 2759WAT      O 8795   5.189   2.237   3.558
 2759WAT     H1 8796   5.127   2.203   3.493
 2759WAT     H2 8797   5.187   2.172   3.628
 2760WAT      O 8798   5.133   1.855   4.299
 2760WAT     H1 8799   5.092   1.937   4.324
 2760WAT     H2 8800   5.060   1.796   4.280
 2761WAT      O 8801   4.346   2.133   3.786
 2761WAT     H1 8802   4.307   2.062   3.735
 2761WAT     H2 8803   4.355   2.098   3.874
 2762WAT      O 8804   4.394   2.501   4.002
 2762WAT     H1 8805   4.364   2.441   3.934
 2762WAT     H2 8806   4.489   2.506   3.991
 2763WAT      O 8807   4.218   1.810   4.164
 2763WAT     H1 8808   4.272   1.823   4.086
 2763WAT     H2 8809   4.269   1.849   4.235
 2764WAT      O 8810   5.202   2.859   4.368
 2764WAT     H1 8811   5.156   2.940   4.349
 2764WAT     H2 8812   5.133   2.794   4.383
 2765WAT      O 8813   4.303   2.476   4.667
 2765WAT     H1 8814   4.214   2.498   4.692
 2765WAT     H2 8815   4.304   2.488   4.572
 2766WAT      O 8816   5.007   2.161   3.259
 2766WAT     H1 8817   5.050   2.077   3.244
 2766WAT     H2 8818   5.079   2.224   3.266
 2767WAT      O 8819   4.186   2.163   4.524
 2767WAT     H1 8820   4.171   2.251   4.561
 2767WAT     H2 8821   4.097   2.129   4.510
 2768WAT      O 8822   4.817   2.655   3.655
 2768WAT     H1 8823   4.862   2.729   3.614
 2768WAT     H2 8824   4.812   2.679   3.747
 2769WAT      O 8825   4.365   2.757   4.745
 2769WAT     H1 8826   4.362   2.797   4.659
 2769WAT     H2 8827   4.349   2.664   4.729
 2770WAT      O 8828   5.365   1.286   3.090
 2770WAT     H1 8829   5.335   1.294   3.180
 2770WAT     H2 8830   5.441   1.344   3.085
 2771WAT      O 8831   4.016   2.023   3.536
 2771WAT     H1 8832   4.005   2.095   3.474
 2771WAT     H2 8833   3.986   1.946   3.488
 2772WAT      O 8834   5.561   2.835   4.875
 2772WAT     H1 8835   5.608   2.883   4.943
 2772WAT     H2 8836   5.623   2.829   4.802
 2773WAT      O 8837   3.781   2.340   4.116
 2773WAT     H1 8838   3.788   2.353   4.022
 2773WAT     H2 8839   3.842   2.268   4.135
 2774WAT      O 8840   3.904   2.510   3.757
 2774WAT     H1 8841   3.865   2.524   3.671
 2774WAT     H2 8842   3.994   2.481   3.737
 2775WAT      O 8843   5.500   2.554   4.591
 2775WAT     H1 8844   5.514   2.530   4.499
 2775WAT     H2 8845   5.506   2.470   4.638
 2776WAT      O 8846   4.888   2.925   4.448
 2776WAT     H1 8847   4.938   2.916   4.529
 2776WAT     H2 8848   4.803   2.959   4.477
 2777WAT      O 8849   5.487   1.760   4.687
 2777WAT     H1 8850   5.424   1.811   4.635
 2777WAT     H2 8851   5.453   1.670   4.682
 2778WAT      O 8852   3.786   2.444   4.370
 2778WAT     H1 8853   3.802   2.397   4.288
 2778WAT     H2 8854   3.833   2.394   4.436
 2779WAT      O 8855   4.263   1.357   3.874
 2779WAT     H1 8856   4.219   1.435   3.840
 2779WAT     H2 8857   4.319   1.389   3.944
 2780WAT      O 8858   4.692   1.644   4.434
 2780WAT     H1 8859   4.645   1.665   4.515
 2780WAT     H2 8860   4.652   1.562   4.404
 2781WAT      O 8861   5.192   1.765   4.547
 2781WAT     H1 8862   5.107   1.736   4.579
 2781WAT     H2 8863   5.176   1.791   4.456
 2782WAT      O 8864   4.902   1.916   4.756
 2782WAT     H1 8865   4.934   1.832   4.724
 2782WAT     H2 8866   4.981   1.967   4.773
 2783WAT      O 8867   4.575   1.319   3.361
 2783WAT     H1 8868   4.512   1.319   3.434
 2783WAT     H2 8869   4.566   1.232   3.323
 2784WAT      O 8870   4.468   1.411   4.060
 2784WAT     H1 8871   4.496   1.502   4.051
 2784WAT     H2 8872   4.522   1.363   3.998
 2785WAT      O 8873   4.243   1.869   3.646
 2785WAT     H1 8874   4.220   1.847   3.737
 2785WAT     H2 8875   4.165   1.913   3.612
 2786WAT      O 8876   4.966   1.870   3.506
 2786WAT     H1 8877   4.906   1.942   3.488
 2786WAT     H2 8878   5.020   1.864   3.427
 2787WAT      O 8879   4.487   1.959   4.713
 2787WAT     H1 8880   4.477   1.865   4.698
 2787WAT     H2 8881   4.571   1.981   4.674
 2788WAT      O 8882   4.828   1.735   3.710
 2788WAT     H1 8883   4.866   1.765   3.628
 2788WAT     H2 8884   4.861   1.646   3.720
 2789WAT      O 8885   4.000   1.601   4.528
 2789WAT     H1 8886   3.960   1.685   4.549
 2789WAT     H2 8887   3.931   1.536   4.546
 2790WAT      O 8888   4.657   1.609   4.836
 2790WAT     H1 8889   4.588   1.588   4.899
 2790WAT     H2 8890   4.731   1.637   4.889
 2791WAT      O 8891   3.730   1.393   3.932
 2791WAT     H1 8892   3.701   1.450   4.003
 2791WAT     H2 8893   3.804   1.344   3.969
 2792WAT      O 8894   3.750   1.787   3.052
 2792WAT     H1 8895   3.740   1.881   3.067
 2792WAT     H2 8896   3.712   1.773   2.965
 2793WAT      O 8897   4.885   1.993   4.119
 2793WAT     H1 8898   4.812   2.044   4.154
 2793WAT     H2 8899   4.845   1.911   4.089
 2794WAT      O 8900   4.529   1.659   3.959
 2794WAT     H1 8901   4.529   1.617   3.873
 2794WAT     H2 8902   4.618   1.692   3.970
 2795WAT      O 8903   4.114   1.647   3.856
 2795WAT     H1 8904   4.080   1.696   3.931
 2795WAT     H2 8905   4.037   1.604   3.819
 2796WAT      O 8906   4.931   1.538   4.060
 2796WAT     H1 8907   4.933   1.583   4.145
 2796WAT     H2 8908   4.906   1.448   4.081
 2797WAT      O 8909   5.273   1.279   4.644
 2797WAT     H1 8910   5.306   1.206   4.697
 2797WAT     H2 8911   5.277   1.247   4.554
 2798WAT      O 8912   3.944   2.380   4.586
 2798WAT     H1 8913   3.905   2.317   4.647
 2798WAT     H2 8914   3.975   2.451   4.642
 2799WAT      O 8915   4.559   2.067   4.134
 2799WAT     H1 8916   4.595   2.018   4.209
 2799WAT     H2 8917   4.540   2.154   4.168
 2800WAT      O 8918   3.846   1.540   3.747
 2800WAT     H1 8919   3.817   1.504   3.831
 2800WAT     H2 8920   3.839   1.467   3.686
 2801WAT      O 8921   4.338   1.970   4.366
 2801WAT     H1 8922   4.307   2.057   4.388
 2801WAT     H2 8923   4.433   1.976   4.370
 2802WAT      O 8924   5.266   2.291   4.005
 2802WAT     H1 8925   5.338   2.340   3.966
 2802WAT     H2 8926   5.246   2.223   3.940
 2803WAT      O 8927   4.813   1.430   3.419
 2803WAT     H1 8928   4.731   1.380   3.412
 2803WAT     H2 8929   4.793   1.514   3.378
 2804WAT      O 8930   4.805   2.298   4.595
 2804WAT     H1 8931   4.798   2.207   4.567
 2804WAT     H2 8932   4.741   2.307   4.665
 2805WAT      O 8933   5.084   1.867   3.250
 2805WAT     H1 8934   5.173   1.898   3.231
 2805WAT     H2 8935   5.081   1.780   3.210
 2806WAT      O 8936   4.195   2.358   3.790
 2806WAT     H1 8937   4.247   2.278   3.783
 2806WAT     H2 8938   4.150   2.351   3.874
 2807WAT      O 8939   3.943   2.055   4.481
 2807WAT     H1 8940   3.906   2.121   4.540
 2807WAT     H2 8941   3.915   1.971   4.518
 2808WAT      O 8942   4.262   2.099   4.769
 2808WAT     H1 8943   4.234   2.115   4.679
 2808WAT     H2 8944   4.341   2.045   4.760
 2809WAT      O 8945   4.798   2.580   4.569
 2809WAT     H1 8946   4.799   2.486   4.547
 2809WAT     H2 8947   4.727   2.589   4.632
 2810WAT      O 8948   5.312   1.998   3.196
 2810WAT     H1 8949   5.303   2.041   3.111
 2810WAT     H2 8950   5.383   2.045   3.239
 2811WAT      O 8951   5.420   2.245   4.503
 2811WAT     H1 8952   5.346   2.303   4.483
 2811WAT     H2 8953   5.471   2.244   4.422
 2812WAT      O 8954   5.415   2.684   3.467
 2812WAT     H1 8955   5.351   2.619   3.496
 2812WAT     H2 8956   5.375   2.724   3.390
 2813WAT      O 8957   4.972   2.417   3.853
 2813WAT     H1 8958   5.007   2.357   3.787
 2813WAT     H2 8959   4.883   2.384   3.870
 2814WAT      O 8960   4.580   2.493   3.594
 2814WAT     H1 8961   4.649   2.547   3.632
 2814WAT     H2 8962   4.502   2.547   3.597
 2815WAT      O 8963   3.794   2.054   3.142
 2815WAT     H1 8964   3.881   2.083   3.172
 2815WAT     H2 8965   3.745   2.136   3.131
 2816WAT      O 8966   4.741   2.745   4.277
 2816WAT     H1 8967   4.804   2.765   4.346
 2816WAT     H2 8968   4.777   2.667   4.234
 2817WAT      O 8969   4.101   1.227   3.602
 2817WAT     H1 8970   4.088   1.226   3.697
 2817WAT     H2 8971   4.019   1.260   3.567
 2818WAT      O 8972   4.869   2.544   4.150
 2818WAT     H1 8973   4.932   2.474   4.161
 2818WAT     H2 8974   4.922   2.622   4.132
 2819WAT      O 8975   5.253   2.573   3.122
 2819WAT     H1 8976   5.230   2.501   3.181
 2819WAT     H2 8977   5.214   2.549   3.038
 2820WAT      O 8978   5.046   2.625   4.470
 2820WAT     H1 8979   5.079   2.683   4.539
 2820WAT     H2 8980   4.954   2.611   4.493
 2821WAT      O 8981   3.800   1.403   4.548
 2821WAT     H1 8982   3.729   1.423   4.609
 2821WAT     H2 8983   3.844   1.326   4.586
 2822WAT      O 8984   5.211   2.365   3.288
 2822WAT     H1 8985   5.182   2.411   3.367
 2822WAT     H2 8986   5.291   2.319   3.315
 2823WAT      O 8987   3.830   2.802   4.646
 2823WAT     H1 8988   3.840   2.708   4.633
 2823WAT     H2 8989   3.764   2.829   4.582
 2824WAT      O 8990   4.629   2.629   4.787
 2824WAT     H1 8991   4.596   2.557   4.841
 2824WAT     H2 8992   4.561   2.696   4.794
 2825WAT      O 8993   3.992   2.235   3.355
 2825WAT     H1 8994   3.932   2.310   3.357
 2825WAT     H2 8995   4.040   2.245   3.273
 2826WAT      O 8996   4.950   1.652   4.323
 2826WAT     H1 8997   4.987   1.571   4.356
 2826WAT     H2 8998   4.864   1.659   4.365
 2827WAT      O 8999   5.287   1.548   3.404
 2827WAT     H1 9000   5.224   1.559   3.333
 2827WAT     H2 9001   5.237   1.569   3.483
 2828WAT      O 9002   4.645   1.918   4.346
 2828WAT     H1 9003   4.696   1.965   4.412
 2828WAT     H2 9004   4.660   1.826   4.366
 2829WAT      O 9005   4.887   1.448   3.690
 2829WAT     H1 9006   4.874   1.450   3.596
 2829WAT     H2 9007   4.982   1.453   3.701
 2830WAT      O 9008   5.367   1.540   4.430
 2830WAT     H1 9009   5.317   1.614   4.464
 2830WAT     H2 9010   5.448   1.579   4.398
 2831WAT      O 9011   5.196   2.065   3.775
 2831WAT     H1 9012   5.101   2.064   3.792
 2831WAT     H2 9013   5.228   1.986   3.818
 2832WAT      O 9014   5.397   2.781   3.942
 2832WAT     H1 9015   5.409   2.863   3.989
 2832WAT     H2 9016   5.483   2.760   3.907
 2833WAT      O 9017   4.143   2.991   3.910
 2833WAT     H1 9018   4.217   2.935   3.936
 2833WAT     H2 9019   4.182   3.077   3.894
 2834WAT      O 9020   3.832   2.597   3.497
 2834WAT     H1 9021   3.739   2.622   3.496
 2834WAT     H2 9022   3.878   2.680   3.486
 2835WAT      O 9023   4.044   2.909   4.828
 2835WAT     H1 9024   4.124   2.941   4.870
 2835WAT     H2 9025   3.993   2.873   4.900
 2836WAT      O 9026   4.928   2.519   4.823
 2836WAT     H1 9027   4.867   2.522   4.749
 2836WAT     H2 9028   4.897   2.447   4.877
 2837WAT      O 9029   5.071   2.893   4.683
 2837WAT     H1 9030   5.166   2.884   4.680
 2837WAT     H2 9031   5.055   2.958   4.751
 2838WAT      O 9032   3.817   2.159   4.723
 2838WAT     H1 9033   3.866   2.100   4.780
 2838WAT     H2 9034   3.742   2.186   4.776
 2839WAT      O 9035   4.522   2.299   4.676
 2839WAT     H1 9036   4.445   2.355   4.667
 2839WAT     H2 9037   4.540   2.269   4.587
 2840WAT      O 9038   5.236   2.472   4.732
 2840WAT     H1 9039   5.310   2.505   4.681
 2840WAT     H2 9040   5.159   2.488   4.676
 2841WAT      O 9041   4.019   1.972   4.812
 2841WAT     H1 9042   4.023   1.943   4.903
 2841WAT     H2 9043   4.104   2.012   4.796
 2842WAT      O 9044   4.214   1.829   4.609
 2842WAT     H1 9045   4.159   1.782   4.546
 2842WAT     H2 9046   4.280   1.873   4.555
 2843WAT      O 9047   5.103   2.275   4.585
 2843WAT     H1 9048   5.145   2.292   4.669
 2843WAT     H2 9049   5.010   2.290   4.601
 2844WAT      O 9050   5.151   2.010   4.785
 2844WAT     H1 9051   5.209   1.935   4.777
 2844WAT     H2 9052   5.168   2.063   4.708
 2845WAT      O 9053   4.262   1.526   4.617
 2845WAT     H1 9054   4.253   1.465   4.544
 2845WAT     H2 9055   4.204   1.599   4.594
 2846WAT      O 9056   4.539   1.382   4.320
 2846WAT     H1 9057   4.494   1.385   4.236
 2846WAT     H2 9058   4.475   1.342   4.380
 2847WAT      O 9059   4.578   2.272   4.383
 2847WAT     H1 9060   4.621   2.356   4.365
 2847WAT     H2 9061   4.487   2.285   4.358
 2848WAT      O 9062   4.813   2.044   4.521
 2848WAT     H1 9063   4.826   1.985   4.596
 2848WAT     H2 9064   4.899   2.048   4.479
 2849WAT      O 9065   5.046   2.100   4.379
 2849WAT     H1 9066   4.995   2.153   4.317
 2849WAT     H2 9067   5.082   2.163   4.441
 2850WAT      O 9068   4.365   2.903   4.494
 2850WAT     H1 9069   4.310   2.974   4.462
 2850WAT     H2 9070   4.389   2.854   4.416
 2851WAT      O 9071   4.490   1.699   4.646
 2851WAT     H1 9072   4.549   1.668   4.715
 2851WAT     H2 9073   4.408   1.651   4.661
 2852WAT      O 9074   4.972   1.661   4.670
 2852WAT     H1 9075   4.903   1.594   4.663
 2852WAT     H2 9076   5.044   1.616   4.714
 2853WAT      O 9077   5.035   1.320   3.276
 2853WAT     H1 9078   5.063   1.236   3.311
 2853WAT     H2 9079   4.957   1.343   3.327
 2854WAT      O 9080   4.650   3.026   4.519
 2854WAT     H1 9081   4.643   3.116   4.550
 2854WAT     H2 9082   4.560   2.994   4.517
 2855WAT      O 9083   4.488   1.444   3.120
 2855WAT     H1 9084   4.454   1.376   3.062
 2855WAT     H2 9085   4.508   1.397   3.201
 2856WAT      O 9086   3.789   2.758   3.851
 2856WAT     H1 9087   3.824   2.672   3.827
 2856WAT     H2 9088   3.833   2.779   3.933
 2857WAT      O 9089   4.250   2.592   3.616
 2857WAT     H1 9090   4.220   2.579   3.706
 2857WAT     H2 9091   4.239   2.506   3.575
 2858WAT      O 9092   3.839   2.845   4.124
 2858WAT     H1 9093   3.795   2.863   4.207
 2858WAT     H2 9094   3.896   2.921   4.110
 2859WAT      O 9095   5.403   2.796   4.552
 2859WAT     H1 9096   5.342   2.801   4.478
 2859WAT     H2 9097   5.416   2.702   4.566
 2860WAT      O 9098   5.528   2.570   3.088
 2860WAT     H1 9099   5.443   2.576   3.132
 2860WAT     H2 9100   5.544   2.658   3.055
 2861WAT      O 9101   5.472   2.244   3.337
 2861WAT     H1 9102   5.548   2.301   3.346
 2861WAT     H2 9103   5.474   2.187   3.414
 2862WAT      O 9104   3.822   2.096   3.759
 2862WAT     H1 9105   3.757   2.069   3.694
 2862WAT     H2 9106   3.906   2.085   3.715
 2863WAT      O 9107   5.573   2.330   3.821
 2863WAT     H1 9108   5.610   2.251   3.781
 2863WAT     H2 9109   5.637   2.398   3.803
 2864WAT      O 9110   5.271   2.468   4.362
 2864WAT     H1 9111   5.190   2.511   4.389
 2864WAT     H2 9112   5.312   2.529   4.301
 2865WAT      O 9113   5.479   2.273   3.053
 2865WAT     H1 9114   5.505   2.364   3.039
 2865WAT     H2 9115   5.459   2.267   3.146
 2866WAT      O 9116   5.118   1.576   3.182
 2866WAT     H1 9117   5.159   1.557   3.098
 2866WAT     H2 9118   5.086   1.491   3.213
 2867WAT      O 9119   5.467   2.067   3.552
 2867WAT     H1 9120   5.430   1.990   3.509
 2867WAT     H2 9121   5.394   2.105   3.600
 2868WAT      O 9122   3.927   2.136   4.214
 2868WAT     H1 9123   3.963   2.125   4.303
 2868WAT     H2 9124   3.869   2.060   4.203
 2869WAT      O 9125   5.407   1.981   4.515
 2869WAT     H1 9126   5.383   1.959   4.425
 2869WAT     H2 9127   5.431   2.074   4.511
 2870WAT      O 9128   3.881   1.826   4.605
 2870WAT     H1 9129   3.791   1.823   4.638
 2870WAT     H2 9130   3.935   1.847   4.681
 2871WAT      O 9131   5.250   1.504   4.793
 2871WAT     H1 9132   5.338   1.505   4.831
 2871WAT     H2 9133   5.251   1.431   4.732
 2872WAT      O 9134   3.743   1.817   3.354
 2872WAT     H1 9135   3.653   1.844   3.336
 2872WAT     H2 9136   3.792   1.844   3.275
 2873WAT      O 9137   5.394   1.890   3.882
 2873WAT     H1 9138   5.446   1.840   3.819
 2873WAT     H2 9139   5.453   1.904   3.956
 2874WAT      O 9140   5.413   1.898   4.234
 2874WAT     H1 9141   5.318   1.895   4.245
 2874WAT     H2 9142   5.431   1.989   4.210
 2875WAT      O 9143   3.998   1.723   3.145
 2875WAT     H1 9144   4.069   1.681   3.096
 2875WAT     H2 9145   3.926   1.730   3.083
 2876WAT      O 9146   3.962   1.328   3.048
 2876WAT     H1 9147   4.035   1.381   3.082
 2876WAT     H2 9148   3.990   1.301   2.961
 2877WAT      O 9149   5.345   1.815   3.476
 2877WAT     H1 9150   5.393   1.791   3.555
 2877WAT     H2 9151   5.324   1.732   3.434
 2878WAT      O 9152   3.932   1.253   4.039
 2878WAT     H1 9153   3.997   1.198   3.995
 2878WAT     H2 9154   3.974   1.279   4.121
 2879WAT      O 9155   5.487   1.679   3.729
 2879WAT     H1 9156   5.476   1.663   3.823
 2879WAT     H2 9157   5.563   1.627   3.705
 2880WAT      O 9158   5.322   1.272   4.375
 2880WAT     H1 9159   5.384   1.335   4.411
 2880WAT     H2 9160   5.336   1.276   4.280
 2881WAT      O 9161   5.575   1.461   3.053
 2881WAT     H1 9162   5.668   1.449   3.032
 2881WAT     H2 9163   5.573   1.471   3.148
 2882WAT      O 9164   5.583   1.539   3.317
 2882WAT     H1 9165   5.503   1.533   3.369
 2882WAT     H2 9166   5.603   1.632   3.314
 2883WAT      O 9167   5.277   2.943   3.715
 2883WAT     H1 9168   5.337   2.911   3.648
 2883WAT     H2 9169   5.303   2.895   3.794
 2884WAT      O 9170   3.907   1.269   4.314
 2884WAT     H1 9171   3.872   1.315   4.390
 2884WAT     H2 9172   3.874   1.180   4.322
 2885WAT      O 9173   4.068   2.586   4.730
 2885WAT     H1 9174   4.063   2.549   4.819
 2885WAT     H2 9175   4.081   2.680   4.744
 2886WAT      O 9176   4.438   2.742   4.290
 2886WAT     H1 9177   4.414   2.768   4.201
 2886WAT     H2 9178   4.532   2.758   4.296
 2887WAT      O 9179   4.658   1.387   4.667
 2887WAT     H1 9180   4.652   1.448   4.740
 2887WAT     H2 9181   4.752   1.377   4.651
 2888WAT      O 9182   4.922   1.355   4.630
 2888WAT     H1 9183   4.983   1.386   4.563
 2888WAT     H2 9184   4.977   1.305   4.691
 2889WAT      O 9185   5.564   2.943   4.369
 2889WAT     H1 9186   5.514   2.983   4.298
 2889WAT     H2 9187   5.504   2.882   4.410
 2890WAT      O 9188   3.974   1.222   4.641
 2890WAT     H1 9189   4.029   1.204   4.565
 2890WAT     H2 9190   3.981   1.143   4.695
 2891WAT      O 9191   4.051   2.881   4.442
 2891WAT     H1 9192   3.992   2.868   4.516
 2891WAT     H2 9193   4.051   2.797   4.396
 2892WAT      O 9194   4.997   1.211   4.263
 2892WAT     H1 9195   4.910   1.243   4.241
 2892WAT     H2 9196   4.984   1.162   4.345
 2893WAT      O 9197   5.087   1.430   4.402
 2893WAT     H1 9198   5.054   1.349   4.362
 2893WAT     H2 9199   5.181   1.427   4.389
 2894WAT      O 9200   5.332   3.008   4.098
 2894WAT     H1 9201   5.286   3.083   4.061
 2894WAT     H2 9202   5.268   2.937   4.093
 2895WAT      O 9203   4.015   2.618   4.337
 2895WAT     H1 9204   3.942   2.556   4.331
 2895WAT     H2 9205   4.021   2.656   4.249
 2896WAT      O 9206   4.375   2.839   4.016
 2896WAT     H1 9207   4.427   2.778   3.963
 2896WAT     H2 9208   4.440   2.890   4.064
 2897WAT      O 9209   4.649   2.928   4.098
 2897WAT     H1 9210   4.678   2.902   4.010
 2897WAT     H2 9211   4.699   2.873   4.157
 2898WAT      O 9212   4.771   1.302   4.156
 2898WAT     H1 9213   4.693   1.349   4.185
 2898WAT     H2 9214   4.741   1.211   4.144
 2899WAT      O 9215   5.225   1.372   3.961
 2899WAT     H1 9216   5.271   1.367   3.877
 2899WAT     H2 9217   5.199   1.464   3.968
 2900WAT      O 9218   5.411   1.335   3.762
 2900WAT     H1 9219   5.406   1.241   3.747
 2900WAT     H2 9220   5.489   1.346   3.816
 2901WAT      O 9221   3.843   2.949   3.657
 2901WAT     H1 9222   3.826   2.886   3.728
 2901WAT     H2 9223   3.756   2.970   3.623
 2902WAT      O 9224   3.905   1.332   3.408
 2902WAT     H1 9225   3.981   1.344   3.351
 2902WAT     H2 9226   3.859   1.416   3.403
 2903WAT      O 9227   4.558   1.544   3.709
 2903WAT     H1 9228   4.478   1.506   3.672
 2903WAT     H2 9229   4.610   1.468   3.736
 2904WAT      O 9230   5.010   1.210   3.831
 2904WAT     H1 9231   5.070   1.267   3.879
 2904WAT     H2 9232   4.936   1.267   3.809
 2905WAT      O 9233   5.324   1.250   3.360
 2905WAT     H1 9234   5.342   1.341   3.386
 2905WAT     H2 9235   5.245   1.227   3.407
 2906WAT      O 9236   4.142   1.386   3.261
 2906WAT     H1 9237   4.194   1.306   3.250
 2906WAT     H2 9238   4.206   1.453   3.286
 2907WAT      O 9239   4.362   1.359   3.567
 2907WAT     H1 9240   4.299   1.289   3.584
 2907WAT     H2 9241   4.308   1.436   3.546
 2908WAT      O 9242   4.656   3.020   4.835
 2908WAT     H1 9243   4.749   2.997   4.839
 2908WAT     H2 9244   4.654   3.103   4.787
 2909WAT      O 9245   5.479   2.974   3.535
 2909WAT     H1 9246   5.497   2.906   3.470
 2909WAT     H2 9247   5.410   3.027   3.495
 2910WAT      O 9248   4.374   1.287   4.811
 2910WAT     H1 9249   4.346   1.337   4.734
 2910WAT     H2 9250   4.413   1.207   4.775
 2911WAT      O 9251   5.034   1.229   4.869
 2911WAT     H1 9252   5.023   1.260   4.959
 2911WAT     H2 9253   5.117   1.268   4.840
 2912WAT      O 9254   5.313   2.944   4.816
 2912WAT     H1 9255   5.392   2.893   4.798
 2912WAT     H2 9256   5.342   3.011   4.878
 2913WAT      O 9257   5.140   2.648   1.971
 2913WAT     H1 9258   5.094   2.571   2.005
 2913WAT     H2 9259   5.221   2.652   2.021
 2914WAT      O 9260   3.981   1.736   1.559
 2914WAT     H1 9261   3.892   1.768   1.550
 2914WAT     H2 9262   4.009   1.715   1.470
 2915WAT      O 9263   3.775   1.993   2.147
 2915WAT     H1 9264   3.835   1.918   2.148
 2915WAT     H2 9265   3.778   2.025   2.057
 2916WAT      O 9266   3.902   1.536   2.327
 2916WAT     H1 9267   3.884   1.447   2.355
 2916WAT     H2 9268   3.860   1.591   2.394
 2917WAT      O 9269   4.783   1.756   2.116
 2917WAT     H1 9270   4.824   1.670   2.107
 2917WAT     H2 9271   4.777   1.790   2.027
 2918WAT      O 9272   4.199   1.593   1.663
 2918WAT     H1 9273   4.209   1.683   1.695
 2918WAT     H2 9274   4.107   1.588   1.634
 2919WAT      O 9275   5.164   1.506   1.810
 2919WAT     H1 9276   5.246   1.457   1.814
 2919WAT     H2 9277   5.167   1.565   1.885
 2920WAT      O 9278   3.962   1.785   2.188
 2920WAT     H1 9279   4.032   1.812   2.248
 2920WAT     H2 9280   3.932   1.701   2.221
 2921WAT      O 9281   4.383   1.891   2.096
 2921WAT     H1 9282   4.434   1.940   2.160
 2921WAT     H2 9283   4.436   1.813   2.079
 2922WAT      O 9284   5.592   1.707   2.467
 2922WAT     H1 9285   5.522   1.747   2.415
 2922WAT     H2 9286   5.619   1.777   2.527
 2923WAT      O 9287   4.211   1.353   2.523
 2923WAT     H1 9288   4.211   1.406   2.443
 2923WAT     H2 9289   4.128   1.306   2.521
 2924WAT      O 9290   5.188   1.700   2.087
 2924WAT     H1 9291   5.117   1.728   2.145
 2924WAT     H2 9292   5.223   1.781   2.051
 2925WAT      O 9293   4.179   1.525   2.324
 2925WAT     H1 9294   4.213   1.610   2.294
 2925WAT     H2 9295   4.085   1.540   2.335
 2926WAT      O 9296   3.787   2.434   1.410
 2926WAT     H1 9297   3.749   2.483   1.337
 2926WAT     H2 9298   3.812   2.501   1.473
 2927WAT      O 9299   5.349   2.661   2.314
 2927WAT     H1 9300   5.281   2.728   2.313
 2927WAT     H2 9301   5.403   2.681   2.237
 2928WAT      O 9302   5.494   1.644   2.127
 2928WAT     H1 9303   5.399   1.647   2.140
 2928WAT     H2 9304   5.527   1.725   2.166
 2929WAT      O 9305   4.547   1.275   1.956
 2929WAT     H1 9306   4.578   1.219   1.884
 2929WAT     H2 9307   4.454   1.288   1.938
 2930WAT      O 9308   5.232   2.518   1.694
 2930WAT     H1 9309   5.221   2.423   1.707
 2930WAT     H2 9310   5.232   2.554   1.783
 2931WAT      O 9311   4.785   1.707   1.328
 2931WAT     H1 9312   4.692   1.724   1.339
 2931WAT     H2 9313   4.817   1.781   1.276
 2932WAT      O 9314   5.437   2.176   2.327
 2932WAT     H1 9315   5.354   2.184   2.279
 2932WAT     H2 9316   5.497   2.234   2.281
 2933WAT      O 9317   5.189   2.237   1.680
 2933WAT     H1 9318   5.127   2.203   1.615
 2933WAT     H2 9319   5.187   2.172   1.751
 2934WAT      O 9320   5.133   1.855   2.421
 2934WAT     H1 9321   5.091   1.937   2.447
 2934WAT     H2 9322   5.061   1.796   2.403
 2935WAT      O 9323   4.346   2.133   1.908
 2935WAT     H1 9324   4.307   2.062   1.858
 2935WAT     H2 9325   4.355   2.098   1.997
 2936WAT      O 9326   4.218   1.810   2.286
 2936WAT     H1 9327   4.272   1.822   2.208
 2936WAT     H2 9328   4.270   1.848   2.357
 2937WAT      O 9329   5.007   2.161   1.382
 2937WAT     H1 9330   5.051   2.077   1.366
 2937WAT     H2 9331   5.079   2.224   1.388
 2938WAT      O 9332   5.365   1.286   1.212
 2938WAT     H1 9333   5.335   1.294   1.302
 2938WAT     H2 9334   5.441   1.344   1.207
 2939WAT      O 9335   4.017   2.023   1.658
 2939WAT     H1 9336   4.005   2.095   1.597
 2939WAT     H2 9337   3.986   1.946   1.610
 2940WAT      O 9338   3.781   2.340   2.239
 2940WAT     H1 9339   3.788   2.353   2.144
 2940WAT     H2 9340   3.842   2.269   2.258
 2941WAT      O 9341   3.905   2.510   1.879
 2941WAT     H1 9342   3.865   2.524   1.794
 2941WAT     H2 9343   3.994   2.481   1.859
 2942WAT      O 9344   5.083   2.953   1.513
 2942WAT     H1 9345   5.069   2.924   1.603
 2942WAT     H2 9346   5.069   2.875   1.460
 2943WAT      O 9347   4.332   2.931   1.690
 2943WAT     H1 9348   4.315   2.839   1.670
 2943WAT     H2 9349   4.246   2.967   1.715
 2944WAT      O 9350   5.054   2.705   1.369
 2944WAT     H1 9351   4.985   2.704   1.303
 2944WAT     H2 9352   5.129   2.662   1.326
 2945WAT      O 9353   5.486   1.760   2.809
 2945WAT     H1 9354   5.425   1.811   2.757
 2945WAT     H2 9355   5.453   1.670   2.804
 2946WAT      O 9356   3.787   2.444   2.493
 2946WAT     H1 9357   3.802   2.398   2.411
 2946WAT     H2 9358   3.833   2.392   2.559
 2947WAT      O 9359   4.263   1.357   1.996
 2947WAT     H1 9360   4.219   1.435   1.963
 2947WAT     H2 9361   4.319   1.389   2.067
 2948WAT      O 9362   4.692   1.644   2.557
 2948WAT     H1 9363   4.646   1.665   2.638
 2948WAT     H2 9364   4.652   1.562   2.526
 2949WAT      O 9365   5.192   1.765   2.669
 2949WAT     H1 9366   5.107   1.736   2.702
 2949WAT     H2 9367   5.176   1.790   2.579
 2950WAT      O 9368   4.902   1.916   2.879
 2950WAT     H1 9369   4.933   1.832   2.846
 2950WAT     H2 9370   4.981   1.967   2.895
 2951WAT      O 9371   4.574   1.319   1.484
 2951WAT     H1 9372   4.513   1.319   1.557
 2951WAT     H2 9373   4.566   1.232   1.446
 2952WAT      O 9374   4.467   1.411   2.182
 2952WAT     H1 9375   4.497   1.502   2.174
 2952WAT     H2 9376   4.522   1.363   2.121
 2953WAT      O 9377   4.243   1.870   1.769
 2953WAT     H1 9378   4.219   1.847   1.859
 2953WAT     H2 9379   4.165   1.913   1.734
 2954WAT      O 9380   4.966   1.870   1.629
 2954WAT     H1 9381   4.906   1.942   1.611
 2954WAT     H2 9382   5.020   1.864   1.550
 2955WAT      O 9383   4.827   1.734   1.832
 2955WAT     H1 9384   4.866   1.766   1.751
 2955WAT     H2 9385   4.861   1.645   1.843
 2956WAT      O 9386   4.000   1.600   2.651
 2956WAT     H1 9387   3.960   1.685   2.671
 2956WAT     H2 9388   3.931   1.536   2.669
 2957WAT      O 9389   4.657   1.608   2.958
 2957WAT     H1 9390   4.588   1.589   3.021
 2957WAT     H2 9391   4.731   1.638   3.011
 2958WAT      O 9392   3.730   1.393   2.055
 2958WAT     H1 9393   3.701   1.450   2.126
 2958WAT     H2 9394   3.804   1.344   2.092
 2959WAT      O 9395   3.749   1.787   1.174
 2959WAT     H1 9396   3.740   1.881   1.189
 2959WAT     H2 9397   3.712   1.773   1.087
 2960WAT      O 9398   4.529   1.660   2.082
 2960WAT     H1 9399   4.530   1.617   1.997
 2960WAT     H2 9400   4.618   1.692   2.093
 2961WAT      O 9401   4.114   1.648   1.978
 2961WAT     H1 9402   4.080   1.696   2.054
 2961WAT     H2 9403   4.037   1.604   1.942
 2962WAT      O 9404   4.534   1.760   1.382
 2962WAT     H1 9405   4.547   1.756   1.477
 2962WAT     H2 9406   4.496   1.846   1.366
 2963WAT      O 9407   4.931   1.538   2.183
 2963WAT     H1 9408   4.933   1.583   2.267
 2963WAT     H2 9409   4.906   1.448   2.204
 2964WAT      O 9410   4.435   1.993   1.320
 2964WAT     H1 9411   4.379   1.947   1.257
 2964WAT     H2 9412   4.507   2.027   1.268
 2965WAT      O 9413   5.273   1.279   2.767
 2965WAT     H1 9414   5.306   1.205   2.819
 2965WAT     H2 9415   5.277   1.248   2.676
 2966WAT      O 9416   3.846   1.540   1.869
 2966WAT     H1 9417   3.817   1.504   1.953
 2966WAT     H2 9418   3.839   1.467   1.808
 2967WAT      O 9419   4.191   2.391   1.548
 2967WAT     H1 9420   4.113   2.337   1.533
 2967WAT     H2 9421   4.264   2.339   1.514
 2968WAT      O 9422   4.812   1.430   1.542
 2968WAT     H1 9423   4.731   1.380   1.534
 2968WAT     H2 9424   4.793   1.514   1.500
 2969WAT      O 9425   5.084   1.867   1.371
 2969WAT     H1 9426   5.173   1.898   1.354
 2969WAT     H2 9427   5.081   1.780   1.332
 2970WAT      O 9428   4.195   2.358   1.912
 2970WAT     H1 9429   4.247   2.278   1.907
 2970WAT     H2 9430   4.150   2.352   1.996
 2971WAT      O 9431   4.684   2.485   1.439
 2971WAT     H1 9432   4.719   2.559   1.390
 2971WAT     H2 9433   4.601   2.516   1.475
 2972WAT      O 9434   5.311   1.998   1.318
 2972WAT     H1 9435   5.303   2.041   1.233
 2972WAT     H2 9436   5.383   2.044   1.361
 2973WAT      O 9437   5.419   2.244   2.625
 2973WAT     H1 9438   5.347   2.304   2.606
 2973WAT     H2 9439   5.472   2.244   2.546
 2974WAT      O 9440   5.415   2.683   1.590
 2974WAT     H1 9441   5.350   2.619   1.618
 2974WAT     H2 9442   5.375   2.724   1.513
 2975WAT      O 9443   3.793   2.054   1.266
 2975WAT     H1 9444   3.881   2.082   1.294
 2975WAT     H2 9445   3.745   2.136   1.254
 2976WAT      O 9446   4.511   2.193   1.678
 2976WAT     H1 9447   4.556   2.274   1.701
 2976WAT     H2 9448   4.476   2.161   1.762
 2977WAT      O 9449   4.101   1.228   1.725
 2977WAT     H1 9450   4.088   1.226   1.820
 2977WAT     H2 9451   4.019   1.260   1.689
 2978WAT      O 9452   5.252   2.573   1.245
 2978WAT     H1 9453   5.230   2.501   1.304
 2978WAT     H2 9454   5.215   2.548   1.161
 2979WAT      O 9455   3.831   2.976   1.322
 2979WAT     H1 9456   3.867   3.036   1.257
 2979WAT     H2 9457   3.817   3.030   1.400
 2980WAT      O 9458   3.801   1.403   2.671
 2980WAT     H1 9459   3.729   1.423   2.731
 2980WAT     H2 9460   3.844   1.326   2.709
 2981WAT      O 9461   5.211   2.364   1.412
 2981WAT     H1 9462   5.182   2.411   1.490
 2981WAT     H2 9463   5.291   2.320   1.438
 2982WAT      O 9464   4.433   2.714   1.404
 2982WAT     H1 9465   4.432   2.787   1.342
 2982WAT     H2 9466   4.341   2.689   1.413
 2983WAT      O 9467   3.992   2.236   1.478
 2983WAT     H1 9468   3.931   2.310   1.478
 2983WAT     H2 9469   4.040   2.244   1.395
 2984WAT      O 9470   4.950   1.652   2.445
 2984WAT     H1 9471   4.987   1.571   2.479
 2984WAT     H2 9472   4.864   1.659   2.487
 2985WAT      O 9473   5.287   1.548   1.527
 2985WAT     H1 9474   5.224   1.559   1.455
 2985WAT     H2 9475   5.237   1.569   1.606
 2986WAT      O 9476   4.731   2.719   1.270
 2986WAT     H1 9477   4.741   2.699   1.177
 2986WAT     H2 9478   4.641   2.695   1.291
 2987WAT      O 9479   4.484   1.776   1.668
 2987WAT     H1 9480   4.413   1.823   1.712
 2987WAT     H2 9481   4.513   1.710   1.732
 2988WAT      O 9482   4.887   1.448   1.812
 2988WAT     H1 9483   4.874   1.450   1.717
 2988WAT     H2 9484   4.982   1.453   1.823
 2989WAT      O 9485   4.303   1.608   1.405
 2989WAT     H1 9486   4.389   1.650   1.399
 2989WAT     H2 9487   4.268   1.638   1.489
 2990WAT      O 9488   5.367   1.540   2.553
 2990WAT     H1 9489   5.317   1.614   2.587
 2990WAT     H2 9490   5.448   1.579   2.521
 2991WAT      O 9491   4.193   2.231   1.254
 2991WAT     H1 9492   4.271   2.222   1.309
 2991WAT     H2 9493   4.203   2.163   1.187
 2992WAT      O 9494   4.063   1.976   1.323
 2992WAT     H1 9495   4.071   1.881   1.333
 2992WAT     H2 9496   4.153   2.008   1.332
 2993WAT      O 9497   5.397   2.780   2.066
 2993WAT     H1 9498   5.409   2.864   2.111
 2993WAT     H2 9499   5.483   2.760   2.029
 2994WAT      O 9500   3.832   2.597   1.620
 2994WAT     H1 9501   3.739   2.622   1.618
 2994WAT     H2 9502   3.879   2.680   1.607
 2995WAT      O 9503   4.454   2.908   1.214
 2995WAT     H1 9504   4.533   2.938   1.170
 2995WAT     H2 9505   4.403   2.865   1.145
 2996WAT      O 9506   4.927   2.520   2.946
 2996WAT     H1 9507   4.867   2.522   2.871
 2996WAT     H2 9508   4.897   2.446   2.999
 2997WAT      O 9509   5.360   2.830   1.357
 2997WAT     H1 9510   5.331   2.789   1.275
 2997WAT     H2 9511   5.340   2.923   1.345
 2998WAT      O 9512   3.816   2.158   2.845
 2998WAT     H1 9513   3.866   2.100   2.902
 2998WAT     H2 9514   3.742   2.186   2.898
 2999WAT      O 9515   4.506   2.430   1.200
 2999WAT     H1 9516   4.496   2.369   1.273
 2999WAT     H2 9517   4.490   2.377   1.122
 3000WAT      O 9518   4.830   2.336   1.261
 3000WAT     H1 9519   4.776   2.381   1.325
 3000WAT     H2 9520   4.892   2.285   1.313
 3001WAT      O 9521   4.396   2.231   1.450
 3001WAT     H1 9522   4.439   2.216   1.534
 3001WAT     H2 9523   4.411   2.150   1.401
 3002WAT      O 9524   4.648   2.134   1.176
 3002WAT     H1 9525   4.700   2.063   1.139
 3002WAT     H2 9526   4.713   2.198   1.205
 3003WAT      O 9527   5.151   2.010   2.908
 3003WAT     H1 9528   5.209   1.935   2.899
 3003WAT     H2 9529   5.168   2.064   2.831
 3004WAT      O 9530   4.262   1.526   2.739
 3004WAT     H1 9531   4.253   1.465   2.667
 3004WAT     H2 9532   4.203   1.598   2.717
 3005WAT      O 9533   4.539   1.382   2.443
 3005WAT     H1 9534   4.494   1.384   2.358
 3005WAT     H2 9535   4.475   1.342   2.502
 3006WAT      O 9536   4.287   1.839   1.145
 3006WAT     H1 9537   4.267   1.752   1.181
 3006WAT     H2 9538   4.270   1.830   1.051
 3007WAT      O 9539   4.972   1.660   2.792
 3007WAT     H1 9540   4.903   1.595   2.786
 3007WAT     H2 9541   5.044   1.616   2.837
 3008WAT      O 9542   5.034   1.320   1.398
 3008WAT     H1 9543   5.063   1.236   1.434
 3008WAT     H2 9544   4.957   1.344   1.450
 3009WAT      O 9545   4.167   1.550   1.143
 3009WAT     H1 9546   4.197   1.549   1.053
 3009WAT     H2 9547   4.240   1.514   1.194
 3010WAT      O 9548   4.489   1.443   1.243
 3010WAT     H1 9549   4.454   1.376   1.185
 3010WAT     H2 9550   4.508   1.398   1.324
 3011WAT      O 9551   4.704   2.944   1.404
 3011WAT     H1 9552   4.794   2.976   1.407
 3011WAT     H2 9553   4.708   2.870   1.343
 3012WAT      O 9554   4.069   2.480   1.226
 3012WAT     H1 9555   4.113   2.534   1.292
 3012WAT     H2 9556   4.117   2.397   1.228
 3013WAT      O 9557   3.790   2.758   1.973
 3013WAT     H1 9558   3.823   2.672   1.949
 3013WAT     H2 9559   3.832   2.778   2.056
 3014WAT      O 9560   4.250   2.592   1.739
 3014WAT     H1 9561   4.220   2.579   1.829
 3014WAT     H2 9562   4.239   2.507   1.697
 3015WAT      O 9563   3.839   2.845   2.246
 3015WAT     H1 9564   3.795   2.862   2.329
 3015WAT     H2 9565   3.896   2.921   2.233
 3016WAT      O 9566   5.527   2.570   1.210
 3016WAT     H1 9567   5.443   2.576   1.255
 3016WAT     H2 9568   5.544   2.658   1.179
 3017WAT      O 9569   5.472   2.244   1.459
 3017WAT     H1 9570   5.548   2.301   1.469
 3017WAT     H2 9571   5.474   2.187   1.536
 3018WAT      O 9572   3.822   2.096   1.882
 3018WAT     H1 9573   3.757   2.069   1.817
 3018WAT     H2 9574   3.906   2.085   1.837
 3019WAT      O 9575   5.573   2.329   1.944
 3019WAT     H1 9576   5.610   2.251   1.904
 3019WAT     H2 9577   5.637   2.398   1.926
 3020WAT      O 9578   5.480   2.273   1.176
 3020WAT     H1 9579   5.504   2.364   1.162
 3020WAT     H2 9580   5.459   2.267   1.269
 3021WAT      O 9581   5.118   1.576   1.304
 3021WAT     H1 9582   5.159   1.557   1.220
 3021WAT     H2 9583   5.086   1.491   1.335
 3022WAT      O 9584   5.467   2.067   1.674
 3022WAT     H1 9585   5.430   1.990   1.632
 3022WAT     H2 9586   5.394   2.105   1.723
 3023WAT      O 9587   3.927   2.135   2.336
 3023WAT     H1 9588   3.963   2.125   2.424
 3023WAT     H2 9589   3.869   2.060   2.325
 3024WAT      O 9590   5.407   1.981   2.638
 3024WAT     H1 9591   5.383   1.959   2.548
 3024WAT     H2 9592   5.431   2.074   2.634
 3025WAT      O 9593   3.881   1.826   2.727
 3025WAT     H1 9594   3.791   1.823   2.761
 3025WAT     H2 9595   3.935   1.846   2.803
 3026WAT      O 9596   5.250   1.504   2.916
 3026WAT     H1 9597   5.338   1.505   2.954
 3026WAT     H2 9598   5.251   1.431   2.854
 3027WAT      O 9599   3.743   1.817   1.476
 3027WAT     H1 9600   3.653   1.844   1.459
 3027WAT     H2 9601   3.792   1.844   1.398
 3028WAT      O 9602   5.395   1.890   2.004
 3028WAT     H1 9603   5.447   1.840   1.941
 3028WAT     H2 9604   5.453   1.904   2.078
 3029WAT      O 9605   5.413   1.898   2.356
 3029WAT     H1 9606   5.318   1.895   2.367
 3029WAT     H2 9607   5.431   1.989   2.333
 3030WAT      O 9608   3.999   1.724   1.267
 3030WAT     H1 9609   4.068   1.679   1.219
 3030WAT     H2 9610   3.926   1.730   1.205
 3031WAT      O 9611   3.962   1.328   1.171
 3031WAT     H1 9612   4.035   1.382   1.203
 3031WAT     H2 9613   3.990   1.301   1.083
 3032WAT      O 9614   5.345   1.815   1.598
 3032WAT     H1 9615   5.393   1.792   1.678
 3032WAT     H2 9616   5.324   1.731   1.557
 3033WAT      O 9617   3.932   1.253   2.162
 3033WAT     H1 9618   3.997   1.198   2.118
 3033WAT     H2 9619   3.974   1.279   2.244
 3034WAT      O 9620   5.487   1.679   1.852
 3034WAT     H1 9621   5.476   1.663   1.945
 3034WAT     H2 9622   5.563   1.627   1.827
 3035WAT      O 9623   5.322   1.272   2.497
 3035WAT     H1 9624   5.384   1.335   2.533
 3035WAT     H2 9625   5.336   1.276   2.403
 3036WAT      O 9626   5.575   1.461   1.176
 3036WAT     H1 9627   5.668   1.449   1.155
 3036WAT     H2 9628   5.573   1.471   1.271
 3037WAT      O 9629   5.583   1.539   1.439
 3037WAT     H1 9630   5.503   1.533   1.491
 3037WAT     H2 9631   5.603   1.633   1.437
 3038WAT      O 9632   3.907   1.270   2.437
 3038WAT     H1 9633   3.872   1.315   2.513
 3038WAT     H2 9634   3.874   1.180   2.444
 3039WAT      O 9635   4.658   1.386   2.789
 3039WAT     H1 9636   4.652   1.448   2.862
 3039WAT     H2 9637   4.752   1.377   2.774
 3040WAT      O 9638   4.922   1.354   2.752
 3040WAT     H1 9639   4.983   1.386   2.686
 3040WAT     H2 9640   4.977   1.305   2.814
 3041WAT      O 9641   3.974   1.222   2.763
 3041WAT     H1 9642   4.029   1.204   2.687
 3041WAT     H2 9643   3.981   1.143   2.817
 3042WAT      O 9644   4.997   1.211   2.386
 3042WAT     H1 9645   4.910   1.243   2.363
 3042WAT     H2 9646   4.984   1.162   2.467
 3043WAT      O 9647   5.087   1.431   2.524
 3043WAT     H1 9648   5.055   1.349   2.484
 3043WAT     H2 9649   5.181   1.427   2.512
 3044WAT      O 9650   4.771   1.302   2.279
 3044WAT     H1 9651   4.693   1.349   2.308
 3044WAT     H2 9652   4.741   1.211   2.267
 3045WAT      O 9653   5.225   1.372   2.083
 3045WAT     H1 9654   5.271   1.367   1.999
 3045WAT     H2 9655   5.199   1.464   2.090
 3046WAT      O 9656   5.412   1.335   1.884
 3046WAT     H1 9657   5.406   1.241   1.870
 3046WAT     H2 9658   5.489   1.346   1.939
 3047WAT      O 9659   3.843   2.949   1.781
 3047WAT     H1 9660   3.826   2.886   1.850
 3047WAT     H2 9661   3.757   2.970   1.745
 3048WAT      O 9662   3.906   1.332   1.531
 3048WAT     H1 9663   3.981   1.344   1.473
 3048WAT     H2 9664   3.859   1.416   1.525
 3049WAT      O 9665   4.558   1.544   1.831
 3049WAT     H1 9666   4.478   1.505   1.795
 3049WAT     H2 9667   4.610   1.469   1.859
 3050WAT      O 9668   5.010   1.210   1.954
 3050WAT     H1 9669   5.070   1.267   2.001
 3050WAT     H2 9670   4.936   1.267   1.931
 3051WAT      O 9671   5.324   1.250   1.482
 3051WAT     H1 9672   5.342   1.340   1.508
 3051WAT     H2 9673   5.245   1.227   1.529
 3052WAT      O 9674   4.002   2.818   1.526
 3052WAT     H1 9675   3.952   2.857   1.455
 3052WAT     H2 9676   3.996   2.881   1.597
 3053WAT      O 9677   4.142   1.385   1.385
 3053WAT     H1 9678   4.195   1.306   1.373
 3053WAT     H2 9679   4.206   1.453   1.407
 3054WAT      O 9680   4.362   1.359   1.690
 3054WAT     H1 9681   4.299   1.289   1.707
 3054WAT     H2 9682   4.308   1.435   1.669
 3055WAT      O 9683   5.479   2.975   1.657
 3055WAT     H1 9684   5.496   2.905   1.593
 3055WAT     H2 9685   5.409   3.027   1.618
 3056WAT      O 9686   4.373   1.286   2.934
 3056WAT     H1 9687   4.346   1.337   2.857
 3056WAT     H2 9688   4.413   1.207   2.897
 3057WAT      O 9689   4.264   3.014   1.412
 3057WAT     H1 9690   4.337   2.985   1.358
 3057WAT     H2 9691   4.289   2.989   1.501
 3058WAT      O 9692   4.180   2.625   1.413
 3058WAT     H1 9693   4.117   2.673   1.468
 3058WAT     H2 9694   4.191   2.541   1.457
 3059WAT      O 9695   5.034   1.229   2.991
 3059WAT     H1 9696   5.023   1.260   3.081
 3059WAT     H2 9697   5.117   1.268   2.963
 3060WAT      O 9698   4.738   2.208   0.216
 3060WAT     H1 9699   4.661   2.159   0.245
 3060WAT     H2 9700   4.803   2.140   0.199
 3061WAT      O 9701   4.139   2.240   0.304
 3061WAT     H1 9702   4.057   2.212   0.344
 3061WAT     H2 9703   4.201   2.246   0.376
 3062WAT      O 9704   4.138   2.642   0.324
 3062WAT     H1 9705   4.168   2.553   0.306
 3062WAT     H2 9706   4.212   2.698   0.301
 3063WAT      O 9707   3.776   1.994   0.271
 3063WAT     H1 9708   3.834   1.918   0.271
 3063WAT     H2 9709   3.777   2.025   0.180
 3064WAT      O 9710   4.681   2.475   0.217
 3064WAT     H1 9711   4.677   2.381   0.200
 3064WAT     H2 9712   4.758   2.485   0.274
 3065WAT      O 9713   3.903   1.537   0.450
 3065WAT     H1 9714   3.884   1.447   0.477
 3065WAT     H2 9715   3.860   1.591   0.517
 3066WAT      O 9716   3.961   1.786   0.311
 3066WAT     H1 9717   4.032   1.812   0.371
 3066WAT     H2 9718   3.932   1.701   0.344
 3067WAT      O 9719   4.383   1.890   0.219
 3067WAT     H1 9720   4.434   1.941   0.282
 3067WAT     H2 9721   4.437   1.813   0.201
 3068WAT      O 9722   5.592   1.707   0.589
 3068WAT     H1 9723   5.523   1.747   0.537
 3068WAT     H2 9724   5.619   1.777   0.649
 3069WAT      O 9725   4.211   1.353   0.646
 3069WAT     H1 9726   4.211   1.406   0.566
 3069WAT     H2 9727   4.128   1.306   0.643
 3070WAT      O 9728   4.338   2.319   0.464
 3070WAT     H1 9729   4.302   2.381   0.527
 3070WAT     H2 9730   4.354   2.371   0.385
 3071WAT      O 9731   5.188   1.700   0.210
 3071WAT     H1 9732   5.117   1.728   0.268
 3071WAT     H2 9733   5.223   1.782   0.174
 3072WAT      O 9734   4.179   1.526   0.446
 3072WAT     H1 9735   4.213   1.610   0.417
 3072WAT     H2 9736   4.085   1.540   0.457
 3073WAT      O 9737   4.258   2.515   0.645
 3073WAT     H1 9738   4.319   2.583   0.617
 3073WAT     H2 9739   4.171   2.555   0.636
 3074WAT      O 9740   5.348   2.661   0.436
 3074WAT     H1 9741   5.281   2.729   0.435
 3074WAT     H2 9742   5.404   2.681   0.360
 3075WAT      O 9743   5.494   1.644   0.249
 3075WAT     H1 9744   5.399   1.647   0.262
 3075WAT     H2 9745   5.526   1.725   0.288
 3076WAT      O 9746   5.103   2.846   0.308
 3076WAT     H1 9747   5.104   2.805   0.221
 3076WAT     H2 9748   5.047   2.923   0.297
 3077WAT      O 9749   5.043   2.337   0.441
 3077WAT     H1 9750   5.084   2.315   0.357
 3077WAT     H2 9751   5.115   2.362   0.498
 3078WAT      O 9752   5.437   2.175   0.450
 3078WAT     H1 9753   5.354   2.184   0.402
 3078WAT     H2 9754   5.497   2.234   0.404
 3079WAT      O 9755   5.134   1.855   0.543
 3079WAT     H1 9756   5.092   1.937   0.570
 3079WAT     H2 9757   5.060   1.796   0.526
 3080WAT      O 9758   4.394   2.501   0.247
 3080WAT     H1 9759   4.364   2.441   0.179
 3080WAT     H2 9760   4.489   2.506   0.236
 3081WAT      O 9761   4.219   1.809   0.409
 3081WAT     H1 9762   4.272   1.823   0.331
 3081WAT     H2 9763   4.269   1.849   0.480
 3082WAT      O 9764   5.202   2.859   0.613
 3082WAT     H1 9765   5.156   2.940   0.594
 3082WAT     H2 9766   5.133   2.794   0.628
 3083WAT      O 9767   4.303   2.476   0.912
 3083WAT     H1 9768   4.214   2.498   0.937
 3083WAT     H2 9769   4.305   2.488   0.817
 3084WAT      O 9770   4.186   2.163   0.770
 3084WAT     H1 9771   4.171   2.251   0.806
 3084WAT     H2 9772   4.097   2.129   0.755
 3085WAT      O 9773   4.365   2.757   0.990
 3085WAT     H1 9774   4.362   2.797   0.904
 3085WAT     H2 9775   4.349   2.664   0.974
 3086WAT      O 9776   5.561   2.835   1.120
 3086WAT     H1 9777   5.608   2.883   1.188
 3086WAT     H2 9778   5.623   2.829   1.047
 3087WAT      O 9779   3.780   2.340   0.361
 3087WAT     H1 9780   3.789   2.353   0.267
 3087WAT     H2 9781   3.842   2.269   0.381
 3088WAT      O 9782   5.500   2.554   0.836
 3088WAT     H1 9783   5.514   2.530   0.744
 3088WAT     H2 9784   5.506   2.470   0.883
 3089WAT      O 9785   4.888   2.925   0.693
 3089WAT     H1 9786   4.938   2.916   0.774
 3089WAT     H2 9787   4.803   2.959   0.722
 3090WAT      O 9788   5.486   1.760   0.933
 3090WAT     H1 9789   5.425   1.811   0.880
 3090WAT     H2 9790   5.454   1.670   0.927
 3091WAT      O 9791   3.786   2.444   0.615
 3091WAT     H1 9792   3.802   2.397   0.533
 3091WAT     H2 9793   3.833   2.394   0.681
 3092WAT      O 9794   4.692   1.644   0.679
 3092WAT     H1 9795   4.646   1.665   0.760
 3092WAT     H2 9796   4.652   1.562   0.649
 3093WAT      O 9797   5.192   1.765   0.792
 3093WAT     H1 9798   5.107   1.736   0.824
 3093WAT     H2 9799   5.176   1.791   0.701
 3094WAT      O 9800   4.902   1.916   1.001
 3094WAT     H1 9801   4.934   1.832   0.969
 3094WAT     H2 9802   4.981   1.967   1.018
 3095WAT      O 9803   4.468   1.411   0.306
 3095WAT     H1 9804   4.497   1.502   0.297
 3095WAT     H2 9805   4.522   1.363   0.242
 3096WAT      O 9806   4.487   1.959   0.958
 3096WAT     H1 9807   4.477   1.865   0.943
 3096WAT     H2 9808   4.571   1.981   0.919
 3097WAT      O 9809   4.000   1.600   0.775
 3097WAT     H1 9810   3.960   1.685   0.794
 3097WAT     H2 9811   3.931   1.536   0.792
 3098WAT      O 9812   4.657   1.609   1.081
 3098WAT     H1 9813   4.588   1.588   1.144
 3098WAT     H2 9814   4.731   1.637   1.134
 3099WAT      O 9815   3.729   1.392   0.177
 3099WAT     H1 9816   3.701   1.451   0.247
 3099WAT     H2 9817   3.804   1.345   0.213
 3100WAT      O 9818   4.885   1.993   0.363
 3100WAT     H1 9819   4.812   2.044   0.399
 3100WAT     H2 9820   4.845   1.911   0.334
 3101WAT      O 9821   4.930   1.538   0.306
 3101WAT     H1 9822   4.933   1.583   0.390
 3101WAT     H2 9823   4.906   1.448   0.327
 3102WAT      O 9824   5.273   1.279   0.889
 3102WAT     H1 9825   5.306   1.206   0.942
 3102WAT     H2 9826   5.277   1.248   0.799
 3103WAT      O 9827   3.944   2.380   0.831
 3103WAT     H1 9828   3.905   2.317   0.892
 3103WAT     H2 9829   3.975   2.451   0.887
 3104WAT      O 9830   4.560   2.066   0.379
 3104WAT     H1 9831   4.594   2.019   0.454
 3104WAT     H2 9832   4.539   2.153   0.413
 3105WAT      O 9833   4.338   1.970   0.611
 3105WAT     H1 9834   4.307   2.057   0.634
 3105WAT     H2 9835   4.433   1.976   0.615
 3106WAT      O 9836   5.266   2.291   0.250
 3106WAT     H1 9837   5.338   2.340   0.211
 3106WAT     H2 9838   5.246   2.223   0.186
 3107WAT      O 9839   4.805   2.298   0.840
 3107WAT     H1 9840   4.798   2.207   0.812
 3107WAT     H2 9841   4.741   2.307   0.910
 3108WAT      O 9842   3.943   2.055   0.726
 3108WAT     H1 9843   3.906   2.121   0.785
 3108WAT     H2 9844   3.915   1.971   0.763
 3109WAT      O 9845   4.262   2.099   1.014
 3109WAT     H1 9846   4.234   2.115   0.924
 3109WAT     H2 9847   4.341   2.045   1.005
 3110WAT      O 9848   4.798   2.580   0.814
 3110WAT     H1 9849   4.799   2.486   0.792
 3110WAT     H2 9850   4.727   2.589   0.878
 3111WAT      O 9851   5.419   2.245   0.748
 3111WAT     H1 9852   5.346   2.303   0.728
 3111WAT     H2 9853   5.472   2.244   0.668
 3112WAT      O 9854   4.741   2.745   0.522
 3112WAT     H1 9855   4.804   2.765   0.591
 3112WAT     H2 9856   4.777   2.667   0.479
 3113WAT      O 9857   4.869   2.544   0.395
 3113WAT     H1 9858   4.932   2.474   0.407
 3113WAT     H2 9859   4.922   2.622   0.377
 3114WAT      O 9860   5.046   2.625   0.715
 3114WAT     H1 9861   5.079   2.683   0.784
 3114WAT     H2 9862   4.954   2.611   0.738
 3115WAT      O 9863   3.800   1.403   0.793
 3115WAT     H1 9864   3.729   1.423   0.854
 3115WAT     H2 9865   3.844   1.326   0.831
 3116WAT      O 9866   3.830   2.802   0.891
 3116WAT     H1 9867   3.840   2.708   0.878
 3116WAT     H2 9868   3.764   2.829   0.827
 3117WAT      O 9869   4.629   2.629   1.032
 3117WAT     H1 9870   4.597   2.557   1.087
 3117WAT     H2 9871   4.561   2.696   1.039
 3118WAT      O 9872   4.950   1.653   0.568
 3118WAT     H1 9873   4.987   1.571   0.601
 3118WAT     H2 9874   4.864   1.658   0.610
 3119WAT      O 9875   4.646   1.918   0.591
 3119WAT     H1 9876   4.696   1.966   0.657
 3119WAT     H2 9877   4.660   1.826   0.612
 3120WAT      O 9878   5.367   1.540   0.675
 3120WAT     H1 9879   5.317   1.614   0.709
 3120WAT     H2 9880   5.449   1.579   0.644
 3121WAT      O 9881   4.044   2.909   1.074
 3121WAT     H1 9882   4.124   2.941   1.115
 3121WAT     H2 9883   3.993   2.873   1.146
 3122WAT      O 9884   4.928   2.519   1.068
 3122WAT     H1 9885   4.867   2.522   0.994
 3122WAT     H2 9886   4.897   2.447   1.122
 3123WAT      O 9887   5.071   2.893   0.928
 3123WAT     H1 9888   5.166   2.884   0.925
 3123WAT     H2 9889   5.056   2.958   0.997
 3124WAT      O 9890   3.817   2.159   0.968
 3124WAT     H1 9891   3.866   2.100   1.025
 3124WAT     H2 9892   3.742   2.186   1.021
 3125WAT      O 9893   4.522   2.299   0.921
 3125WAT     H1 9894   4.445   2.355   0.913
 3125WAT     H2 9895   4.539   2.269   0.832
 3126WAT      O 9896   5.236   2.471   0.977
 3126WAT     H1 9897   5.310   2.505   0.926
 3126WAT     H2 9898   5.159   2.488   0.922
 3127WAT      O 9899   4.019   1.972   1.057
 3127WAT     H1 9900   4.023   1.943   1.148
 3127WAT     H2 9901   4.104   2.012   1.041
 3128WAT      O 9902   4.214   1.829   0.854
 3128WAT     H1 9903   4.160   1.782   0.791
 3128WAT     H2 9904   4.280   1.873   0.801
 3129WAT      O 9905   5.103   2.275   0.830
 3129WAT     H1 9906   5.145   2.292   0.914
 3129WAT     H2 9907   5.009   2.290   0.847
 3130WAT      O 9908   5.150   2.010   1.030
 3130WAT     H1 9909   5.209   1.935   1.022
 3130WAT     H2 9910   5.168   2.063   0.953
 3131WAT      O 9911   4.262   1.526   0.862
 3131WAT     H1 9912   4.253   1.465   0.789
 3131WAT     H2 9913   4.204   1.599   0.839
 3132WAT      O 9914   4.539   1.382   0.565
 3132WAT     H1 9915   4.494   1.384   0.481
 3132WAT     H2 9916   4.475   1.343   0.625
 3133WAT      O 9917   4.579   2.272   0.627
 3133WAT     H1 9918   4.621   2.356   0.610
 3133WAT     H2 9919   4.487   2.285   0.603
 3134WAT      O 9920   4.813   2.043   0.766
 3134WAT     H1 9921   4.826   1.985   0.841
 3134WAT     H2 9922   4.899   2.048   0.724
 3135WAT      O 9923   5.046   2.100   0.624
 3135WAT     H1 9924   4.995   2.153   0.562
 3135WAT     H2 9925   5.082   2.163   0.686
 3136WAT      O 9926   4.365   2.903   0.739
 3136WAT     H1 9927   4.310   2.974   0.707
 3136WAT     H2 9928   4.389   2.854   0.661
 3137WAT      O 9929   4.490   1.699   0.891
 3137WAT     H1 9930   4.549   1.668   0.960
 3137WAT     H2 9931   4.408   1.652   0.906
 3138WAT      O 9932   4.972   1.661   0.915
 3138WAT     H1 9933   4.903   1.594   0.908
 3138WAT     H2 9934   5.044   1.616   0.959
 3139WAT      O 9935   4.650   3.026   0.765
 3139WAT     H1 9936   4.643   3.116   0.795
 3139WAT     H2 9937   4.560   2.994   0.762
 3140WAT      O 9938   3.839   2.845   0.369
 3140WAT     H1 9939   3.795   2.863   0.452
 3140WAT     H2 9940   3.895   2.921   0.355
 3141WAT      O 9941   5.403   2.796   0.797
 3141WAT     H1 9942   5.342   2.801   0.723
 3141WAT     H2 9943   5.416   2.702   0.811
 3142WAT      O 9944   5.270   2.467   0.607
 3142WAT     H1 9945   5.190   2.511   0.634
 3142WAT     H2 9946   5.312   2.529   0.546
 3143WAT      O 9947   3.926   2.136   0.459
 3143WAT     H1 9948   3.963   2.125   0.547
 3143WAT     H2 9949   3.869   2.060   0.448
 3144WAT      O 9950   5.407   1.981   0.760
 3144WAT     H1 9951   5.383   1.959   0.670
 3144WAT     H2 9952   5.431   2.074   0.757
 3145WAT      O 9953   3.881   1.826   0.850
 3145WAT     H1 9954   3.791   1.823   0.883
 3145WAT     H2 9955   3.935   1.847   0.926
 3146WAT      O 9956   5.250   1.504   1.038
 3146WAT     H1 9957   5.338   1.505   1.076
 3146WAT     H2 9958   5.251   1.431   0.977
 3147WAT      O 9959   5.413   1.898   0.479
 3147WAT     H1 9960   5.318   1.895   0.490
 3147WAT     H2 9961   5.431   1.989   0.456
 3148WAT      O 9962   3.932   1.253   0.284
 3148WAT     H1 9963   3.997   1.198   0.240
 3148WAT     H2 9964   3.974   1.279   0.366
 3149WAT      O 9965   5.321   1.272   0.620
 3149WAT     H1 9966   5.384   1.335   0.656
 3149WAT     H2 9967   5.336   1.276   0.525
 3150WAT      O 9968   3.908   1.269   0.560
 3150WAT     H1 9969   3.871   1.315   0.635
 3150WAT     H2 9970   3.874   1.180   0.567
 3151WAT      O 9971   4.068   2.586   0.975
 3151WAT     H1 9972   4.063   2.549   1.064
 3151WAT     H2 9973   4.081   2.680   0.989
 3152WAT      O 9974   4.438   2.742   0.535
 3152WAT     H1 9975   4.414   2.768   0.446
 3152WAT     H2 9976   4.532   2.758   0.540
 3153WAT      O 9977   4.658   1.387   0.912
 3153WAT     H1 9978   4.652   1.448   0.985
 3153WAT     H2 9979   4.752   1.377   0.896
 3154WAT      O 9980   4.922   1.355   0.875
 3154WAT     H1 9981   4.983   1.385   0.808
 3154WAT     H2 9982   4.977   1.305   0.936
 3155WAT      O 9983   5.564   2.943   0.614
 3155WAT     H1 9984   5.513   2.983   0.544
 3155WAT     H2 9985   5.504   2.882   0.656
 3156WAT      O 9986   3.974   1.222   0.886
 3156WAT     H1 9987   4.029   1.204   0.810
 3156WAT     H2 9988   3.981   1.143   0.940
 3157WAT      O 9989   4.051   2.881   0.687
 3157WAT     H1 9990   3.992   2.868   0.761
 3157WAT     H2 9991   4.051   2.797   0.641
 3158WAT      O 9992   4.997   1.210   0.508
 3158WAT     H1 9993   4.910   1.243   0.486
 3158WAT     H2 9994   4.984   1.162   0.590
 3159WAT      O 9995   5.087   1.430   0.647
 3159WAT     H1 9996   5.054   1.349   0.607
 3159WAT     H2 9997   5.181   1.427   0.634
 3160WAT      O 9998   5.332   3.008   0.344
 3160WAT     H1 9999   5.286   3.083   0.306
 3160WAT     H210000   5.269   2.936   0.337
 3161WAT      O10001   4.015   2.618   0.582
 3161WAT     H110002   3.942   2.556   0.576
 3161WAT     H210003   4.021   2.656   0.494
 3162WAT      O10004   4.375   2.838   0.262
 3162WAT     H110005   4.427   2.778   0.208
 3162WAT     H210006   4.440   2.890   0.309
 3163WAT      O10007   4.649   2.928   0.343
 3163WAT     H110008   4.678   2.902   0.256
 3163WAT     H210009   4.699   2.873   0.403
 3164WAT      O10010   4.771   1.302   0.401
 3164WAT     H110011   4.693   1.349   0.430
 3164WAT     H210012   4.740   1.211   0.390
 3165WAT      O10013   4.656   3.020   1.080
 3165WAT     H110014   4.749   2.997   1.084
 3165WAT     H210015   4.654   3.103   1.032
 3166WAT      O10016   4.374   1.287   1.056
 3166WAT     H110017   4.346   1.337   0.980
 3166WAT     H210018   4.413   1.207   1.020
 3167WAT      O10019   5.034   1.229   1.114
 3167WAT     H110020   5.023   1.260   1.204
 3167WAT     H210021   5.117   1.268   1.085
 3168WAT      O10022   5.313   2.944   1.061
 3168WAT     H110023   5.392   2.893   1.043
 3168WAT     H210024   5.342   3.011   1.123
 3169WAT      O10025   5.141   0.771   5.725
 3169WAT     H110026   5.094   0.694   5.758
 3169WAT     H210027   5.221   0.774   5.777
 3170WAT      O10028   4.763   1.000   5.688
 3170WAT     H110029   4.701   1.045   5.631
 3170WAT     H210030   4.849   1.016   5.648
 3171WAT      O10031   4.850   0.488   5.427
 3171WAT     H110032   4.788   0.534   5.371
 3171WAT     H210033   4.901   0.558   5.469
 3172WAT      O10034   3.787   0.556   5.165
 3172WAT     H110035   3.749   0.605   5.092
 3172WAT     H210036   3.812   0.624   5.228
 3173WAT      O10037   5.232   0.640   5.449
 3173WAT     H110038   5.221   0.546   5.461
 3173WAT     H210039   5.231   0.676   5.538
 3174WAT      O10040   4.786   0.203   5.385
 3174WAT     H110041   4.693   0.197   5.407
 3174WAT     H210042   4.802   0.297   5.373
 3175WAT      O10043   5.189   0.359   5.435
 3175WAT     H110044   5.127   0.326   5.370
 3175WAT     H210045   5.187   0.295   5.506
 3176WAT      O10046   4.347   0.256   5.663
 3176WAT     H110047   4.306   0.185   5.613
 3176WAT     H210048   4.355   0.221   5.752
 3177WAT      O10049   5.007   0.283   5.136
 3177WAT     H110050   5.051   0.199   5.121
 3177WAT     H210051   5.079   0.346   5.143
 3178WAT      O10052   4.818   0.776   5.532
 3178WAT     H110053   4.862   0.851   5.491
 3178WAT     H210054   4.812   0.801   5.625
 3179WAT      O10055   3.905   0.632   5.634
 3179WAT     H110056   3.865   0.647   5.549
 3179WAT     H210057   3.994   0.604   5.614
 3180WAT      O10058   5.084   1.076   5.268
 3180WAT     H110059   5.069   1.047   5.358
 3180WAT     H210060   5.069   0.998   5.215
 3181WAT      O10061   4.332   1.054   5.445
 3181WAT     H110062   4.315   0.962   5.425
 3181WAT     H210063   4.247   1.090   5.470
 3182WAT      O10064   5.055   0.828   5.124
 3182WAT     H110065   4.985   0.827   5.058
 3182WAT     H210066   5.129   0.784   5.081
 3183WAT      O10067   5.011   0.989   5.532
 3183WAT     H110068   5.057   0.911   5.563
 3183WAT     H210069   5.045   1.060   5.586
 3184WAT      O10070   4.191   0.514   5.303
 3184WAT     H110071   4.114   0.459   5.288
 3184WAT     H210072   4.264   0.462   5.269
 3185WAT      O10073   4.194   0.480   5.667
 3185WAT     H110074   4.247   0.401   5.661
 3185WAT     H210075   4.150   0.474   5.751
 3186WAT      O10076   4.684   0.607   5.194
 3186WAT     H110077   4.718   0.682   5.145
 3186WAT     H210078   4.601   0.638   5.230
 3187WAT      O10079   5.415   0.806   5.345
 3187WAT     H110080   5.350   0.741   5.373
 3187WAT     H210081   5.376   0.847   5.268
 3188WAT      O10082   4.972   0.539   5.731
 3188WAT     H110083   5.007   0.479   5.665
 3188WAT     H210084   4.883   0.507   5.748
 3189WAT      O10085   4.580   0.615   5.472
 3189WAT     H110086   4.649   0.670   5.508
 3189WAT     H210087   4.502   0.670   5.475
 3190WAT      O10088   3.794   0.177   5.019
 3190WAT     H110089   3.881   0.205   5.049
 3190WAT     H210090   3.745   0.258   5.009
 3191WAT      O10091   4.512   0.315   5.434
 3191WAT     H110092   4.556   0.398   5.455
 3191WAT     H210093   4.476   0.285   5.517
 3192WAT      O10094   5.252   0.696   5.000
 3192WAT     H110095   5.230   0.623   5.059
 3192WAT     H210096   5.215   0.671   4.916
 3193WAT      O10097   3.832   1.098   5.077
 3193WAT     H110098   3.867   1.159   5.012
 3193WAT     H210099   3.817   1.153   5.154
 3194WAT      O10100   5.211   0.486   5.167
 3194WAT     H110101   5.182   0.533   5.245
 3194WAT     H210102   5.291   0.441   5.193
 3195WAT      O10103   4.433   0.837   5.159
 3195WAT     H110104   4.433   0.910   5.097
 3195WAT     H210105   4.341   0.811   5.168
 3196WAT      O10106   3.992   0.359   5.233
 3196WAT     H110107   3.931   0.433   5.233
 3196WAT     H210108   4.040   0.368   5.150
 3197WAT      O10109   4.731   0.842   5.025
 3197WAT     H110110   4.741   0.822   4.932
 3197WAT     H210111   4.641   0.817   5.046
 3198WAT      O10112   4.596   1.096   5.495
 3198WAT     H110113   4.621   1.091   5.402
 3198WAT     H210114   4.501   1.082   5.494
 3199WAT      O10115   4.193   0.354   5.009
 3199WAT     H110116   4.271   0.344   5.064
 3199WAT     H210117   4.202   0.286   4.942
 3200WAT      O10118   4.143   1.113   5.787
 3200WAT     H110119   4.217   1.058   5.814
 3200WAT     H210120   4.182   1.199   5.773
 3201WAT      O10121   3.831   0.720   5.375
 3201WAT     H110122   3.739   0.745   5.373
 3201WAT     H210123   3.879   0.802   5.362
 3202WAT      O10124   4.454   1.029   4.969
 3202WAT     H110125   4.533   1.060   4.925
 3202WAT     H210126   4.403   0.987   4.900
 3203WAT      O10127   5.360   0.953   5.111
 3203WAT     H110128   5.331   0.912   5.030
 3203WAT     H210129   5.340   1.046   5.099
 3204WAT      O10130   4.506   0.552   4.955
 3204WAT     H110131   4.496   0.492   5.028
 3204WAT     H210132   4.490   0.499   4.877
 3205WAT      O10133   4.830   0.458   5.016
 3205WAT     H110134   4.775   0.503   5.080
 3205WAT     H210135   4.893   0.408   5.068
 3206WAT      O10136   4.396   0.353   5.205
 3206WAT     H110137   4.439   0.339   5.289
 3206WAT     H210138   4.411   0.273   5.156
 3207WAT      O10139   4.648   0.257   4.930
 3207WAT     H110140   4.700   0.185   4.894
 3207WAT     H210141   4.713   0.321   4.960
 3208WAT      O10142   4.705   1.066   5.159
 3208WAT     H110143   4.794   1.099   5.162
 3208WAT     H210144   4.708   0.993   5.098
 3209WAT      O10145   4.069   0.602   4.981
 3209WAT     H110146   4.112   0.656   5.047
 3209WAT     H210147   4.117   0.519   4.983
 3210WAT      O10148   3.790   0.881   5.727
 3210WAT     H110149   3.823   0.794   5.704
 3210WAT     H210150   3.833   0.902   5.810
 3211WAT      O10151   4.250   0.714   5.493
 3211WAT     H110152   4.220   0.702   5.583
 3211WAT     H210153   4.239   0.628   5.452
 3212WAT      O10154   5.528   0.692   4.965
 3212WAT     H110155   5.443   0.699   5.010
 3212WAT     H210156   5.544   0.781   4.932
 3213WAT      O10157   5.472   0.367   5.214
 3213WAT     H110158   5.549   0.423   5.224
 3213WAT     H210159   5.474   0.310   5.291
 3214WAT      O10160   3.822   0.220   5.636
 3214WAT     H110161   3.757   0.191   5.573
 3214WAT     H210162   3.906   0.208   5.592
 3215WAT      O10163   5.572   0.453   5.697
 3215WAT     H110164   5.610   0.374   5.659
 3215WAT     H210165   5.637   0.521   5.681
 3216WAT      O10166   5.480   0.396   4.930
 3216WAT     H110167   5.504   0.487   4.917
 3216WAT     H210168   5.459   0.389   5.023
 3217WAT      O10169   5.278   1.066   5.593
 3217WAT     H110170   5.337   1.033   5.525
 3217WAT     H210171   5.303   1.018   5.672
 3218WAT      O10172   3.843   1.072   5.535
 3218WAT     H110173   3.826   1.008   5.605
 3218WAT     H210174   3.756   1.092   5.500
 3219WAT      O10175   4.003   0.941   5.281
 3219WAT     H110176   3.951   0.979   5.210
 3219WAT     H210177   3.996   1.004   5.352
 3220WAT      O10178   5.479   1.097   5.412
 3220WAT     H110179   5.497   1.028   5.348
 3220WAT     H210180   5.410   1.149   5.372
 3221WAT      O10181   4.264   1.137   5.167
 3221WAT     H110182   4.337   1.107   5.113
 3221WAT     H210183   4.289   1.112   5.256
 3222WAT      O10184   4.180   0.747   5.168
 3222WAT     H110185   4.117   0.795   5.223
 3222WAT     H210186   4.191   0.663   5.212
 3223WAT      O10187   4.738   0.330   3.970
 3223WAT     H110188   4.661   0.282   4.001
 3223WAT     H210189   4.803   0.262   3.954
 3224WAT      O10190   4.139   0.363   4.058
 3224WAT     H110191   4.057   0.335   4.099
 3224WAT     H210192   4.201   0.369   4.131
 3225WAT      O10193   5.140   0.771   3.849
 3225WAT     H110194   5.094   0.694   3.882
 3225WAT     H210195   5.222   0.774   3.899
 3226WAT      O10196   4.138   0.765   4.078
 3226WAT     H110197   4.168   0.676   4.060
 3226WAT     H210198   4.212   0.821   4.056
 3227WAT      O10199   4.763   1.001   3.812
 3227WAT     H110200   4.701   1.044   3.754
 3227WAT     H210201   4.849   1.015   3.771
 3228WAT      O10202   4.681   0.598   3.972
 3228WAT     H110203   4.677   0.503   3.956
 3228WAT     H210204   4.758   0.608   4.029
 3229WAT      O10205   4.851   0.488   3.550
 3229WAT     H110206   4.788   0.534   3.494
 3229WAT     H210207   4.900   0.558   3.592
 3230WAT      O10208   4.337   0.441   4.218
 3230WAT     H110209   4.303   0.503   4.282
 3230WAT     H210210   4.354   0.494   4.140
 3231WAT      O10211   4.258   0.638   4.400
 3231WAT     H110212   4.319   0.705   4.371
 3231WAT     H210213   4.171   0.677   4.390
 3232WAT      O10214   3.787   0.556   3.288
 3232WAT     H110215   3.749   0.605   3.215
 3232WAT     H210216   3.812   0.624   3.351
 3233WAT      O10217   5.349   0.784   4.191
 3233WAT     H110218   5.281   0.851   4.190
 3233WAT     H210219   5.403   0.804   4.115
 3234WAT      O10220   5.103   0.968   4.063
 3234WAT     H110221   5.104   0.928   3.976
 3234WAT     H210222   5.047   1.046   4.052
 3235WAT      O10223   5.232   0.640   3.572
 3235WAT     H110224   5.221   0.546   3.584
 3235WAT     H210225   5.231   0.677   3.660
 3236WAT      O10226   5.042   0.460   4.195
 3236WAT     H110227   5.085   0.437   4.112
 3236WAT     H210228   5.115   0.483   4.253
 3237WAT      O10229   4.786   0.203   3.507
 3237WAT     H110230   4.693   0.197   3.530
 3237WAT     H210231   4.802   0.297   3.496
 3238WAT      O10232   5.437   0.298   4.205
 3238WAT     H110233   5.355   0.306   4.157
 3238WAT     H210234   5.497   0.357   4.159
 3239WAT      O10235   5.189   0.359   3.557
 3239WAT     H110236   5.127   0.326   3.493
 3239WAT     H210237   5.187   0.295   3.628
 3240WAT      O10238   4.347   0.255   3.785
 3240WAT     H110239   4.306   0.185   3.736
 3240WAT     H210240   4.355   0.221   3.874
 3241WAT      O10241   4.394   0.623   4.003
 3241WAT     H110242   4.364   0.564   3.933
 3241WAT     H210243   4.489   0.628   3.991
 3242WAT      O10244   5.202   0.981   4.369
 3242WAT     H110245   5.155   1.062   4.348
 3242WAT     H210246   5.133   0.917   4.383
 3243WAT      O10247   4.303   0.598   4.666
 3243WAT     H110248   4.214   0.621   4.692
 3243WAT     H210249   4.305   0.611   4.572
 3244WAT      O10250   5.007   0.283   3.258
 3244WAT     H110251   5.051   0.199   3.244
 3244WAT     H210252   5.079   0.346   3.266
 3245WAT      O10253   4.185   0.285   4.524
 3245WAT     H110254   4.172   0.373   4.560
 3245WAT     H210255   4.097   0.251   4.510
 3246WAT      O10256   4.818   0.776   3.655
 3246WAT     H110257   4.862   0.851   3.613
 3246WAT     H210258   4.811   0.801   3.747
 3247WAT      O10259   4.365   0.880   4.745
 3247WAT     H110260   4.362   0.920   4.659
 3247WAT     H210261   4.349   0.787   4.729
 3248WAT      O10262   5.561   0.958   4.875
 3248WAT     H110263   5.608   1.006   4.943
 3248WAT     H210264   5.623   0.951   4.802
 3249WAT      O10265   3.781   0.462   4.116
 3249WAT     H110266   3.788   0.476   4.022
 3249WAT     H210267   3.842   0.391   4.135
 3250WAT      O10268   3.904   0.631   3.757
 3250WAT     H110269   3.865   0.648   3.671
 3250WAT     H210270   3.994   0.604   3.737
 3251WAT      O10271   5.500   0.676   4.591
 3251WAT     H110272   5.514   0.652   4.499
 3251WAT     H210273   5.505   0.593   4.638
 3252WAT      O10274   4.888   1.047   4.448
 3252WAT     H110275   4.938   1.038   4.529
 3252WAT     H210276   4.803   1.082   4.477
 3253WAT      O10277   5.084   1.076   3.390
 3253WAT     H110278   5.069   1.047   3.480
 3253WAT     H210279   5.069   0.998   3.337
 3254WAT      O10280   4.332   1.054   3.567
 3254WAT     H110281   4.315   0.962   3.547
 3254WAT     H210282   4.247   1.090   3.592
 3255WAT      O10283   5.055   0.828   3.247
 3255WAT     H110284   4.985   0.827   3.181
 3255WAT     H210285   5.129   0.785   3.204
 3256WAT      O10286   5.011   0.989   3.655
 3256WAT     H110287   5.057   0.911   3.686
 3256WAT     H210288   5.045   1.060   3.708
 3257WAT      O10289   3.786   0.567   4.370
 3257WAT     H110290   3.802   0.520   4.288
 3257WAT     H210291   3.833   0.517   4.437
 3258WAT      O10292   3.944   0.503   4.586
 3258WAT     H110293   3.905   0.440   4.646
 3258WAT     H210294   3.975   0.574   4.643
 3259WAT      O10295   4.559   0.189   4.134
 3259WAT     H110296   4.595   0.141   4.209
 3259WAT     H210297   4.539   0.276   4.169
 3260WAT      O10298   4.191   0.514   3.426
 3260WAT     H110299   4.114   0.459   3.411
 3260WAT     H210300   4.264   0.462   3.392
 3261WAT      O10301   5.265   0.413   4.004
 3261WAT     H110302   5.338   0.463   3.966
 3261WAT     H210303   5.246   0.345   3.940
 3262WAT      O10304   4.806   0.420   4.595
 3262WAT     H110305   4.798   0.328   4.568
 3262WAT     H210306   4.741   0.430   4.665
 3263WAT      O10307   4.195   0.481   3.790
 3263WAT     H110308   4.247   0.401   3.783
 3263WAT     H210309   4.150   0.473   3.874
 3264WAT      O10310   4.684   0.607   3.317
 3264WAT     H110311   4.718   0.681   3.267
 3264WAT     H210312   4.601   0.638   3.353
 3265WAT      O10313   4.263   0.222   4.769
 3265WAT     H110314   4.234   0.237   4.680
 3265WAT     H210315   4.341   0.167   4.760
 3266WAT      O10316   4.798   0.702   4.569
 3266WAT     H110317   4.799   0.608   4.547
 3266WAT     H210318   4.727   0.712   4.632
 3267WAT      O10319   5.420   0.368   4.504
 3267WAT     H110320   5.346   0.426   4.483
 3267WAT     H210321   5.471   0.366   4.423
 3268WAT      O10322   5.415   0.806   3.468
 3268WAT     H110323   5.350   0.741   3.496
 3268WAT     H210324   5.375   0.847   3.391
 3269WAT      O10325   4.972   0.538   3.853
 3269WAT     H110326   5.007   0.479   3.787
 3269WAT     H210327   4.883   0.507   3.870
 3270WAT      O10328   4.580   0.615   3.595
 3270WAT     H110329   4.649   0.670   3.631
 3270WAT     H210330   4.502   0.670   3.597
 3271WAT      O10331   3.794   0.177   3.142
 3271WAT     H110332   3.881   0.205   3.172
 3271WAT     H210333   3.745   0.258   3.131
 3272WAT      O10334   4.512   0.315   3.556
 3272WAT     H110335   4.556   0.398   3.578
 3272WAT     H210336   4.476   0.285   3.639
 3273WAT      O10337   4.741   0.867   4.278
 3273WAT     H110338   4.804   0.888   4.346
 3273WAT     H210339   4.777   0.790   4.233
 3274WAT      O10340   4.869   0.667   4.150
 3274WAT     H110341   4.933   0.597   4.162
 3274WAT     H210342   4.922   0.745   4.132
 3275WAT      O10343   5.252   0.696   3.122
 3275WAT     H110344   5.230   0.623   3.181
 3275WAT     H210345   5.215   0.671   3.038
 3276WAT      O10346   5.046   0.748   4.470
 3276WAT     H110347   5.079   0.806   4.539
 3276WAT     H210348   4.954   0.734   4.493
 3277WAT      O10349   3.832   1.098   3.200
 3277WAT     H110350   3.867   1.159   3.134
 3277WAT     H210351   3.817   1.153   3.277
 3278WAT      O10352   5.211   0.486   3.289
 3278WAT     H110353   5.182   0.533   3.367
 3278WAT     H210354   5.291   0.442   3.315
 3279WAT      O10355   3.830   0.925   4.646
 3279WAT     H110356   3.840   0.831   4.633
 3279WAT     H210357   3.763   0.951   4.582
 3280WAT      O10358   4.629   0.752   4.787
 3280WAT     H110359   4.597   0.680   4.841
 3280WAT     H210360   4.561   0.819   4.793
 3281WAT      O10361   4.433   0.836   3.281
 3281WAT     H110362   4.432   0.910   3.220
 3281WAT     H210363   4.341   0.812   3.291
 3282WAT      O10364   3.992   0.359   3.355
 3282WAT     H110365   3.931   0.433   3.356
 3282WAT     H210366   4.040   0.368   3.273
 3283WAT      O10367   4.731   0.842   3.148
 3283WAT     H110368   4.741   0.822   3.055
 3283WAT     H210369   4.641   0.817   3.168
 3284WAT      O10370   4.596   1.096   3.617
 3284WAT     H110371   4.622   1.091   3.525
 3284WAT     H210372   4.501   1.082   3.616
 3285WAT      O10373   4.193   0.354   3.132
 3285WAT     H110374   4.271   0.344   3.187
 3285WAT     H210375   4.202   0.286   3.064
 3286WAT      O10376   5.396   0.904   3.941
 3286WAT     H110377   5.409   0.986   3.989
 3286WAT     H210378   5.483   0.882   3.907
 3287WAT      O10379   4.143   1.113   3.910
 3287WAT     H110380   4.217   1.058   3.936
 3287WAT     H210381   4.182   1.199   3.895
 3288WAT      O10382   3.831   0.720   3.498
 3288WAT     H110383   3.739   0.745   3.496
 3288WAT     H210384   3.879   0.802   3.485
 3289WAT      O10385   4.044   1.031   4.828
 3289WAT     H110386   4.124   1.063   4.870
 3289WAT     H210387   3.993   0.995   4.900
 3290WAT      O10388   4.455   1.029   3.092
 3290WAT     H110389   4.533   1.060   3.047
 3290WAT     H210390   4.403   0.987   3.023
 3291WAT      O10391   4.928   0.642   4.823
 3291WAT     H110392   4.867   0.644   4.749
 3291WAT     H210393   4.897   0.569   4.877
 3292WAT      O10394   5.071   1.016   4.683
 3292WAT     H110395   5.166   1.006   4.680
 3292WAT     H210396   5.055   1.080   4.751
 3293WAT      O10397   5.360   0.953   3.234
 3293WAT     H110398   5.331   0.912   3.153
 3293WAT     H210399   5.340   1.046   3.222
 3294WAT      O10400   3.817   0.281   4.723
 3294WAT     H110401   3.866   0.221   4.780
 3294WAT     H210402   3.741   0.308   4.776
 3295WAT      O10403   4.506   0.552   3.078
 3295WAT     H110404   4.496   0.492   3.151
 3295WAT     H210405   4.490   0.499   3.000
 3296WAT      O10406   4.522   0.422   4.676
 3296WAT     H110407   4.445   0.478   4.667
 3296WAT     H210408   4.540   0.392   4.587
 3297WAT      O10409   4.830   0.458   3.138
 3297WAT     H110410   4.775   0.503   3.203
 3297WAT     H210411   4.893   0.408   3.191
 3298WAT      O10412   5.236   0.595   4.732
 3298WAT     H110413   5.310   0.628   4.681
 3298WAT     H210414   5.159   0.611   4.676
 3299WAT      O10415   4.396   0.353   3.327
 3299WAT     H110416   4.439   0.339   3.412
 3299WAT     H210417   4.411   0.272   3.279
 3300WAT      O10418   4.648   0.257   3.053
 3300WAT     H110419   4.700   0.185   3.016
 3300WAT     H210420   4.713   0.321   3.083
 3301WAT      O10421   5.103   0.399   4.585
 3301WAT     H110422   5.145   0.414   4.669
 3301WAT     H210423   5.010   0.412   4.602
 3302WAT      O10424   4.579   0.394   4.383
 3302WAT     H110425   4.621   0.478   4.365
 3302WAT     H210426   4.487   0.408   4.358
 3303WAT      O10427   5.046   0.223   4.378
 3303WAT     H110428   4.994   0.276   4.318
 3303WAT     H210429   5.081   0.286   4.441
 3304WAT      O10430   4.365   1.026   4.494
 3304WAT     H110431   4.310   1.097   4.462
 3304WAT     H210432   4.389   0.976   4.416
 3305WAT      O10433   4.650   1.148   4.520
 3305WAT     H110434   4.643   1.239   4.550
 3305WAT     H210435   4.560   1.116   4.517
 3306WAT      O10436   4.705   1.066   3.282
 3306WAT     H110437   4.794   1.099   3.284
 3306WAT     H210438   4.708   0.993   3.220
 3307WAT      O10439   4.069   0.602   3.104
 3307WAT     H110440   4.113   0.656   3.169
 3307WAT     H210441   4.117   0.519   3.106
 3308WAT      O10442   3.790   0.881   3.850
 3308WAT     H110443   3.824   0.794   3.827
 3308WAT     H210444   3.833   0.902   3.933
 3309WAT      O10445   4.251   0.714   3.616
 3309WAT     H110446   4.220   0.702   3.706
 3309WAT     H210447   4.239   0.629   3.575
 3310WAT      O10448   3.839   0.968   4.124
 3310WAT     H110449   3.795   0.986   4.207
 3310WAT     H210450   3.896   1.043   4.110
 3311WAT      O10451   5.403   0.919   4.552
 3311WAT     H110452   5.342   0.924   4.478
 3311WAT     H210453   5.416   0.825   4.566
 3312WAT      O10454   5.528   0.692   3.087
 3312WAT     H110455   5.443   0.699   3.132
 3312WAT     H210456   5.544   0.781   3.055
 3313WAT      O10457   5.471   0.367   3.337
 3313WAT     H110458   5.549   0.423   3.346
 3313WAT     H210459   5.474   0.310   3.414
 3314WAT      O10460   3.822   0.220   3.759
 3314WAT     H110461   3.757   0.191   3.695
 3314WAT     H210462   3.906   0.208   3.715
 3315WAT      O10463   5.573   0.453   3.821
 3315WAT     H110464   5.610   0.374   3.781
 3315WAT     H210465   5.637   0.521   3.803
 3316WAT      O10466   5.271   0.590   4.362
 3316WAT     H110467   5.190   0.633   4.389
 3316WAT     H210468   5.312   0.652   4.301
 3317WAT      O10469   5.480   0.396   3.053
 3317WAT     H110470   5.504   0.487   3.040
 3317WAT     H210471   5.459   0.389   3.146
 3318WAT      O10472   3.926   0.257   4.214
 3318WAT     H110473   3.963   0.249   4.302
 3318WAT     H210474   3.869   0.181   4.204
 3319WAT      O10475   5.278   1.066   3.715
 3319WAT     H110476   5.337   1.034   3.647
 3319WAT     H210477   5.303   1.017   3.794
 3320WAT      O10478   4.068   0.709   4.730
 3320WAT     H110479   4.063   0.672   4.819
 3320WAT     H210480   4.081   0.803   4.744
 3321WAT      O10481   4.438   0.864   4.290
 3321WAT     H110482   4.414   0.890   4.201
 3321WAT     H210483   4.532   0.880   4.296
 3322WAT      O10484   5.564   1.065   4.368
 3322WAT     H110485   5.514   1.106   4.298
 3322WAT     H210486   5.503   1.005   4.410
 3323WAT      O10487   4.051   1.003   4.442
 3323WAT     H110488   3.992   0.990   4.516
 3323WAT     H210489   4.051   0.920   4.395
 3324WAT      O10490   5.332   1.131   4.097
 3324WAT     H110491   5.286   1.206   4.061
 3324WAT     H210492   5.268   1.060   4.093
 3325WAT      O10493   4.015   0.741   4.337
 3325WAT     H110494   3.942   0.679   4.331
 3325WAT     H210495   4.021   0.778   4.249
 3326WAT      O10496   4.375   0.961   4.016
 3326WAT     H110497   4.427   0.900   3.963
 3326WAT     H210498   4.440   1.012   4.064
 3327WAT      O10499   4.649   1.050   4.098
 3327WAT     H110500   4.679   1.025   4.010
 3327WAT     H210501   4.700   0.995   4.157
 3328WAT      O10502   3.843   1.072   3.658
 3328WAT     H110503   3.826   1.008   3.728
 3328WAT     H210504   3.756   1.092   3.623
 3329WAT      O10505   4.003   0.941   3.403
 3329WAT     H110506   3.951   0.979   3.332
 3329WAT     H210507   3.996   1.004   3.474
 3330WAT      O10508   4.656   1.143   4.835
 3330WAT     H110509   4.748   1.119   4.839
 3330WAT     H210510   4.654   1.225   4.787
 3331WAT      O10511   5.479   1.096   3.534
 3331WAT     H110512   5.497   1.028   3.470
 3331WAT     H210513   5.410   1.149   3.494
 3332WAT      O10514   4.264   1.137   3.290
 3332WAT     H110515   4.337   1.107   3.235
 3332WAT     H210516   4.289   1.112   3.379
 3333WAT      O10517   4.180   0.747   3.290
 3333WAT     H110518   4.117   0.795   3.345
 3333WAT     H210519   4.191   0.663   3.335
 3334WAT      O10520   5.313   1.066   4.816
 3334WAT     H110521   5.392   1.015   4.798
 3334WAT     H210522   5.342   1.133   4.878
 3335WAT      O10523   4.738   0.330   2.093
 3335WAT     H110524   4.661   0.282   2.123
 3335WAT     H210525   4.803   0.262   2.076
 3336WAT      O10526   4.140   0.363   2.181
 3336WAT     H110527   4.057   0.335   2.221
 3336WAT     H210528   4.201   0.369   2.254
 3337WAT      O10529   5.140   0.771   1.971
 3337WAT     H110530   5.094   0.694   2.004
 3337WAT     H210531   5.222   0.774   2.022
 3338WAT      O10532   4.138   0.765   2.201
 3338WAT     H110533   4.168   0.676   2.183
 3338WAT     H210534   4.212   0.821   2.178
 3339WAT      O10535   4.763   1.001   1.934
 3339WAT     H110536   4.701   1.044   1.876
 3339WAT     H210537   4.849   1.015   1.893
 3340WAT      O10538   4.681   0.598   2.094
 3340WAT     H110539   4.677   0.503   2.078
 3340WAT     H210540   4.758   0.608   2.151
 3341WAT      O10541   4.850   0.488   1.672
 3341WAT     H110542   4.788   0.534   1.616
 3341WAT     H210543   4.900   0.558   1.715
 3342WAT      O10544   4.337   0.441   2.341
 3342WAT     H110545   4.303   0.503   2.405
 3342WAT     H210546   4.354   0.494   2.263
 3343WAT      O10547   4.258   0.637   2.522
 3343WAT     H110548   4.319   0.706   2.494
 3343WAT     H210549   4.171   0.677   2.513
 3344WAT      O10550   3.787   0.556   1.410
 3344WAT     H110551   3.749   0.605   1.337
 3344WAT     H210552   3.812   0.624   1.473
 3345WAT      O10553   5.349   0.784   2.314
 3345WAT     H110554   5.281   0.851   2.313
 3345WAT     H210555   5.403   0.804   2.237
 3346WAT      O10556   5.103   0.968   2.185
 3346WAT     H110557   5.104   0.928   2.098
 3346WAT     H210558   5.047   1.045   2.175
 3347WAT      O10559   5.232   0.640   1.694
 3347WAT     H110560   5.221   0.546   1.707
 3347WAT     H210561   5.231   0.677   1.783
 3348WAT      O10562   5.043   0.460   2.318
 3348WAT     H110563   5.084   0.437   2.235
 3348WAT     H210564   5.115   0.484   2.375
 3349WAT      O10565   4.786   0.203   1.630
 3349WAT     H110566   4.693   0.197   1.653
 3349WAT     H210567   4.802   0.297   1.618
 3350WAT      O10568   5.438   0.298   2.327
 3350WAT     H110569   5.354   0.306   2.280
 3350WAT     H210570   5.497   0.357   2.281
 3351WAT      O10571   5.189   0.359   1.680
 3351WAT     H110572   5.127   0.326   1.615
 3351WAT     H210573   5.187   0.295   1.751
 3352WAT      O10574   4.347   0.256   1.908
 3352WAT     H110575   4.306   0.185   1.858
 3352WAT     H210576   4.355   0.221   1.997
 3353WAT      O10577   4.394   0.623   2.125
 3353WAT     H110578   4.364   0.564   2.055
 3353WAT     H210579   4.489   0.628   2.113
 3354WAT      O10580   5.202   0.981   2.491
 3354WAT     H110581   5.155   1.062   2.470
 3354WAT     H210582   5.133   0.917   2.506
 3355WAT      O10583   4.303   0.598   2.788
 3355WAT     H110584   4.214   0.621   2.814
 3355WAT     H210585   4.305   0.611   2.694
 3356WAT      O10586   5.007   0.283   1.381
 3356WAT     H110587   5.051   0.199   1.366
 3356WAT     H210588   5.079   0.346   1.388
 3357WAT      O10589   4.185   0.285   2.647
 3357WAT     H110590   4.171   0.373   2.683
 3357WAT     H210591   4.097   0.252   2.632
 3358WAT      O10592   4.818   0.776   1.778
 3358WAT     H110593   4.862   0.851   1.736
 3358WAT     H210594   4.812   0.801   1.870
 3359WAT      O10595   4.365   0.880   2.868
 3359WAT     H110596   4.362   0.920   2.781
 3359WAT     H210597   4.349   0.787   2.852
 3360WAT      O10598   5.561   0.958   2.997
 3360WAT     H110599   5.608   1.006   3.065
 3360WAT     H210600   5.623   0.951   2.925
 3361WAT      O10601   3.781   0.463   2.239
 3361WAT     H110602   3.788   0.476   2.144
 3361WAT     H210603   3.842   0.391   2.258
 3362WAT      O10604   3.904   0.631   1.879
 3362WAT     H110605   3.865   0.648   1.794
 3362WAT     H210606   3.994   0.604   1.859
 3363WAT      O10607   5.500   0.676   2.713
 3363WAT     H110608   5.514   0.652   2.622
 3363WAT     H210609   5.505   0.594   2.761
 3364WAT      O10610   4.888   1.047   2.571
 3364WAT     H110611   4.938   1.038   2.652
 3364WAT     H210612   4.803   1.082   2.599
 3365WAT      O10613   5.084   1.076   1.513
 3365WAT     H110614   5.069   1.047   1.603
 3365WAT     H210615   5.069   0.998   1.460
 3366WAT      O10616   4.332   1.054   1.691
 3366WAT     H110617   4.315   0.962   1.670
 3366WAT     H210618   4.247   1.090   1.715
 3367WAT      O10619   5.055   0.828   1.369
 3367WAT     H110620   4.985   0.827   1.303
 3367WAT     H210621   5.129   0.785   1.326
 3368WAT      O10622   5.010   0.989   1.777
 3368WAT     H110623   5.057   0.911   1.808
 3368WAT     H210624   5.045   1.060   1.831
 3369WAT      O10625   3.786   0.567   2.493
 3369WAT     H110626   3.802   0.520   2.411
 3369WAT     H210627   3.833   0.516   2.559
 3370WAT      O10628   3.945   0.503   2.709
 3370WAT     H110629   3.905   0.440   2.768
 3370WAT     H210630   3.975   0.574   2.766
 3371WAT      O10631   4.559   0.189   2.257
 3371WAT     H110632   4.595   0.141   2.331
 3371WAT     H210633   4.539   0.276   2.292
 3372WAT      O10634   4.191   0.514   1.548
 3372WAT     H110635   4.114   0.459   1.533
 3372WAT     H210636   4.264   0.462   1.514
 3373WAT      O10637   5.266   0.413   2.127
 3373WAT     H110638   5.338   0.463   2.088
 3373WAT     H210639   5.246   0.345   2.063
 3374WAT      O10640   4.805   0.420   2.717
 3374WAT     H110641   4.798   0.328   2.691
 3374WAT     H210642   4.742   0.430   2.788
 3375WAT      O10643   4.195   0.481   1.913
 3375WAT     H110644   4.247   0.400   1.906
 3375WAT     H210645   4.150   0.473   1.997
 3376WAT      O10646   4.684   0.607   1.439
 3376WAT     H110647   4.718   0.682   1.390
 3376WAT     H210648   4.601   0.638   1.475
 3377WAT      O10649   4.263   0.222   2.892
 3377WAT     H110650   4.233   0.237   2.803
 3377WAT     H210651   4.341   0.167   2.883
 3378WAT      O10652   4.798   0.702   2.691
 3378WAT     H110653   4.798   0.608   2.670
 3378WAT     H210654   4.727   0.711   2.755
 3379WAT      O10655   5.420   0.368   2.626
 3379WAT     H110656   5.346   0.426   2.606
 3379WAT     H210657   5.471   0.365   2.546
 3380WAT      O10658   5.415   0.806   1.590
 3380WAT     H110659   5.350   0.741   1.618
 3380WAT     H210660   5.376   0.847   1.513
 3381WAT      O10661   4.972   0.539   1.976
 3381WAT     H110662   5.007   0.479   1.910
 3381WAT     H210663   4.883   0.507   1.993
 3382WAT      O10664   4.580   0.615   1.717
 3382WAT     H110665   4.649   0.670   1.753
 3382WAT     H210666   4.502   0.670   1.720
 3383WAT      O10667   3.794   0.177   1.265
 3383WAT     H110668   3.881   0.205   1.295
 3383WAT     H210669   3.745   0.258   1.254
 3384WAT      O10670   4.512   0.315   1.679
 3384WAT     H110671   4.556   0.398   1.700
 3384WAT     H210672   4.476   0.285   1.762
 3385WAT      O10673   4.741   0.867   2.400
 3385WAT     H110674   4.805   0.888   2.468
 3385WAT     H210675   4.777   0.791   2.356
 3386WAT      O10676   4.869   0.667   2.272
 3386WAT     H110677   4.933   0.597   2.285
 3386WAT     H210678   4.922   0.745   2.254
 3387WAT      O10679   5.252   0.696   1.245
 3387WAT     H110680   5.230   0.623   1.304
 3387WAT     H210681   5.215   0.670   1.161
 3388WAT      O10682   5.046   0.748   2.593
 3388WAT     H110683   5.079   0.806   2.661
 3388WAT     H210684   4.954   0.734   2.616
 3389WAT      O10685   3.831   1.098   1.322
 3389WAT     H110686   3.867   1.159   1.257
 3389WAT     H210687   3.817   1.153   1.400
 3390WAT      O10688   5.211   0.486   1.412
 3390WAT     H110689   5.182   0.533   1.490
 3390WAT     H210690   5.291   0.442   1.438
 3391WAT      O10691   3.830   0.925   2.769
 3391WAT     H110692   3.840   0.831   2.756
 3391WAT     H210693   3.763   0.951   2.705
 3392WAT      O10694   4.629   0.752   2.910
 3392WAT     H110695   4.597   0.680   2.964
 3392WAT     H210696   4.561   0.819   2.916
 3393WAT      O10697   4.433   0.837   1.404
 3393WAT     H110698   4.433   0.910   1.342
 3393WAT     H210699   4.341   0.811   1.413
 3394WAT      O10700   3.992   0.359   1.478
 3394WAT     H110701   3.931   0.433   1.478
 3394WAT     H210702   4.040   0.368   1.395
 3395WAT      O10703   4.731   0.842   1.270
 3395WAT     H110704   4.741   0.822   1.177
 3395WAT     H210705   4.641   0.817   1.291
 3396WAT      O10706   4.596   1.096   1.740
 3396WAT     H110707   4.622   1.091   1.648
 3396WAT     H210708   4.501   1.082   1.739
 3397WAT      O10709   4.193   0.354   1.254
 3397WAT     H110710   4.271   0.344   1.310
 3397WAT     H210711   4.202   0.286   1.187
 3398WAT      O10712   5.396   0.904   2.064
 3398WAT     H110713   5.409   0.986   2.112
 3398WAT     H210714   5.483   0.882   2.030
 3399WAT      O10715   4.143   1.113   2.033
 3399WAT     H110716   4.217   1.058   2.059
 3399WAT     H210717   4.183   1.199   2.018
 3400WAT      O10718   3.831   0.720   1.620
 3400WAT     H110719   3.739   0.745   1.618
 3400WAT     H210720   3.879   0.802   1.607
 3401WAT      O10721   4.044   1.031   2.951
 3401WAT     H110722   4.124   1.063   2.992
 3401WAT     H210723   3.993   0.995   3.023
 3402WAT      O10724   4.454   1.029   1.214
 3402WAT     H110725   4.533   1.060   1.170
 3402WAT     H210726   4.403   0.987   1.145
 3403WAT      O10727   4.928   0.642   2.946
 3403WAT     H110728   4.868   0.644   2.872
 3403WAT     H210729   4.897   0.569   3.000
 3404WAT      O10730   5.071   1.016   2.806
 3404WAT     H110731   5.166   1.007   2.803
 3404WAT     H210732   5.055   1.080   2.874
 3405WAT      O10733   5.360   0.953   1.357
 3405WAT     H110734   5.331   0.912   1.275
 3405WAT     H210735   5.340   1.046   1.345
 3406WAT      O10736   3.817   0.281   2.846
 3406WAT     H110737   3.866   0.221   2.902
 3406WAT     H210738   3.741   0.308   2.898
 3407WAT      O10739   4.506   0.552   1.200
 3407WAT     H110740   4.496   0.491   1.273
 3407WAT     H210741   4.490   0.499   1.122
 3408WAT      O10742   4.522   0.422   2.798
 3408WAT     H110743   4.445   0.478   2.790
 3408WAT     H210744   4.539   0.392   2.709
 3409WAT      O10745   4.830   0.458   1.261
 3409WAT     H110746   4.775   0.503   1.325
 3409WAT     H210747   4.893   0.408   1.313
 3410WAT      O10748   5.236   0.595   2.855
 3410WAT     H110749   5.310   0.628   2.804
 3410WAT     H210750   5.159   0.611   2.799
 3411WAT      O10751   4.396   0.353   1.450
 3411WAT     H110752   4.439   0.339   1.534
 3411WAT     H210753   4.411   0.273   1.401
 3412WAT      O10754   4.648   0.257   1.175
 3412WAT     H110755   4.700   0.185   1.139
 3412WAT     H210756   4.713   0.321   1.205
 3413WAT      O10757   5.103   0.399   2.708
 3413WAT     H110758   5.145   0.414   2.792
 3413WAT     H210759   5.010   0.412   2.725
 3414WAT      O10760   4.579   0.394   2.506
 3414WAT     H110761   4.621   0.478   2.488
 3414WAT     H210762   4.487   0.408   2.481
 3415WAT      O10763   5.046   0.223   2.501
 3415WAT     H110764   4.995   0.276   2.440
 3415WAT     H210765   5.081   0.286   2.564
 3416WAT      O10766   4.365   1.026   2.616
 3416WAT     H110767   4.310   1.097   2.584
 3416WAT     H210768   4.390   0.977   2.538
 3417WAT      O10769   4.650   1.148   2.642
 3417WAT     H110770   4.643   1.238   2.673
 3417WAT     H210771   4.560   1.116   2.639
 3418WAT      O10772   4.705   1.066   1.404
 3418WAT     H110773   4.794   1.099   1.407
 3418WAT     H210774   4.708   0.993   1.343
 3419WAT      O10775   4.069   0.602   1.226
 3419WAT     H110776   4.112   0.656   1.292
 3419WAT     H210777   4.117   0.519   1.228
 3420WAT      O10778   3.789   0.881   1.973
 3420WAT     H110779   3.824   0.794   1.950
 3420WAT     H210780   3.833   0.902   2.056
 3421WAT      O10781   4.251   0.714   1.739
 3421WAT     H110782   4.220   0.702   1.829
 3421WAT     H210783   4.239   0.629   1.698
 3422WAT      O10784   3.839   0.968   2.246
 3422WAT     H110785   3.795   0.986   2.330
 3422WAT     H210786   3.896   1.043   2.232
 3423WAT      O10787   5.403   0.919   2.675
 3423WAT     H110788   5.342   0.924   2.601
 3423WAT     H210789   5.417   0.825   2.688
 3424WAT      O10790   5.528   0.692   1.210
 3424WAT     H110791   5.443   0.699   1.255
 3424WAT     H210792   5.544   0.781   1.178
 3425WAT      O10793   5.472   0.367   1.459
 3425WAT     H110794   5.549   0.423   1.469
 3425WAT     H210795   5.474   0.310   1.536
 3426WAT      O10796   3.822   0.220   1.881
 3426WAT     H110797   3.757   0.191   1.818
 3426WAT     H210798   3.906   0.208   1.837
 3427WAT      O10799   5.573   0.453   1.944
 3427WAT     H110800   5.610   0.374   1.904
 3427WAT     H210801   5.637   0.521   1.926
 3428WAT      O10802   5.271   0.590   2.485
 3428WAT     H110803   5.190   0.633   2.512
 3428WAT     H210804   5.312   0.652   2.424
 3429WAT      O10805   5.480   0.396   1.175
 3429WAT     H110806   5.504   0.487   1.162
 3429WAT     H210807   5.459   0.389   1.269
 3430WAT      O10808   3.926   0.257   2.336
 3430WAT     H110809   3.963   0.249   2.424
 3430WAT     H210810   3.869   0.181   2.326
 3431WAT      O10811   5.278   1.066   1.838
 3431WAT     H110812   5.337   1.034   1.770
 3431WAT     H210813   5.303   1.017   1.917
 3432WAT      O10814   4.068   0.709   2.853
 3432WAT     H110815   4.063   0.672   2.941
 3432WAT     H210816   4.081   0.803   2.867
 3433WAT      O10817   4.438   0.864   2.413
 3433WAT     H110818   4.414   0.890   2.324
 3433WAT     H210819   4.532   0.880   2.418
 3434WAT      O10820   5.564   1.065   2.491
 3434WAT     H110821   5.514   1.106   2.421
 3434WAT     H210822   5.503   1.005   2.533
 3435WAT      O10823   4.051   1.003   2.564
 3435WAT     H110824   3.992   0.990   2.638
 3435WAT     H210825   4.051   0.920   2.518
 3436WAT      O10826   5.332   1.131   2.220
 3436WAT     H110827   5.286   1.206   2.183
 3436WAT     H210828   5.268   1.060   2.216
 3437WAT      O10829   4.015   0.741   2.460
 3437WAT     H110830   3.942   0.679   2.454
 3437WAT     H210831   4.021   0.778   2.372
 3438WAT      O10832   4.375   0.961   2.139
 3438WAT     H110833   4.427   0.900   2.086
 3438WAT     H210834   4.440   1.013   2.186
 3439WAT      O10835   4.649   1.050   2.221
 3439WAT     H110836   4.679   1.025   2.133
 3439WAT     H210837   4.700   0.995   2.280
 3440WAT      O10838   3.843   1.072   1.781
 3440WAT     H110839   3.826   1.008   1.850
 3440WAT     H210840   3.756   1.092   1.745
 3441WAT      O10841   4.003   0.941   1.526
 3441WAT     H110842   3.951   0.979   1.455
 3441WAT     H210843   3.996   1.004   1.597
 3442WAT      O10844   4.656   1.143   2.957
 3442WAT     H110845   4.748   1.119   2.962
 3442WAT     H210846   4.654   1.225   2.909
 3443WAT      O10847   5.479   1.097   1.657
 3443WAT     H110848   5.497   1.028   1.593
 3443WAT     H210849   5.410   1.149   1.617
 3444WAT      O10850   4.264   1.137   1.412
 3444WAT     H110851   4.337   1.107   1.358
 3444WAT     H210852   4.289   1.112   1.501
 3445WAT      O10853   4.180   0.747   1.413
 3445WAT     H110854   4.117   0.795   1.468
 3445WAT     H210855   4.191   0.663   1.457
 3446WAT      O10856   5.313   1.066   2.939
 3446WAT     H110857   5.392   1.016   2.920
 3446WAT     H210858   5.342   1.133   3.001
 3447WAT      O10859   4.738   0.330   0.215
 3447WAT     H110860   4.661   0.281   0.246
 3447WAT     H210861   4.803   0.262   0.199
 3448WAT      O10862   4.139   0.363   0.304
 3448WAT     H110863   4.057   0.335   0.344
 3448WAT     H210864   4.201   0.369   0.376
 3449WAT      O10865   4.138   0.765   0.324
 3449WAT     H110866   4.168   0.676   0.306
 3449WAT     H210867   4.212   0.821   0.301
 3450WAT      O10868   4.681   0.598   0.217
 3450WAT     H110869   4.677   0.503   0.201
 3450WAT     H210870   4.758   0.608   0.274
 3451WAT      O10871   4.337   0.441   0.464
 3451WAT     H110872   4.303   0.503   0.527
 3451WAT     H210873   4.354   0.494   0.385
 3452WAT      O10874   4.258   0.637   0.645
 3452WAT     H110875   4.319   0.706   0.617
 3452WAT     H210876   4.171   0.677   0.636
 3453WAT      O10877   5.348   0.784   0.436
 3453WAT     H110878   5.281   0.852   0.435
 3453WAT     H210879   5.404   0.804   0.360
 3454WAT      O10880   5.103   0.968   0.308
 3454WAT     H110881   5.104   0.928   0.221
 3454WAT     H210882   5.047   1.046   0.298
 3455WAT      O10883   5.043   0.460   0.440
 3455WAT     H110884   5.084   0.437   0.358
 3455WAT     H210885   5.115   0.484   0.498
 3456WAT      O10886   5.437   0.298   0.449
 3456WAT     H110887   5.354   0.306   0.402
 3456WAT     H210888   5.497   0.357   0.404
 3457WAT      O10889   4.394   0.624   0.247
 3457WAT     H110890   4.364   0.564   0.179
 3457WAT     H210891   4.489   0.628   0.236
 3458WAT      O10892   5.202   0.981   0.613
 3458WAT     H110893   5.155   1.062   0.593
 3458WAT     H210894   5.133   0.917   0.628
 3459WAT      O10895   4.303   0.598   0.911
 3459WAT     H110896   4.214   0.621   0.937
 3459WAT     H210897   4.305   0.611   0.817
 3460WAT      O10898   4.185   0.285   0.770
 3460WAT     H110899   4.171   0.373   0.805
 3460WAT     H210900   4.097   0.251   0.755
 3461WAT      O10901   4.365   0.880   0.990
 3461WAT     H110902   4.362   0.920   0.904
 3461WAT     H210903   4.349   0.787   0.974
 3462WAT      O10904   5.561   0.958   1.120
 3462WAT     H110905   5.608   1.006   1.188
 3462WAT     H210906   5.623   0.951   1.047
 3463WAT      O10907   3.780   0.462   0.361
 3463WAT     H110908   3.789   0.476   0.267
 3463WAT     H210909   3.842   0.392   0.381
 3464WAT      O10910   5.500   0.676   0.836
 3464WAT     H110911   5.514   0.652   0.744
 3464WAT     H210912   5.505   0.593   0.883
 3465WAT      O10913   4.888   1.047   0.693
 3465WAT     H110914   4.938   1.038   0.774
 3465WAT     H210915   4.803   1.082   0.722
 3466WAT      O10916   3.786   0.567   0.615
 3466WAT     H110917   3.802   0.520   0.533
 3466WAT     H210918   3.833   0.517   0.682
 3467WAT      O10919   3.944   0.503   0.831
 3467WAT     H110920   3.905   0.440   0.891
 3467WAT     H210921   3.975   0.574   0.888
 3468WAT      O10922   4.560   0.189   0.379
 3468WAT     H110923   4.595   0.141   0.454
 3468WAT     H210924   4.539   0.276   0.414
 3469WAT      O10925   5.266   0.413   0.250
 3469WAT     H110926   5.338   0.463   0.211
 3469WAT     H210927   5.246   0.345   0.186
 3470WAT      O10928   4.806   0.420   0.840
 3470WAT     H110929   4.798   0.329   0.813
 3470WAT     H210930   4.741   0.430   0.910
 3471WAT      O10931   4.263   0.222   1.014
 3471WAT     H110932   4.234   0.237   0.925
 3471WAT     H210933   4.341   0.167   1.005
 3472WAT      O10934   4.798   0.702   0.814
 3472WAT     H110935   4.798   0.608   0.793
 3472WAT     H210936   4.727   0.711   0.878
 3473WAT      O10937   5.420   0.368   0.749
 3473WAT     H110938   5.346   0.426   0.728
 3473WAT     H210939   5.471   0.366   0.668
 3474WAT      O10940   4.741   0.867   0.522
 3474WAT     H110941   4.804   0.887   0.591
 3474WAT     H210942   4.777   0.790   0.479
 3475WAT      O10943   4.869   0.667   0.395
 3475WAT     H110944   4.932   0.597   0.407
 3475WAT     H210945   4.922   0.745   0.377
 3476WAT      O10946   5.046   0.748   0.715
 3476WAT     H110947   5.079   0.806   0.784
 3476WAT     H210948   4.954   0.734   0.738
 3477WAT      O10949   3.830   0.925   0.891
 3477WAT     H110950   3.840   0.831   0.878
 3477WAT     H210951   3.763   0.951   0.827
 3478WAT      O10952   4.629   0.751   1.032
 3478WAT     H110953   4.597   0.680   1.087
 3478WAT     H210954   4.561   0.819   1.038
 3479WAT      O10955   4.044   1.031   1.074
 3479WAT     H110956   4.124   1.063   1.115
 3479WAT     H210957   3.993   0.995   1.146
 3480WAT      O10958   4.928   0.642   1.068
 3480WAT     H110959   4.867   0.644   0.994
 3480WAT     H210960   4.897   0.569   1.122
 3481WAT      O10961   5.071   1.016   0.928
 3481WAT     H110962   5.166   1.007   0.925
 3481WAT     H210963   5.055   1.080   0.997
 3482WAT      O10964   3.817   0.281   0.968
 3482WAT     H110965   3.866   0.221   1.025
 3482WAT     H210966   3.741   0.308   1.021
 3483WAT      O10967   4.522   0.422   0.921
 3483WAT     H110968   4.445   0.478   0.913
 3483WAT     H210969   4.539   0.392   0.832
 3484WAT      O10970   5.236   0.595   0.977
 3484WAT     H110971   5.310   0.628   0.926
 3484WAT     H210972   5.159   0.611   0.922
 3485WAT      O10973   5.103   0.399   0.830
 3485WAT     H110974   5.145   0.414   0.914
 3485WAT     H210975   5.009   0.412   0.847
 3486WAT      O10976   4.579   0.394   0.628
 3486WAT     H110977   4.621   0.478   0.610
 3486WAT     H210978   4.487   0.408   0.603
 3487WAT      O10979   5.046   0.223   0.623
 3487WAT     H110980   4.994   0.276   0.563
 3487WAT     H210981   5.081   0.286   0.686
 3488WAT      O10982   4.366   1.026   0.739
 3488WAT     H110983   4.310   1.097   0.707
 3488WAT     H210984   4.389   0.976   0.661
 3489WAT      O10985   4.650   1.148   0.765
 3489WAT     H110986   4.643   1.239   0.795
 3489WAT     H210987   4.560   1.116   0.762
 3490WAT      O10988   3.839   0.967   0.369
 3490WAT     H110989   3.795   0.986   0.452
 3490WAT     H210990   3.895   1.043   0.355
 3491WAT      O10991   5.403   0.919   0.797
 3491WAT     H110992   5.342   0.924   0.723
 3491WAT     H210993   5.417   0.825   0.811
 3492WAT      O10994   5.271   0.590   0.607
 3492WAT     H110995   5.190   0.633   0.634
 3492WAT     H210996   5.312   0.652   0.546
 3493WAT      O10997   3.926   0.257   0.459
 3493WAT     H110998   3.963   0.249   0.547
 3493WAT     H210999   3.869   0.181   0.449
 3494WAT      O11000   4.068   0.709   0.975
 3494WAT     H111001   4.063   0.672   1.064
 3494WAT     H211002   4.081   0.803   0.989
 3495WAT      O11003   4.438   0.864   0.535
 3495WAT     H111004   4.414   0.890   0.446
 3495WAT     H211005   4.532   0.880   0.540
 3496WAT      O11006   5.565   1.065   0.614
 3496WAT     H111007   5.514   1.106   0.544
 3496WAT     H211008   5.503   1.005   0.656
 3497WAT      O11009   4.052   1.003   0.687
 3497WAT     H111010   3.992   0.990   0.761
 3497WAT     H211011   4.051   0.920   0.640
 3498WAT      O11012   5.332   1.131   0.344
 3498WAT     H111013   5.286   1.206   0.306
 3498WAT     H211014   5.269   1.059   0.337
 3499WAT      O11015   4.015   0.741   0.582
 3499WAT     H111016   3.942   0.679   0.576
 3499WAT     H211017   4.021   0.778   0.494
 3500WAT      O11018   4.375   0.960   0.262
 3500WAT     H111019   4.427   0.900   0.208
 3500WAT     H211020   4.440   1.013   0.309
 3501WAT      O11021   4.649   1.050   0.343
 3501WAT     H111022   4.678   1.025   0.256
 3501WAT     H211023   4.699   0.995   0.402
 3502WAT      O11024   4.656   1.143   1.080
 3502WAT     H111025   4.748   1.119   1.084
 3502WAT     H211026   4.654   1.225   1.032
 3503WAT      O11027   5.313   1.066   1.061
 3503WAT     H111028   5.392   1.015   1.043
 3503WAT     H211029   5.342   1.133   1.123
 3504WAT      O11030   3.048   5.785   5.660
 3504WAT     H111031   3.040   5.693   5.633
 3504WAT     H211032   3.006   5.834   5.590
 3505WAT      O11033   2.104   5.490   5.314
 3505WAT     H111034   2.015   5.523   5.304
 3505WAT     H211035   2.132   5.470   5.225
 3506WAT      O11036   2.321   5.348   5.418
 3506WAT     H111037   2.332   5.438   5.449
 3506WAT     H211038   2.230   5.344   5.389
 3507WAT      O11039   3.286   5.260   5.565
 3507WAT     H111040   3.368   5.211   5.569
 3507WAT     H211041   3.290   5.320   5.640
 3508WAT      O11042   2.670   5.029   5.711
 3508WAT     H111043   2.701   4.973   5.639
 3508WAT     H211044   2.577   5.042   5.693
 3509WAT      O11045   2.909   5.835   5.386
 3509WAT     H111046   2.816   5.829   5.407
 3509WAT     H211047   2.924   5.929   5.373
 3510WAT      O11048   2.907   5.461   5.083
 3510WAT     H111049   2.814   5.479   5.094
 3510WAT     H211050   2.940   5.535   5.030
 3511WAT      O11051   2.469   5.889   5.663
 3511WAT     H111052   2.429   5.817   5.613
 3511WAT     H211053   2.478   5.854   5.752
 3512WAT      O11054   3.488   5.041   4.967
 3512WAT     H111055   3.457   5.049   5.057
 3512WAT     H211056   3.564   5.099   4.962
 3513WAT      O11057   2.139   5.778   5.413
 3513WAT     H111058   2.127   5.850   5.352
 3513WAT     H211059   2.108   5.701   5.365
 3514WAT      O11060   2.386   5.112   5.751
 3514WAT     H111061   2.342   5.190   5.718
 3514WAT     H211062   2.442   5.144   5.822
 3515WAT      O11063   2.697   5.074   5.239
 3515WAT     H111064   2.635   5.074   5.312
 3515WAT     H211065   2.689   4.987   5.200
 3516WAT      O11066   2.365   5.624   5.524
 3516WAT     H111067   2.342   5.602   5.614
 3516WAT     H211068   2.287   5.668   5.489
 3517WAT      O11069   3.088   5.625   5.384
 3517WAT     H111070   3.028   5.697   5.366
 3517WAT     H211071   3.143   5.619   5.306
 3518WAT      O11072   2.950   5.489   5.588
 3518WAT     H111073   2.988   5.520   5.506
 3518WAT     H211074   2.984   5.400   5.598
 3519WAT      O11075   1.872   5.542   4.930
 3519WAT     H111076   1.863   5.636   4.944
 3519WAT     H211077   1.835   5.527   4.842
 3520WAT      O11078   2.651   5.415   5.837
 3520WAT     H111079   2.651   5.371   5.752
 3520WAT     H211080   2.741   5.447   5.848
 3521WAT      O11081   2.236   5.403   5.733
 3521WAT     H111082   2.202   5.451   5.808
 3521WAT     H211083   2.160   5.358   5.696
 3522WAT      O11084   2.657   5.514   5.137
 3522WAT     H111085   2.669   5.511   5.232
 3522WAT     H211086   2.619   5.601   5.120
 3523WAT      O11087   2.559   5.746   5.075
 3523WAT     H111088   2.502   5.701   5.012
 3523WAT     H211089   2.629   5.783   5.022
 3524WAT      O11090   1.968   5.295   5.624
 3524WAT     H111091   1.940   5.259   5.708
 3524WAT     H211092   1.962   5.222   5.563
 3525WAT      O11093   2.936   5.185   5.297
 3525WAT     H111094   2.854   5.135   5.289
 3525WAT     H211095   2.916   5.269   5.255
 3526WAT      O11096   3.206   5.622   5.126
 3526WAT     H111097   3.294   5.654   5.109
 3526WAT     H211098   3.204   5.534   5.087
 3527WAT      O11099   3.435   5.752   5.072
 3527WAT     H111100   3.425   5.796   4.988
 3527WAT     H211101   3.506   5.799   5.116
 3528WAT      O11102   1.916   5.809   5.020
 3528WAT     H111103   2.004   5.836   5.049
 3528WAT     H211104   1.868   5.891   5.010
 3529WAT      O11105   2.224   4.982   5.480
 3529WAT     H111106   2.210   4.980   5.575
 3529WAT     H211107   2.141   5.015   5.445
 3530WAT      O11108   3.409   5.303   5.282
 3530WAT     H111109   3.346   5.313   5.210
 3530WAT     H211110   3.359   5.324   5.361
 3531WAT      O11111   2.606   5.531   5.423
 3531WAT     H111112   2.535   5.577   5.467
 3531WAT     H211113   2.635   5.466   5.487
 3532WAT      O11114   3.010   5.203   5.567
 3532WAT     H111115   2.996   5.205   5.472
 3532WAT     H211116   3.105   5.208   5.578
 3533WAT      O11117   2.426   5.362   5.160
 3533WAT     H111118   2.512   5.405   5.154
 3533WAT     H211119   2.391   5.393   5.244
 3534WAT      O11120   3.319   5.819   5.652
 3534WAT     H111121   3.225   5.820   5.669
 3534WAT     H211122   3.351   5.741   5.697
 3535WAT      O11123   2.186   5.731   5.078
 3535WAT     H111124   2.194   5.636   5.087
 3535WAT     H211125   2.276   5.763   5.087
 3536WAT      O11126   2.771   5.889   4.930
 3536WAT     H111127   2.823   5.817   4.894
 3536WAT     H211128   2.836   5.953   4.960
 3537WAT      O11129   2.409   5.594   4.900
 3537WAT     H111130   2.389   5.507   4.936
 3537WAT     H211131   2.392   5.585   4.806
 3538WAT      O11132   3.157   5.075   5.153
 3538WAT     H111133   3.185   4.991   5.189
 3538WAT     H211134   3.080   5.099   5.204
 3539WAT      O11135   2.289   5.305   4.898
 3539WAT     H111136   2.320   5.304   4.808
 3539WAT     H211137   2.363   5.269   4.949
 3540WAT      O11138   2.612   5.198   4.997
 3540WAT     H111139   2.576   5.131   4.940
 3540WAT     H211140   2.631   5.153   5.079
 3541WAT      O11141   1.945   5.851   5.637
 3541WAT     H111142   1.879   5.824   5.573
 3541WAT     H211143   2.029   5.840   5.591
 3542WAT      O11144   3.241   5.330   5.059
 3542WAT     H111145   3.282   5.312   4.975
 3542WAT     H211146   3.208   5.245   5.089
 3543WAT      O11147   3.590   5.822   5.429
 3543WAT     H111148   3.552   5.745   5.386
 3543WAT     H211149   3.517   5.860   5.478
 3544WAT      O11150   1.866   5.572   5.231
 3544WAT     H111151   1.776   5.598   5.214
 3544WAT     H211152   1.914   5.599   5.152
 3545WAT      O11153   3.517   5.643   5.760
 3545WAT     H111154   3.570   5.596   5.696
 3545WAT     H211155   3.576   5.658   5.833
 3546WAT      O11156   2.121   5.478   5.023
 3546WAT     H111157   2.191   5.434   4.974
 3546WAT     H211158   2.049   5.485   4.960
 3547WAT      O11159   2.085   5.083   4.926
 3547WAT     H111160   2.157   5.137   4.959
 3547WAT     H211161   2.113   5.056   4.838
 3548WAT      O11162   3.468   5.570   5.353
 3548WAT     H111163   3.515   5.546   5.432
 3548WAT     H211164   3.446   5.487   5.312
 3549WAT      O11165   3.609   5.434   5.606
 3549WAT     H111166   3.598   5.418   5.700
 3549WAT     H211167   3.685   5.382   5.582
 3550WAT      O11168   3.698   5.216   4.931
 3550WAT     H111169   3.791   5.204   4.910
 3550WAT     H211170   3.696   5.226   5.026
 3551WAT      O11171   3.705   5.293   5.193
 3551WAT     H111172   3.625   5.287   5.246
 3551WAT     H211173   3.726   5.387   5.192
 3552WAT      O11174   3.348   5.127   5.838
 3552WAT     H111175   3.393   5.121   5.754
 3552WAT     H211176   3.323   5.219   5.845
 3553WAT      O11177   3.535   5.091   5.639
 3553WAT     H111178   3.528   4.996   5.624
 3553WAT     H211179   3.613   5.100   5.694
 3554WAT      O11180   2.028   5.087   5.286
 3554WAT     H111181   2.104   5.098   5.228
 3554WAT     H211182   1.982   5.171   5.280
 3555WAT      O11183   2.681   5.299   5.586
 3555WAT     H111184   2.601   5.260   5.550
 3555WAT     H211185   2.733   5.223   5.615
 3556WAT      O11186   3.132   4.965   5.708
 3556WAT     H111187   3.192   5.022   5.756
 3556WAT     H211188   3.058   5.021   5.686
 3557WAT      O11189   3.447   5.005   5.237
 3557WAT     H111190   3.465   5.095   5.263
 3557WAT     H211191   3.368   4.982   5.284
 3558WAT      O11192   2.265   5.140   5.140
 3558WAT     H111193   2.318   5.061   5.128
 3558WAT     H211194   2.328   5.208   5.162
 3559WAT      O11195   2.484   5.114   5.445
 3559WAT     H111196   2.421   5.044   5.462
 3559WAT     H211197   2.430   5.190   5.424
 3560WAT      O11198   3.047   5.785   3.783
 3560WAT     H111199   3.040   5.693   3.756
 3560WAT     H211200   3.006   5.834   3.712
 3561WAT      O11201   2.861   5.963   3.971
 3561WAT     H111202   2.783   5.915   4.000
 3561WAT     H211203   2.926   5.895   3.954
 3562WAT      O11204   2.104   5.490   3.437
 3562WAT     H111205   2.015   5.523   3.427
 3562WAT     H211206   2.132   5.470   3.348
 3563WAT      O11207   1.897   5.748   4.025
 3563WAT     H111208   1.958   5.674   4.026
 3563WAT     H211209   1.901   5.781   3.936
 3564WAT      O11210   2.024   5.291   4.204
 3564WAT     H111211   2.006   5.201   4.232
 3564WAT     H211212   1.983   5.345   4.272
 3565WAT      O11213   2.907   5.511   3.994
 3565WAT     H111214   2.947   5.425   3.984
 3565WAT     H211215   2.899   5.545   3.904
 3566WAT      O11216   2.321   5.348   3.541
 3566WAT     H111217   2.332   5.438   3.572
 3566WAT     H211218   2.230   5.344   3.511
 3567WAT      O11219   3.286   5.260   3.688
 3567WAT     H111220   3.368   5.211   3.692
 3567WAT     H211221   3.290   5.319   3.763
 3568WAT      O11222   2.085   5.540   4.065
 3568WAT     H111223   2.154   5.566   4.126
 3568WAT     H211224   2.054   5.456   4.099
 3569WAT      O11225   2.505   5.645   3.974
 3569WAT     H111226   2.557   5.695   4.037
 3569WAT     H211227   2.558   5.567   3.956
 3570WAT      O11228   3.714   5.462   4.345
 3570WAT     H111229   3.645   5.502   4.292
 3570WAT     H211230   3.742   5.532   4.404
 3571WAT      O11231   2.334   5.108   4.400
 3571WAT     H111232   2.334   5.161   4.321
 3571WAT     H211233   2.251   5.061   4.398
 3572WAT      O11234   3.310   5.454   3.965
 3572WAT     H111235   3.239   5.482   4.022
 3572WAT     H211236   3.346   5.535   3.929
 3573WAT      O11237   2.302   5.280   4.201
 3573WAT     H111238   2.336   5.365   4.172
 3573WAT     H211239   2.208   5.295   4.212
 3574WAT      O11240   3.617   5.399   4.004
 3574WAT     H111241   3.522   5.402   4.017
 3574WAT     H211242   3.649   5.480   4.043
 3575WAT      O11243   2.670   5.029   3.833
 3575WAT     H111244   2.701   4.973   3.762
 3575WAT     H211245   2.577   5.042   3.815
 3576WAT      O11246   2.909   5.835   3.508
 3576WAT     H111247   2.816   5.829   3.530
 3576WAT     H211248   2.924   5.929   3.496
 3577WAT      O11249   2.907   5.462   3.205
 3577WAT     H111250   2.814   5.479   3.216
 3577WAT     H211251   2.940   5.535   3.153
 3578WAT      O11252   3.256   5.610   4.299
 3578WAT     H111253   3.215   5.692   4.324
 3578WAT     H211254   3.183   5.551   4.280
 3579WAT      O11255   2.469   5.888   3.785
 3579WAT     H111256   2.429   5.817   3.736
 3579WAT     H211257   2.478   5.854   3.874
 3580WAT      O11258   2.341   5.564   4.164
 3580WAT     H111259   2.395   5.577   4.086
 3580WAT     H211260   2.391   5.604   4.235
 3581WAT      O11261   3.487   5.041   3.090
 3581WAT     H111262   3.457   5.049   3.180
 3581WAT     H211263   3.564   5.099   3.085
 3582WAT      O11264   2.139   5.778   3.536
 3582WAT     H111265   2.127   5.850   3.474
 3582WAT     H211266   2.108   5.701   3.488
 3583WAT      O11267   3.609   5.515   4.687
 3583WAT     H111268   3.547   5.566   4.635
 3583WAT     H211269   3.577   5.425   4.682
 3584WAT      O11270   2.386   5.112   3.874
 3584WAT     H111271   2.342   5.190   3.840
 3584WAT     H211272   2.442   5.144   3.944
 3585WAT      O11273   2.815   5.399   4.434
 3585WAT     H111274   2.768   5.419   4.515
 3585WAT     H211275   2.775   5.317   4.404
 3586WAT      O11276   3.315   5.520   4.547
 3586WAT     H111277   3.230   5.491   4.579
 3586WAT     H211278   3.299   5.545   4.456
 3587WAT      O11279   3.024   5.671   4.756
 3587WAT     H111280   3.056   5.587   4.724
 3587WAT     H211281   3.103   5.722   4.773
 3588WAT      O11282   2.697   5.074   3.362
 3588WAT     H111283   2.635   5.074   3.434
 3588WAT     H211284   2.689   4.987   3.323
 3589WAT      O11285   2.591   5.166   4.060
 3589WAT     H111286   2.619   5.257   4.051
 3589WAT     H211287   2.645   5.118   3.998
 3590WAT      O11288   2.365   5.624   3.646
 3590WAT     H111289   2.343   5.603   3.737
 3590WAT     H211290   2.287   5.668   3.612
 3591WAT      O11291   3.088   5.624   3.506
 3591WAT     H111292   3.028   5.697   3.488
 3591WAT     H211293   3.143   5.619   3.428
 3592WAT      O11294   2.609   5.714   4.712
 3592WAT     H111295   2.600   5.620   4.698
 3592WAT     H211296   2.694   5.737   4.674
 3593WAT      O11297   2.950   5.489   3.710
 3593WAT     H111298   2.988   5.520   3.628
 3593WAT     H211299   2.984   5.400   3.720
 3594WAT      O11300   2.122   5.355   4.528
 3594WAT     H111301   2.083   5.440   4.549
 3594WAT     H211302   2.053   5.291   4.546
 3595WAT      O11303   2.780   5.364   4.836
 3595WAT     H111304   2.711   5.343   4.899
 3595WAT     H211305   2.854   5.392   4.889
 3596WAT      O11306   1.852   5.147   3.932
 3596WAT     H111307   1.824   5.205   4.003
 3596WAT     H211308   1.927   5.099   3.969
 3597WAT      O11309   1.872   5.542   3.053
 3597WAT     H111310   1.863   5.636   3.067
 3597WAT     H211311   1.835   5.527   2.965
 3598WAT      O11312   3.007   5.748   4.120
 3598WAT     H111313   2.933   5.798   4.154
 3598WAT     H211314   2.968   5.666   4.089
 3599WAT      O11315   2.651   5.415   3.959
 3599WAT     H111316   2.652   5.372   3.874
 3599WAT     H211317   2.741   5.447   3.970
 3600WAT      O11318   2.236   5.402   3.856
 3600WAT     H111319   2.202   5.451   3.930
 3600WAT     H211320   2.160   5.359   3.819
 3601WAT      O11321   2.657   5.514   3.259
 3601WAT     H111322   2.669   5.511   3.354
 3601WAT     H211323   2.619   5.601   3.243
 3602WAT      O11324   3.054   5.293   4.060
 3602WAT     H111325   3.055   5.338   4.145
 3602WAT     H211326   3.029   5.203   4.081
 3603WAT      O11327   2.559   5.746   3.198
 3603WAT     H111328   2.502   5.701   3.135
 3603WAT     H211329   2.629   5.783   3.145
 3604WAT      O11330   3.396   5.034   4.644
 3604WAT     H111331   3.429   4.961   4.697
 3604WAT     H211332   3.400   5.003   4.554
 3605WAT      O11333   2.681   5.821   4.134
 3605WAT     H111334   2.718   5.774   4.209
 3605WAT     H211335   2.662   5.909   4.168
 3606WAT      O11336   1.969   5.295   3.747
 3606WAT     H111337   1.939   5.259   3.830
 3606WAT     H211338   1.961   5.222   3.685
 3607WAT      O11339   2.460   5.725   4.367
 3607WAT     H111340   2.430   5.813   4.388
 3607WAT     H211341   2.556   5.731   4.370
 3608WAT      O11342   2.936   5.185   3.419
 3608WAT     H111343   2.854   5.135   3.412
 3608WAT     H211344   2.916   5.269   3.378
 3609WAT      O11345   3.206   5.622   3.249
 3609WAT     H111346   3.294   5.654   3.231
 3609WAT     H211347   3.204   5.534   3.210
 3610WAT      O11348   2.066   5.810   4.481
 3610WAT     H111349   2.030   5.876   4.540
 3610WAT     H211350   2.037   5.726   4.518
 3611WAT      O11351   2.385   5.855   4.769
 3611WAT     H111352   2.356   5.870   4.679
 3611WAT     H211353   2.463   5.800   4.760
 3612WAT      O11354   3.435   5.752   3.195
 3612WAT     H111355   3.425   5.796   3.111
 3612WAT     H211356   3.506   5.799   3.239
 3613WAT      O11357   1.916   5.809   3.143
 3613WAT     H111358   2.004   5.836   3.171
 3613WAT     H211359   1.868   5.891   3.132
 3614WAT      O11360   2.224   4.982   3.602
 3614WAT     H111361   2.210   4.981   3.697
 3614WAT     H211362   2.141   5.015   3.567
 3615WAT      O11363   1.923   5.158   4.548
 3615WAT     H111364   1.852   5.178   4.609
 3615WAT     H211365   1.966   5.081   4.586
 3616WAT      O11366   3.072   5.407   4.323
 3616WAT     H111367   3.110   5.326   4.356
 3616WAT     H211368   2.987   5.413   4.365
 3617WAT      O11369   3.409   5.303   3.404
 3617WAT     H111370   3.346   5.313   3.333
 3617WAT     H211371   3.360   5.324   3.483
 3618WAT      O11372   2.606   5.531   3.545
 3618WAT     H111373   2.535   5.577   3.590
 3618WAT     H211374   2.635   5.465   3.609
 3619WAT      O11375   2.768   5.673   4.346
 3619WAT     H111376   2.820   5.720   4.412
 3619WAT     H211377   2.783   5.581   4.366
 3620WAT      O11378   3.009   5.203   3.690
 3620WAT     H111379   2.996   5.205   3.595
 3620WAT     H211380   3.104   5.208   3.701
 3621WAT      O11381   2.426   5.363   3.283
 3621WAT     H111382   2.512   5.405   3.277
 3621WAT     H211383   2.391   5.392   3.367
 3622WAT      O11384   3.490   5.295   4.430
 3622WAT     H111385   3.439   5.369   4.464
 3622WAT     H211386   3.571   5.333   4.398
 3623WAT      O11387   3.319   5.819   3.775
 3623WAT     H111388   3.225   5.820   3.792
 3623WAT     H211389   3.351   5.741   3.819
 3624WAT      O11390   2.186   5.731   3.201
 3624WAT     H111391   2.194   5.636   3.209
 3624WAT     H211392   2.276   5.763   3.210
 3625WAT      O11393   1.939   5.912   4.722
 3625WAT     H111394   1.989   5.854   4.780
 3625WAT     H211395   1.865   5.941   4.776
 3626WAT      O11396   2.142   5.726   4.812
 3626WAT     H111397   2.146   5.698   4.903
 3626WAT     H211398   2.227   5.767   4.796
 3627WAT      O11399   2.337   5.584   4.609
 3627WAT     H111400   2.282   5.536   4.546
 3627WAT     H211401   2.403   5.627   4.555
 3628WAT      O11402   2.771   5.888   3.053
 3628WAT     H111403   2.823   5.817   3.016
 3628WAT     H211404   2.836   5.953   3.083
 3629WAT      O11405   3.273   5.765   4.786
 3629WAT     H111406   3.331   5.690   4.777
 3629WAT     H211407   3.291   5.818   4.708
 3630WAT      O11408   2.385   5.281   4.617
 3630WAT     H111409   2.375   5.219   4.544
 3630WAT     H211410   2.327   5.353   4.594
 3631WAT      O11411   2.661   5.137   4.320
 3631WAT     H111412   2.616   5.139   4.236
 3631WAT     H211413   2.598   5.097   4.380
 3632WAT      O11414   2.935   5.799   4.521
 3632WAT     H111415   2.947   5.741   4.596
 3632WAT     H211416   3.021   5.803   4.479
 3633WAT      O11417   3.168   5.855   4.379
 3633WAT     H111418   3.117   5.907   4.317
 3633WAT     H211419   3.204   5.919   4.441
 3634WAT      O11420   2.409   5.594   3.023
 3634WAT     H111421   2.389   5.507   3.059
 3634WAT     H211422   2.392   5.585   2.929
 3635WAT      O11423   2.612   5.454   4.646
 3635WAT     H111424   2.671   5.423   4.715
 3635WAT     H211425   2.531   5.406   4.661
 3636WAT      O11426   3.094   5.416   4.670
 3636WAT     H111427   3.025   5.349   4.663
 3636WAT     H211428   3.166   5.371   4.714
 3637WAT      O11429   3.157   5.075   3.275
 3637WAT     H111430   3.185   4.991   3.311
 3637WAT     H211431   3.080   5.099   3.327
 3638WAT      O11432   2.289   5.305   3.021
 3638WAT     H111433   2.320   5.304   2.930
 3638WAT     H211434   2.363   5.269   3.071
 3639WAT      O11435   2.612   5.198   3.119
 3639WAT     H111436   2.576   5.131   3.062
 3639WAT     H211437   2.631   5.153   3.201
 3640WAT      O11438   1.945   5.850   3.760
 3640WAT     H111439   1.879   5.825   3.695
 3640WAT     H211440   2.029   5.840   3.715
 3641WAT      O11441   3.241   5.330   3.182
 3641WAT     H111442   3.282   5.312   3.098
 3641WAT     H211443   3.209   5.245   3.212
 3642WAT      O11444   3.590   5.822   3.552
 3642WAT     H111445   3.552   5.745   3.508
 3642WAT     H211446   3.517   5.860   3.601
 3643WAT      O11447   2.049   5.890   4.215
 3643WAT     H111448   2.085   5.880   4.303
 3643WAT     H211449   1.992   5.814   4.203
 3644WAT      O11450   3.529   5.737   4.515
 3644WAT     H111451   3.506   5.714   4.425
 3644WAT     H211452   3.555   5.829   4.510
 3645WAT      O11453   2.004   5.580   4.605
 3645WAT     H111454   1.914   5.577   4.638
 3645WAT     H211455   2.057   5.602   4.681
 3646WAT      O11456   3.373   5.259   4.793
 3646WAT     H111457   3.460   5.260   4.831
 3646WAT     H211458   3.374   5.185   4.732
 3647WAT      O11459   1.866   5.572   3.353
 3647WAT     H111460   1.776   5.598   3.336
 3647WAT     H211461   1.914   5.599   3.275
 3648WAT      O11462   3.517   5.643   3.883
 3648WAT     H111463   3.569   5.596   3.819
 3648WAT     H211464   3.576   5.659   3.956
 3649WAT      O11465   3.535   5.653   4.235
 3649WAT     H111466   3.440   5.649   4.244
 3649WAT     H211467   3.553   5.743   4.209
 3650WAT      O11468   2.122   5.478   3.145
 3650WAT     H111469   2.191   5.434   3.096
 3650WAT     H211470   2.049   5.485   3.083
 3651WAT      O11471   2.085   5.083   3.048
 3651WAT     H111472   2.157   5.136   3.081
 3651WAT     H211473   2.113   5.056   2.961
 3652WAT      O11474   3.467   5.570   3.476
 3652WAT     H111475   3.516   5.546   3.555
 3652WAT     H211476   3.446   5.486   3.434
 3653WAT      O11477   2.054   5.008   4.039
 3653WAT     H111478   2.120   4.953   3.995
 3653WAT     H211479   2.096   5.034   4.121
 3654WAT      O11480   3.609   5.434   3.729
 3654WAT     H111481   3.598   5.418   3.823
 3654WAT     H211482   3.685   5.382   3.705
 3655WAT      O11483   3.445   5.027   4.375
 3655WAT     H111484   3.507   5.090   4.411
 3655WAT     H211485   3.459   5.031   4.280
 3656WAT      O11486   3.698   5.216   3.053
 3656WAT     H111487   3.791   5.204   3.032
 3656WAT     H211488   3.696   5.226   3.148
 3657WAT      O11489   3.705   5.293   3.316
 3657WAT     H111490   3.626   5.288   3.369
 3657WAT     H211491   3.726   5.387   3.314
 3658WAT      O11492   2.030   5.024   4.314
 3658WAT     H111493   1.995   5.070   4.390
 3658WAT     H211494   1.996   4.935   4.322
 3659WAT      O11495   2.781   5.142   4.667
 3659WAT     H111496   2.775   5.203   4.740
 3659WAT     H211497   2.875   5.132   4.651
 3660WAT      O11498   3.045   5.110   4.630
 3660WAT     H111499   3.106   5.140   4.563
 3660WAT     H211500   3.099   5.060   4.691
 3661WAT      O11501   2.097   4.977   4.641
 3661WAT     H111502   2.152   4.958   4.565
 3661WAT     H211503   2.103   4.898   4.695
 3662WAT      O11504   3.119   4.966   4.263
 3662WAT     H111505   3.032   4.998   4.241
 3662WAT     H211506   3.107   4.917   4.345
 3663WAT      O11507   3.209   5.185   4.401
 3663WAT     H111508   3.177   5.104   4.362
 3663WAT     H211509   3.304   5.182   4.389
 3664WAT      O11510   2.893   5.057   4.156
 3664WAT     H111511   2.815   5.104   4.185
 3664WAT     H211512   2.863   4.966   4.144
 3665WAT      O11513   3.348   5.127   3.961
 3665WAT     H111514   3.394   5.121   3.877
 3665WAT     H211515   3.322   5.219   3.968
 3666WAT      O11516   3.534   5.090   3.762
 3666WAT     H111517   3.529   4.996   3.747
 3666WAT     H211518   3.612   5.101   3.816
 3667WAT      O11519   2.028   5.087   3.408
 3667WAT     H111520   2.104   5.098   3.351
 3667WAT     H211521   1.982   5.171   3.403
 3668WAT      O11522   2.681   5.299   3.708
 3668WAT     H111523   2.601   5.261   3.672
 3668WAT     H211524   2.733   5.223   3.736
 3669WAT      O11525   3.132   4.965   3.832
 3669WAT     H111526   3.192   5.022   3.879
 3669WAT     H211527   3.058   5.021   3.809
 3670WAT      O11528   3.447   5.005   3.359
 3670WAT     H111529   3.465   5.096   3.386
 3670WAT     H211530   3.368   4.982   3.408
 3671WAT      O11531   2.265   5.140   3.262
 3671WAT     H111532   2.318   5.061   3.250
 3671WAT     H211533   2.328   5.208   3.285
 3672WAT      O11534   2.484   5.114   3.568
 3672WAT     H111535   2.421   5.044   3.584
 3672WAT     H211536   2.430   5.190   3.546
 3673WAT      O11537   2.496   5.041   4.811
 3673WAT     H111538   2.469   5.092   4.735
 3673WAT     H211539   2.535   4.962   4.775
 3674WAT      O11540   3.157   4.984   4.869
 3674WAT     H111541   3.146   5.015   4.959
 3674WAT     H211542   3.240   5.023   4.840
 3675WAT      O11543   3.047   5.785   1.905
 3675WAT     H111544   3.040   5.693   1.878
 3675WAT     H211545   3.006   5.835   1.835
 3676WAT      O11546   2.861   5.963   2.094
 3676WAT     H111547   2.783   5.915   2.122
 3676WAT     H211548   2.926   5.895   2.076
 3677WAT      O11549   2.104   5.490   1.559
 3677WAT     H111550   2.015   5.523   1.549
 3677WAT     H211551   2.132   5.470   1.470
 3678WAT      O11552   1.897   5.748   2.147
 3678WAT     H111553   1.958   5.674   2.148
 3678WAT     H211554   1.901   5.781   2.058
 3679WAT      O11555   2.024   5.291   2.327
 3679WAT     H111556   2.006   5.201   2.355
 3679WAT     H211557   1.983   5.345   2.394
 3680WAT      O11558   2.907   5.511   2.117
 3680WAT     H111559   2.947   5.425   2.107
 3680WAT     H211560   2.899   5.545   2.027
 3681WAT      O11561   2.321   5.348   1.663
 3681WAT     H111562   2.332   5.438   1.695
 3681WAT     H211563   2.230   5.344   1.634
 3682WAT      O11564   3.286   5.260   1.811
 3682WAT     H111565   3.368   5.211   1.814
 3682WAT     H211566   3.290   5.319   1.885
 3683WAT      O11567   2.085   5.540   2.188
 3683WAT     H111568   2.154   5.567   2.248
 3683WAT     H211569   2.054   5.456   2.222
 3684WAT      O11570   2.506   5.645   2.096
 3684WAT     H111571   2.557   5.695   2.160
 3684WAT     H211572   2.558   5.567   2.079
 3685WAT      O11573   3.714   5.462   2.468
 3685WAT     H111574   3.645   5.502   2.415
 3685WAT     H211575   3.742   5.532   2.527
 3686WAT      O11576   2.334   5.108   2.523
 3686WAT     H111577   2.334   5.161   2.443
 3686WAT     H211578   2.251   5.061   2.521
 3687WAT      O11579   3.310   5.454   2.087
 3687WAT     H111580   3.239   5.482   2.144
 3687WAT     H211581   3.346   5.535   2.051
 3688WAT      O11582   2.302   5.280   2.324
 3688WAT     H111583   2.336   5.365   2.294
 3688WAT     H211584   2.208   5.295   2.335
 3689WAT      O11585   3.617   5.399   2.127
 3689WAT     H111586   3.522   5.402   2.140
 3689WAT     H211587   3.649   5.480   2.166
 3690WAT      O11588   2.670   5.029   1.956
 3690WAT     H111589   2.701   4.973   1.884
 3690WAT     H211590   2.577   5.042   1.938
 3691WAT      O11591   2.909   5.835   1.631
 3691WAT     H111592   2.816   5.829   1.653
 3691WAT     H211593   2.924   5.929   1.618
 3692WAT      O11594   2.907   5.461   1.328
 3692WAT     H111595   2.814   5.479   1.339
 3692WAT     H211596   2.940   5.535   1.276
 3693WAT      O11597   3.256   5.609   2.422
 3693WAT     H111598   3.215   5.692   2.446
 3693WAT     H211599   3.183   5.551   2.402
 3694WAT      O11600   2.469   5.888   1.908
 3694WAT     H111601   2.429   5.817   1.858
 3694WAT     H211602   2.478   5.853   1.997
 3695WAT      O11603   2.341   5.564   2.286
 3695WAT     H111604   2.395   5.577   2.208
 3695WAT     H211605   2.392   5.604   2.357
 3696WAT      O11606   3.488   5.041   1.212
 3696WAT     H111607   3.457   5.049   1.302
 3696WAT     H211608   3.564   5.099   1.207
 3697WAT      O11609   2.139   5.778   1.658
 3697WAT     H111610   2.127   5.850   1.597
 3697WAT     H211611   2.108   5.701   1.610
 3698WAT      O11612   3.609   5.515   2.810
 3698WAT     H111613   3.547   5.566   2.757
 3698WAT     H211614   3.577   5.425   2.804
 3699WAT      O11615   2.386   5.112   1.996
 3699WAT     H111616   2.342   5.190   1.963
 3699WAT     H211617   2.442   5.144   2.067
 3700WAT      O11618   2.815   5.399   2.557
 3700WAT     H111619   2.768   5.419   2.638
 3700WAT     H211620   2.775   5.317   2.526
 3701WAT      O11621   3.315   5.520   2.670
 3701WAT     H111622   3.230   5.491   2.702
 3701WAT     H211623   3.299   5.545   2.579
 3702WAT      O11624   3.024   5.671   2.878
 3702WAT     H111625   3.056   5.587   2.847
 3702WAT     H211626   3.103   5.722   2.895
 3703WAT      O11627   2.697   5.074   1.484
 3703WAT     H111628   2.635   5.074   1.557
 3703WAT     H211629   2.689   4.987   1.446
 3704WAT      O11630   2.591   5.166   2.183
 3704WAT     H111631   2.619   5.257   2.174
 3704WAT     H211632   2.645   5.118   2.121
 3705WAT      O11633   2.365   5.624   1.769
 3705WAT     H111634   2.342   5.603   1.859
 3705WAT     H211635   2.287   5.668   1.734
 3706WAT      O11636   3.088   5.624   1.629
 3706WAT     H111637   3.028   5.697   1.611
 3706WAT     H211638   3.143   5.619   1.551
 3707WAT      O11639   2.609   5.714   2.835
 3707WAT     H111640   2.600   5.620   2.821
 3707WAT     H211641   2.693   5.736   2.796
 3708WAT      O11642   2.950   5.489   1.833
 3708WAT     H111643   2.988   5.520   1.751
 3708WAT     H211644   2.984   5.400   1.843
 3709WAT      O11645   2.122   5.355   2.651
 3709WAT     H111646   2.083   5.440   2.672
 3709WAT     H211647   2.053   5.291   2.669
 3710WAT      O11648   2.780   5.364   2.958
 3710WAT     H111649   2.711   5.343   3.022
 3710WAT     H211650   2.854   5.392   3.011
 3711WAT      O11651   1.852   5.147   2.055
 3711WAT     H111652   1.824   5.205   2.125
 3711WAT     H211653   1.927   5.099   2.092
 3712WAT      O11654   1.872   5.542   1.175
 3712WAT     H111655   1.863   5.636   1.189
 3712WAT     H211656   1.835   5.527   1.087
 3713WAT      O11657   3.007   5.748   2.242
 3713WAT     H111658   2.933   5.798   2.276
 3713WAT     H211659   2.968   5.666   2.211
 3714WAT      O11660   2.651   5.415   2.082
 3714WAT     H111661   2.652   5.372   1.997
 3714WAT     H211662   2.741   5.447   2.093
 3715WAT      O11663   2.236   5.402   1.979
 3715WAT     H111664   2.202   5.451   2.053
 3715WAT     H211665   2.160   5.359   1.942
 3716WAT      O11666   2.657   5.514   1.382
 3716WAT     H111667   2.669   5.511   1.477
 3716WAT     H211668   2.619   5.601   1.366
 3717WAT      O11669   3.054   5.293   2.183
 3717WAT     H111670   3.055   5.338   2.267
 3717WAT     H211671   3.029   5.203   2.204
 3718WAT      O11672   2.558   5.746   1.321
 3718WAT     H111673   2.502   5.702   1.257
 3718WAT     H211674   2.629   5.783   1.268
 3719WAT      O11675   3.396   5.034   2.767
 3719WAT     H111676   3.429   4.961   2.819
 3719WAT     H211677   3.400   5.003   2.676
 3720WAT      O11678   2.681   5.821   2.257
 3720WAT     H111679   2.718   5.774   2.331
 3720WAT     H211680   2.662   5.909   2.291
 3721WAT      O11681   1.969   5.295   1.869
 3721WAT     H111682   1.939   5.259   1.953
 3721WAT     H211683   1.961   5.222   1.808
 3722WAT      O11684   2.460   5.725   2.489
 3722WAT     H111685   2.430   5.813   2.511
 3722WAT     H211686   2.556   5.731   2.492
 3723WAT      O11687   2.935   5.185   1.542
 3723WAT     H111688   2.854   5.135   1.534
 3723WAT     H211689   2.916   5.269   1.500
 3724WAT      O11690   3.206   5.622   1.371
 3724WAT     H111691   3.294   5.654   1.354
 3724WAT     H211692   3.204   5.534   1.332
 3725WAT      O11693   2.066   5.810   2.603
 3725WAT     H111694   2.030   5.876   2.662
 3725WAT     H211695   2.037   5.726   2.640
 3726WAT      O11696   2.385   5.855   2.892
 3726WAT     H111697   2.356   5.870   2.802
 3726WAT     H211698   2.463   5.800   2.883
 3727WAT      O11699   3.435   5.752   1.317
 3727WAT     H111700   3.425   5.796   1.233
 3727WAT     H211701   3.506   5.799   1.361
 3728WAT      O11702   1.916   5.809   1.266
 3728WAT     H111703   2.004   5.836   1.294
 3728WAT     H211704   1.868   5.891   1.255
 3729WAT      O11705   2.224   4.982   1.725
 3729WAT     H111706   2.210   4.981   1.820
 3729WAT     H211707   2.141   5.015   1.690
 3730WAT      O11708   1.923   5.158   2.670
 3730WAT     H111709   1.852   5.178   2.731
 3730WAT     H211710   1.966   5.081   2.708
 3731WAT      O11711   3.073   5.407   2.445
 3731WAT     H111712   3.110   5.326   2.479
 3731WAT     H211713   2.987   5.413   2.487
 3732WAT      O11714   3.409   5.303   1.527
 3732WAT     H111715   3.346   5.313   1.456
 3732WAT     H211716   3.360   5.324   1.606
 3733WAT      O11717   2.606   5.531   1.668
 3733WAT     H111718   2.535   5.577   1.712
 3733WAT     H211719   2.635   5.465   1.732
 3734WAT      O11720   2.768   5.673   2.469
 3734WAT     H111721   2.819   5.720   2.535
 3734WAT     H211722   2.783   5.581   2.488
 3735WAT      O11723   3.009   5.203   1.812
 3735WAT     H111724   2.996   5.205   1.717
 3735WAT     H211725   3.104   5.208   1.823
 3736WAT      O11726   2.426   5.362   1.406
 3736WAT     H111727   2.511   5.405   1.399
 3736WAT     H211728   2.391   5.393   1.489
 3737WAT      O11729   3.490   5.295   2.553
 3737WAT     H111730   3.439   5.369   2.587
 3737WAT     H211731   3.571   5.333   2.521
 3738WAT      O11732   3.319   5.819   1.897
 3738WAT     H111733   3.225   5.820   1.915
 3738WAT     H211734   3.351   5.741   1.942
 3739WAT      O11735   2.186   5.731   1.324
 3739WAT     H111736   2.194   5.636   1.332
 3739WAT     H211737   2.276   5.763   1.332
 3740WAT      O11738   1.939   5.912   2.845
 3740WAT     H111739   1.989   5.854   2.902
 3740WAT     H211740   1.865   5.941   2.899
 3741WAT      O11741   2.142   5.726   2.935
 3741WAT     H111742   2.146   5.698   3.026
 3741WAT     H211743   2.227   5.767   2.919
 3742WAT      O11744   2.337   5.584   2.731
 3742WAT     H111745   2.282   5.536   2.669
 3742WAT     H211746   2.403   5.627   2.678
 3743WAT      O11747   2.771   5.889   1.175
 3743WAT     H111748   2.823   5.817   1.139
 3743WAT     H211749   2.836   5.953   1.205
 3744WAT      O11750   3.273   5.765   2.908
 3744WAT     H111751   3.331   5.689   2.899
 3744WAT     H211752   3.291   5.818   2.830
 3745WAT      O11753   2.385   5.281   2.739
 3745WAT     H111754   2.375   5.219   2.667
 3745WAT     H211755   2.327   5.353   2.717
 3746WAT      O11756   2.661   5.137   2.443
 3746WAT     H111757   2.616   5.139   2.358
 3746WAT     H211758   2.598   5.097   2.502
 3747WAT      O11759   2.935   5.799   2.643
 3747WAT     H111760   2.947   5.741   2.718
 3747WAT     H211761   3.021   5.803   2.601
 3748WAT      O11762   3.168   5.855   2.502
 3748WAT     H111763   3.118   5.907   2.440
 3748WAT     H211764   3.204   5.919   2.563
 3749WAT      O11765   2.409   5.594   1.145
 3749WAT     H111766   2.389   5.507   1.181
 3749WAT     H211767   2.392   5.585   1.051
 3750WAT      O11768   2.612   5.454   2.769
 3750WAT     H111769   2.671   5.423   2.838
 3750WAT     H211770   2.531   5.406   2.784
 3751WAT      O11771   3.094   5.416   2.792
 3751WAT     H111772   3.025   5.349   2.786
 3751WAT     H211773   3.166   5.371   2.837
 3752WAT      O11774   3.157   5.075   1.398
 3752WAT     H111775   3.185   4.991   1.434
 3752WAT     H211776   3.080   5.099   1.450
 3753WAT      O11777   2.289   5.305   1.143
 3753WAT     H111778   2.320   5.304   1.053
 3753WAT     H211779   2.363   5.269   1.194
 3754WAT      O11780   2.612   5.198   1.242
 3754WAT     H111781   2.576   5.131   1.185
 3754WAT     H211782   2.631   5.153   1.324
 3755WAT      O11783   1.945   5.850   1.882
 3755WAT     H111784   1.879   5.825   1.818
 3755WAT     H211785   2.028   5.840   1.837
 3756WAT      O11786   3.241   5.330   1.304
 3756WAT     H111787   3.282   5.312   1.220
 3756WAT     H211788   3.209   5.245   1.334
 3757WAT      O11789   3.590   5.822   1.674
 3757WAT     H111790   3.552   5.745   1.631
 3757WAT     H211791   3.517   5.860   1.723
 3758WAT      O11792   2.049   5.890   2.337
 3758WAT     H111793   2.085   5.880   2.425
 3758WAT     H211794   1.992   5.814   2.325
 3759WAT      O11795   3.529   5.737   2.638
 3759WAT     H111796   3.506   5.714   2.548
 3759WAT     H211797   3.555   5.829   2.633
 3760WAT      O11798   2.003   5.580   2.727
 3760WAT     H111799   1.914   5.577   2.762
 3760WAT     H211800   2.058   5.602   2.803
 3761WAT      O11801   3.373   5.259   2.915
 3761WAT     H111802   3.460   5.260   2.954
 3761WAT     H211803   3.374   5.185   2.854
 3762WAT      O11804   1.866   5.572   1.476
 3762WAT     H111805   1.776   5.598   1.459
 3762WAT     H211806   1.914   5.599   1.398
 3763WAT      O11807   3.517   5.643   2.005
 3763WAT     H111808   3.569   5.596   1.941
 3763WAT     H211809   3.576   5.659   2.078
 3764WAT      O11810   3.535   5.653   2.357
 3764WAT     H111811   3.440   5.649   2.367
 3764WAT     H211812   3.553   5.744   2.332
 3765WAT      O11813   2.122   5.479   1.267
 3765WAT     H111814   2.191   5.434   1.219
 3765WAT     H211815   2.049   5.485   1.205
 3766WAT      O11816   2.085   5.083   1.171
 3766WAT     H111817   2.157   5.137   1.204
 3766WAT     H211818   2.113   5.056   1.083
 3767WAT      O11819   3.467   5.570   1.598
 3767WAT     H111820   3.516   5.547   1.677
 3767WAT     H211821   3.446   5.486   1.557
 3768WAT      O11822   2.054   5.008   2.162
 3768WAT     H111823   2.120   4.953   2.118
 3768WAT     H211824   2.096   5.034   2.244
 3769WAT      O11825   3.609   5.434   1.852
 3769WAT     H111826   3.598   5.418   1.945
 3769WAT     H211827   3.685   5.382   1.827
 3770WAT      O11828   3.445   5.027   2.497
 3770WAT     H111829   3.507   5.090   2.533
 3770WAT     H211830   3.459   5.031   2.403
 3771WAT      O11831   3.698   5.216   1.176
 3771WAT     H111832   3.791   5.204   1.155
 3771WAT     H211833   3.696   5.226   1.271
 3772WAT      O11834   3.705   5.293   1.438
 3772WAT     H111835   3.626   5.287   1.491
 3772WAT     H211836   3.726   5.387   1.437
 3773WAT      O11837   2.030   5.024   2.437
 3773WAT     H111838   1.995   5.069   2.513
 3773WAT     H211839   1.996   4.935   2.444
 3774WAT      O11840   2.781   5.142   2.789
 3774WAT     H111841   2.775   5.203   2.862
 3774WAT     H211842   2.875   5.132   2.774
 3775WAT      O11843   3.045   5.110   2.752
 3775WAT     H111844   3.107   5.140   2.686
 3775WAT     H211845   3.099   5.060   2.814
 3776WAT      O11846   2.097   4.977   2.763
 3776WAT     H111847   2.152   4.958   2.687
 3776WAT     H211848   2.103   4.898   2.817
 3777WAT      O11849   3.119   4.966   2.386
 3777WAT     H111850   3.032   4.998   2.363
 3777WAT     H211851   3.107   4.917   2.467
 3778WAT      O11852   3.209   5.185   2.523
 3778WAT     H111853   3.177   5.104   2.484
 3778WAT     H211854   3.304   5.182   2.512
 3779WAT      O11855   2.893   5.057   2.279
 3779WAT     H111856   2.815   5.104   2.308
 3779WAT     H211857   2.863   4.966   2.267
 3780WAT      O11858   3.348   5.127   2.083
 3780WAT     H111859   3.394   5.121   1.999
 3780WAT     H211860   3.322   5.219   2.090
 3781WAT      O11861   3.535   5.090   1.884
 3781WAT     H111862   3.529   4.996   1.869
 3781WAT     H211863   3.612   5.101   1.939
 3782WAT      O11864   2.028   5.087   1.531
 3782WAT     H111865   2.104   5.098   1.473
 3782WAT     H211866   1.982   5.171   1.525
 3783WAT      O11867   2.681   5.299   1.831
 3783WAT     H111868   2.601   5.261   1.795
 3783WAT     H211869   2.733   5.223   1.859
 3784WAT      O11870   3.132   4.965   1.954
 3784WAT     H111871   3.192   5.022   2.001
 3784WAT     H211872   3.058   5.021   1.931
 3785WAT      O11873   3.447   5.005   1.482
 3785WAT     H111874   3.465   5.095   1.508
 3785WAT     H211875   3.368   4.982   1.529
 3786WAT      O11876   2.265   5.140   1.385
 3786WAT     H111877   2.318   5.061   1.373
 3786WAT     H211878   2.328   5.208   1.407
 3787WAT      O11879   2.484   5.114   1.690
 3787WAT     H111880   2.421   5.044   1.707
 3787WAT     H211881   2.430   5.190   1.669
 3788WAT      O11882   2.496   5.041   2.934
 3788WAT     H111883   2.469   5.092   2.857
 3788WAT     H211884   2.535   4.962   2.897
 3789WAT      O11885   3.157   4.984   2.991
 3789WAT     H111886   3.146   5.015   3.081
 3789WAT     H211887   3.240   5.023   2.963
 3790WAT      O11888   2.861   5.963   0.216
 3790WAT     H111889   2.783   5.915   0.245
 3790WAT     H211890   2.926   5.895   0.199
 3791WAT      O11891   1.899   5.749   0.271
 3791WAT     H111892   1.958   5.673   0.271
 3791WAT     H211893   1.901   5.780   0.180
 3792WAT      O11894   2.025   5.291   0.450
 3792WAT     H111895   2.006   5.201   0.477
 3792WAT     H211896   1.983   5.345   0.517
 3793WAT      O11897   2.084   5.541   0.311
 3793WAT     H111898   2.154   5.566   0.371
 3793WAT     H211899   2.055   5.456   0.344
 3794WAT      O11900   2.505   5.645   0.219
 3794WAT     H111901   2.557   5.695   0.282
 3794WAT     H211902   2.559   5.568   0.201
 3795WAT      O11903   3.714   5.462   0.590
 3795WAT     H111904   3.645   5.502   0.537
 3795WAT     H211905   3.742   5.532   0.649
 3796WAT      O11906   2.334   5.108   0.646
 3796WAT     H111907   2.334   5.161   0.566
 3796WAT     H211908   2.251   5.061   0.643
 3797WAT      O11909   3.311   5.454   0.211
 3797WAT     H111910   3.239   5.482   0.267
 3797WAT     H211911   3.346   5.535   0.174
 3798WAT      O11912   2.302   5.281   0.446
 3798WAT     H111913   2.336   5.365   0.417
 3798WAT     H211914   2.208   5.295   0.457
 3799WAT      O11915   3.617   5.399   0.250
 3799WAT     H111916   3.522   5.402   0.262
 3799WAT     H211917   3.649   5.480   0.288
 3800WAT      O11918   3.256   5.610   0.544
 3800WAT     H111919   3.215   5.692   0.569
 3800WAT     H211920   3.183   5.551   0.525
 3801WAT      O11921   2.341   5.564   0.409
 3801WAT     H111922   2.395   5.577   0.331
 3801WAT     H211923   2.392   5.604   0.480
 3802WAT      O11924   3.609   5.515   0.933
 3802WAT     H111925   3.547   5.566   0.880
 3802WAT     H211926   3.577   5.425   0.927
 3803WAT      O11927   2.815   5.399   0.679
 3803WAT     H111928   2.769   5.419   0.760
 3803WAT     H211929   2.775   5.317   0.649
 3804WAT      O11930   3.315   5.521   0.792
 3804WAT     H111931   3.230   5.491   0.824
 3804WAT     H211932   3.299   5.545   0.701
 3805WAT      O11933   3.024   5.671   1.000
 3805WAT     H111934   3.056   5.587   0.969
 3805WAT     H211935   3.103   5.722   1.018
 3806WAT      O11936   2.591   5.166   0.306
 3806WAT     H111937   2.620   5.257   0.297
 3806WAT     H211938   2.645   5.118   0.242
 3807WAT      O11939   2.609   5.714   0.957
 3807WAT     H111940   2.600   5.620   0.943
 3807WAT     H211941   2.694   5.736   0.919
 3808WAT      O11942   2.123   5.355   0.774
 3808WAT     H111943   2.082   5.440   0.794
 3808WAT     H211944   2.053   5.291   0.792
 3809WAT      O11945   2.780   5.364   1.081
 3809WAT     H111946   2.711   5.343   1.144
 3809WAT     H211947   2.854   5.392   1.134
 3810WAT      O11948   1.852   5.146   0.177
 3810WAT     H111949   1.824   5.206   0.247
 3810WAT     H211950   1.927   5.100   0.213
 3811WAT      O11951   3.007   5.748   0.364
 3811WAT     H111952   2.934   5.798   0.399
 3811WAT     H211953   2.968   5.666   0.334
 3812WAT      O11954   3.053   5.293   0.306
 3812WAT     H111955   3.055   5.338   0.390
 3812WAT     H211956   3.029   5.203   0.327
 3813WAT      O11957   3.395   5.034   0.889
 3813WAT     H111958   3.429   4.961   0.942
 3813WAT     H211959   3.400   5.003   0.799
 3814WAT      O11960   2.682   5.821   0.379
 3814WAT     H111961   2.717   5.774   0.454
 3814WAT     H211962   2.662   5.908   0.413
 3815WAT      O11963   2.460   5.725   0.612
 3815WAT     H111964   2.430   5.813   0.634
 3815WAT     H211965   2.556   5.731   0.615
 3816WAT      O11966   2.066   5.810   0.726
 3816WAT     H111967   2.030   5.876   0.785
 3816WAT     H211968   2.037   5.726   0.763
 3817WAT      O11969   2.385   5.855   1.014
 3817WAT     H111970   2.356   5.870   0.924
 3817WAT     H211971   2.463   5.800   1.005
 3818WAT      O11972   1.923   5.158   0.793
 3818WAT     H111973   1.852   5.178   0.854
 3818WAT     H211974   1.966   5.081   0.831
 3819WAT      O11975   3.072   5.407   0.568
 3819WAT     H111976   3.110   5.326   0.601
 3819WAT     H211977   2.987   5.412   0.610
 3820WAT      O11978   2.769   5.673   0.591
 3820WAT     H111979   2.819   5.720   0.657
 3820WAT     H211980   2.783   5.580   0.612
 3821WAT      O11981   3.489   5.295   0.675
 3821WAT     H111982   3.439   5.369   0.709
 3821WAT     H211983   3.571   5.333   0.644
 3822WAT      O11984   1.939   5.912   0.967
 3822WAT     H111985   1.989   5.854   1.025
 3822WAT     H211986   1.865   5.941   1.021
 3823WAT      O11987   2.142   5.726   1.057
 3823WAT     H111988   2.146   5.698   1.148
 3823WAT     H211989   2.227   5.767   1.041
 3824WAT      O11990   2.337   5.584   0.854
 3824WAT     H111991   2.282   5.537   0.791
 3824WAT     H211992   2.403   5.627   0.801
 3825WAT      O11993   3.273   5.765   1.031
 3825WAT     H111994   3.331   5.690   1.022
 3825WAT     H211995   3.291   5.818   0.953
 3826WAT      O11996   2.385   5.281   0.862
 3826WAT     H111997   2.375   5.219   0.790
 3826WAT     H211998   2.327   5.353   0.839
 3827WAT      O11999   2.661   5.137   0.565
 3827WAT     H112000   2.616   5.139   0.481
 3827WAT     H212001   2.598   5.097   0.625
 3828WAT      O12002   2.935   5.799   0.766
 3828WAT     H112003   2.947   5.741   0.841
 3828WAT     H212004   3.021   5.803   0.724
 3829WAT      O12005   3.168   5.855   0.624
 3829WAT     H112006   3.117   5.907   0.562
 3829WAT     H212007   3.204   5.919   0.686
 3830WAT      O12008   2.612   5.454   0.891
 3830WAT     H112009   2.671   5.423   0.960
 3830WAT     H212010   2.530   5.407   0.906
 3831WAT      O12011   3.094   5.416   0.915
 3831WAT     H112012   3.025   5.349   0.908
 3831WAT     H212013   3.166   5.371   0.959
 3832WAT      O12014   2.049   5.890   0.460
 3832WAT     H112015   2.085   5.880   0.548
 3832WAT     H212016   1.993   5.814   0.448
 3833WAT      O12017   3.529   5.737   0.760
 3833WAT     H112018   3.507   5.714   0.670
 3833WAT     H212019   3.555   5.829   0.756
 3834WAT      O12020   2.004   5.580   0.850
 3834WAT     H112021   1.914   5.577   0.883
 3834WAT     H212022   2.057   5.602   0.926
 3835WAT      O12023   3.373   5.259   1.038
 3835WAT     H112024   3.460   5.260   1.076
 3835WAT     H212025   3.374   5.185   0.977
 3836WAT      O12026   3.535   5.653   0.481
 3836WAT     H112027   3.440   5.649   0.489
 3836WAT     H212028   3.553   5.743   0.455
 3837WAT      O12029   2.054   5.007   0.284
 3837WAT     H112030   2.120   4.953   0.240
 3837WAT     H212031   2.096   5.034   0.366
 3838WAT      O12032   3.444   5.027   0.620
 3838WAT     H112033   3.507   5.090   0.656
 3838WAT     H212034   3.459   5.031   0.525
 3839WAT      O12035   2.030   5.024   0.560
 3839WAT     H112036   1.994   5.070   0.636
 3839WAT     H212037   1.996   4.935   0.567
 3840WAT      O12038   2.781   5.142   0.912
 3840WAT     H112039   2.775   5.203   0.985
 3840WAT     H212040   2.875   5.132   0.896
 3841WAT      O12041   3.045   5.110   0.875
 3841WAT     H112042   3.106   5.140   0.808
 3841WAT     H212043   3.099   5.060   0.937
 3842WAT      O12044   2.097   4.977   0.886
 3842WAT     H112045   2.152   4.958   0.810
 3842WAT     H212046   2.103   4.898   0.940
 3843WAT      O12047   3.119   4.966   0.508
 3843WAT     H112048   3.032   4.998   0.486
 3843WAT     H212049   3.107   4.917   0.590
 3844WAT      O12050   3.209   5.185   0.646
 3844WAT     H112051   3.177   5.104   0.607
 3844WAT     H212052   3.304   5.182   0.634
 3845WAT      O12053   2.893   5.057   0.401
 3845WAT     H112054   2.815   5.104   0.430
 3845WAT     H212055   2.863   4.966   0.390
 3846WAT      O12056   2.496   5.041   1.056
 3846WAT     H112057   2.469   5.092   0.980
 3846WAT     H212058   2.535   4.962   1.020
 3847WAT      O12059   3.157   4.984   1.114
 3847WAT     H112060   3.146   5.014   1.204
 3847WAT     H212061   3.240   5.023   1.085
 3848WAT      O12062   3.048   3.907   5.660
 3848WAT     H112063   3.040   3.816   5.633
 3848WAT     H212064   3.006   3.957   5.590
 3849WAT      O12065   3.264   4.526   5.726
 3849WAT     H112066   3.216   4.449   5.758
 3849WAT     H212067   3.344   4.528   5.777
 3850WAT      O12068   2.104   3.612   5.314
 3850WAT     H112069   2.015   3.646   5.304
 3850WAT     H212070   2.132   3.592   5.225
 3851WAT      O12071   2.886   4.754   5.688
 3851WAT     H112072   2.824   4.799   5.631
 3851WAT     H212073   2.971   4.770   5.648
 3852WAT      O12074   2.321   3.471   5.418
 3852WAT     H112075   2.332   3.561   5.449
 3852WAT     H212076   2.230   3.467   5.389
 3853WAT      O12077   3.286   3.383   5.565
 3853WAT     H112078   3.368   3.334   5.569
 3853WAT     H212079   3.290   3.443   5.640
 3854WAT      O12080   2.972   4.243   5.427
 3854WAT     H112081   2.910   4.289   5.371
 3854WAT     H212082   3.023   4.313   5.469
 3855WAT      O12083   1.909   4.311   5.165
 3855WAT     H112084   1.871   4.360   5.092
 3855WAT     H212085   1.935   4.378   5.228
 3856WAT      O12086   2.670   3.152   5.711
 3856WAT     H112087   2.701   3.096   5.639
 3856WAT     H212088   2.577   3.165   5.693
 3857WAT      O12089   3.355   4.395   5.449
 3857WAT     H112090   3.344   4.301   5.461
 3857WAT     H212091   3.353   4.431   5.538
 3858WAT      O12092   2.909   3.958   5.386
 3858WAT     H112093   2.816   3.951   5.406
 3858WAT     H212094   2.924   4.052   5.373
 3859WAT      O12095   2.908   3.584   5.082
 3859WAT     H112096   2.814   3.601   5.094
 3859WAT     H212097   2.940   3.658   5.031
 3860WAT      O12098   3.312   4.114   5.435
 3860WAT     H112099   3.250   4.080   5.371
 3860WAT     H212100   3.310   4.050   5.506
 3861WAT      O12101   2.469   4.011   5.663
 3861WAT     H112102   2.429   3.939   5.613
 3861WAT     H212103   2.478   3.976   5.752
 3862WAT      O12104   3.129   4.038   5.136
 3862WAT     H112105   3.172   3.954   5.121
 3862WAT     H212106   3.201   4.101   5.143
 3863WAT      O12107   2.940   4.531   5.532
 3863WAT     H112108   2.984   4.606   5.491
 3863WAT     H212109   2.934   4.556   5.625
 3864WAT      O12110   3.487   3.164   4.967
 3864WAT     H112111   3.457   3.172   5.057
 3864WAT     H212112   3.564   3.221   4.962
 3865WAT      O12113   2.139   3.900   5.413
 3865WAT     H112114   2.127   3.973   5.352
 3865WAT     H212115   2.108   3.823   5.365
 3866WAT      O12116   2.028   4.387   5.634
 3866WAT     H112117   1.987   4.401   5.549
 3866WAT     H212118   2.117   4.359   5.614
 3867WAT      O12119   3.207   4.831   5.268
 3867WAT     H112120   3.191   4.802   5.358
 3867WAT     H212121   3.192   4.753   5.215
 3868WAT      O12122   2.454   4.809   5.445
 3868WAT     H112123   2.437   4.717   5.425
 3868WAT     H212124   2.369   4.845   5.470
 3869WAT      O12125   3.177   4.583   5.124
 3869WAT     H112126   3.108   4.581   5.058
 3869WAT     H212127   3.251   4.540   5.082
 3870WAT      O12128   3.134   4.744   5.532
 3870WAT     H112129   3.179   4.666   5.563
 3870WAT     H212130   3.168   4.815   5.586
 3871WAT      O12131   2.386   3.235   5.751
 3871WAT     H112132   2.342   3.313   5.718
 3871WAT     H212133   2.442   3.267   5.822
 3872WAT      O12134   2.697   3.197   5.239
 3872WAT     H112135   2.635   3.196   5.312
 3872WAT     H212136   2.689   3.110   5.200
 3873WAT      O12137   2.365   3.748   5.524
 3873WAT     H112138   2.342   3.724   5.614
 3873WAT     H212139   2.287   3.790   5.489
 3874WAT      O12140   3.088   3.747   5.384
 3874WAT     H112141   3.028   3.820   5.365
 3874WAT     H212142   3.143   3.741   5.306
 3875WAT      O12143   2.950   3.612   5.588
 3875WAT     H112144   2.988   3.643   5.506
 3875WAT     H212145   2.984   3.523   5.597
 3876WAT      O12146   1.871   3.665   4.930
 3876WAT     H112147   1.863   3.759   4.944
 3876WAT     H212148   1.835   3.650   4.842
 3877WAT      O12149   2.651   3.538   5.837
 3877WAT     H112150   2.651   3.494   5.752
 3877WAT     H212151   2.741   3.570   5.848
 3878WAT      O12152   2.236   3.526   5.733
 3878WAT     H112153   2.202   3.574   5.808
 3878WAT     H212154   2.160   3.481   5.696
 3879WAT      O12155   2.656   3.637   5.137
 3879WAT     H112156   2.669   3.634   5.232
 3879WAT     H212157   2.619   3.724   5.120
 3880WAT      O12158   2.558   3.870   5.075
 3880WAT     H112159   2.502   3.824   5.012
 3880WAT     H212160   2.629   3.906   5.022
 3881WAT      O12161   1.968   3.418   5.624
 3881WAT     H112162   1.939   3.381   5.708
 3881WAT     H212163   1.961   3.345   5.563
 3882WAT      O12164   2.314   4.268   5.303
 3882WAT     H112165   2.236   4.214   5.288
 3882WAT     H212166   2.387   4.216   5.269
 3883WAT      O12167   2.936   3.307   5.296
 3883WAT     H112168   2.854   3.258   5.289
 3883WAT     H212169   2.917   3.391   5.255
 3884WAT      O12170   3.206   3.745   5.126
 3884WAT     H112171   3.295   3.776   5.109
 3884WAT     H212172   3.204   3.657   5.087
 3885WAT      O12173   2.316   4.236   5.667
 3885WAT     H112174   2.369   4.156   5.661
 3885WAT     H212175   2.272   4.229   5.751
 3886WAT      O12176   2.806   4.362   5.194
 3886WAT     H112177   2.840   4.437   5.145
 3886WAT     H212178   2.723   4.393   5.230
 3887WAT      O12179   3.434   3.876   5.073
 3887WAT     H112180   3.425   3.919   4.988
 3887WAT     H212181   3.506   3.923   5.116
 3888WAT      O12182   3.537   4.561   5.345
 3888WAT     H112183   3.472   4.496   5.373
 3888WAT     H212184   3.498   4.602   5.268
 3889WAT      O12185   3.095   4.294   5.731
 3889WAT     H112186   3.130   4.234   5.665
 3889WAT     H212187   3.006   4.261   5.748
 3890WAT      O12188   2.703   4.370   5.472
 3890WAT     H112189   2.772   4.425   5.508
 3890WAT     H212190   2.624   4.424   5.475
 3891WAT      O12191   1.917   3.932   5.020
 3891WAT     H112192   2.004   3.959   5.049
 3891WAT     H212193   1.868   4.014   5.009
 3892WAT      O12194   2.635   4.069   5.434
 3892WAT     H112195   2.679   4.152   5.455
 3892WAT     H212196   2.597   4.040   5.517
 3893WAT      O12197   2.224   3.105   5.480
 3893WAT     H112198   2.210   3.103   5.575
 3893WAT     H212199   2.141   3.138   5.445
 3894WAT      O12200   3.374   4.451   5.000
 3894WAT     H112201   3.353   4.378   5.059
 3894WAT     H212202   3.337   4.425   4.916
 3895WAT      O12203   1.954   4.853   5.077
 3895WAT     H112204   1.991   4.914   5.012
 3895WAT     H212205   1.940   4.908   5.154
 3896WAT      O12206   3.334   4.242   5.166
 3896WAT     H112207   3.305   4.288   5.245
 3896WAT     H212208   3.413   4.196   5.193
 3897WAT      O12209   2.555   4.591   5.159
 3897WAT     H112210   2.555   4.665   5.097
 3897WAT     H212211   2.463   4.566   5.168
 3898WAT      O12212   2.115   4.113   5.233
 3898WAT     H112213   2.054   4.187   5.233
 3898WAT     H212214   2.163   4.121   5.151
 3899WAT      O12215   3.409   3.426   5.282
 3899WAT     H112216   3.346   3.436   5.210
 3899WAT     H212217   3.359   3.446   5.361
 3900WAT      O12218   2.854   4.597   5.025
 3900WAT     H112219   2.864   4.577   4.932
 3900WAT     H212220   2.764   4.572   5.046
 3901WAT      O12221   2.606   3.653   5.423
 3901WAT     H112222   2.535   3.700   5.467
 3901WAT     H212223   2.636   3.588   5.487
 3902WAT      O12224   3.010   3.326   5.567
 3902WAT     H112225   2.996   3.328   5.472
 3902WAT     H212226   3.105   3.331   5.578
 3903WAT      O12227   2.718   4.850   5.495
 3903WAT     H112228   2.744   4.846   5.403
 3903WAT     H212229   2.623   4.837   5.493
 3904WAT      O12230   2.426   3.485   5.160
 3904WAT     H112231   2.511   3.528   5.154
 3904WAT     H212232   2.391   3.515   5.244
 3905WAT      O12233   3.319   3.941   5.652
 3905WAT     H112234   3.225   3.942   5.670
 3905WAT     H212235   3.351   3.864   5.697
 3906WAT      O12236   2.315   4.109   5.009
 3906WAT     H112237   2.393   4.099   5.064
 3906WAT     H212238   2.324   4.041   4.942
 3907WAT      O12239   2.186   3.853   5.077
 3907WAT     H112240   2.194   3.758   5.088
 3907WAT     H212241   2.276   3.886   5.087
 3908WAT      O12242   2.266   4.868   5.787
 3908WAT     H112243   2.340   4.813   5.814
 3908WAT     H212244   2.304   4.954   5.773
 3909WAT      O12245   1.954   4.475   5.374
 3909WAT     H112246   1.862   4.499   5.373
 3909WAT     H212247   2.001   4.557   5.362
 3910WAT      O12248   2.576   4.785   4.969
 3910WAT     H112249   2.656   4.815   4.925
 3910WAT     H212250   2.525   4.742   4.900
 3911WAT      O12251   3.482   4.708   5.112
 3911WAT     H112252   3.454   4.666   5.030
 3911WAT     H212253   3.463   4.801   5.099
 3912WAT      O12254   2.629   4.307   4.955
 3912WAT     H112255   2.618   4.247   5.028
 3912WAT     H212256   2.612   4.254   4.877
 3913WAT      O12257   2.953   4.213   5.016
 3913WAT     H112258   2.898   4.258   5.080
 3913WAT     H212259   3.015   4.162   5.068
 3914WAT      O12260   2.519   4.109   5.205
 3914WAT     H112261   2.562   4.094   5.289
 3914WAT     H212262   2.533   4.027   5.156
 3915WAT      O12263   2.771   4.011   4.931
 3915WAT     H112264   2.823   3.940   4.894
 3915WAT     H212265   2.836   4.076   4.960
 3916WAT      O12266   2.409   3.716   4.900
 3916WAT     H112267   2.389   3.630   4.936
 3916WAT     H212268   2.392   3.708   4.807
 3917WAT      O12269   3.157   3.198   5.153
 3917WAT     H112270   3.185   3.113   5.189
 3917WAT     H212271   3.080   3.222   5.204
 3918WAT      O12272   2.290   3.428   4.898
 3918WAT     H112273   2.320   3.426   4.808
 3918WAT     H212274   2.363   3.392   4.949
 3919WAT      O12275   2.612   3.321   4.997
 3919WAT     H112276   2.576   3.253   4.940
 3919WAT     H212277   2.631   3.276   5.079
 3920WAT      O12278   2.827   4.821   5.159
 3920WAT     H112279   2.917   4.854   5.162
 3920WAT     H212280   2.831   4.747   5.098
 3921WAT      O12281   2.192   4.357   4.981
 3921WAT     H112282   2.234   4.411   5.047
 3921WAT     H212283   2.240   4.274   4.983
 3922WAT      O12284   1.913   4.636   5.727
 3922WAT     H112285   1.946   4.549   5.704
 3922WAT     H212286   1.956   4.656   5.810
 3923WAT      O12287   2.372   4.469   5.493
 3923WAT     H112288   2.342   4.457   5.583
 3923WAT     H212289   2.362   4.383   5.452
 3924WAT      O12290   3.650   4.447   4.965
 3924WAT     H112291   3.565   4.454   5.010
 3924WAT     H212292   3.667   4.536   4.933
 3925WAT      O12293   3.595   4.121   5.214
 3925WAT     H112294   3.671   4.178   5.224
 3925WAT     H212295   3.596   4.065   5.291
 3926WAT      O12296   1.945   3.974   5.637
 3926WAT     H112297   1.879   3.947   5.573
 3926WAT     H212298   2.029   3.963   5.591
 3927WAT      O12299   3.695   4.208   5.698
 3927WAT     H112300   3.733   4.129   5.659
 3927WAT     H212301   3.760   4.276   5.681
 3928WAT      O12302   3.602   4.151   4.930
 3928WAT     H112303   3.627   4.242   4.917
 3928WAT     H212304   3.581   4.145   5.023
 3929WAT      O12305   3.241   3.453   5.059
 3929WAT     H112306   3.282   3.434   4.975
 3929WAT     H212307   3.208   3.368   5.090
 3930WAT      O12308   3.590   3.944   5.429
 3930WAT     H112309   3.552   3.868   5.386
 3930WAT     H212310   3.517   3.983   5.478
 3931WAT      O12311   1.866   3.695   5.231
 3931WAT     H112312   1.776   3.721   5.214
 3931WAT     H212313   1.914   3.722   5.153
 3932WAT      O12314   3.517   3.766   5.760
 3932WAT     H112315   3.570   3.719   5.696
 3932WAT     H212316   3.576   3.780   5.834
 3933WAT      O12317   2.122   3.600   5.023
 3933WAT     H112318   2.191   3.556   4.974
 3933WAT     H212319   2.049   3.607   4.960
 3934WAT      O12320   2.085   3.206   4.926
 3934WAT     H112321   2.157   3.260   4.958
 3934WAT     H212322   2.113   3.178   4.839
 3935WAT      O12323   3.467   3.693   5.353
 3935WAT     H112324   3.516   3.669   5.432
 3935WAT     H212325   3.446   3.610   5.311
 3936WAT      O12326   3.608   3.556   5.606
 3936WAT     H112327   3.598   3.541   5.700
 3936WAT     H212328   3.686   3.505   5.582
 3937WAT      O12329   3.698   3.338   4.931
 3937WAT     H112330   3.791   3.326   4.910
 3937WAT     H212331   3.696   3.348   5.026
 3938WAT      O12332   3.705   3.416   5.194
 3938WAT     H112333   3.625   3.410   5.246
 3938WAT     H212334   3.726   3.510   5.192
 3939WAT      O12335   3.400   4.821   5.593
 3939WAT     H112336   3.460   4.788   5.525
 3939WAT     H212337   3.425   4.773   5.672
 3940WAT      O12338   3.348   3.249   5.837
 3940WAT     H112339   3.394   3.244   5.754
 3940WAT     H212340   3.322   3.341   5.845
 3941WAT      O12341   3.535   3.213   5.639
 3941WAT     H112342   3.528   3.119   5.624
 3941WAT     H212343   3.613   3.223   5.694
 3942WAT      O12344   1.966   4.827   5.535
 3942WAT     H112345   1.949   4.763   5.605
 3942WAT     H212346   1.879   4.847   5.500
 3943WAT      O12347   2.029   3.210   5.286
 3943WAT     H112348   2.104   3.221   5.228
 3943WAT     H212349   1.981   3.293   5.280
 3944WAT      O12350   2.681   3.421   5.586
 3944WAT     H112351   2.601   3.383   5.550
 3944WAT     H212352   2.733   3.346   5.615
 3945WAT      O12353   3.132   3.088   5.708
 3945WAT     H112354   3.192   3.145   5.756
 3945WAT     H212355   3.058   3.144   5.686
 3946WAT      O12356   3.447   3.128   5.237
 3946WAT     H112357   3.465   3.218   5.263
 3946WAT     H212358   3.368   3.105   5.284
 3947WAT      O12359   2.125   4.695   5.281
 3947WAT     H112360   2.074   4.735   5.210
 3947WAT     H212361   2.119   4.758   5.352
 3948WAT      O12362   2.265   3.262   5.140
 3948WAT     H112363   2.318   3.183   5.128
 3948WAT     H212364   2.328   3.330   5.162
 3949WAT      O12365   2.484   3.236   5.445
 3949WAT     H112366   2.421   3.166   5.462
 3949WAT     H212367   2.430   3.312   5.424
 3950WAT      O12368   3.602   4.852   5.412
 3950WAT     H112369   3.619   4.782   5.348
 3950WAT     H212370   3.533   4.904   5.372
 3951WAT      O12371   2.387   4.892   5.167
 3951WAT     H112372   2.459   4.862   5.112
 3951WAT     H212373   2.412   4.867   5.256
 3952WAT      O12374   2.302   4.502   5.168
 3952WAT     H112375   2.239   4.550   5.223
 3952WAT     H212376   2.314   4.418   5.212
 3953WAT      O12377   3.047   3.907   3.783
 3953WAT     H112378   3.040   3.816   3.756
 3953WAT     H212379   3.006   3.957   3.712
 3954WAT      O12380   2.860   4.085   3.970
 3954WAT     H112381   2.783   4.037   4.000
 3954WAT     H212382   2.926   4.017   3.955
 3955WAT      O12383   3.263   4.526   3.849
 3955WAT     H112384   3.217   4.449   3.881
 3955WAT     H212385   3.344   4.528   3.899
 3956WAT      O12386   2.886   4.755   3.812
 3956WAT     H112387   2.824   4.799   3.754
 3956WAT     H212388   2.971   4.770   3.771
 3957WAT      O12389   2.805   4.353   3.971
 3957WAT     H112390   2.798   4.259   3.956
 3957WAT     H212391   2.880   4.363   4.029
 3958WAT      O12392   2.907   3.634   3.994
 3958WAT     H112393   2.946   3.547   3.984
 3958WAT     H212394   2.898   3.666   3.904
 3959WAT      O12395   3.715   3.584   4.344
 3959WAT     H112396   3.645   3.624   4.292
 3959WAT     H212397   3.742   3.654   4.404
 3960WAT      O12398   2.334   3.231   4.400
 3960WAT     H112399   2.334   3.284   4.320
 3960WAT     H212400   2.251   3.184   4.398
 3961WAT      O12401   3.310   3.577   3.965
 3961WAT     H112402   3.239   3.606   4.023
 3961WAT     H212403   3.346   3.658   3.929
 3962WAT      O12404   1.909   4.311   3.288
 3962WAT     H112405   1.871   4.360   3.215
 3962WAT     H212406   1.935   4.378   3.351
 3963WAT      O12407   3.471   4.539   4.191
 3963WAT     H112408   3.403   4.606   4.190
 3963WAT     H212409   3.525   4.559   4.115
 3964WAT      O12410   3.617   3.522   4.004
 3964WAT     H112411   3.522   3.525   4.017
 3964WAT     H212412   3.649   3.603   4.043
 3965WAT      O12413   3.225   4.723   4.063
 3965WAT     H112414   3.226   4.683   3.976
 3965WAT     H212415   3.170   4.801   4.052
 3966WAT      O12416   3.355   4.395   3.572
 3966WAT     H112417   3.344   4.301   3.585
 3966WAT     H212418   3.353   4.432   3.660
 3967WAT      O12419   3.165   4.214   4.195
 3967WAT     H112420   3.208   4.192   4.112
 3967WAT     H212421   3.237   4.239   4.253
 3968WAT      O12422   3.560   4.052   4.204
 3968WAT     H112423   3.477   4.061   4.157
 3968WAT     H212424   3.619   4.112   4.159
 3969WAT      O12425   3.256   3.733   4.299
 3969WAT     H112426   3.215   3.815   4.324
 3969WAT     H212427   3.183   3.674   4.280
 3970WAT      O12428   3.325   4.736   4.369
 3970WAT     H112429   3.278   4.817   4.348
 3970WAT     H212430   3.257   4.671   4.383
 3971WAT      O12431   2.426   4.353   4.667
 3971WAT     H112432   2.336   4.376   4.692
 3971WAT     H212433   2.428   4.365   4.572
 3972WAT      O12434   2.308   4.041   4.524
 3972WAT     H112435   2.293   4.128   4.560
 3972WAT     H212436   2.220   4.006   4.509
 3973WAT      O12437   2.940   4.532   3.655
 3973WAT     H112438   2.984   4.606   3.614
 3973WAT     H212439   2.934   4.556   3.747
 3974WAT      O12440   2.488   4.635   4.745
 3974WAT     H112441   2.485   4.675   4.659
 3974WAT     H212442   2.472   4.542   4.729
 3975WAT      O12443   3.683   4.713   4.875
 3975WAT     H112444   3.731   4.761   4.943
 3975WAT     H212445   3.745   4.706   4.802
 3976WAT      O12446   2.028   4.387   3.757
 3976WAT     H112447   1.987   4.401   3.672
 3976WAT     H212448   2.117   4.359   3.737
 3977WAT      O12449   3.622   4.431   4.591
 3977WAT     H112450   3.637   4.408   4.499
 3977WAT     H212451   3.629   4.348   4.638
 3978WAT      O12452   3.010   4.802   4.448
 3978WAT     H112453   3.061   4.793   4.529
 3978WAT     H212454   2.926   4.836   4.477
 3979WAT      O12455   3.206   4.831   3.391
 3979WAT     H112456   3.191   4.802   3.480
 3979WAT     H212457   3.192   4.753   3.337
 3980WAT      O12458   2.454   4.809   3.568
 3980WAT     H112459   2.437   4.717   3.547
 3980WAT     H212460   2.369   4.845   3.592
 3981WAT      O12461   3.177   4.583   3.247
 3981WAT     H112462   3.108   4.581   3.181
 3981WAT     H212463   3.251   4.540   3.205
 3982WAT      O12464   3.133   4.744   3.655
 3982WAT     H112465   3.179   4.666   3.686
 3982WAT     H212466   3.168   4.815   3.708
 3983WAT      O12467   3.610   3.637   4.687
 3983WAT     H112468   3.547   3.688   4.635
 3983WAT     H212469   3.576   3.547   4.682
 3984WAT      O12470   2.815   3.521   4.434
 3984WAT     H112471   2.769   3.542   4.515
 3984WAT     H212472   2.775   3.440   4.404
 3985WAT      O12473   3.315   3.642   4.547
 3985WAT     H112474   3.230   3.613   4.579
 3985WAT     H212475   3.299   3.669   4.456
 3986WAT      O12476   3.024   3.794   4.756
 3986WAT     H112477   3.057   3.710   4.724
 3986WAT     H212478   3.103   3.845   4.773
 3987WAT      O12479   2.609   3.837   4.713
 3987WAT     H112480   2.600   3.743   4.698
 3987WAT     H212481   2.693   3.860   4.674
 3988WAT      O12482   2.122   3.478   4.528
 3988WAT     H112483   2.083   3.563   4.549
 3988WAT     H212484   2.054   3.414   4.546
 3989WAT      O12485   2.780   3.486   4.836
 3989WAT     H112486   2.711   3.466   4.899
 3989WAT     H212487   2.854   3.514   4.889
 3990WAT      O12488   1.872   3.664   3.052
 3990WAT     H112489   1.863   3.759   3.067
 3990WAT     H212490   1.835   3.650   2.965
 3991WAT      O12491   3.007   3.870   4.118
 3991WAT     H112492   2.934   3.920   4.155
 3991WAT     H212493   2.968   3.788   4.090
 3992WAT      O12494   3.053   3.416   4.060
 3992WAT     H112495   3.055   3.460   4.145
 3992WAT     H212496   3.029   3.325   4.081
 3993WAT      O12497   3.396   3.157   4.644
 3993WAT     H112498   3.429   3.084   4.697
 3993WAT     H212499   3.400   3.126   4.554
 3994WAT      O12500   2.066   4.259   4.586
 3994WAT     H112501   2.028   4.195   4.646
 3994WAT     H212502   2.097   4.329   4.643
 3995WAT      O12503   2.314   4.268   3.426
 3995WAT     H112504   2.236   4.214   3.411
 3995WAT     H212505   2.386   4.216   3.392
 3996WAT      O12506   3.389   4.168   4.005
 3996WAT     H112507   3.461   4.218   3.966
 3996WAT     H212508   3.369   4.100   3.940
 3997WAT      O12509   2.928   4.175   4.595
 3997WAT     H112510   2.920   4.084   4.567
 3997WAT     H212511   2.863   4.185   4.665
 3998WAT      O12512   2.806   4.361   3.316
 3998WAT     H112513   2.840   4.436   3.268
 3998WAT     H212514   2.724   4.393   3.354
 3999WAT      O12515   2.066   3.932   4.481
 3999WAT     H112516   2.029   3.998   4.539
 3999WAT     H212517   2.036   3.849   4.517
 4000WAT      O12518   2.385   3.977   4.769
 4000WAT     H112519   2.357   3.992   4.679
 4000WAT     H212520   2.464   3.923   4.761
 4001WAT      O12521   2.920   4.457   4.568
 4001WAT     H112522   2.921   4.363   4.548
 4001WAT     H212523   2.850   4.466   4.632
 4002WAT      O12524   3.542   4.122   4.503
 4002WAT     H112525   3.469   4.181   4.484
 4002WAT     H212526   3.594   4.121   4.422
 4003WAT      O12527   3.537   4.561   3.468
 4003WAT     H112528   3.472   4.496   3.496
 4003WAT     H212529   3.498   4.602   3.391
 4004WAT      O12530   3.095   4.293   3.854
 4004WAT     H112531   3.130   4.234   3.787
 4004WAT     H212532   3.006   4.262   3.870
 4005WAT      O12533   2.702   4.369   3.595
 4005WAT     H112534   2.772   4.425   3.631
 4005WAT     H212535   2.624   4.425   3.597
 4006WAT      O12536   1.917   3.932   3.142
 4006WAT     H112537   2.003   3.959   3.171
 4006WAT     H212538   1.868   4.014   3.131
 4007WAT      O12539   2.864   4.622   4.278
 4007WAT     H112540   2.927   4.642   4.346
 4007WAT     H212541   2.900   4.545   4.234
 4008WAT      O12542   2.991   4.422   4.150
 4008WAT     H112543   3.055   4.352   4.161
 4008WAT     H212544   3.044   4.500   4.132
 4009WAT      O12545   3.374   4.451   3.122
 4009WAT     H112546   3.353   4.378   3.181
 4009WAT     H212547   3.337   4.424   3.038
 4010WAT      O12548   3.168   4.503   4.470
 4010WAT     H112549   3.202   4.560   4.539
 4010WAT     H212550   3.076   4.489   4.493
 4011WAT      O12551   1.955   4.853   3.200
 4011WAT     H112552   1.990   4.914   3.134
 4011WAT     H212553   1.940   4.908   3.277
 4012WAT      O12554   1.923   3.281   4.548
 4012WAT     H112555   1.852   3.301   4.609
 4012WAT     H212556   1.965   3.204   4.586
 4013WAT      O12557   1.953   4.680   4.646
 4013WAT     H112558   1.962   4.585   4.633
 4013WAT     H212559   1.886   4.706   4.582
 4014WAT      O12560   2.751   4.506   4.787
 4014WAT     H112561   2.719   4.435   4.841
 4014WAT     H212562   2.684   4.574   4.794
 4015WAT      O12563   2.555   4.591   3.281
 4015WAT     H112564   2.554   4.665   3.220
 4015WAT     H212565   2.463   4.567   3.291
 4016WAT      O12566   2.116   4.114   3.356
 4016WAT     H112567   2.054   4.187   3.356
 4016WAT     H212568   2.162   4.121   3.273
 4017WAT      O12569   3.072   3.530   4.322
 4017WAT     H112570   3.110   3.449   4.356
 4017WAT     H212571   2.987   3.536   4.365
 4018WAT      O12572   2.854   4.597   3.148
 4018WAT     H112573   2.864   4.577   3.055
 4018WAT     H212574   2.764   4.572   3.168
 4019WAT      O12575   2.769   3.795   4.345
 4019WAT     H112576   2.819   3.843   4.411
 4019WAT     H212577   2.783   3.703   4.366
 4020WAT      O12578   2.718   4.850   3.617
 4020WAT     H112579   2.744   4.846   3.525
 4020WAT     H212580   2.623   4.837   3.615
 4021WAT      O12581   3.490   3.417   4.430
 4021WAT     H112582   3.439   3.491   4.464
 4021WAT     H212583   3.571   3.456   4.398
 4022WAT      O12584   3.319   3.942   3.775
 4022WAT     H112585   3.225   3.942   3.792
 4022WAT     H212586   3.351   3.863   3.819
 4023WAT      O12587   2.315   4.109   3.132
 4023WAT     H112588   2.393   4.099   3.187
 4023WAT     H212589   2.324   4.042   3.065
 4024WAT      O12590   2.186   3.853   3.199
 4024WAT     H112591   2.193   3.759   3.210
 4024WAT     H212592   2.276   3.885   3.210
 4025WAT      O12593   3.519   4.658   3.942
 4025WAT     H112594   3.531   4.741   3.989
 4025WAT     H212595   3.606   4.638   3.907
 4026WAT      O12596   2.266   4.868   3.910
 4026WAT     H112597   2.340   4.813   3.936
 4026WAT     H212598   2.305   4.954   3.895
 4027WAT      O12599   1.954   4.475   3.497
 4027WAT     H112600   1.862   4.499   3.496
 4027WAT     H212601   2.001   4.557   3.485
 4028WAT      O12602   2.167   4.786   4.828
 4028WAT     H112603   2.247   4.818   4.870
 4028WAT     H212604   2.115   4.750   4.900
 4029WAT      O12605   2.576   4.785   3.092
 4029WAT     H112606   2.655   4.815   3.047
 4029WAT     H212607   2.525   4.742   3.023
 4030WAT      O12608   3.051   4.397   4.823
 4030WAT     H112609   2.990   4.399   4.749
 4030WAT     H212610   3.020   4.324   4.877
 4031WAT      O12611   3.193   4.771   4.683
 4031WAT     H112612   3.289   4.761   4.680
 4031WAT     H212613   3.178   4.835   4.751
 4032WAT      O12614   3.482   4.708   3.235
 4032WAT     H112615   3.454   4.666   3.153
 4032WAT     H212616   3.463   4.801   3.222
 4033WAT      O12617   1.940   4.036   4.723
 4033WAT     H112618   1.989   3.977   4.780
 4033WAT     H212619   1.864   4.063   4.776
 4034WAT      O12620   2.629   4.307   3.077
 4034WAT     H112621   2.618   4.247   3.151
 4034WAT     H212622   2.612   4.254   3.000
 4035WAT      O12623   2.645   4.177   4.676
 4035WAT     H112624   2.567   4.232   4.667
 4035WAT     H212625   2.662   4.146   4.587
 4036WAT      O12626   3.358   4.350   4.732
 4036WAT     H112627   3.432   4.382   4.681
 4036WAT     H212628   3.282   4.366   4.676
 4037WAT      O12629   2.142   3.848   4.812
 4037WAT     H112630   2.146   3.820   4.903
 4037WAT     H212631   2.227   3.889   4.795
 4038WAT      O12632   2.519   4.108   3.328
 4038WAT     H112633   2.563   4.094   3.412
 4038WAT     H212634   2.533   4.027   3.279
 4039WAT      O12635   2.337   3.706   4.609
 4039WAT     H112636   2.282   3.659   4.546
 4039WAT     H212637   2.403   3.750   4.555
 4040WAT      O12638   3.225   4.153   4.585
 4040WAT     H112639   3.267   4.170   4.670
 4040WAT     H212640   3.132   4.166   4.601
 4041WAT      O12641   3.273   3.888   4.786
 4041WAT     H112642   3.331   3.812   4.777
 4041WAT     H212643   3.292   3.941   4.708
 4042WAT      O12644   2.385   3.404   4.617
 4042WAT     H112645   2.375   3.342   4.545
 4042WAT     H212646   2.326   3.476   4.595
 4043WAT      O12647   2.661   3.260   4.320
 4043WAT     H112648   2.615   3.262   4.236
 4043WAT     H212649   2.598   3.220   4.380
 4044WAT      O12650   2.702   4.149   4.383
 4044WAT     H112651   2.744   4.233   4.365
 4044WAT     H212652   2.610   4.163   4.358
 4045WAT      O12653   2.935   3.921   4.521
 4045WAT     H112654   2.948   3.863   4.596
 4045WAT     H212655   3.021   3.926   4.479
 4046WAT      O12656   3.168   3.978   4.379
 4046WAT     H112657   3.118   4.030   4.317
 4046WAT     H212658   3.204   4.041   4.441
 4047WAT      O12659   2.409   3.716   3.023
 4047WAT     H112660   2.388   3.630   3.059
 4047WAT     H212661   2.392   3.709   2.929
 4048WAT      O12662   2.488   4.781   4.494
 4048WAT     H112663   2.432   4.852   4.462
 4048WAT     H212664   2.512   4.731   4.416
 4049WAT      O12665   2.612   3.576   4.646
 4049WAT     H112666   2.671   3.546   4.715
 4049WAT     H212667   2.531   3.528   4.661
 4050WAT      O12668   3.094   3.538   4.670
 4050WAT     H112669   3.025   3.472   4.663
 4050WAT     H212670   3.166   3.493   4.714
 4051WAT      O12671   2.290   3.429   3.021
 4051WAT     H112672   2.319   3.426   2.930
 4051WAT     H212673   2.363   3.391   3.071
 4052WAT      O12674   2.772   4.903   4.520
 4052WAT     H112675   2.765   4.993   4.550
 4052WAT     H212676   2.682   4.871   4.517
 4053WAT      O12677   2.827   4.821   3.282
 4053WAT     H112678   2.917   4.854   3.285
 4053WAT     H212679   2.831   4.747   3.221
 4054WAT      O12680   2.191   4.356   3.104
 4054WAT     H112681   2.235   4.411   3.169
 4054WAT     H212682   2.240   4.274   3.106
 4055WAT      O12683   1.913   4.635   3.850
 4055WAT     H112684   1.946   4.549   3.827
 4055WAT     H212685   1.956   4.656   3.933
 4056WAT      O12686   2.373   4.469   3.616
 4056WAT     H112687   2.342   4.457   3.706
 4056WAT     H212688   2.362   4.384   3.575
 4057WAT      O12689   1.962   4.723   4.124
 4057WAT     H112690   1.918   4.741   4.207
 4057WAT     H212691   2.018   4.799   4.110
 4058WAT      O12692   3.525   4.674   4.552
 4058WAT     H112693   3.464   4.679   4.478
 4058WAT     H212694   3.538   4.580   4.566
 4059WAT      O12695   3.649   4.447   3.086
 4059WAT     H112696   3.566   4.454   3.132
 4059WAT     H212697   3.667   4.536   3.056
 4060WAT      O12698   3.697   4.207   3.822
 4060WAT     H112699   3.733   4.129   3.779
 4060WAT     H212700   3.760   4.276   3.803
 4061WAT      O12701   3.393   4.345   4.362
 4061WAT     H112702   3.312   4.388   4.389
 4061WAT     H212703   3.435   4.406   4.301
 4062WAT      O12704   3.530   3.858   4.515
 4062WAT     H112705   3.506   3.836   4.425
 4062WAT     H212706   3.554   3.951   4.511
 4063WAT      O12707   2.004   3.702   4.605
 4063WAT     H112708   1.914   3.700   4.638
 4063WAT     H212709   2.057   3.724   4.681
 4064WAT      O12710   3.372   3.382   4.793
 4064WAT     H112711   3.460   3.383   4.831
 4064WAT     H212712   3.374   3.308   4.732
 4065WAT      O12713   1.866   3.695   3.354
 4065WAT     H112714   1.776   3.721   3.336
 4065WAT     H212715   1.915   3.722   3.276
 4066WAT      O12716   3.517   3.767   3.882
 4066WAT     H112717   3.569   3.718   3.818
 4066WAT     H212718   3.576   3.781   3.956
 4067WAT      O12719   3.535   3.775   4.234
 4067WAT     H112720   3.440   3.772   4.245
 4067WAT     H212721   3.553   3.866   4.210
 4068WAT      O12722   2.122   3.601   3.145
 4068WAT     H112723   2.191   3.556   3.095
 4068WAT     H212724   2.049   3.607   3.084
 4069WAT      O12725   3.609   3.557   3.729
 4069WAT     H112726   3.598   3.540   3.823
 4069WAT     H212727   3.685   3.504   3.705
 4070WAT      O12728   3.445   3.149   4.375
 4070WAT     H112729   3.507   3.213   4.411
 4070WAT     H212730   3.459   3.153   4.280
 4071WAT      O12731   3.400   4.820   3.715
 4071WAT     H112732   3.459   4.788   3.647
 4071WAT     H212733   3.425   4.772   3.794
 4072WAT      O12734   2.030   3.146   4.314
 4072WAT     H112735   1.995   3.192   4.389
 4072WAT     H212736   1.996   3.057   4.322
 4073WAT      O12737   2.190   4.464   4.730
 4073WAT     H112738   2.186   4.427   4.819
 4073WAT     H212739   2.203   4.558   4.744
 4074WAT      O12740   2.560   4.620   4.290
 4074WAT     H112741   2.536   4.645   4.201
 4074WAT     H212742   2.654   4.635   4.295
 4075WAT      O12743   2.781   3.265   4.667
 4075WAT     H112744   2.775   3.326   4.740
 4075WAT     H212745   2.875   3.255   4.651
 4076WAT      O12746   3.045   3.232   4.630
 4076WAT     H112747   3.106   3.263   4.563
 4076WAT     H212748   3.099   3.183   4.691
 4077WAT      O12749   3.687   4.820   4.369
 4077WAT     H112750   3.636   4.861   4.298
 4077WAT     H212751   3.625   4.760   4.410
 4078WAT      O12752   2.097   3.099   4.641
 4078WAT     H112753   2.152   3.081   4.565
 4078WAT     H212754   2.103   3.020   4.695
 4079WAT      O12755   2.173   4.759   4.442
 4079WAT     H112756   2.115   4.744   4.516
 4079WAT     H212757   2.173   4.675   4.395
 4080WAT      O12758   3.119   3.088   4.263
 4080WAT     H112759   3.032   3.121   4.241
 4080WAT     H212760   3.107   3.039   4.344
 4081WAT      O12761   3.209   3.308   4.402
 4081WAT     H112762   3.177   3.227   4.362
 4081WAT     H212763   3.304   3.305   4.389
 4082WAT      O12764   3.455   4.885   4.097
 4082WAT     H112765   3.409   4.961   4.061
 4082WAT     H212766   3.391   4.814   4.093
 4083WAT      O12767   2.498   4.716   4.016
 4083WAT     H112768   2.549   4.655   3.963
 4083WAT     H212769   2.563   4.767   4.064
 4084WAT      O12770   2.772   4.805   4.098
 4084WAT     H112771   2.801   4.780   4.010
 4084WAT     H212772   2.822   4.750   4.157
 4085WAT      O12773   2.893   3.179   4.156
 4085WAT     H112774   2.815   3.227   4.185
 4085WAT     H212775   2.863   3.089   4.145
 4086WAT      O12776   3.349   3.249   3.961
 4086WAT     H112777   3.394   3.244   3.877
 4086WAT     H212778   3.322   3.341   3.968
 4087WAT      O12779   3.535   3.212   3.761
 4087WAT     H112780   3.529   3.118   3.747
 4087WAT     H212781   3.612   3.223   3.816
 4088WAT      O12782   1.966   4.827   3.658
 4088WAT     H112783   1.949   4.763   3.728
 4088WAT     H212784   1.879   4.847   3.623
 4089WAT      O12785   2.125   4.695   3.403
 4089WAT     H112786   2.074   4.735   3.332
 4089WAT     H212787   2.119   4.758   3.475
 4090WAT      O12788   2.778   4.898   4.835
 4090WAT     H112789   2.871   4.874   4.839
 4090WAT     H212790   2.777   4.980   4.787
 4091WAT      O12791   3.602   4.851   3.534
 4091WAT     H112792   3.619   4.783   3.470
 4091WAT     H212793   3.533   4.904   3.495
 4092WAT      O12794   2.497   3.164   4.811
 4092WAT     H112795   2.469   3.214   4.734
 4092WAT     H212796   2.535   3.084   4.775
 4093WAT      O12797   2.387   4.892   3.290
 4093WAT     H112798   2.459   4.862   3.235
 4093WAT     H212799   2.412   4.867   3.379
 4094WAT      O12800   2.302   4.502   3.290
 4094WAT     H112801   2.239   4.550   3.345
 4094WAT     H212802   2.314   4.418   3.335
 4095WAT      O12803   3.157   3.106   4.869
 4095WAT     H112804   3.146   3.137   4.959
 4095WAT     H212805   3.239   3.146   4.840
 4096WAT      O12806   3.435   4.821   4.816
 4096WAT     H112807   3.514   4.770   4.798
 4096WAT     H212808   3.464   4.888   4.878
 4097WAT      O12809   3.048   3.907   1.905
 4097WAT     H112810   3.040   3.816   1.878
 4097WAT     H212811   3.006   3.957   1.835
 4098WAT      O12812   2.861   4.085   2.093
 4098WAT     H112813   2.783   4.037   2.122
 4098WAT     H212814   2.926   4.017   2.076
 4099WAT      O12815   2.262   4.117   2.181
 4099WAT     H112816   2.179   4.090   2.221
 4099WAT     H212817   2.323   4.124   2.254
 4100WAT      O12818   3.263   4.526   1.971
 4100WAT     H112819   3.217   4.449   2.003
 4100WAT     H212820   3.344   4.528   2.022
 4101WAT      O12821   2.261   4.520   2.202
 4101WAT     H112822   2.291   4.431   2.183
 4101WAT     H212823   2.335   4.576   2.178
 4102WAT      O12824   2.104   3.613   1.559
 4102WAT     H112825   2.015   3.646   1.549
 4102WAT     H212826   2.132   3.592   1.470
 4103WAT      O12827   1.898   3.871   2.147
 4103WAT     H112828   1.958   3.796   2.148
 4103WAT     H212829   1.901   3.903   2.057
 4104WAT      O12830   2.886   4.755   1.934
 4104WAT     H112831   2.824   4.799   1.876
 4104WAT     H212832   2.971   4.770   1.893
 4105WAT      O12833   2.804   4.353   2.094
 4105WAT     H112834   2.799   4.258   2.078
 4105WAT     H212835   2.880   4.363   2.151
 4106WAT      O12836   2.024   3.414   2.327
 4106WAT     H112837   2.006   3.324   2.355
 4106WAT     H212838   1.983   3.468   2.394
 4107WAT      O12839   2.907   3.633   2.117
 4107WAT     H112840   2.947   3.547   2.107
 4107WAT     H212841   2.899   3.667   2.027
 4108WAT      O12842   2.321   3.471   1.663
 4108WAT     H112843   2.332   3.561   1.695
 4108WAT     H212844   2.230   3.466   1.634
 4109WAT      O12845   3.286   3.383   1.810
 4109WAT     H112846   3.368   3.334   1.814
 4109WAT     H212847   3.290   3.442   1.886
 4110WAT      O12848   2.085   3.663   2.188
 4110WAT     H112849   2.155   3.689   2.248
 4110WAT     H212850   2.054   3.579   2.221
 4111WAT      O12851   2.506   3.768   2.095
 4111WAT     H112852   2.557   3.818   2.160
 4111WAT     H212853   2.558   3.690   2.079
 4112WAT      O12854   2.334   3.231   2.523
 4112WAT     H112855   2.334   3.283   2.443
 4112WAT     H212856   2.251   3.184   2.521
 4113WAT      O12857   2.972   4.243   1.673
 4113WAT     H112858   2.910   4.289   1.616
 4113WAT     H212859   3.022   4.312   1.715
 4114WAT      O12860   2.460   4.196   2.342
 4114WAT     H112861   2.425   4.258   2.405
 4114WAT     H212862   2.476   4.249   2.263
 4115WAT      O12863   2.302   3.403   2.324
 4115WAT     H112864   2.336   3.487   2.294
 4115WAT     H212865   2.208   3.418   2.335
 4116WAT      O12866   2.381   4.392   2.522
 4116WAT     H112867   2.442   4.461   2.494
 4116WAT     H212868   2.294   4.432   2.513
 4117WAT      O12869   1.909   4.311   1.410
 4117WAT     H112870   1.871   4.360   1.337
 4117WAT     H212871   1.935   4.378   1.473
 4118WAT      O12872   3.471   4.539   2.314
 4118WAT     H112873   3.403   4.606   2.314
 4118WAT     H212874   3.525   4.559   2.237
 4119WAT      O12875   2.670   3.152   1.955
 4119WAT     H112876   2.701   3.096   1.884
 4119WAT     H212877   2.577   3.165   1.938
 4120WAT      O12878   3.225   4.723   2.185
 4120WAT     H112879   3.226   4.683   2.098
 4120WAT     H212880   3.170   4.801   2.175
 4121WAT      O12881   3.355   4.395   1.694
 4121WAT     H112882   3.344   4.301   1.707
 4121WAT     H212883   3.353   4.432   1.783
 4122WAT      O12884   3.165   4.214   2.318
 4122WAT     H112885   3.207   4.192   2.235
 4122WAT     H212886   3.238   4.239   2.375
 4123WAT      O12887   2.909   3.958   1.631
 4123WAT     H112888   2.816   3.951   1.652
 4123WAT     H212889   2.924   4.052   1.618
 4124WAT      O12890   2.908   3.584   1.328
 4124WAT     H112891   2.814   3.601   1.339
 4124WAT     H212892   2.939   3.658   1.276
 4125WAT      O12893   3.560   4.053   2.327
 4125WAT     H112894   3.477   4.060   2.280
 4125WAT     H212895   3.619   4.112   2.280
 4126WAT      O12896   3.312   4.114   1.680
 4126WAT     H112897   3.250   4.080   1.615
 4126WAT     H212898   3.310   4.050   1.751
 4127WAT      O12899   2.469   4.010   1.908
 4127WAT     H112900   2.429   3.939   1.858
 4127WAT     H212901   2.478   3.976   1.997
 4128WAT      O12902   2.516   4.378   2.125
 4128WAT     H112903   2.486   4.319   2.055
 4128WAT     H212904   2.611   4.383   2.113
 4129WAT      O12905   2.341   3.686   2.286
 4129WAT     H112906   2.395   3.700   2.208
 4129WAT     H212907   2.392   3.726   2.357
 4130WAT      O12908   3.325   4.736   2.491
 4130WAT     H112909   3.278   4.817   2.471
 4130WAT     H212910   3.256   4.671   2.506
 4131WAT      O12911   2.426   4.353   2.789
 4131WAT     H112912   2.336   4.376   2.814
 4131WAT     H212913   2.427   4.365   2.694
 4132WAT      O12914   3.129   4.038   1.382
 4132WAT     H112915   3.172   3.954   1.366
 4132WAT     H212916   3.201   4.101   1.388
 4133WAT      O12917   2.308   4.041   2.647
 4133WAT     H112918   2.293   4.128   2.683
 4133WAT     H212919   2.221   4.006   2.632
 4134WAT      O12920   2.940   4.531   1.778
 4134WAT     H112921   2.984   4.606   1.736
 4134WAT     H212922   2.934   4.556   1.870
 4135WAT      O12923   2.488   4.635   2.868
 4135WAT     H112924   2.485   4.675   2.781
 4135WAT     H212925   2.472   4.542   2.852
 4136WAT      O12926   3.487   3.164   1.212
 4136WAT     H112927   3.457   3.172   1.302
 4136WAT     H212928   3.564   3.221   1.207
 4137WAT      O12929   2.139   3.900   1.658
 4137WAT     H112930   2.127   3.973   1.597
 4137WAT     H212931   2.108   3.823   1.610
 4138WAT      O12932   3.683   4.713   2.997
 4138WAT     H112933   3.731   4.761   3.065
 4138WAT     H212934   3.745   4.706   2.925
 4139WAT      O12935   1.903   4.217   2.239
 4139WAT     H112936   1.911   4.231   2.144
 4139WAT     H212937   1.964   4.146   2.258
 4140WAT      O12938   2.027   4.387   1.879
 4140WAT     H112939   1.987   4.402   1.794
 4140WAT     H212940   2.117   4.359   1.859
 4141WAT      O12941   3.622   4.431   2.713
 4141WAT     H112942   3.637   4.407   2.622
 4141WAT     H212943   3.629   4.349   2.761
 4142WAT      O12944   3.010   4.802   2.571
 4142WAT     H112945   3.061   4.793   2.652
 4142WAT     H212946   2.926   4.836   2.599
 4143WAT      O12947   3.207   4.831   1.513
 4143WAT     H112948   3.191   4.802   1.603
 4143WAT     H212949   3.192   4.753   1.460
 4144WAT      O12950   2.454   4.809   1.691
 4144WAT     H112951   2.437   4.717   1.670
 4144WAT     H212952   2.369   4.845   1.715
 4145WAT      O12953   3.177   4.583   1.369
 4145WAT     H112954   3.108   4.581   1.303
 4145WAT     H212955   3.251   4.540   1.327
 4146WAT      O12956   3.133   4.744   1.777
 4146WAT     H112957   3.180   4.666   1.808
 4146WAT     H212958   3.168   4.815   1.831
 4147WAT      O12959   1.909   4.322   2.493
 4147WAT     H112960   1.924   4.274   2.411
 4147WAT     H212961   1.956   4.271   2.559
 4148WAT      O12962   2.386   3.235   1.996
 4148WAT     H112963   2.342   3.313   1.963
 4148WAT     H212964   2.442   3.267   2.067
 4149WAT      O12965   2.815   3.521   2.557
 4149WAT     H112966   2.768   3.542   2.638
 4149WAT     H212967   2.775   3.440   2.526
 4150WAT      O12968   2.697   3.197   1.484
 4150WAT     H112969   2.635   3.196   1.557
 4150WAT     H212970   2.690   3.110   1.445
 4151WAT      O12971   2.591   3.289   2.183
 4151WAT     H112972   2.620   3.380   2.173
 4151WAT     H212973   2.645   3.240   2.121
 4152WAT      O12974   2.365   3.747   1.769
 4152WAT     H112975   2.342   3.725   1.859
 4152WAT     H212976   2.287   3.790   1.734
 4153WAT      O12977   3.088   3.747   1.629
 4153WAT     H112978   3.028   3.820   1.611
 4153WAT     H212979   3.142   3.741   1.551
 4154WAT      O12980   2.609   3.837   2.836
 4154WAT     H112981   2.600   3.743   2.820
 4154WAT     H212982   2.693   3.860   2.796
 4155WAT      O12983   2.950   3.612   1.833
 4155WAT     H112984   2.988   3.643   1.751
 4155WAT     H212985   2.984   3.523   1.842
 4156WAT      O12986   2.122   3.478   2.651
 4156WAT     H112987   2.082   3.563   2.672
 4156WAT     H212988   2.054   3.414   2.669
 4157WAT      O12989   1.853   3.270   2.055
 4157WAT     H112990   1.824   3.327   2.126
 4157WAT     H212991   1.927   3.222   2.091
 4158WAT      O12992   1.872   3.665   1.175
 4158WAT     H112993   1.863   3.759   1.189
 4158WAT     H212994   1.835   3.650   1.087
 4159WAT      O12995   3.007   3.870   2.240
 4159WAT     H112996   2.934   3.920   2.276
 4159WAT     H212997   2.968   3.788   2.211
 4160WAT      O12998   2.651   3.538   2.082
 4160WAT     H112999   2.652   3.495   1.997
 4160WAT     H213000   2.741   3.570   2.093
 4161WAT      O13001   2.236   3.526   1.978
 4161WAT     H113002   2.202   3.574   2.054
 4161WAT     H213003   2.160   3.481   1.942
 4162WAT      O13004   2.657   3.637   1.382
 4162WAT     H113005   2.669   3.634   1.477
 4162WAT     H213006   2.619   3.724   1.366
 4163WAT      O13007   3.054   3.415   2.183
 4163WAT     H113008   3.055   3.461   2.267
 4163WAT     H213009   3.028   3.325   2.205
 4164WAT      O13010   2.558   3.870   1.320
 4164WAT     H113011   2.502   3.824   1.257
 4164WAT     H213012   2.629   3.906   1.267
 4165WAT      O13013   2.067   4.258   2.709
 4165WAT     H113014   2.027   4.195   2.769
 4165WAT     H213015   2.097   4.329   2.766
 4166WAT      O13016   2.681   3.944   2.257
 4166WAT     H113017   2.717   3.896   2.331
 4166WAT     H213018   2.662   4.031   2.292
 4167WAT      O13019   1.969   3.418   1.870
 4167WAT     H113020   1.939   3.382   1.953
 4167WAT     H213021   1.961   3.345   1.808
 4168WAT      O13022   2.460   3.848   2.488
 4168WAT     H113023   2.430   3.935   2.511
 4168WAT     H213024   2.556   3.854   2.492
 4169WAT      O13025   2.314   4.268   1.548
 4169WAT     H113026   2.236   4.214   1.533
 4169WAT     H213027   2.387   4.216   1.514
 4170WAT      O13028   3.389   4.168   2.127
 4170WAT     H113029   3.461   4.218   2.088
 4170WAT     H213030   3.369   4.100   2.063
 4171WAT      O13031   2.935   3.307   1.542
 4171WAT     H113032   2.854   3.258   1.534
 4171WAT     H213033   2.917   3.391   1.500
 4172WAT      O13034   2.927   4.176   2.717
 4172WAT     H113035   2.920   4.084   2.690
 4172WAT     H213036   2.863   4.185   2.788
 4173WAT      O13037   3.206   3.744   1.371
 4173WAT     H113038   3.295   3.776   1.354
 4173WAT     H213039   3.204   3.657   1.332
 4174WAT      O13040   2.317   4.236   1.913
 4174WAT     H113041   2.369   4.155   1.906
 4174WAT     H213042   2.272   4.228   1.997
 4175WAT      O13043   2.806   4.362   1.439
 4175WAT     H113044   2.840   4.437   1.390
 4175WAT     H213045   2.723   4.393   1.475
 4176WAT      O13046   2.066   3.933   2.603
 4176WAT     H113047   2.029   3.998   2.663
 4176WAT     H213048   2.037   3.849   2.639
 4177WAT      O13049   2.385   3.977   2.892
 4177WAT     H113050   2.356   3.993   2.802
 4177WAT     H213051   2.463   3.922   2.883
 4178WAT      O13052   2.920   4.457   2.690
 4178WAT     H113053   2.921   4.363   2.670
 4178WAT     H213054   2.850   4.466   2.755
 4179WAT      O13055   3.434   3.876   1.318
 4179WAT     H113056   3.425   3.919   1.233
 4179WAT     H213057   3.506   3.922   1.361
 4180WAT      O13058   3.541   4.122   2.626
 4180WAT     H113059   3.469   4.181   2.606
 4180WAT     H213060   3.594   4.120   2.546
 4181WAT      O13061   3.537   4.561   1.591
 4181WAT     H113062   3.472   4.496   1.618
 4181WAT     H213063   3.498   4.602   1.513
 4182WAT      O13064   3.095   4.294   1.976
 4182WAT     H113065   3.130   4.234   1.910
 4182WAT     H213066   3.006   4.261   1.993
 4183WAT      O13067   2.703   4.370   1.717
 4183WAT     H113068   2.772   4.425   1.753
 4183WAT     H213069   2.624   4.424   1.720
 4184WAT      O13070   1.916   3.932   1.266
 4184WAT     H113071   2.004   3.959   1.294
 4184WAT     H213072   1.868   4.013   1.254
 4185WAT      O13073   2.635   4.069   1.679
 4185WAT     H113074   2.679   4.152   1.700
 4185WAT     H213075   2.597   4.040   1.762
 4186WAT      O13076   2.863   4.621   2.400
 4186WAT     H113077   2.928   4.642   2.468
 4186WAT     H213078   2.900   4.545   2.356
 4187WAT      O13079   2.224   3.105   1.725
 4187WAT     H113080   2.210   3.103   1.820
 4187WAT     H213081   2.141   3.138   1.690
 4188WAT      O13082   2.991   4.422   2.272
 4188WAT     H113083   3.055   4.352   2.284
 4188WAT     H213084   3.044   4.500   2.254
 4189WAT      O13085   3.374   4.451   1.245
 4189WAT     H113086   3.353   4.378   1.304
 4189WAT     H213087   3.337   4.425   1.161
 4190WAT      O13088   3.168   4.502   2.593
 4190WAT     H113089   3.202   4.560   2.661
 4190WAT     H213090   3.076   4.489   2.616
 4191WAT      O13091   1.954   4.853   1.322
 4191WAT     H113092   1.990   4.914   1.257
 4191WAT     H213093   1.940   4.908   1.400
 4192WAT      O13094   1.923   3.281   2.670
 4192WAT     H113095   1.852   3.301   2.731
 4192WAT     H213096   1.966   3.204   2.708
 4193WAT      O13097   3.333   4.241   1.411
 4193WAT     H113098   3.305   4.288   1.490
 4193WAT     H213099   3.414   4.196   1.438
 4194WAT      O13100   1.953   4.680   2.769
 4194WAT     H113101   1.963   4.585   2.756
 4194WAT     H213102   1.886   4.706   2.705
 4195WAT      O13103   2.751   4.506   2.910
 4195WAT     H113104   2.719   4.435   2.964
 4195WAT     H213105   2.684   4.574   2.916
 4196WAT      O13106   2.555   4.592   1.404
 4196WAT     H113107   2.555   4.665   1.342
 4196WAT     H213108   2.463   4.566   1.413
 4197WAT      O13109   2.115   4.113   1.478
 4197WAT     H113110   2.054   4.187   1.478
 4197WAT     H213111   2.163   4.121   1.396
 4198WAT      O13112   3.409   3.426   1.527
 4198WAT     H113113   3.347   3.436   1.455
 4198WAT     H213114   3.359   3.446   1.606
 4199WAT      O13115   2.854   4.597   1.270
 4199WAT     H113116   2.864   4.577   1.177
 4199WAT     H213117   2.764   4.572   1.291
 4200WAT      O13118   2.606   3.653   1.668
 4200WAT     H113119   2.535   3.700   1.712
 4200WAT     H213120   2.635   3.588   1.732
 4201WAT      O13121   2.768   3.795   2.469
 4201WAT     H113122   2.819   3.843   2.534
 4201WAT     H213123   2.783   3.703   2.489
 4202WAT      O13124   3.009   3.326   1.812
 4202WAT     H113125   2.996   3.327   1.717
 4202WAT     H213126   3.104   3.331   1.823
 4203WAT      O13127   2.718   4.850   1.740
 4203WAT     H113128   2.744   4.846   1.648
 4203WAT     H213129   2.623   4.837   1.738
 4204WAT      O13130   2.426   3.485   1.406
 4204WAT     H113131   2.511   3.528   1.399
 4204WAT     H213132   2.391   3.514   1.489
 4205WAT      O13133   3.319   3.942   1.898
 4205WAT     H113134   3.225   3.943   1.914
 4205WAT     H213135   3.350   3.863   1.942
 4206WAT      O13136   2.315   4.109   1.254
 4206WAT     H113137   2.393   4.099   1.310
 4206WAT     H213138   2.325   4.041   1.187
 4207WAT      O13139   2.186   3.853   1.323
 4207WAT     H113140   2.194   3.758   1.333
 4207WAT     H213141   2.276   3.886   1.332
 4208WAT      O13142   3.519   4.658   2.065
 4208WAT     H113143   3.531   4.741   2.112
 4208WAT     H213144   3.606   4.638   2.030
 4209WAT      O13145   2.266   4.868   2.033
 4209WAT     H113146   2.340   4.813   2.059
 4209WAT     H213147   2.305   4.954   2.018
 4210WAT      O13148   1.954   4.475   1.619
 4210WAT     H113149   1.862   4.499   1.618
 4210WAT     H213150   2.001   4.557   1.607
 4211WAT      O13151   2.167   4.786   2.951
 4211WAT     H113152   2.247   4.818   2.992
 4211WAT     H213153   2.115   4.750   3.023
 4212WAT      O13154   2.576   4.784   1.214
 4212WAT     H113155   2.656   4.815   1.170
 4212WAT     H213156   2.525   4.742   1.145
 4213WAT      O13157   3.050   4.397   2.946
 4213WAT     H113158   2.990   4.399   2.871
 4213WAT     H213159   3.020   4.324   2.999
 4214WAT      O13160   3.193   4.771   2.805
 4214WAT     H113161   3.289   4.761   2.803
 4214WAT     H213162   3.178   4.835   2.874
 4215WAT      O13163   3.482   4.708   1.357
 4215WAT     H113164   3.454   4.667   1.276
 4215WAT     H213165   3.463   4.801   1.345
 4216WAT      O13166   1.940   4.036   2.845
 4216WAT     H113167   1.989   3.977   2.902
 4216WAT     H213168   1.865   4.063   2.899
 4217WAT      O13169   2.629   4.307   1.200
 4217WAT     H113170   2.618   4.246   1.273
 4217WAT     H213171   2.612   4.254   1.122
 4218WAT      O13172   2.644   4.177   2.799
 4218WAT     H113173   2.567   4.233   2.790
 4218WAT     H213174   2.662   4.146   2.709
 4219WAT      O13175   2.953   4.213   1.261
 4219WAT     H113176   2.898   4.258   1.325
 4219WAT     H213177   3.015   4.162   1.313
 4220WAT      O13178   3.358   4.349   2.854
 4220WAT     H113179   3.432   4.382   2.804
 4220WAT     H213180   3.282   4.366   2.799
 4221WAT      O13181   2.142   3.848   2.935
 4221WAT     H113182   2.145   3.820   3.026
 4221WAT     H213183   2.227   3.889   2.919
 4222WAT      O13184   2.519   4.109   1.450
 4222WAT     H113185   2.562   4.094   1.534
 4222WAT     H213186   2.533   4.027   1.401
 4223WAT      O13187   2.337   3.706   2.731
 4223WAT     H113188   2.282   3.659   2.669
 4223WAT     H213189   2.402   3.750   2.678
 4224WAT      O13190   2.771   4.011   1.176
 4224WAT     H113191   2.823   3.940   1.139
 4224WAT     H213192   2.836   4.076   1.205
 4225WAT      O13193   2.386   3.404   2.739
 4225WAT     H113194   2.375   3.341   2.668
 4225WAT     H213195   2.326   3.476   2.717
 4226WAT      O13196   2.661   3.260   2.443
 4226WAT     H113197   2.616   3.262   2.358
 4226WAT     H213198   2.597   3.220   2.502
 4227WAT      O13199   2.701   4.149   2.506
 4227WAT     H113200   2.744   4.233   2.488
 4227WAT     H213201   2.610   4.163   2.481
 4228WAT      O13202   2.935   3.921   2.643
 4228WAT     H113203   2.948   3.862   2.717
 4228WAT     H213204   3.021   3.926   2.601
 4229WAT      O13205   3.168   3.978   2.502
 4229WAT     H113206   3.118   4.030   2.440
 4229WAT     H213207   3.204   4.042   2.563
 4230WAT      O13208   2.409   3.716   1.145
 4230WAT     H113209   2.389   3.630   1.181
 4230WAT     H213210   2.392   3.708   1.051
 4231WAT      O13211   2.488   4.781   2.616
 4231WAT     H113212   2.432   4.852   2.584
 4231WAT     H213213   2.512   4.731   2.538
 4232WAT      O13214   2.612   3.576   2.769
 4232WAT     H113215   2.671   3.545   2.839
 4232WAT     H213216   2.531   3.529   2.784
 4233WAT      O13217   3.157   3.198   1.398
 4233WAT     H113218   3.185   3.113   1.434
 4233WAT     H213219   3.080   3.222   1.450
 4234WAT      O13220   2.290   3.428   1.143
 4234WAT     H113221   2.320   3.426   1.053
 4234WAT     H213222   2.363   3.392   1.194
 4235WAT      O13223   2.772   4.903   2.642
 4235WAT     H113224   2.765   4.993   2.673
 4235WAT     H213225   2.682   4.871   2.639
 4236WAT      O13226   2.611   3.321   1.242
 4236WAT     H113227   2.576   3.253   1.185
 4236WAT     H213228   2.631   3.276   1.324
 4237WAT      O13229   2.827   4.821   1.404
 4237WAT     H113230   2.917   4.854   1.407
 4237WAT     H213231   2.831   4.747   1.343
 4238WAT      O13232   2.191   4.357   1.226
 4238WAT     H113233   2.234   4.411   1.292
 4238WAT     H213234   2.240   4.274   1.228
 4239WAT      O13235   1.913   4.635   1.973
 4239WAT     H113236   1.946   4.549   1.949
 4239WAT     H213237   1.956   4.656   2.056
 4240WAT      O13238   2.373   4.469   1.739
 4240WAT     H113239   2.342   4.456   1.829
 4240WAT     H213240   2.362   4.384   1.698
 4241WAT      O13241   1.962   4.723   2.246
 4241WAT     H113242   1.918   4.741   2.330
 4241WAT     H213243   2.018   4.799   2.232
 4242WAT      O13244   3.525   4.674   2.674
 4242WAT     H113245   3.464   4.679   2.601
 4242WAT     H213246   3.539   4.580   2.688
 4243WAT      O13247   3.650   4.447   1.210
 4243WAT     H113248   3.565   4.454   1.255
 4243WAT     H213249   3.667   4.536   1.178
 4244WAT      O13250   3.594   4.121   1.459
 4244WAT     H113251   3.671   4.178   1.469
 4244WAT     H213252   3.596   4.065   1.536
 4245WAT      O13253   1.945   3.974   1.882
 4245WAT     H113254   1.879   3.947   1.817
 4245WAT     H213255   2.029   3.963   1.837
 4246WAT      O13256   3.393   4.345   2.485
 4246WAT     H113257   3.312   4.388   2.511
 4246WAT     H213258   3.435   4.406   2.424
 4247WAT      O13259   3.601   4.151   1.175
 4247WAT     H113260   3.627   4.242   1.162
 4247WAT     H213261   3.581   4.145   1.269
 4248WAT      O13262   3.241   3.453   1.304
 4248WAT     H113263   3.282   3.434   1.220
 4248WAT     H213264   3.208   3.368   1.334
 4249WAT      O13265   3.589   3.945   1.674
 4249WAT     H113266   3.552   3.868   1.631
 4249WAT     H213267   3.517   3.983   1.723
 4250WAT      O13268   2.050   4.013   2.336
 4250WAT     H113269   2.085   4.003   2.425
 4250WAT     H213270   1.992   3.937   2.325
 4251WAT      O13271   2.003   3.703   2.727
 4251WAT     H113272   1.914   3.700   2.761
 4251WAT     H213273   2.058   3.724   2.803
 4252WAT      O13274   1.866   3.695   1.476
 4252WAT     H113275   1.776   3.721   1.459
 4252WAT     H213276   1.914   3.722   1.398
 4253WAT      O13277   2.122   3.601   1.267
 4253WAT     H113278   2.191   3.556   1.219
 4253WAT     H213279   2.049   3.607   1.205
 4254WAT      O13280   2.085   3.206   1.171
 4254WAT     H113281   2.157   3.260   1.203
 4254WAT     H213282   2.113   3.178   1.084
 4255WAT      O13283   3.466   3.693   1.599
 4255WAT     H113284   3.516   3.669   1.677
 4255WAT     H213285   3.446   3.609   1.557
 4256WAT      O13286   2.054   3.131   2.161
 4256WAT     H113287   2.120   3.076   2.118
 4256WAT     H213288   2.096   3.156   2.244
 4257WAT      O13289   3.698   3.338   1.176
 4257WAT     H113290   3.791   3.326   1.155
 4257WAT     H213291   3.696   3.349   1.271
 4258WAT      O13292   3.705   3.416   1.438
 4258WAT     H113293   3.625   3.411   1.491
 4258WAT     H213294   3.726   3.510   1.437
 4259WAT      O13295   3.400   4.820   1.838
 4259WAT     H113296   3.459   4.788   1.770
 4259WAT     H213297   3.425   4.772   1.917
 4260WAT      O13298   2.030   3.146   2.437
 4260WAT     H113299   1.995   3.192   2.513
 4260WAT     H213300   1.996   3.057   2.444
 4261WAT      O13301   2.190   4.464   2.853
 4261WAT     H113302   2.186   4.427   2.941
 4261WAT     H213303   2.203   4.558   2.867
 4262WAT      O13304   2.560   4.619   2.413
 4262WAT     H113305   2.536   4.645   2.324
 4262WAT     H213306   2.654   4.635   2.418
 4263WAT      O13307   3.687   4.820   2.491
 4263WAT     H113308   3.636   4.861   2.421
 4263WAT     H213309   3.625   4.760   2.533
 4264WAT      O13310   2.096   3.099   2.763
 4264WAT     H113311   2.152   3.080   2.687
 4264WAT     H213312   2.103   3.020   2.817
 4265WAT      O13313   2.174   4.758   2.564
 4265WAT     H113314   2.115   4.745   2.639
 4265WAT     H213315   2.173   4.675   2.518
 4266WAT      O13316   3.120   3.088   2.385
 4266WAT     H113317   3.032   3.121   2.363
 4266WAT     H213318   3.107   3.039   2.467
 4267WAT      O13319   3.455   4.885   2.220
 4267WAT     H113320   3.409   4.961   2.183
 4267WAT     H213321   3.391   4.814   2.216
 4268WAT      O13322   2.137   4.496   2.460
 4268WAT     H113323   2.065   4.433   2.454
 4268WAT     H213324   2.143   4.534   2.372
 4269WAT      O13325   2.498   4.716   2.139
 4269WAT     H113326   2.549   4.655   2.086
 4269WAT     H213327   2.563   4.768   2.186
 4270WAT      O13328   2.772   4.805   2.221
 4270WAT     H113329   2.801   4.780   2.133
 4270WAT     H213330   2.823   4.750   2.280
 4271WAT      O13331   2.893   3.179   2.279
 4271WAT     H113332   2.815   3.227   2.308
 4271WAT     H213333   2.863   3.089   2.267
 4272WAT      O13334   1.966   4.827   1.781
 4272WAT     H113335   1.949   4.763   1.850
 4272WAT     H213336   1.879   4.847   1.745
 4273WAT      O13337   2.029   3.210   1.531
 4273WAT     H113338   2.104   3.221   1.473
 4273WAT     H213339   1.982   3.293   1.525
 4274WAT      O13340   2.681   3.421   1.831
 4274WAT     H113341   2.601   3.383   1.795
 4274WAT     H213342   2.733   3.346   1.860
 4275WAT      O13343   3.132   3.088   1.954
 4275WAT     H113344   3.192   3.145   2.001
 4275WAT     H213345   3.058   3.144   1.931
 4276WAT      O13346   3.447   3.128   1.482
 4276WAT     H113347   3.465   3.218   1.508
 4276WAT     H213348   3.368   3.105   1.529
 4277WAT      O13349   2.125   4.695   1.526
 4277WAT     H113350   2.074   4.735   1.455
 4277WAT     H213351   2.119   4.758   1.597
 4278WAT      O13352   2.265   3.262   1.385
 4278WAT     H113353   2.318   3.183   1.373
 4278WAT     H213354   2.328   3.330   1.408
 4279WAT      O13355   2.484   3.236   1.690
 4279WAT     H113356   2.421   3.166   1.707
 4279WAT     H213357   2.430   3.312   1.669
 4280WAT      O13358   2.778   4.898   2.957
 4280WAT     H113359   2.871   4.874   2.962
 4280WAT     H213360   2.777   4.980   2.909
 4281WAT      O13361   3.602   4.852   1.657
 4281WAT     H113362   3.619   4.782   1.593
 4281WAT     H213363   3.533   4.904   1.617
 4282WAT      O13364   2.387   4.892   1.412
 4282WAT     H113365   2.459   4.862   1.358
 4282WAT     H213366   2.412   4.867   1.501
 4283WAT      O13367   2.302   4.502   1.413
 4283WAT     H113368   2.239   4.550   1.468
 4283WAT     H213369   2.314   4.418   1.457
 4284WAT      O13370   3.435   4.821   2.939
 4284WAT     H113371   3.514   4.771   2.920
 4284WAT     H213372   3.464   4.888   3.001
 4285WAT      O13373   2.860   4.085   0.216
 4285WAT     H113374   2.783   4.037   0.245
 4285WAT     H213375   2.926   4.017   0.199
 4286WAT      O13376   2.262   4.117   0.304
 4286WAT     H113377   2.179   4.090   0.344
 4286WAT     H213378   2.323   4.124   0.377
 4287WAT      O13379   2.261   4.520   0.324
 4287WAT     H113380   2.291   4.431   0.306
 4287WAT     H213381   2.335   4.576   0.301
 4288WAT      O13382   1.899   3.871   0.271
 4288WAT     H113383   1.958   3.796   0.271
 4288WAT     H213384   1.900   3.902   0.180
 4289WAT      O13385   2.804   4.353   0.217
 4289WAT     H113386   2.799   4.259   0.201
 4289WAT     H213387   2.880   4.363   0.274
 4290WAT      O13388   2.025   3.414   0.450
 4290WAT     H113389   2.006   3.324   0.477
 4290WAT     H213390   1.983   3.468   0.517
 4291WAT      O13391   2.084   3.664   0.311
 4291WAT     H113392   2.155   3.689   0.371
 4291WAT     H213393   2.054   3.579   0.344
 4292WAT      O13394   2.505   3.767   0.219
 4292WAT     H113395   2.557   3.818   0.282
 4292WAT     H213396   2.559   3.690   0.201
 4293WAT      O13397   3.714   3.584   0.590
 4293WAT     H113398   3.645   3.624   0.537
 4293WAT     H213399   3.742   3.654   0.649
 4294WAT      O13400   2.334   3.231   0.646
 4294WAT     H113401   2.334   3.284   0.566
 4294WAT     H213402   2.251   3.184   0.643
 4295WAT      O13403   2.461   4.196   0.464
 4295WAT     H113404   2.425   4.258   0.527
 4295WAT     H213405   2.476   4.248   0.385
 4296WAT      O13406   3.311   3.577   0.211
 4296WAT     H113407   3.239   3.605   0.267
 4296WAT     H213408   3.346   3.658   0.174
 4297WAT      O13409   2.302   3.403   0.446
 4297WAT     H113410   2.336   3.488   0.417
 4297WAT     H213411   2.208   3.418   0.457
 4298WAT      O13412   2.381   4.392   0.645
 4298WAT     H113413   2.442   4.461   0.617
 4298WAT     H213414   2.294   4.432   0.636
 4299WAT      O13415   3.471   4.539   0.436
 4299WAT     H113416   3.403   4.606   0.435
 4299WAT     H213417   3.526   4.559   0.360
 4300WAT      O13418   3.617   3.522   0.249
 4300WAT     H113419   3.522   3.525   0.262
 4300WAT     H213420   3.649   3.603   0.288
 4301WAT      O13421   3.225   4.723   0.308
 4301WAT     H113422   3.226   4.683   0.221
 4301WAT     H213423   3.170   4.801   0.298
 4302WAT      O13424   3.165   4.214   0.441
 4302WAT     H113425   3.207   4.192   0.357
 4302WAT     H213426   3.237   4.239   0.498
 4303WAT      O13427   3.560   4.052   0.450
 4303WAT     H113428   3.477   4.061   0.402
 4303WAT     H213429   3.619   4.112   0.404
 4304WAT      O13430   3.256   3.733   0.544
 4304WAT     H113431   3.215   3.815   0.569
 4304WAT     H213432   3.183   3.674   0.525
 4305WAT      O13433   2.516   4.378   0.248
 4305WAT     H113434   2.486   4.319   0.179
 4305WAT     H213435   2.611   4.383   0.236
 4306WAT      O13436   2.341   3.686   0.409
 4306WAT     H113437   2.395   3.700   0.331
 4306WAT     H213438   2.391   3.726   0.480
 4307WAT      O13439   3.325   4.736   0.613
 4307WAT     H113440   3.278   4.817   0.594
 4307WAT     H213441   3.256   4.671   0.628
 4308WAT      O13442   2.426   4.353   0.912
 4308WAT     H113443   2.336   4.376   0.937
 4308WAT     H213444   2.427   4.365   0.817
 4309WAT      O13445   2.308   4.041   0.770
 4309WAT     H113446   2.294   4.128   0.805
 4309WAT     H213447   2.221   4.006   0.755
 4310WAT      O13448   2.488   4.634   0.990
 4310WAT     H113449   2.485   4.675   0.904
 4310WAT     H213450   2.472   4.542   0.974
 4311WAT      O13451   3.683   4.713   1.120
 4311WAT     H113452   3.731   4.761   1.188
 4311WAT     H213453   3.745   4.706   1.047
 4312WAT      O13454   1.903   4.216   0.361
 4312WAT     H113455   1.912   4.231   0.267
 4312WAT     H213456   1.964   4.146   0.381
 4313WAT      O13457   3.622   4.431   0.836
 4313WAT     H113458   3.637   4.408   0.744
 4313WAT     H213459   3.629   4.348   0.883
 4314WAT      O13460   3.010   4.802   0.693
 4314WAT     H113461   3.061   4.793   0.774
 4314WAT     H213462   2.926   4.836   0.722
 4315WAT      O13463   3.609   3.637   0.933
 4315WAT     H113464   3.548   3.688   0.880
 4315WAT     H213465   3.577   3.547   0.927
 4316WAT      O13466   1.909   4.322   0.615
 4316WAT     H113467   1.924   4.274   0.533
 4316WAT     H213468   1.956   4.271   0.682
 4317WAT      O13469   2.815   3.521   0.679
 4317WAT     H113470   2.769   3.542   0.760
 4317WAT     H213471   2.775   3.440   0.649
 4318WAT      O13472   3.315   3.642   0.792
 4318WAT     H113473   3.230   3.613   0.824
 4318WAT     H213474   3.299   3.668   0.701
 4319WAT      O13475   3.024   3.794   1.001
 4319WAT     H113476   3.057   3.710   0.969
 4319WAT     H213477   3.103   3.845   1.018
 4320WAT      O13478   2.591   3.289   0.306
 4320WAT     H113479   2.620   3.380   0.296
 4320WAT     H213480   2.645   3.240   0.243
 4321WAT      O13481   2.609   3.837   0.958
 4321WAT     H113482   2.600   3.743   0.943
 4321WAT     H213483   2.693   3.860   0.919
 4322WAT      O13484   2.123   3.478   0.774
 4322WAT     H113485   2.082   3.563   0.794
 4322WAT     H213486   2.053   3.414   0.792
 4323WAT      O13487   2.780   3.486   1.081
 4323WAT     H113488   2.711   3.466   1.144
 4323WAT     H213489   2.854   3.514   1.134
 4324WAT      O13490   1.852   3.269   0.177
 4324WAT     H113491   1.824   3.328   0.247
 4324WAT     H213492   1.927   3.222   0.213
 4325WAT      O13493   3.007   3.870   0.363
 4325WAT     H113494   2.934   3.921   0.399
 4325WAT     H213495   2.968   3.788   0.334
 4326WAT      O13496   3.053   3.416   0.306
 4326WAT     H113497   3.055   3.461   0.390
 4326WAT     H213498   3.029   3.326   0.327
 4327WAT      O13499   3.395   3.157   0.889
 4327WAT     H113500   3.429   3.084   0.942
 4327WAT     H213501   3.400   3.126   0.799
 4328WAT      O13502   2.066   4.258   0.831
 4328WAT     H113503   2.028   4.195   0.892
 4328WAT     H213504   2.097   4.329   0.887
 4329WAT      O13505   2.682   3.944   0.379
 4329WAT     H113506   2.717   3.896   0.454
 4329WAT     H213507   2.661   4.031   0.413
 4330WAT      O13508   2.461   3.848   0.611
 4330WAT     H113509   2.430   3.935   0.634
 4330WAT     H213510   2.556   3.854   0.615
 4331WAT      O13511   3.389   4.168   0.250
 4331WAT     H113512   3.460   4.218   0.211
 4331WAT     H213513   3.369   4.100   0.185
 4332WAT      O13514   2.928   4.175   0.840
 4332WAT     H113515   2.920   4.084   0.813
 4332WAT     H213516   2.863   4.185   0.910
 4333WAT      O13517   2.066   3.933   0.726
 4333WAT     H113518   2.029   3.998   0.786
 4333WAT     H213519   2.037   3.849   0.762
 4334WAT      O13520   2.385   3.977   1.014
 4334WAT     H113521   2.357   3.992   0.924
 4334WAT     H213522   2.463   3.923   1.006
 4335WAT      O13523   2.920   4.457   0.813
 4335WAT     H113524   2.921   4.363   0.793
 4335WAT     H213525   2.850   4.466   0.878
 4336WAT      O13526   3.542   4.122   0.748
 4336WAT     H113527   3.469   4.181   0.729
 4336WAT     H213528   3.594   4.121   0.668
 4337WAT      O13529   2.864   4.622   0.522
 4337WAT     H113530   2.927   4.642   0.591
 4337WAT     H213531   2.900   4.544   0.479
 4338WAT      O13532   2.991   4.422   0.395
 4338WAT     H113533   3.055   4.352   0.407
 4338WAT     H213534   3.044   4.500   0.377
 4339WAT      O13535   3.168   4.503   0.715
 4339WAT     H113536   3.202   4.560   0.784
 4339WAT     H213537   3.076   4.489   0.738
 4340WAT      O13538   1.923   3.280   0.793
 4340WAT     H113539   1.852   3.301   0.854
 4340WAT     H213540   1.965   3.204   0.831
 4341WAT      O13541   1.953   4.680   0.891
 4341WAT     H113542   1.963   4.585   0.878
 4341WAT     H213543   1.886   4.706   0.827
 4342WAT      O13544   2.751   4.506   1.032
 4342WAT     H113545   2.719   4.435   1.087
 4342WAT     H213546   2.684   4.574   1.038
 4343WAT      O13547   3.072   3.530   0.568
 4343WAT     H113548   3.110   3.449   0.601
 4343WAT     H213549   2.987   3.536   0.610
 4344WAT      O13550   2.769   3.795   0.591
 4344WAT     H113551   2.819   3.843   0.657
 4344WAT     H213552   2.783   3.703   0.612
 4345WAT      O13553   3.490   3.417   0.675
 4345WAT     H113554   3.439   3.491   0.709
 4345WAT     H213555   3.571   3.456   0.644
 4346WAT      O13556   2.167   4.786   1.074
 4346WAT     H113557   2.247   4.818   1.115
 4346WAT     H213558   2.115   4.750   1.146
 4347WAT      O13559   3.051   4.397   1.068
 4347WAT     H113560   2.990   4.399   0.994
 4347WAT     H213561   3.020   4.324   1.122
 4348WAT      O13562   3.193   4.771   0.928
 4348WAT     H113563   3.288   4.761   0.925
 4348WAT     H213564   3.178   4.835   0.997
 4349WAT      O13565   1.940   4.036   0.968
 4349WAT     H113566   1.989   3.977   1.025
 4349WAT     H213567   1.865   4.063   1.021
 4350WAT      O13568   2.645   4.177   0.921
 4350WAT     H113569   2.567   4.232   0.913
 4350WAT     H213570   2.661   4.146   0.832
 4351WAT      O13571   3.358   4.349   0.977
 4351WAT     H113572   3.432   4.382   0.926
 4351WAT     H213573   3.282   4.366   0.922
 4352WAT      O13574   2.142   3.849   1.057
 4352WAT     H113575   2.146   3.820   1.148
 4352WAT     H213576   2.227   3.889   1.040
 4353WAT      O13577   2.337   3.706   0.854
 4353WAT     H113578   2.283   3.659   0.791
 4353WAT     H213579   2.403   3.750   0.801
 4354WAT      O13580   3.225   4.153   0.830
 4354WAT     H113581   3.267   4.170   0.915
 4354WAT     H213582   3.132   4.166   0.847
 4355WAT      O13583   3.273   3.888   1.030
 4355WAT     H113584   3.331   3.812   1.022
 4355WAT     H213585   3.292   3.941   0.953
 4356WAT      O13586   2.385   3.404   0.862
 4356WAT     H113587   2.375   3.342   0.789
 4356WAT     H213588   2.326   3.476   0.839
 4357WAT      O13589   2.661   3.260   0.565
 4357WAT     H113590   2.616   3.262   0.481
 4357WAT     H213591   2.598   3.220   0.625
 4358WAT      O13592   2.701   4.149   0.627
 4358WAT     H113593   2.744   4.233   0.610
 4358WAT     H213594   2.610   4.163   0.603
 4359WAT      O13595   2.935   3.921   0.766
 4359WAT     H113596   2.948   3.863   0.841
 4359WAT     H213597   3.021   3.926   0.724
 4360WAT      O13598   3.168   3.978   0.624
 4360WAT     H113599   3.118   4.031   0.562
 4360WAT     H213600   3.204   4.041   0.686
 4361WAT      O13601   2.488   4.781   0.739
 4361WAT     H113602   2.432   4.852   0.707
 4361WAT     H213603   2.511   4.731   0.661
 4362WAT      O13604   2.612   3.576   0.891
 4362WAT     H113605   2.671   3.545   0.960
 4362WAT     H213606   2.531   3.529   0.906
 4363WAT      O13607   3.094   3.538   0.915
 4363WAT     H113608   3.025   3.472   0.908
 4363WAT     H213609   3.166   3.493   0.959
 4364WAT      O13610   2.772   4.903   0.765
 4364WAT     H113611   2.765   4.993   0.795
 4364WAT     H213612   2.682   4.871   0.762
 4365WAT      O13613   1.962   4.722   0.370
 4365WAT     H113614   1.918   4.741   0.452
 4365WAT     H213615   2.018   4.799   0.354
 4366WAT      O13616   3.525   4.674   0.797
 4366WAT     H113617   3.464   4.679   0.723
 4366WAT     H213618   3.539   4.580   0.811
 4367WAT      O13619   3.393   4.345   0.607
 4367WAT     H113620   3.313   4.388   0.634
 4367WAT     H213621   3.435   4.406   0.546
 4368WAT      O13622   2.049   4.013   0.459
 4368WAT     H113623   2.085   4.003   0.548
 4368WAT     H213624   1.992   3.937   0.448
 4369WAT      O13625   3.530   3.858   0.760
 4369WAT     H113626   3.506   3.836   0.670
 4369WAT     H213627   3.554   3.951   0.757
 4370WAT      O13628   2.004   3.703   0.850
 4370WAT     H113629   1.914   3.700   0.883
 4370WAT     H213630   2.057   3.724   0.926
 4371WAT      O13631   3.372   3.382   1.038
 4371WAT     H113632   3.460   3.383   1.076
 4371WAT     H213633   3.374   3.308   0.977
 4372WAT      O13634   3.535   3.775   0.479
 4372WAT     H113635   3.440   3.772   0.490
 4372WAT     H213636   3.553   3.866   0.456
 4373WAT      O13637   2.054   3.130   0.284
 4373WAT     H113638   2.120   3.076   0.240
 4373WAT     H213639   2.096   3.156   0.366
 4374WAT      O13640   3.445   3.150   0.620
 4374WAT     H113641   3.507   3.212   0.656
 4374WAT     H213642   3.459   3.154   0.525
 4375WAT      O13643   2.031   3.146   0.560
 4375WAT     H113644   1.994   3.192   0.635
 4375WAT     H213645   1.996   3.057   0.567
 4376WAT      O13646   2.190   4.464   0.975
 4376WAT     H113647   2.186   4.427   1.064
 4376WAT     H213648   2.203   4.558   0.989
 4377WAT      O13649   2.560   4.619   0.535
 4377WAT     H113650   2.536   4.645   0.446
 4377WAT     H213651   2.654   4.635   0.540
 4378WAT      O13652   2.781   3.265   0.912
 4378WAT     H113653   2.775   3.326   0.985
 4378WAT     H213654   2.875   3.255   0.896
 4379WAT      O13655   3.045   3.232   0.875
 4379WAT     H113656   3.106   3.262   0.808
 4379WAT     H213657   3.099   3.183   0.937
 4380WAT      O13658   3.687   4.820   0.614
 4380WAT     H113659   3.636   4.861   0.544
 4380WAT     H213660   3.625   4.760   0.656
 4381WAT      O13661   2.097   3.099   0.886
 4381WAT     H113662   2.152   3.080   0.810
 4381WAT     H213663   2.103   3.020   0.940
 4382WAT      O13664   2.174   4.758   0.687
 4382WAT     H113665   2.115   4.745   0.761
 4382WAT     H213666   2.173   4.675   0.640
 4383WAT      O13667   3.119   3.088   0.508
 4383WAT     H113668   3.032   3.121   0.486
 4383WAT     H213669   3.107   3.039   0.589
 4384WAT      O13670   3.209   3.308   0.647
 4384WAT     H113671   3.177   3.227   0.607
 4384WAT     H213672   3.304   3.305   0.634
 4385WAT      O13673   3.455   4.885   0.344
 4385WAT     H113674   3.409   4.961   0.306
 4385WAT     H213675   3.392   4.814   0.337
 4386WAT      O13676   2.137   4.496   0.582
 4386WAT     H113677   2.065   4.433   0.576
 4386WAT     H213678   2.143   4.534   0.494
 4387WAT      O13679   2.498   4.715   0.263
 4387WAT     H113680   2.549   4.655   0.208
 4387WAT     H213681   2.563   4.767   0.309
 4388WAT      O13682   2.772   4.806   0.343
 4388WAT     H113683   2.800   4.780   0.256
 4388WAT     H213684   2.822   4.750   0.402
 4389WAT      O13685   2.893   3.179   0.401
 4389WAT     H113686   2.815   3.227   0.430
 4389WAT     H213687   2.863   3.089   0.390
 4390WAT      O13688   2.778   4.898   1.080
 4390WAT     H113689   2.871   4.874   1.084
 4390WAT     H213690   2.777   4.980   1.032
 4391WAT      O13691   2.497   3.164   1.056
 4391WAT     H113692   2.469   3.214   0.980
 4391WAT     H213693   2.535   3.084   1.020
 4392WAT      O13694   3.157   3.106   1.114
 4392WAT     H113695   3.146   3.136   1.204
 4392WAT     H213696   3.240   3.146   1.085
 4393WAT      O13697   3.435   4.821   1.061
 4393WAT     H113698   3.514   4.770   1.043
 4393WAT     H213699   3.464   4.888   1.123
 4394WAT      O13700   3.048   2.030   5.660
 4394WAT     H113701   3.040   1.939   5.633
 4394WAT     H213702   3.006   2.080   5.590
 4395WAT      O13703   3.264   2.648   5.725
 4395WAT     H113704   3.216   2.571   5.758
 4395WAT     H213705   3.344   2.651   5.777
 4396WAT      O13706   2.104   1.735   5.314
 4396WAT     H113707   2.015   1.768   5.304
 4396WAT     H213708   2.132   1.715   5.225
 4397WAT      O13709   2.886   2.877   5.688
 4397WAT     H113710   2.824   2.922   5.631
 4397WAT     H213711   2.971   2.892   5.648
 4398WAT      O13712   2.321   1.593   5.418
 4398WAT     H113713   2.332   1.683   5.449
 4398WAT     H213714   2.230   1.589   5.389
 4399WAT      O13715   3.286   1.506   5.565
 4399WAT     H113716   3.368   1.457   5.569
 4399WAT     H213717   3.290   1.566   5.640
 4400WAT      O13718   2.972   2.365   5.427
 4400WAT     H113719   2.910   2.411   5.371
 4400WAT     H213720   3.023   2.435   5.469
 4401WAT      O13721   1.909   2.434   5.165
 4401WAT     H113722   1.871   2.483   5.092
 4401WAT     H213723   1.935   2.501   5.228
 4402WAT      O13724   2.670   1.274   5.711
 4402WAT     H113725   2.701   1.219   5.639
 4402WAT     H213726   2.577   1.288   5.693
 4403WAT      O13727   3.355   2.518   5.449
 4403WAT     H113728   3.344   2.423   5.461
 4403WAT     H213729   3.353   2.554   5.538
 4404WAT      O13730   2.909   2.081   5.386
 4404WAT     H113731   2.816   2.074   5.406
 4404WAT     H213732   2.924   2.174   5.373
 4405WAT      O13733   2.908   1.707   5.082
 4405WAT     H113734   2.814   1.724   5.094
 4405WAT     H213735   2.939   1.781   5.031
 4406WAT      O13736   3.312   2.237   5.435
 4406WAT     H113737   3.250   2.203   5.371
 4406WAT     H213738   3.310   2.172   5.506
 4407WAT      O13739   2.469   2.133   5.663
 4407WAT     H113740   2.429   2.062   5.613
 4407WAT     H213741   2.478   2.098   5.752
 4408WAT      O13742   3.129   2.161   5.136
 4408WAT     H113743   3.172   2.077   5.121
 4408WAT     H213744   3.201   2.224   5.143
 4409WAT      O13745   2.940   2.654   5.532
 4409WAT     H113746   2.984   2.729   5.491
 4409WAT     H213747   2.934   2.679   5.625
 4410WAT      O13748   3.488   1.286   4.967
 4410WAT     H113749   3.457   1.294   5.057
 4410WAT     H213750   3.564   1.344   4.962
 4411WAT      O13751   2.139   2.023   5.413
 4411WAT     H113752   2.127   2.095   5.352
 4411WAT     H213753   2.108   1.946   5.365
 4412WAT      O13754   2.028   2.510   5.634
 4412WAT     H113755   1.987   2.524   5.549
 4412WAT     H213756   2.117   2.481   5.614
 4413WAT      O13757   3.207   2.953   5.268
 4413WAT     H113758   3.191   2.924   5.358
 4413WAT     H213759   3.192   2.875   5.215
 4414WAT      O13760   2.454   2.931   5.446
 4414WAT     H113761   2.437   2.839   5.424
 4414WAT     H213762   2.369   2.967   5.470
 4415WAT      O13763   3.177   2.705   5.124
 4415WAT     H113764   3.108   2.704   5.058
 4415WAT     H213765   3.251   2.662   5.081
 4416WAT      O13766   3.134   2.867   5.532
 4416WAT     H113767   3.179   2.789   5.563
 4416WAT     H213768   3.168   2.938   5.586
 4417WAT      O13769   2.386   1.357   5.751
 4417WAT     H113770   2.342   1.435   5.718
 4417WAT     H213771   2.442   1.389   5.822
 4418WAT      O13772   2.697   1.319   5.239
 4418WAT     H113773   2.635   1.319   5.312
 4418WAT     H213774   2.689   1.232   5.200
 4419WAT      O13775   2.365   1.870   5.524
 4419WAT     H113776   2.342   1.847   5.614
 4419WAT     H213777   2.287   1.913   5.489
 4420WAT      O13778   3.088   1.870   5.384
 4420WAT     H113779   3.028   1.942   5.365
 4420WAT     H213780   3.143   1.864   5.306
 4421WAT      O13781   2.950   1.735   5.588
 4421WAT     H113782   2.988   1.765   5.505
 4421WAT     H213783   2.984   1.646   5.598
 4422WAT      O13784   1.872   1.787   4.929
 4422WAT     H113785   1.863   1.881   4.944
 4422WAT     H213786   1.835   1.773   4.842
 4423WAT      O13787   2.651   1.660   5.837
 4423WAT     H113788   2.651   1.616   5.752
 4423WAT     H213789   2.741   1.692   5.848
 4424WAT      O13790   2.236   1.648   5.733
 4424WAT     H113791   2.202   1.696   5.808
 4424WAT     H213792   2.160   1.603   5.696
 4425WAT      O13793   2.656   1.760   5.137
 4425WAT     H113794   2.669   1.756   5.232
 4425WAT     H213795   2.620   1.846   5.120
 4426WAT      O13796   2.558   1.993   5.075
 4426WAT     H113797   2.502   1.947   5.012
 4426WAT     H213798   2.629   2.028   5.022
 4427WAT      O13799   1.968   1.540   5.624
 4427WAT     H113800   1.940   1.504   5.708
 4427WAT     H213801   1.962   1.467   5.563
 4428WAT      O13802   2.314   2.391   5.303
 4428WAT     H113803   2.236   2.337   5.288
 4428WAT     H213804   2.387   2.339   5.269
 4429WAT      O13805   2.936   1.430   5.297
 4429WAT     H113806   2.854   1.380   5.289
 4429WAT     H213807   2.916   1.514   5.255
 4430WAT      O13808   3.206   1.867   5.126
 4430WAT     H113809   3.295   1.898   5.109
 4430WAT     H213810   3.204   1.779   5.087
 4431WAT      O13811   2.317   2.358   5.667
 4431WAT     H113812   2.369   2.278   5.661
 4431WAT     H213813   2.272   2.352   5.751
 4432WAT      O13814   2.806   2.484   5.194
 4432WAT     H113815   2.840   2.559   5.145
 4432WAT     H213816   2.723   2.515   5.230
 4433WAT      O13817   3.434   1.998   5.073
 4433WAT     H113818   3.425   2.041   4.988
 4433WAT     H213819   3.506   2.045   5.116
 4434WAT      O13820   3.537   2.684   5.346
 4434WAT     H113821   3.472   2.619   5.373
 4434WAT     H213822   3.498   2.724   5.268
 4435WAT      O13823   3.095   2.417   5.731
 4435WAT     H113824   3.130   2.357   5.665
 4435WAT     H213825   3.006   2.384   5.748
 4436WAT      O13826   2.703   2.492   5.472
 4436WAT     H113827   2.772   2.547   5.508
 4436WAT     H213828   2.624   2.547   5.475
 4437WAT      O13829   1.917   2.054   5.020
 4437WAT     H113830   2.004   2.082   5.049
 4437WAT     H213831   1.868   2.136   5.009
 4438WAT      O13832   2.635   2.192   5.434
 4438WAT     H113833   2.678   2.274   5.455
 4438WAT     H213834   2.598   2.162   5.517
 4439WAT      O13835   2.224   1.227   5.480
 4439WAT     H113836   2.210   1.226   5.575
 4439WAT     H213837   2.141   1.260   5.445
 4440WAT      O13838   3.374   2.573   5.000
 4440WAT     H113839   3.353   2.500   5.059
 4440WAT     H213840   3.337   2.548   4.916
 4441WAT      O13841   1.954   2.976   5.077
 4441WAT     H113842   1.991   3.036   5.012
 4441WAT     H213843   1.940   3.030   5.154
 4442WAT      O13844   3.334   2.365   5.166
 4442WAT     H113845   3.305   2.411   5.245
 4442WAT     H213846   3.413   2.319   5.193
 4443WAT      O13847   2.555   2.714   5.159
 4443WAT     H113848   2.554   2.787   5.097
 4443WAT     H213849   2.464   2.689   5.168
 4444WAT      O13850   2.115   2.236   5.233
 4444WAT     H113851   2.054   2.310   5.233
 4444WAT     H213852   2.163   2.244   5.151
 4445WAT      O13853   3.409   1.548   5.282
 4445WAT     H113854   3.346   1.559   5.210
 4445WAT     H213855   3.359   1.569   5.361
 4446WAT      O13856   2.854   2.719   5.025
 4446WAT     H113857   2.864   2.699   4.932
 4446WAT     H213858   2.764   2.695   5.046
 4447WAT      O13859   2.606   1.776   5.423
 4447WAT     H113860   2.535   1.822   5.467
 4447WAT     H213861   2.635   1.711   5.487
 4448WAT      O13862   3.010   1.448   5.567
 4448WAT     H113863   2.996   1.450   5.472
 4448WAT     H213864   3.105   1.453   5.578
 4449WAT      O13865   2.718   2.973   5.495
 4449WAT     H113866   2.744   2.968   5.403
 4449WAT     H213867   2.623   2.959   5.493
 4450WAT      O13868   2.426   1.607   5.160
 4450WAT     H113869   2.512   1.650   5.154
 4450WAT     H213870   2.391   1.638   5.244
 4451WAT      O13871   3.319   2.064   5.652
 4451WAT     H113872   3.225   2.065   5.670
 4451WAT     H213873   3.351   1.986   5.697
 4452WAT      O13874   2.315   2.231   5.009
 4452WAT     H113875   2.393   2.222   5.064
 4452WAT     H213876   2.325   2.163   4.942
 4453WAT      O13877   2.186   1.976   5.077
 4453WAT     H113878   2.193   1.881   5.088
 4453WAT     H213879   2.276   2.008   5.087
 4454WAT      O13880   2.266   2.990   5.787
 4454WAT     H113881   2.340   2.935   5.814
 4454WAT     H213882   2.304   3.077   5.773
 4455WAT      O13883   1.954   2.597   5.374
 4455WAT     H113884   1.862   2.622   5.373
 4455WAT     H213885   2.001   2.680   5.362
 4456WAT      O13886   2.576   2.908   4.969
 4456WAT     H113887   2.656   2.938   4.925
 4456WAT     H213888   2.525   2.865   4.900
 4457WAT      O13889   3.482   2.830   5.112
 4457WAT     H113890   3.454   2.789   5.030
 4457WAT     H213891   3.463   2.923   5.099
 4458WAT      O13892   2.629   2.430   4.955
 4458WAT     H113893   2.618   2.369   5.028
 4458WAT     H213894   2.612   2.376   4.877
 4459WAT      O13895   2.953   2.336   5.016
 4459WAT     H113896   2.898   2.381   5.080
 4459WAT     H213897   3.015   2.285   5.068
 4460WAT      O13898   2.519   2.231   5.205
 4460WAT     H113899   2.562   2.216   5.289
 4460WAT     H213900   2.533   2.150   5.156
 4461WAT      O13901   2.771   2.134   4.931
 4461WAT     H113902   2.823   2.063   4.894
 4461WAT     H213903   2.836   2.198   4.960
 4462WAT      O13904   2.409   1.839   4.900
 4462WAT     H113905   2.389   1.752   4.936
 4462WAT     H213906   2.392   1.830   4.806
 4463WAT      O13907   3.157   1.320   5.153
 4463WAT     H113908   3.185   1.236   5.189
 4463WAT     H213909   3.080   1.344   5.204
 4464WAT      O13910   2.290   1.550   4.899
 4464WAT     H113911   2.320   1.549   4.808
 4464WAT     H213912   2.363   1.514   4.949
 4465WAT      O13913   2.612   1.443   4.997
 4465WAT     H113914   2.576   1.376   4.940
 4465WAT     H213915   2.631   1.398   5.079
 4466WAT      O13916   2.827   2.943   5.159
 4466WAT     H113917   2.917   2.976   5.163
 4466WAT     H213918   2.831   2.870   5.098
 4467WAT      O13919   2.192   2.480   4.981
 4467WAT     H113920   2.234   2.534   5.047
 4467WAT     H213921   2.240   2.397   4.983
 4468WAT      O13922   1.913   2.758   5.727
 4468WAT     H113923   1.946   2.672   5.704
 4468WAT     H213924   1.956   2.779   5.810
 4469WAT      O13925   2.372   2.592   5.493
 4469WAT     H113926   2.342   2.579   5.583
 4469WAT     H213927   2.362   2.506   5.452
 4470WAT      O13928   3.650   2.570   4.965
 4470WAT     H113929   3.565   2.576   5.010
 4470WAT     H213930   3.667   2.658   4.933
 4471WAT      O13931   3.595   2.244   5.214
 4471WAT     H113932   3.670   2.301   5.224
 4471WAT     H213933   3.596   2.187   5.291
 4472WAT      O13934   1.945   2.096   5.637
 4472WAT     H113935   1.879   2.069   5.573
 4472WAT     H213936   2.029   2.085   5.591
 4473WAT      O13937   3.695   2.330   5.698
 4473WAT     H113938   3.733   2.251   5.659
 4473WAT     H213939   3.760   2.398   5.681
 4474WAT      O13940   3.602   2.273   4.930
 4474WAT     H113941   3.627   2.364   4.917
 4474WAT     H213942   3.581   2.267   5.023
 4475WAT      O13943   3.241   1.576   5.059
 4475WAT     H113944   3.282   1.557   4.975
 4475WAT     H213945   3.208   1.491   5.090
 4476WAT      O13946   3.590   2.067   5.429
 4476WAT     H113947   3.552   1.990   5.386
 4476WAT     H213948   3.517   2.105   5.478
 4477WAT      O13949   1.866   1.817   5.231
 4477WAT     H113950   1.776   1.844   5.214
 4477WAT     H213951   1.914   1.844   5.153
 4478WAT      O13952   3.517   1.889   5.760
 4478WAT     H113953   3.570   1.841   5.696
 4478WAT     H213954   3.576   1.903   5.834
 4479WAT      O13955   2.122   1.723   5.023
 4479WAT     H113956   2.191   1.679   4.974
 4479WAT     H213957   2.049   1.730   4.960
 4480WAT      O13958   2.085   1.328   4.926
 4480WAT     H113959   2.157   1.382   4.959
 4480WAT     H213960   2.113   1.301   4.838
 4481WAT      O13961   3.467   1.815   5.353
 4481WAT     H113962   3.516   1.791   5.432
 4481WAT     H213963   3.446   1.732   5.311
 4482WAT      O13964   3.609   1.679   5.606
 4482WAT     H113965   3.598   1.663   5.700
 4482WAT     H213966   3.685   1.627   5.582
 4483WAT      O13967   3.698   1.461   4.931
 4483WAT     H113968   3.791   1.449   4.910
 4483WAT     H213969   3.696   1.471   5.026
 4484WAT      O13970   3.705   1.539   5.194
 4484WAT     H113971   3.625   1.533   5.246
 4484WAT     H213972   3.726   1.632   5.192
 4485WAT      O13973   3.400   2.944   5.593
 4485WAT     H113974   3.459   2.911   5.525
 4485WAT     H213975   3.425   2.896   5.672
 4486WAT      O13976   3.348   1.372   5.837
 4486WAT     H113977   3.394   1.367   5.754
 4486WAT     H213978   3.322   1.464   5.845
 4487WAT      O13979   3.535   1.336   5.639
 4487WAT     H113980   3.528   1.241   5.624
 4487WAT     H213981   3.613   1.345   5.694
 4488WAT      O13982   1.966   2.949   5.535
 4488WAT     H113983   1.949   2.886   5.605
 4488WAT     H213984   1.879   2.970   5.500
 4489WAT      O13985   2.029   1.333   5.286
 4489WAT     H113986   2.104   1.344   5.228
 4489WAT     H213987   1.981   1.416   5.280
 4490WAT      O13988   2.681   1.544   5.586
 4490WAT     H113989   2.601   1.505   5.550
 4490WAT     H213990   2.733   1.468   5.615
 4491WAT      O13991   3.132   1.210   5.708
 4491WAT     H113992   3.192   1.267   5.757
 4491WAT     H213993   3.058   1.267   5.686
 4492WAT      O13994   3.447   1.250   5.237
 4492WAT     H113995   3.465   1.340   5.263
 4492WAT     H213996   3.368   1.227   5.284
 4493WAT      O13997   2.125   2.818   5.281
 4493WAT     H113998   2.074   2.857   5.210
 4493WAT     H213999   2.119   2.881   5.352
 4494WAT      O14000   2.265   1.385   5.140
 4494WAT     H114001   2.318   1.306   5.128
 4494WAT     H214002   2.328   1.453   5.162
 4495WAT      O14003   2.484   1.359   5.445
 4495WAT     H114004   2.421   1.289   5.462
 4495WAT     H214005   2.430   1.435   5.424
 4496WAT      O14006   3.602   2.974   5.412
 4496WAT     H114007   3.619   2.905   5.348
 4496WAT     H214008   3.533   3.027   5.372
 4497WAT      O14009   2.386   3.014   5.167
 4497WAT     H114010   2.459   2.985   5.112
 4497WAT     H214011   2.412   2.989   5.256
 4498WAT      O14012   2.302   2.625   5.168
 4498WAT     H114013   2.239   2.672   5.223
 4498WAT     H214014   2.314   2.541   5.212
 4499WAT      O14015   3.048   2.030   3.783
 4499WAT     H114016   3.040   1.939   3.756
 4499WAT     H214017   3.006   2.080   3.712
 4500WAT      O14018   2.860   2.208   3.970
 4500WAT     H114019   2.783   2.160   4.000
 4500WAT     H214020   2.926   2.140   3.954
 4501WAT      O14021   2.262   2.240   4.059
 4501WAT     H114022   2.179   2.212   4.099
 4501WAT     H214023   2.323   2.246   4.132
 4502WAT      O14024   3.263   2.648   3.849
 4502WAT     H114025   3.217   2.571   3.882
 4502WAT     H214026   3.344   2.651   3.899
 4503WAT      O14027   2.261   2.642   4.079
 4503WAT     H114028   2.291   2.553   4.060
 4503WAT     H214029   2.335   2.698   4.056
 4504WAT      O14030   2.104   1.735   3.437
 4504WAT     H114031   2.015   1.768   3.427
 4504WAT     H214032   2.132   1.715   3.348
 4505WAT      O14033   1.898   1.993   4.025
 4505WAT     H114034   1.958   1.918   4.026
 4505WAT     H214035   1.901   2.025   3.935
 4506WAT      O14036   2.804   2.475   3.972
 4506WAT     H114037   2.799   2.381   3.956
 4506WAT     H214038   2.880   2.485   4.029
 4507WAT      O14039   2.024   1.536   4.204
 4507WAT     H114040   2.006   1.447   4.232
 4507WAT     H214041   1.983   1.591   4.272
 4508WAT      O14042   2.907   1.756   3.994
 4508WAT     H114043   2.947   1.670   3.984
 4508WAT     H214044   2.899   1.789   3.904
 4509WAT      O14045   2.321   1.593   3.541
 4509WAT     H114046   2.332   1.683   3.572
 4509WAT     H214047   2.230   1.588   3.511
 4510WAT      O14048   3.286   1.506   3.688
 4510WAT     H114049   3.368   1.457   3.692
 4510WAT     H214050   3.290   1.565   3.763
 4511WAT      O14051   2.085   1.785   4.065
 4511WAT     H114052   2.154   1.812   4.126
 4511WAT     H214053   2.054   1.701   4.099
 4512WAT      O14054   2.506   1.891   3.973
 4512WAT     H114055   2.557   1.940   4.038
 4512WAT     H214056   2.558   1.813   3.956
 4513WAT      O14057   3.714   1.707   4.344
 4513WAT     H114058   3.645   1.747   4.292
 4513WAT     H214059   3.742   1.777   4.404
 4514WAT      O14060   2.334   1.353   4.400
 4514WAT     H114061   2.334   1.406   4.321
 4514WAT     H214062   2.251   1.306   4.398
 4515WAT      O14063   2.972   2.365   3.550
 4515WAT     H114064   2.910   2.411   3.494
 4515WAT     H214065   3.023   2.435   3.592
 4516WAT      O14066   2.460   2.319   4.219
 4516WAT     H114067   2.425   2.381   4.282
 4516WAT     H214068   2.476   2.371   4.140
 4517WAT      O14069   3.310   1.700   3.965
 4517WAT     H114070   3.239   1.728   4.022
 4517WAT     H214071   3.346   1.781   3.929
 4518WAT      O14072   2.302   1.525   4.201
 4518WAT     H114073   2.336   1.610   4.172
 4518WAT     H214074   2.208   1.540   4.212
 4519WAT      O14075   2.381   2.515   4.400
 4519WAT     H114076   2.442   2.583   4.371
 4519WAT     H214077   2.294   2.555   4.390
 4520WAT      O14078   1.909   2.434   3.288
 4520WAT     H114079   1.871   2.483   3.215
 4520WAT     H214080   1.935   2.501   3.351
 4521WAT      O14081   3.471   2.661   4.191
 4521WAT     H114082   3.403   2.728   4.190
 4521WAT     H214083   3.525   2.681   4.115
 4522WAT      O14084   3.616   1.644   4.004
 4522WAT     H114085   3.522   1.647   4.017
 4522WAT     H214086   3.649   1.725   4.043
 4523WAT      O14087   2.670   1.274   3.834
 4523WAT     H114088   2.701   1.219   3.762
 4523WAT     H214089   2.577   1.288   3.815
 4524WAT      O14090   3.225   2.845   4.063
 4524WAT     H114091   3.226   2.805   3.976
 4524WAT     H214092   3.170   2.923   4.052
 4525WAT      O14093   3.355   2.518   3.572
 4525WAT     H114094   3.344   2.423   3.584
 4525WAT     H214095   3.353   2.554   3.660
 4526WAT      O14096   3.165   2.337   4.195
 4526WAT     H114097   3.208   2.315   4.112
 4526WAT     H214098   3.237   2.362   4.253
 4527WAT      O14099   2.909   2.081   3.508
 4527WAT     H114100   2.816   2.074   3.529
 4527WAT     H214101   2.924   2.174   3.496
 4528WAT      O14102   2.908   1.707   3.205
 4528WAT     H114103   2.814   1.724   3.216
 4528WAT     H214104   2.940   1.780   3.153
 4529WAT      O14105   3.560   2.175   4.205
 4529WAT     H114106   3.477   2.184   4.157
 4529WAT     H214107   3.620   2.234   4.159
 4530WAT      O14108   3.312   2.237   3.558
 4530WAT     H114109   3.250   2.203   3.493
 4530WAT     H214110   3.310   2.172   3.628
 4531WAT      O14111   3.256   1.855   4.298
 4531WAT     H114112   3.215   1.937   4.324
 4531WAT     H214113   3.183   1.796   4.280
 4532WAT      O14114   2.469   2.133   3.785
 4532WAT     H114115   2.429   2.062   3.736
 4532WAT     H214116   2.478   2.098   3.874
 4533WAT      O14117   2.516   2.501   4.002
 4533WAT     H114118   2.486   2.442   3.933
 4533WAT     H214119   2.611   2.506   3.991
 4534WAT      O14120   2.341   1.809   4.164
 4534WAT     H114121   2.395   1.823   4.086
 4534WAT     H214122   2.391   1.849   4.235
 4535WAT      O14123   3.325   2.859   4.368
 4535WAT     H114124   3.278   2.940   4.349
 4535WAT     H214125   3.256   2.794   4.383
 4536WAT      O14126   2.426   2.476   4.667
 4536WAT     H114127   2.336   2.498   4.692
 4536WAT     H214128   2.427   2.488   4.572
 4537WAT      O14129   3.129   2.161   3.258
 4537WAT     H114130   3.172   2.077   3.244
 4537WAT     H214131   3.201   2.224   3.266
 4538WAT      O14132   2.308   2.164   4.524
 4538WAT     H114133   2.294   2.251   4.561
 4538WAT     H214134   2.220   2.128   4.509
 4539WAT      O14135   2.939   2.655   3.655
 4539WAT     H114136   2.984   2.729   3.614
 4539WAT     H214137   2.934   2.679   3.748
 4540WAT      O14138   2.488   2.757   4.745
 4540WAT     H114139   2.485   2.797   4.659
 4540WAT     H214140   2.472   2.664   4.729
 4541WAT      O14141   3.488   1.286   3.090
 4541WAT     H114142   3.457   1.294   3.180
 4541WAT     H214143   3.564   1.344   3.085
 4542WAT      O14144   2.139   2.023   3.536
 4542WAT     H114145   2.127   2.095   3.474
 4542WAT     H214146   2.108   1.946   3.488
 4543WAT      O14147   3.683   2.835   4.875
 4543WAT     H114148   3.731   2.883   4.943
 4543WAT     H214149   3.745   2.829   4.802
 4544WAT      O14150   1.904   2.340   4.116
 4544WAT     H114151   1.911   2.353   4.021
 4544WAT     H214152   1.964   2.269   4.135
 4545WAT      O14153   2.028   2.509   3.757
 4545WAT     H114154   1.988   2.525   3.672
 4545WAT     H214155   2.117   2.481   3.737
 4546WAT      O14156   3.622   2.553   4.591
 4546WAT     H114157   3.637   2.530   4.499
 4546WAT     H214158   3.629   2.470   4.638
 4547WAT      O14159   3.010   2.925   4.448
 4547WAT     H114160   3.061   2.916   4.529
 4547WAT     H214161   2.926   2.959   4.477
 4548WAT      O14162   3.177   2.704   3.247
 4548WAT     H114163   3.108   2.704   3.181
 4548WAT     H214164   3.252   2.662   3.204
 4549WAT      O14165   3.610   1.760   4.687
 4549WAT     H114166   3.547   1.811   4.635
 4549WAT     H214167   3.576   1.670   4.682
 4550WAT      O14168   1.909   2.444   4.370
 4550WAT     H114169   1.924   2.397   4.288
 4550WAT     H214170   1.955   2.393   4.436
 4551WAT      O14171   2.386   1.357   3.874
 4551WAT     H114172   2.342   1.435   3.840
 4551WAT     H214173   2.442   1.389   3.945
 4552WAT      O14174   2.815   1.644   4.434
 4552WAT     H114175   2.768   1.665   4.515
 4552WAT     H214176   2.775   1.562   4.404
 4553WAT      O14177   3.315   1.765   4.547
 4553WAT     H114178   3.230   1.736   4.579
 4553WAT     H214179   3.299   1.791   4.456
 4554WAT      O14180   3.024   1.916   4.756
 4554WAT     H114181   3.056   1.832   4.724
 4554WAT     H214182   3.103   1.967   4.773
 4555WAT      O14183   2.697   1.319   3.362
 4555WAT     H114184   2.635   1.319   3.434
 4555WAT     H214185   2.689   1.232   3.323
 4556WAT      O14186   2.591   1.411   4.060
 4556WAT     H114187   2.619   1.502   4.051
 4556WAT     H214188   2.645   1.363   3.998
 4557WAT      O14189   2.365   1.869   3.646
 4557WAT     H114190   2.343   1.848   3.737
 4557WAT     H214191   2.287   1.913   3.612
 4558WAT      O14192   3.088   1.870   3.506
 4558WAT     H114193   3.028   1.942   3.488
 4558WAT     H214194   3.143   1.864   3.428
 4559WAT      O14195   2.609   1.959   4.713
 4559WAT     H114196   2.600   1.865   4.698
 4559WAT     H214197   2.693   1.982   4.674
 4560WAT      O14198   2.950   1.735   3.710
 4560WAT     H114199   2.988   1.765   3.628
 4560WAT     H214200   2.984   1.646   3.720
 4561WAT      O14201   2.122   1.600   4.528
 4561WAT     H114202   2.083   1.685   4.549
 4561WAT     H214203   2.053   1.537   4.546
 4562WAT      O14204   2.780   1.609   4.836
 4562WAT     H114205   2.711   1.588   4.899
 4562WAT     H214206   2.854   1.637   4.889
 4563WAT      O14207   1.852   1.393   3.932
 4563WAT     H114208   1.824   1.450   4.003
 4563WAT     H214209   1.927   1.345   3.969
 4564WAT      O14210   1.872   1.787   3.052
 4564WAT     H114211   1.863   1.881   3.067
 4564WAT     H214212   1.835   1.773   2.965
 4565WAT      O14213   3.007   1.993   4.119
 4565WAT     H114214   2.934   2.043   4.154
 4565WAT     H214215   2.968   1.911   4.089
 4566WAT      O14216   2.651   1.660   3.959
 4566WAT     H114217   2.652   1.617   3.874
 4566WAT     H214218   2.741   1.692   3.970
 4567WAT      O14219   2.236   1.648   3.855
 4567WAT     H114220   2.202   1.696   3.931
 4567WAT     H214221   2.160   1.603   3.819
 4568WAT      O14222   2.656   1.760   3.259
 4568WAT     H114223   2.669   1.756   3.354
 4568WAT     H214224   2.619   1.847   3.243
 4569WAT      O14225   3.054   1.538   4.060
 4569WAT     H114226   3.055   1.583   4.145
 4569WAT     H214227   3.029   1.448   4.081
 4570WAT      O14228   2.558   1.993   3.198
 4570WAT     H114229   2.502   1.947   3.135
 4570WAT     H214230   2.629   2.028   3.144
 4571WAT      O14231   3.396   1.279   4.644
 4571WAT     H114232   3.429   1.206   4.697
 4571WAT     H214233   3.400   1.248   4.554
 4572WAT      O14234   2.066   2.380   4.586
 4572WAT     H114235   2.028   2.317   4.647
 4572WAT     H214236   2.097   2.452   4.642
 4573WAT      O14237   2.681   2.066   4.134
 4573WAT     H114238   2.717   2.019   4.209
 4573WAT     H214239   2.662   2.154   4.169
 4574WAT      O14240   1.969   1.540   3.747
 4574WAT     H114241   1.939   1.504   3.830
 4574WAT     H214242   1.961   1.467   3.685
 4575WAT      O14243   2.460   1.970   4.366
 4575WAT     H114244   2.430   2.058   4.388
 4575WAT     H214245   2.556   1.976   4.370
 4576WAT      O14246   2.314   2.391   3.425
 4576WAT     H114247   2.236   2.337   3.411
 4576WAT     H214248   2.387   2.339   3.392
 4577WAT      O14249   3.389   2.291   4.004
 4577WAT     H114250   3.461   2.340   3.966
 4577WAT     H214251   3.369   2.223   3.940
 4578WAT      O14252   2.936   1.430   3.419
 4578WAT     H114253   2.854   1.380   3.412
 4578WAT     H214254   2.916   1.514   3.378
 4579WAT      O14255   2.927   2.298   4.595
 4579WAT     H114256   2.920   2.207   4.567
 4579WAT     H214257   2.863   2.307   4.665
 4580WAT      O14258   3.206   1.867   3.249
 4580WAT     H114259   3.295   1.898   3.231
 4580WAT     H214260   3.204   1.779   3.210
 4581WAT      O14261   2.317   2.358   3.790
 4581WAT     H114262   2.368   2.278   3.783
 4581WAT     H214263   2.272   2.351   3.874
 4582WAT      O14264   2.807   2.485   3.318
 4582WAT     H114265   2.840   2.559   3.267
 4582WAT     H214266   2.723   2.515   3.353
 4583WAT      O14267   2.066   2.055   4.481
 4583WAT     H114268   2.029   2.121   4.540
 4583WAT     H214269   2.037   1.971   4.518
 4584WAT      O14270   2.385   2.099   4.769
 4584WAT     H114271   2.357   2.115   4.679
 4584WAT     H214272   2.463   2.045   4.760
 4585WAT      O14273   2.920   2.580   4.568
 4585WAT     H114274   2.922   2.486   4.547
 4585WAT     H214275   2.850   2.589   4.632
 4586WAT      O14276   3.434   1.998   3.196
 4586WAT     H114277   3.425   2.041   3.111
 4586WAT     H214278   3.506   2.045   3.239
 4587WAT      O14279   3.542   2.245   4.503
 4587WAT     H114280   3.469   2.303   4.484
 4587WAT     H214281   3.594   2.244   4.422
 4588WAT      O14282   3.537   2.683   3.468
 4588WAT     H114283   3.472   2.619   3.496
 4588WAT     H214284   3.498   2.724   3.390
 4589WAT      O14285   3.094   2.417   3.853
 4589WAT     H114286   3.130   2.357   3.787
 4589WAT     H214287   3.006   2.384   3.870
 4590WAT      O14288   2.703   2.492   3.595
 4590WAT     H114289   2.772   2.547   3.631
 4590WAT     H214290   2.624   2.547   3.597
 4591WAT      O14291   1.916   2.054   3.143
 4591WAT     H114292   2.004   2.082   3.171
 4591WAT     H214293   1.868   2.136   3.131
 4592WAT      O14294   2.635   2.192   3.556
 4592WAT     H114295   2.679   2.274   3.578
 4592WAT     H214296   2.598   2.162   3.639
 4593WAT      O14297   2.864   2.745   4.277
 4593WAT     H114298   2.927   2.765   4.346
 4593WAT     H214299   2.900   2.667   4.234
 4594WAT      O14300   2.224   1.227   3.602
 4594WAT     H114301   2.210   1.226   3.697
 4594WAT     H214302   2.141   1.260   3.567
 4595WAT      O14303   2.991   2.544   4.150
 4595WAT     H114304   3.055   2.474   4.161
 4595WAT     H214305   3.044   2.622   4.132
 4596WAT      O14306   3.374   2.573   3.122
 4596WAT     H114307   3.353   2.501   3.181
 4596WAT     H214308   3.337   2.548   3.038
 4597WAT      O14309   3.168   2.625   4.470
 4597WAT     H114310   3.202   2.683   4.538
 4597WAT     H214311   3.077   2.611   4.493
 4598WAT      O14312   1.923   1.403   4.548
 4598WAT     H114313   1.852   1.423   4.609
 4598WAT     H214314   1.966   1.326   4.586
 4599WAT      O14315   3.334   2.365   3.288
 4599WAT     H114316   3.305   2.411   3.367
 4599WAT     H214317   3.413   2.319   3.315
 4600WAT      O14318   1.953   2.802   4.646
 4600WAT     H114319   1.962   2.708   4.633
 4600WAT     H214320   1.887   2.829   4.582
 4601WAT      O14321   2.751   2.629   4.787
 4601WAT     H114322   2.718   2.557   4.841
 4601WAT     H214323   2.684   2.696   4.794
 4602WAT      O14324   2.555   2.715   3.282
 4602WAT     H114325   2.554   2.787   3.219
 4602WAT     H214326   2.464   2.688   3.291
 4603WAT      O14327   2.115   2.236   3.356
 4603WAT     H114328   2.054   2.310   3.356
 4603WAT     H214329   2.162   2.244   3.273
 4604WAT      O14330   3.073   1.652   4.323
 4604WAT     H114331   3.110   1.571   4.356
 4604WAT     H214332   2.987   1.659   4.365
 4605WAT      O14333   3.409   1.548   3.404
 4605WAT     H114334   3.346   1.559   3.333
 4605WAT     H214335   3.360   1.569   3.483
 4606WAT      O14336   2.606   1.776   3.545
 4606WAT     H114337   2.535   1.822   3.590
 4606WAT     H214338   2.635   1.710   3.609
 4607WAT      O14339   2.768   1.918   4.346
 4607WAT     H114340   2.819   1.965   4.412
 4607WAT     H214341   2.783   1.826   4.366
 4608WAT      O14342   3.009   1.448   3.690
 4608WAT     H114343   2.996   1.450   3.595
 4608WAT     H214344   3.104   1.453   3.701
 4609WAT      O14345   2.426   1.608   3.283
 4609WAT     H114346   2.512   1.650   3.277
 4609WAT     H214347   2.391   1.637   3.367
 4610WAT      O14348   3.489   1.540   4.430
 4610WAT     H114349   3.439   1.614   4.464
 4610WAT     H214350   3.571   1.579   4.398
 4611WAT      O14351   3.319   2.065   3.775
 4611WAT     H114352   3.224   2.064   3.792
 4611WAT     H214353   3.351   1.986   3.818
 4612WAT      O14354   2.315   2.231   3.132
 4612WAT     H114355   2.393   2.222   3.186
 4612WAT     H214356   2.325   2.164   3.065
 4613WAT      O14357   2.186   1.976   3.200
 4613WAT     H114358   2.194   1.881   3.210
 4613WAT     H214359   2.276   2.008   3.210
 4614WAT      O14360   3.519   2.781   3.942
 4614WAT     H114361   3.531   2.863   3.989
 4614WAT     H214362   3.606   2.760   3.907
 4615WAT      O14363   1.954   2.597   3.497
 4615WAT     H114364   1.862   2.621   3.496
 4615WAT     H214365   2.001   2.680   3.486
 4616WAT      O14366   2.167   2.909   4.828
 4616WAT     H114367   2.247   2.941   4.870
 4616WAT     H214368   2.115   2.873   4.900
 4617WAT      O14369   3.051   2.519   4.823
 4617WAT     H114370   2.990   2.522   4.749
 4617WAT     H214371   3.020   2.447   4.877
 4618WAT      O14372   3.193   2.893   4.683
 4618WAT     H114373   3.289   2.883   4.680
 4618WAT     H214374   3.178   2.958   4.751
 4619WAT      O14375   3.483   2.830   3.234
 4619WAT     H114376   3.454   2.788   3.153
 4619WAT     H214377   3.462   2.923   3.222
 4620WAT      O14378   1.940   2.159   4.723
 4620WAT     H114379   1.989   2.100   4.780
 4620WAT     H214380   1.865   2.186   4.776
 4621WAT      O14381   2.629   2.430   3.078
 4621WAT     H114382   2.618   2.368   3.151
 4621WAT     H214383   2.612   2.377   3.000
 4622WAT      O14384   2.644   2.299   4.676
 4622WAT     H114385   2.567   2.355   4.667
 4622WAT     H214386   2.662   2.269   4.587
 4623WAT      O14387   2.953   2.336   3.138
 4623WAT     H114388   2.898   2.381   3.203
 4623WAT     H214389   3.015   2.285   3.191
 4624WAT      O14390   3.358   2.472   4.732
 4624WAT     H114391   3.432   2.505   4.681
 4624WAT     H214392   3.282   2.488   4.676
 4625WAT      O14393   2.142   1.971   4.812
 4625WAT     H114394   2.146   1.943   4.903
 4625WAT     H214395   2.227   2.012   4.795
 4626WAT      O14396   2.519   2.231   3.327
 4626WAT     H114397   2.562   2.216   3.412
 4626WAT     H214398   2.533   2.150   3.279
 4627WAT      O14399   2.337   1.829   4.609
 4627WAT     H114400   2.282   1.782   4.546
 4627WAT     H214401   2.403   1.873   4.555
 4628WAT      O14402   2.771   2.133   3.054
 4628WAT     H114403   2.823   2.063   3.016
 4628WAT     H214404   2.836   2.198   3.083
 4629WAT      O14405   3.225   2.275   4.585
 4629WAT     H114406   3.267   2.292   4.669
 4629WAT     H214407   3.132   2.289   4.601
 4630WAT      O14408   3.273   2.010   4.785
 4630WAT     H114409   3.331   1.935   4.777
 4630WAT     H214410   3.291   2.063   4.708
 4631WAT      O14411   2.385   1.526   4.617
 4631WAT     H114412   2.375   1.464   4.544
 4631WAT     H214413   2.327   1.599   4.595
 4632WAT      O14414   2.661   1.382   4.320
 4632WAT     H114415   2.616   1.384   4.236
 4632WAT     H214416   2.598   1.342   4.380
 4633WAT      O14417   2.701   2.272   4.382
 4633WAT     H114418   2.744   2.356   4.365
 4633WAT     H214419   2.610   2.285   4.358
 4634WAT      O14420   2.935   2.044   4.521
 4634WAT     H114421   2.948   1.985   4.596
 4634WAT     H214422   3.021   2.048   4.479
 4635WAT      O14423   3.168   2.100   4.379
 4635WAT     H114424   3.118   2.153   4.317
 4635WAT     H214425   3.204   2.163   4.441
 4636WAT      O14426   2.409   1.839   3.023
 4636WAT     H114427   2.389   1.752   3.059
 4636WAT     H214428   2.392   1.830   2.929
 4637WAT      O14429   2.488   2.903   4.494
 4637WAT     H114430   2.432   2.974   4.462
 4637WAT     H214431   2.511   2.854   4.416
 4638WAT      O14432   2.612   1.699   4.646
 4638WAT     H114433   2.671   1.668   4.715
 4638WAT     H214434   2.531   1.651   4.661
 4639WAT      O14435   3.094   1.661   4.670
 4639WAT     H114436   3.025   1.594   4.663
 4639WAT     H214437   3.166   1.616   4.714
 4640WAT      O14438   3.157   1.320   3.275
 4640WAT     H114439   3.185   1.236   3.311
 4640WAT     H214440   3.080   1.344   3.327
 4641WAT      O14441   2.289   1.550   3.021
 4641WAT     H114442   2.320   1.549   2.930
 4641WAT     H214443   2.363   1.514   3.071
 4642WAT      O14444   2.772   3.026   4.519
 4642WAT     H114445   2.765   3.116   4.550
 4642WAT     H214446   2.682   2.994   4.517
 4643WAT      O14447   2.612   1.443   3.119
 4643WAT     H114448   2.576   1.376   3.062
 4643WAT     H214449   2.631   1.397   3.201
 4644WAT      O14450   2.191   2.479   3.104
 4644WAT     H114451   2.235   2.534   3.169
 4644WAT     H214452   2.240   2.397   3.106
 4645WAT      O14453   2.372   2.592   3.616
 4645WAT     H114454   2.342   2.579   3.706
 4645WAT     H214455   2.362   2.506   3.575
 4646WAT      O14456   3.525   2.796   4.552
 4646WAT     H114457   3.464   2.801   4.478
 4646WAT     H214458   3.538   2.702   4.566
 4647WAT      O14459   3.650   2.570   3.088
 4647WAT     H114460   3.565   2.576   3.132
 4647WAT     H214461   3.667   2.658   3.055
 4648WAT      O14462   3.595   2.244   3.337
 4648WAT     H114463   3.670   2.301   3.347
 4648WAT     H214464   3.596   2.187   3.414
 4649WAT      O14465   1.945   2.096   3.759
 4649WAT     H114466   1.879   2.069   3.695
 4649WAT     H214467   2.029   2.085   3.715
 4650WAT      O14468   3.696   2.330   3.821
 4650WAT     H114469   3.733   2.251   3.781
 4650WAT     H214470   3.760   2.398   3.803
 4651WAT      O14471   3.393   2.468   4.362
 4651WAT     H114472   3.313   2.511   4.389
 4651WAT     H214473   3.435   2.529   4.301
 4652WAT      O14474   3.602   2.273   3.053
 4652WAT     H114475   3.627   2.364   3.039
 4652WAT     H214476   3.580   2.267   3.146
 4653WAT      O14477   3.241   1.576   3.182
 4653WAT     H114478   3.282   1.557   3.098
 4653WAT     H214479   3.208   1.491   3.213
 4654WAT      O14480   3.590   2.067   3.551
 4654WAT     H114481   3.552   1.990   3.509
 4654WAT     H214482   3.517   2.105   3.600
 4655WAT      O14483   2.050   2.135   4.214
 4655WAT     H114484   2.085   2.125   4.303
 4655WAT     H214485   1.992   2.060   4.203
 4656WAT      O14486   3.530   1.981   4.515
 4656WAT     H114487   3.506   1.959   4.425
 4656WAT     H214488   3.554   2.074   4.511
 4657WAT      O14489   2.004   1.826   4.605
 4657WAT     H114490   1.914   1.823   4.638
 4657WAT     H214491   2.057   1.847   4.681
 4658WAT      O14492   3.373   1.504   4.793
 4658WAT     H114493   3.460   1.505   4.831
 4658WAT     H214494   3.374   1.431   4.732
 4659WAT      O14495   1.866   1.817   3.353
 4659WAT     H114496   1.776   1.844   3.336
 4659WAT     H214497   1.914   1.844   3.276
 4660WAT      O14498   3.517   1.890   3.882
 4660WAT     H114499   3.569   1.840   3.819
 4660WAT     H214500   3.576   1.904   3.956
 4661WAT      O14501   3.535   1.898   4.234
 4661WAT     H114502   3.440   1.895   4.245
 4661WAT     H214503   3.553   1.989   4.210
 4662WAT      O14504   2.122   1.723   3.145
 4662WAT     H114505   2.191   1.679   3.096
 4662WAT     H214506   2.049   1.730   3.083
 4663WAT      O14507   2.085   1.328   3.048
 4663WAT     H114508   2.157   1.381   3.081
 4663WAT     H214509   2.113   1.301   2.961
 4664WAT      O14510   3.467   1.815   3.476
 4664WAT     H114511   3.516   1.791   3.555
 4664WAT     H214512   3.446   1.732   3.434
 4665WAT      O14513   2.054   1.253   4.039
 4665WAT     H114514   2.120   1.198   3.995
 4665WAT     H214515   2.096   1.279   4.121
 4666WAT      O14516   3.609   1.679   3.729
 4666WAT     H114517   3.598   1.663   3.823
 4666WAT     H214518   3.685   1.627   3.705
 4667WAT      O14519   3.445   1.272   4.375
 4667WAT     H114520   3.507   1.335   4.411
 4667WAT     H214521   3.459   1.276   4.280
 4668WAT      O14522   3.698   1.461   3.053
 4668WAT     H114523   3.791   1.449   3.032
 4668WAT     H214524   3.696   1.471   3.148
 4669WAT      O14525   3.705   1.539   3.316
 4669WAT     H114526   3.626   1.533   3.369
 4669WAT     H214527   3.726   1.632   3.314
 4670WAT      O14528   3.400   2.943   3.715
 4670WAT     H114529   3.459   2.911   3.648
 4670WAT     H214530   3.425   2.895   3.794
 4671WAT      O14531   2.030   1.269   4.314
 4671WAT     H114532   1.995   1.315   4.390
 4671WAT     H214533   1.996   1.180   4.322
 4672WAT      O14534   2.190   2.586   4.730
 4672WAT     H114535   2.186   2.549   4.819
 4672WAT     H214536   2.203   2.680   4.744
 4673WAT      O14537   2.560   2.742   4.290
 4673WAT     H114538   2.537   2.769   4.201
 4673WAT     H214539   2.654   2.758   4.296
 4674WAT      O14540   2.781   1.387   4.667
 4674WAT     H114541   2.775   1.448   4.740
 4674WAT     H214542   2.875   1.377   4.651
 4675WAT      O14543   3.045   1.355   4.630
 4675WAT     H114544   3.106   1.386   4.563
 4675WAT     H214545   3.099   1.305   4.691
 4676WAT      O14546   3.687   2.943   4.369
 4676WAT     H114547   3.636   2.983   4.298
 4676WAT     H214548   3.625   2.882   4.410
 4677WAT      O14549   2.097   1.222   4.641
 4677WAT     H114550   2.152   1.204   4.565
 4677WAT     H214551   2.103   1.143   4.695
 4678WAT      O14552   2.174   2.881   4.442
 4678WAT     H114553   2.115   2.868   4.516
 4678WAT     H214554   2.173   2.797   4.395
 4679WAT      O14555   3.119   1.211   4.263
 4679WAT     H114556   3.032   1.243   4.241
 4679WAT     H214557   3.107   1.162   4.345
 4680WAT      O14558   3.209   1.430   4.401
 4680WAT     H114559   3.177   1.349   4.362
 4680WAT     H214560   3.304   1.428   4.389
 4681WAT      O14561   3.455   3.008   4.098
 4681WAT     H114562   3.409   3.083   4.061
 4681WAT     H214563   3.391   2.937   4.093
 4682WAT      O14564   2.137   2.618   4.337
 4682WAT     H114565   2.065   2.556   4.331
 4682WAT     H214566   2.143   2.656   4.249
 4683WAT      O14567   2.773   2.929   4.098
 4683WAT     H114568   2.800   2.902   4.010
 4683WAT     H214569   2.822   2.873   4.157
 4684WAT      O14570   2.893   1.302   4.156
 4684WAT     H114571   2.815   1.349   4.185
 4684WAT     H214572   2.863   1.211   4.144
 4685WAT      O14573   3.348   1.372   3.961
 4685WAT     H114574   3.394   1.367   3.877
 4685WAT     H214575   3.322   1.464   3.968
 4686WAT      O14576   3.534   1.335   3.762
 4686WAT     H114577   3.529   1.241   3.747
 4686WAT     H214578   3.612   1.346   3.816
 4687WAT      O14579   2.028   1.332   3.408
 4687WAT     H114580   2.104   1.344   3.351
 4687WAT     H214581   1.982   1.416   3.403
 4688WAT      O14582   2.681   1.544   3.708
 4688WAT     H114583   2.601   1.506   3.672
 4688WAT     H214584   2.733   1.468   3.736
 4689WAT      O14585   3.132   1.210   3.831
 4689WAT     H114586   3.192   1.267   3.879
 4689WAT     H214587   3.058   1.267   3.809
 4690WAT      O14588   3.447   1.250   3.359
 4690WAT     H114589   3.465   1.341   3.386
 4690WAT     H214590   3.368   1.227   3.407
 4691WAT      O14591   2.265   1.385   3.262
 4691WAT     H114592   2.318   1.306   3.250
 4691WAT     H214593   2.328   1.453   3.285
 4692WAT      O14594   2.484   1.359   3.568
 4692WAT     H114595   2.421   1.289   3.584
 4692WAT     H214596   2.430   1.435   3.546
 4693WAT      O14597   2.778   3.020   4.835
 4693WAT     H114598   2.871   2.997   4.839
 4693WAT     H214599   2.777   3.103   4.787
 4694WAT      O14600   3.602   2.974   3.534
 4694WAT     H114601   3.619   2.905   3.470
 4694WAT     H214602   3.532   3.027   3.495
 4695WAT      O14603   2.497   1.287   4.811
 4695WAT     H114604   2.469   1.337   4.734
 4695WAT     H214605   2.535   1.207   4.775
 4696WAT      O14606   2.302   2.625   3.290
 4696WAT     H114607   2.239   2.672   3.346
 4696WAT     H214608   2.314   2.541   3.335
 4697WAT      O14609   3.157   1.229   4.869
 4697WAT     H114610   3.146   1.260   4.959
 4697WAT     H214611   3.239   1.268   4.840
 4698WAT      O14612   3.435   2.944   4.816
 4698WAT     H114613   3.514   2.893   4.798
 4698WAT     H214614   3.464   3.011   4.878
 4699WAT      O14615   3.048   2.030   1.905
 4699WAT     H114616   3.040   1.939   1.878
 4699WAT     H214617   3.006   2.080   1.835
 4700WAT      O14618   2.861   2.208   2.093
 4700WAT     H114619   2.783   2.160   2.122
 4700WAT     H214620   2.926   2.140   2.076
 4701WAT      O14621   2.262   2.240   2.181
 4701WAT     H114622   2.179   2.212   2.221
 4701WAT     H214623   2.323   2.246   2.254
 4702WAT      O14624   3.263   2.648   1.971
 4702WAT     H114625   3.217   2.571   2.003
 4702WAT     H214626   3.344   2.651   2.022
 4703WAT      O14627   2.261   2.642   2.201
 4703WAT     H114628   2.291   2.553   2.183
 4703WAT     H214629   2.335   2.698   2.178
 4704WAT      O14630   2.104   1.735   1.559
 4704WAT     H114631   2.015   1.768   1.549
 4704WAT     H214632   2.132   1.715   1.470
 4705WAT      O14633   1.898   1.993   2.147
 4705WAT     H114634   1.958   1.918   2.148
 4705WAT     H214635   1.901   2.026   2.057
 4706WAT      O14636   2.886   2.878   1.934
 4706WAT     H114637   2.824   2.922   1.876
 4706WAT     H214638   2.971   2.892   1.893
 4707WAT      O14639   2.804   2.475   2.094
 4707WAT     H114640   2.799   2.380   2.078
 4707WAT     H214641   2.880   2.485   2.151
 4708WAT      O14642   2.024   1.536   2.327
 4708WAT     H114643   2.006   1.446   2.355
 4708WAT     H214644   1.983   1.591   2.394
 4709WAT      O14645   2.907   1.756   2.117
 4709WAT     H114646   2.947   1.670   2.107
 4709WAT     H214647   2.899   1.789   2.027
 4710WAT      O14648   2.321   1.593   1.663
 4710WAT     H114649   2.332   1.683   1.695
 4710WAT     H214650   2.230   1.588   1.634
 4711WAT      O14651   3.286   1.506   1.810
 4711WAT     H114652   3.368   1.457   1.814
 4711WAT     H214653   3.290   1.565   1.886
 4712WAT      O14654   2.085   1.785   2.188
 4712WAT     H114655   2.154   1.812   2.248
 4712WAT     H214656   2.054   1.701   2.222
 4713WAT      O14657   2.506   1.891   2.096
 4713WAT     H114658   2.556   1.940   2.160
 4713WAT     H214659   2.558   1.812   2.079
 4714WAT      O14660   3.715   1.707   2.467
 4714WAT     H114661   3.645   1.747   2.415
 4714WAT     H214662   3.742   1.777   2.527
 4715WAT      O14663   2.334   1.353   2.523
 4715WAT     H114664   2.334   1.406   2.443
 4715WAT     H214665   2.251   1.306   2.521
 4716WAT      O14666   2.972   2.365   1.672
 4716WAT     H114667   2.910   2.411   1.616
 4716WAT     H214668   3.022   2.435   1.715
 4717WAT      O14669   2.460   2.319   2.342
 4717WAT     H114670   2.425   2.381   2.405
 4717WAT     H214671   2.476   2.371   2.263
 4718WAT      O14672   3.310   1.700   2.087
 4718WAT     H114673   3.239   1.728   2.144
 4718WAT     H214674   3.346   1.781   2.051
 4719WAT      O14675   2.302   1.525   2.324
 4719WAT     H114676   2.336   1.610   2.294
 4719WAT     H214677   2.208   1.540   2.335
 4720WAT      O14678   2.381   2.515   2.522
 4720WAT     H114679   2.442   2.583   2.494
 4720WAT     H214680   2.294   2.556   2.513
 4721WAT      O14681   1.909   2.434   1.410
 4721WAT     H114682   1.871   2.483   1.337
 4721WAT     H214683   1.935   2.501   1.473
 4722WAT      O14684   3.471   2.661   2.313
 4722WAT     H114685   3.403   2.728   2.314
 4722WAT     H214686   3.525   2.681   2.237
 4723WAT      O14687   3.616   1.644   2.127
 4723WAT     H114688   3.522   1.647   2.140
 4723WAT     H214689   3.649   1.725   2.166
 4724WAT      O14690   2.670   1.275   1.956
 4724WAT     H114691   2.701   1.219   1.884
 4724WAT     H214692   2.577   1.288   1.938
 4725WAT      O14693   3.226   2.846   2.185
 4725WAT     H114694   3.226   2.805   2.098
 4725WAT     H214695   3.170   2.923   2.175
 4726WAT      O14696   3.355   2.518   1.694
 4726WAT     H114697   3.344   2.423   1.707
 4726WAT     H214698   3.353   2.554   1.783
 4727WAT      O14699   3.165   2.337   2.318
 4727WAT     H114700   3.207   2.315   2.235
 4727WAT     H214701   3.237   2.362   2.375
 4728WAT      O14702   2.909   2.081   1.631
 4728WAT     H114703   2.816   2.074   1.652
 4728WAT     H214704   2.924   2.174   1.618
 4729WAT      O14705   2.908   1.707   1.327
 4729WAT     H114706   2.814   1.724   1.339
 4729WAT     H214707   2.939   1.781   1.276
 4730WAT      O14708   3.560   2.175   2.327
 4730WAT     H114709   3.477   2.184   2.280
 4730WAT     H214710   3.620   2.234   2.281
 4731WAT      O14711   3.312   2.237   1.680
 4731WAT     H114712   3.250   2.203   1.615
 4731WAT     H214713   3.310   2.172   1.751
 4732WAT      O14714   3.256   1.855   2.421
 4732WAT     H114715   3.215   1.937   2.447
 4732WAT     H214716   3.183   1.796   2.403
 4733WAT      O14717   2.469   2.133   1.908
 4733WAT     H114718   2.429   2.062   1.858
 4733WAT     H214719   2.478   2.098   1.997
 4734WAT      O14720   2.516   2.501   2.124
 4734WAT     H114721   2.486   2.442   2.055
 4734WAT     H214722   2.611   2.506   2.113
 4735WAT      O14723   2.341   1.809   2.286
 4735WAT     H114724   2.395   1.823   2.208
 4735WAT     H214725   2.392   1.849   2.357
 4736WAT      O14726   3.325   2.860   2.492
 4736WAT     H114727   3.277   2.940   2.470
 4736WAT     H214728   3.257   2.794   2.506
 4737WAT      O14729   2.425   2.474   2.788
 4737WAT     H114730   2.337   2.499   2.814
 4737WAT     H214731   2.428   2.488   2.694
 4738WAT      O14732   3.129   2.161   1.381
 4738WAT     H114733   3.172   2.077   1.366
 4738WAT     H214734   3.201   2.224   1.388
 4739WAT      O14735   2.308   2.163   2.647
 4739WAT     H114736   2.294   2.251   2.683
 4739WAT     H214737   2.220   2.129   2.632
 4740WAT      O14738   2.940   2.654   1.778
 4740WAT     H114739   2.984   2.729   1.736
 4740WAT     H214740   2.934   2.679   1.870
 4741WAT      O14741   3.488   1.286   1.212
 4741WAT     H114742   3.457   1.294   1.302
 4741WAT     H214743   3.564   1.344   1.207
 4742WAT      O14744   2.139   2.023   1.658
 4742WAT     H114745   2.127   2.095   1.597
 4742WAT     H214746   2.108   1.946   1.610
 4743WAT      O14747   3.683   2.835   2.998
 4743WAT     H114748   3.731   2.883   3.065
 4743WAT     H214749   3.745   2.829   2.924
 4744WAT      O14750   1.903   2.340   2.239
 4744WAT     H114751   1.911   2.353   2.144
 4744WAT     H214752   1.964   2.269   2.258
 4745WAT      O14753   2.028   2.509   1.879
 4745WAT     H114754   1.988   2.525   1.794
 4745WAT     H214755   2.117   2.481   1.859
 4746WAT      O14756   3.011   2.925   2.571
 4746WAT     H114757   3.061   2.916   2.652
 4746WAT     H214758   2.925   2.958   2.600
 4747WAT      O14759   3.207   2.953   1.513
 4747WAT     H114760   3.191   2.924   1.603
 4747WAT     H214761   3.192   2.875   1.460
 4748WAT      O14762   2.454   2.931   1.691
 4748WAT     H114763   2.437   2.839   1.670
 4748WAT     H214764   2.369   2.967   1.715
 4749WAT      O14765   3.177   2.705   1.369
 4749WAT     H114766   3.108   2.704   1.303
 4749WAT     H214767   3.251   2.662   1.326
 4750WAT      O14768   3.133   2.867   1.777
 4750WAT     H114769   3.180   2.789   1.808
 4750WAT     H214770   3.168   2.938   1.831
 4751WAT      O14771   3.609   1.760   2.810
 4751WAT     H114772   3.548   1.811   2.757
 4751WAT     H214773   3.576   1.670   2.804
 4752WAT      O14774   1.909   2.444   2.493
 4752WAT     H114775   1.924   2.397   2.411
 4752WAT     H214776   1.956   2.393   2.559
 4753WAT      O14777   2.386   1.357   1.996
 4753WAT     H114778   2.342   1.435   1.963
 4753WAT     H214779   2.442   1.389   2.067
 4754WAT      O14780   2.815   1.644   2.557
 4754WAT     H114781   2.768   1.665   2.638
 4754WAT     H214782   2.775   1.562   2.526
 4755WAT      O14783   3.315   1.765   2.669
 4755WAT     H114784   3.230   1.736   2.702
 4755WAT     H214785   3.299   1.790   2.579
 4756WAT      O14786   3.024   1.916   2.879
 4756WAT     H114787   3.056   1.832   2.847
 4756WAT     H214788   3.103   1.968   2.895
 4757WAT      O14789   2.697   1.319   1.484
 4757WAT     H114790   2.635   1.319   1.557
 4757WAT     H214791   2.689   1.232   1.446
 4758WAT      O14792   2.590   1.411   2.182
 4758WAT     H114793   2.619   1.502   2.174
 4758WAT     H214794   2.645   1.363   2.121
 4759WAT      O14795   2.365   1.869   1.769
 4759WAT     H114796   2.342   1.848   1.859
 4759WAT     H214797   2.287   1.913   1.734
 4760WAT      O14798   3.088   1.870   1.629
 4760WAT     H114799   3.028   1.942   1.611
 4760WAT     H214800   3.143   1.864   1.551
 4761WAT      O14801   2.609   1.959   2.836
 4761WAT     H114802   2.600   1.865   2.821
 4761WAT     H214803   2.693   1.982   2.796
 4762WAT      O14804   2.950   1.735   1.833
 4762WAT     H114805   2.988   1.766   1.751
 4762WAT     H214806   2.984   1.645   1.843
 4763WAT      O14807   2.122   1.600   2.651
 4763WAT     H114808   2.083   1.685   2.672
 4763WAT     H214809   2.053   1.537   2.669
 4764WAT      O14810   2.780   1.609   2.958
 4764WAT     H114811   2.711   1.588   3.022
 4764WAT     H214812   2.854   1.637   3.011
 4765WAT      O14813   1.853   1.393   2.055
 4765WAT     H114814   1.824   1.450   2.126
 4765WAT     H214815   1.927   1.344   2.091
 4766WAT      O14816   1.872   1.787   1.174
 4766WAT     H114817   1.863   1.881   1.189
 4766WAT     H214818   1.835   1.773   1.087
 4767WAT      O14819   3.007   1.993   2.241
 4767WAT     H114820   2.934   2.043   2.276
 4767WAT     H214821   2.968   1.911   2.211
 4768WAT      O14822   2.651   1.660   2.082
 4768WAT     H114823   2.652   1.617   1.997
 4768WAT     H214824   2.741   1.692   2.093
 4769WAT      O14825   2.236   1.648   1.978
 4769WAT     H114826   2.202   1.696   2.054
 4769WAT     H214827   2.160   1.604   1.942
 4770WAT      O14828   2.656   1.760   1.382
 4770WAT     H114829   2.669   1.756   1.477
 4770WAT     H214830   2.619   1.847   1.366
 4771WAT      O14831   3.054   1.538   2.183
 4771WAT     H114832   3.055   1.583   2.267
 4771WAT     H214833   3.029   1.448   2.204
 4772WAT      O14834   2.558   1.993   1.320
 4772WAT     H114835   2.502   1.947   1.257
 4772WAT     H214836   2.630   2.028   1.268
 4773WAT      O14837   3.396   1.279   2.767
 4773WAT     H114838   3.429   1.206   2.819
 4773WAT     H214839   3.400   1.248   2.676
 4774WAT      O14840   2.066   2.381   2.709
 4774WAT     H114841   2.028   2.317   2.769
 4774WAT     H214842   2.097   2.451   2.765
 4775WAT      O14843   2.681   2.067   2.257
 4775WAT     H114844   2.718   2.019   2.331
 4775WAT     H214845   2.662   2.154   2.292
 4776WAT      O14846   1.969   1.540   1.869
 4776WAT     H114847   1.939   1.504   1.953
 4776WAT     H214848   1.961   1.467   1.808
 4777WAT      O14849   2.460   1.970   2.488
 4777WAT     H114850   2.430   2.057   2.511
 4777WAT     H214851   2.556   1.976   2.492
 4778WAT      O14852   2.314   2.391   1.548
 4778WAT     H114853   2.236   2.337   1.533
 4778WAT     H214854   2.387   2.339   1.514
 4779WAT      O14855   3.389   2.291   2.127
 4779WAT     H114856   3.461   2.340   2.088
 4779WAT     H214857   3.369   2.223   2.062
 4780WAT      O14858   2.935   1.430   1.542
 4780WAT     H114859   2.854   1.380   1.534
 4780WAT     H214860   2.916   1.514   1.500
 4781WAT      O14861   2.927   2.298   2.717
 4781WAT     H114862   2.920   2.207   2.690
 4781WAT     H214863   2.863   2.307   2.788
 4782WAT      O14864   3.206   1.867   1.371
 4782WAT     H114865   3.295   1.898   1.354
 4782WAT     H214866   3.204   1.779   1.332
 4783WAT      O14867   2.317   2.358   1.913
 4783WAT     H114868   2.369   2.278   1.906
 4783WAT     H214869   2.272   2.351   1.997
 4784WAT      O14870   2.806   2.484   1.439
 4784WAT     H114871   2.840   2.559   1.390
 4784WAT     H214872   2.723   2.515   1.475
 4785WAT      O14873   2.066   2.055   2.603
 4785WAT     H114874   2.029   2.121   2.662
 4785WAT     H214875   2.037   1.971   2.640
 4786WAT      O14876   2.385   2.099   2.892
 4786WAT     H114877   2.357   2.116   2.802
 4786WAT     H214878   2.463   2.045   2.883
 4787WAT      O14879   2.920   2.580   2.691
 4787WAT     H114880   2.922   2.486   2.669
 4787WAT     H214881   2.849   2.588   2.755
 4788WAT      O14882   3.434   1.998   1.318
 4788WAT     H114883   3.425   2.041   1.233
 4788WAT     H214884   3.506   2.044   1.361
 4789WAT      O14885   3.541   2.244   2.625
 4789WAT     H114886   3.469   2.304   2.606
 4789WAT     H214887   3.594   2.244   2.546
 4790WAT      O14888   3.537   2.684   1.591
 4790WAT     H114889   3.472   2.619   1.618
 4790WAT     H214890   3.498   2.724   1.513
 4791WAT      O14891   3.095   2.417   1.976
 4791WAT     H114892   3.130   2.357   1.910
 4791WAT     H214893   3.006   2.384   1.993
 4792WAT      O14894   2.703   2.492   1.717
 4792WAT     H114895   2.772   2.547   1.753
 4792WAT     H214896   2.624   2.547   1.720
 4793WAT      O14897   1.916   2.054   1.266
 4793WAT     H114898   2.004   2.082   1.294
 4793WAT     H214899   1.868   2.136   1.254
 4794WAT      O14900   2.635   2.192   1.679
 4794WAT     H114901   2.678   2.274   1.701
 4794WAT     H214902   2.598   2.162   1.762
 4795WAT      O14903   2.863   2.744   2.400
 4795WAT     H114904   2.928   2.765   2.468
 4795WAT     H214905   2.900   2.668   2.356
 4796WAT      O14906   2.224   1.227   1.725
 4796WAT     H114907   2.210   1.226   1.820
 4796WAT     H214908   2.141   1.260   1.690
 4797WAT      O14909   2.991   2.544   2.272
 4797WAT     H114910   3.055   2.474   2.284
 4797WAT     H214911   3.044   2.622   2.254
 4798WAT      O14912   3.374   2.573   1.245
 4798WAT     H114913   3.353   2.500   1.304
 4798WAT     H214914   3.337   2.548   1.161
 4799WAT      O14915   3.168   2.624   2.593
 4799WAT     H114916   3.202   2.683   2.660
 4799WAT     H214917   3.076   2.611   2.616
 4800WAT      O14918   1.954   2.976   1.322
 4800WAT     H114919   1.990   3.036   1.257
 4800WAT     H214920   1.940   3.030   1.400
 4801WAT      O14921   1.923   1.403   2.670
 4801WAT     H114922   1.852   1.423   2.731
 4801WAT     H214923   1.966   1.326   2.708
 4802WAT      O14924   3.334   2.365   1.411
 4802WAT     H114925   3.305   2.411   1.490
 4802WAT     H214926   3.413   2.319   1.438
 4803WAT      O14927   1.952   2.802   2.770
 4803WAT     H114928   1.963   2.708   2.756
 4803WAT     H214929   1.887   2.829   2.705
 4804WAT      O14930   2.555   2.714   1.404
 4804WAT     H114931   2.554   2.787   1.342
 4804WAT     H214932   2.464   2.689   1.413
 4805WAT      O14933   2.115   2.236   1.478
 4805WAT     H114934   2.054   2.310   1.478
 4805WAT     H214935   2.163   2.244   1.396
 4806WAT      O14936   3.073   1.652   2.445
 4806WAT     H114937   3.110   1.571   2.479
 4806WAT     H214938   2.987   1.659   2.487
 4807WAT      O14939   3.409   1.548   1.527
 4807WAT     H114940   3.346   1.559   1.455
 4807WAT     H214941   3.359   1.569   1.606
 4808WAT      O14942   2.854   2.719   1.270
 4808WAT     H114943   2.864   2.699   1.177
 4808WAT     H214944   2.764   2.695   1.291
 4809WAT      O14945   2.606   1.776   1.668
 4809WAT     H114946   2.535   1.822   1.712
 4809WAT     H214947   2.635   1.710   1.732
 4810WAT      O14948   2.768   1.918   2.468
 4810WAT     H114949   2.819   1.965   2.535
 4810WAT     H214950   2.783   1.826   2.489
 4811WAT      O14951   3.009   1.448   1.812
 4811WAT     H114952   2.996   1.450   1.717
 4811WAT     H214953   3.104   1.453   1.823
 4812WAT      O14954   2.718   2.973   1.740
 4812WAT     H114955   2.744   2.968   1.648
 4812WAT     H214956   2.623   2.959   1.738
 4813WAT      O14957   2.426   1.608   1.406
 4813WAT     H114958   2.511   1.650   1.399
 4813WAT     H214959   2.391   1.638   1.489
 4814WAT      O14960   3.489   1.540   2.553
 4814WAT     H114961   3.439   1.614   2.587
 4814WAT     H214962   3.571   1.579   2.521
 4815WAT      O14963   3.319   2.065   1.898
 4815WAT     H114964   3.224   2.064   1.915
 4815WAT     H214965   3.351   1.986   1.941
 4816WAT      O14966   2.315   2.231   1.254
 4816WAT     H114967   2.393   2.222   1.309
 4816WAT     H214968   2.325   2.163   1.187
 4817WAT      O14969   2.186   1.976   1.323
 4817WAT     H114970   2.194   1.881   1.333
 4817WAT     H214971   2.276   2.008   1.332
 4818WAT      O14972   3.519   2.781   2.064
 4818WAT     H114973   3.531   2.863   2.112
 4818WAT     H214974   3.606   2.760   2.030
 4819WAT      O14975   2.266   2.990   2.033
 4819WAT     H114976   2.340   2.935   2.059
 4819WAT     H214977   2.305   3.077   2.018
 4820WAT      O14978   1.954   2.597   1.619
 4820WAT     H114979   1.862   2.622   1.618
 4820WAT     H214980   2.001   2.680   1.607
 4821WAT      O14981   2.167   2.909   2.951
 4821WAT     H114982   2.247   2.941   2.992
 4821WAT     H214983   2.116   2.873   3.023
 4822WAT      O14984   2.576   2.907   1.214
 4822WAT     H114985   2.656   2.938   1.170
 4822WAT     H214986   2.525   2.865   1.145
 4823WAT      O14987   3.050   2.520   2.946
 4823WAT     H114988   2.991   2.522   2.871
 4823WAT     H214989   3.020   2.446   2.999
 4824WAT      O14990   3.193   2.893   2.806
 4824WAT     H114991   3.289   2.884   2.802
 4824WAT     H214992   3.179   2.958   2.874
 4825WAT      O14993   3.482   2.830   1.357
 4825WAT     H114994   3.454   2.789   1.275
 4825WAT     H214995   3.463   2.923   1.345
 4826WAT      O14996   1.940   2.159   2.845
 4826WAT     H114997   1.989   2.100   2.902
 4826WAT     H214998   1.865   2.186   2.899
 4827WAT      O14999   2.629   2.430   1.200
 4827WAT     H115000   2.618   2.369   1.273
 4827WAT     H215001   2.612   2.377   1.122
 4828WAT      O15002   2.645   2.299   2.798
 4828WAT     H115003   2.567   2.355   2.791
 4828WAT     H215004   2.662   2.269   2.709
 4829WAT      O15005   2.953   2.336   1.261
 4829WAT     H115006   2.898   2.381   1.325
 4829WAT     H215007   3.015   2.285   1.313
 4830WAT      O15008   3.358   2.472   2.855
 4830WAT     H115009   3.432   2.504   2.804
 4830WAT     H215010   3.282   2.488   2.799
 4831WAT      O15011   2.142   1.972   2.935
 4831WAT     H115012   2.146   1.943   3.026
 4831WAT     H215013   2.227   2.012   2.918
 4832WAT      O15014   2.519   2.231   1.450
 4832WAT     H115015   2.562   2.216   1.534
 4832WAT     H215016   2.533   2.150   1.401
 4833WAT      O15017   2.337   1.829   2.731
 4833WAT     H115018   2.283   1.782   2.668
 4833WAT     H215019   2.403   1.873   2.678
 4834WAT      O15020   2.771   2.134   1.176
 4834WAT     H115021   2.823   2.063   1.139
 4834WAT     H215022   2.836   2.198   1.205
 4835WAT      O15023   3.225   2.275   2.708
 4835WAT     H115024   3.267   2.292   2.792
 4835WAT     H215025   3.132   2.289   2.724
 4836WAT      O15026   3.273   2.010   2.908
 4836WAT     H115027   3.331   1.935   2.899
 4836WAT     H215028   3.291   2.064   2.831
 4837WAT      O15029   2.385   1.526   2.739
 4837WAT     H115030   2.375   1.464   2.667
 4837WAT     H215031   2.327   1.599   2.717
 4838WAT      O15032   2.661   1.382   2.443
 4838WAT     H115033   2.616   1.384   2.358
 4838WAT     H215034   2.598   1.342   2.502
 4839WAT      O15035   2.701   2.272   2.505
 4839WAT     H115036   2.744   2.356   2.488
 4839WAT     H215037   2.610   2.285   2.481
 4840WAT      O15038   2.935   2.044   2.643
 4840WAT     H115039   2.948   1.985   2.718
 4840WAT     H215040   3.021   2.048   2.601
 4841WAT      O15041   3.168   2.100   2.502
 4841WAT     H115042   3.118   2.153   2.440
 4841WAT     H215043   3.204   2.163   2.564
 4842WAT      O15044   2.409   1.839   1.145
 4842WAT     H115045   2.389   1.752   1.181
 4842WAT     H215046   2.392   1.830   1.051
 4843WAT      O15047   2.489   2.904   2.616
 4843WAT     H115048   2.432   2.974   2.584
 4843WAT     H215049   2.511   2.853   2.538
 4844WAT      O15050   2.612   1.699   2.769
 4844WAT     H115051   2.671   1.668   2.838
 4844WAT     H215052   2.531   1.651   2.784
 4845WAT      O15053   3.094   1.661   2.793
 4845WAT     H115054   3.025   1.594   2.786
 4845WAT     H215055   3.166   1.616   2.837
 4846WAT      O15056   3.157   1.320   1.398
 4846WAT     H115057   3.185   1.236   1.434
 4846WAT     H215058   3.080   1.344   1.450
 4847WAT      O15059   2.290   1.550   1.144
 4847WAT     H115060   2.320   1.549   1.053
 4847WAT     H215061   2.363   1.514   1.194
 4848WAT      O15062   2.772   3.026   2.642
 4848WAT     H115063   2.765   3.116   2.673
 4848WAT     H215064   2.682   2.994   2.639
 4849WAT      O15065   2.612   1.443   1.242
 4849WAT     H115066   2.576   1.376   1.185
 4849WAT     H215067   2.631   1.398   1.324
 4850WAT      O15068   2.827   2.943   1.404
 4850WAT     H115069   2.917   2.976   1.407
 4850WAT     H215070   2.831   2.870   1.343
 4851WAT      O15071   2.191   2.480   1.226
 4851WAT     H115072   2.234   2.534   1.292
 4851WAT     H215073   2.240   2.397   1.228
 4852WAT      O15074   1.912   2.758   1.973
 4852WAT     H115075   1.947   2.672   1.949
 4852WAT     H215076   1.956   2.779   2.056
 4853WAT      O15077   2.372   2.592   1.739
 4853WAT     H115078   2.342   2.579   1.829
 4853WAT     H215079   2.362   2.507   1.697
 4854WAT      O15080   1.962   2.845   2.246
 4854WAT     H115081   1.918   2.863   2.330
 4854WAT     H215082   2.018   2.921   2.232
 4855WAT      O15083   3.650   2.570   1.210
 4855WAT     H115084   3.565   2.576   1.255
 4855WAT     H215085   3.667   2.658   1.179
 4856WAT      O15086   3.595   2.244   1.459
 4856WAT     H115087   3.670   2.301   1.469
 4856WAT     H215088   3.596   2.187   1.536
 4857WAT      O15089   1.945   2.096   1.882
 4857WAT     H115090   1.879   2.069   1.817
 4857WAT     H215091   2.029   2.085   1.837
 4858WAT      O15092   3.696   2.330   1.944
 4858WAT     H115093   3.733   2.251   1.904
 4858WAT     H215094   3.760   2.398   1.926
 4859WAT      O15095   3.393   2.467   2.485
 4859WAT     H115096   3.312   2.512   2.511
 4859WAT     H215097   3.435   2.529   2.425
 4860WAT      O15098   3.602   2.273   1.176
 4860WAT     H115099   3.627   2.364   1.162
 4860WAT     H215100   3.581   2.267   1.269
 4861WAT      O15101   3.241   1.576   1.304
 4861WAT     H115102   3.282   1.557   1.220
 4861WAT     H215103   3.208   1.491   1.335
 4862WAT      O15104   3.590   2.067   1.674
 4862WAT     H115105   3.552   1.990   1.631
 4862WAT     H215106   3.517   2.105   1.723
 4863WAT      O15107   2.050   2.135   2.336
 4863WAT     H115108   2.085   2.125   2.425
 4863WAT     H215109   1.992   2.060   2.325
 4864WAT      O15110   3.530   1.981   2.638
 4864WAT     H115111   3.506   1.959   2.548
 4864WAT     H215112   3.554   2.074   2.634
 4865WAT      O15113   2.003   1.826   2.727
 4865WAT     H115114   1.914   1.823   2.761
 4865WAT     H215115   2.058   1.847   2.803
 4866WAT      O15116   3.373   1.504   2.915
 4866WAT     H115117   3.460   1.505   2.954
 4866WAT     H215118   3.374   1.431   2.854
 4867WAT      O15119   1.866   1.817   1.476
 4867WAT     H115120   1.776   1.844   1.459
 4867WAT     H215121   1.914   1.844   1.399
 4868WAT      O15122   3.517   1.890   2.004
 4868WAT     H115123   3.569   1.841   1.941
 4868WAT     H215124   3.576   1.904   2.078
 4869WAT      O15125   3.535   1.898   2.356
 4869WAT     H115126   3.440   1.895   2.368
 4869WAT     H215127   3.553   1.989   2.333
 4870WAT      O15128   2.122   1.724   1.267
 4870WAT     H115129   2.191   1.679   1.219
 4870WAT     H215130   2.049   1.730   1.205
 4871WAT      O15131   2.085   1.328   1.171
 4871WAT     H115132   2.157   1.382   1.204
 4871WAT     H215133   2.113   1.301   1.083
 4872WAT      O15134   3.467   1.815   1.598
 4872WAT     H115135   3.516   1.791   1.677
 4872WAT     H215136   3.446   1.731   1.557
 4873WAT      O15137   2.054   1.253   2.162
 4873WAT     H115138   2.120   1.198   2.118
 4873WAT     H215139   2.096   1.279   2.244
 4874WAT      O15140   3.609   1.679   1.852
 4874WAT     H115141   3.598   1.662   1.945
 4874WAT     H215142   3.685   1.627   1.827
 4875WAT      O15143   3.445   1.272   2.497
 4875WAT     H115144   3.507   1.335   2.533
 4875WAT     H215145   3.459   1.276   2.403
 4876WAT      O15146   3.698   1.461   1.176
 4876WAT     H115147   3.791   1.449   1.155
 4876WAT     H215148   3.696   1.471   1.271
 4877WAT      O15149   3.705   1.539   1.438
 4877WAT     H115150   3.625   1.533   1.491
 4877WAT     H215151   3.726   1.632   1.437
 4878WAT      O15152   3.400   2.943   1.838
 4878WAT     H115153   3.459   2.912   1.771
 4878WAT     H215154   3.425   2.895   1.917
 4879WAT      O15155   2.030   1.269   2.437
 4879WAT     H115156   1.995   1.315   2.513
 4879WAT     H215157   1.996   1.180   2.444
 4880WAT      O15158   2.189   2.586   2.853
 4880WAT     H115159   2.186   2.549   2.941
 4880WAT     H215160   2.203   2.680   2.867
 4881WAT      O15161   2.560   2.742   2.413
 4881WAT     H115162   2.536   2.769   2.324
 4881WAT     H215163   2.654   2.758   2.418
 4882WAT      O15164   2.781   1.387   2.789
 4882WAT     H115165   2.775   1.448   2.862
 4882WAT     H215166   2.875   1.377   2.774
 4883WAT      O15167   3.045   1.355   2.752
 4883WAT     H115168   3.106   1.386   2.686
 4883WAT     H215169   3.099   1.305   2.814
 4884WAT      O15170   2.097   1.222   2.763
 4884WAT     H115171   2.152   1.203   2.687
 4884WAT     H215172   2.103   1.143   2.817
 4885WAT      O15173   2.173   2.881   2.564
 4885WAT     H115174   2.115   2.868   2.639
 4885WAT     H215175   2.173   2.797   2.518
 4886WAT      O15176   3.120   1.211   2.386
 4886WAT     H115177   3.032   1.243   2.363
 4886WAT     H215178   3.107   1.162   2.467
 4887WAT      O15179   3.209   1.430   2.524
 4887WAT     H115180   3.177   1.349   2.484
 4887WAT     H215181   3.304   1.427   2.512
 4888WAT      O15182   3.455   3.008   2.219
 4888WAT     H115183   3.409   3.083   2.184
 4888WAT     H215184   3.391   2.936   2.216
 4889WAT      O15185   2.137   2.618   2.460
 4889WAT     H115186   2.065   2.555   2.454
 4889WAT     H215187   2.143   2.656   2.372
 4890WAT      O15188   2.498   2.839   2.139
 4890WAT     H115189   2.549   2.778   2.086
 4890WAT     H215190   2.563   2.890   2.186
 4891WAT      O15191   2.772   2.928   2.221
 4891WAT     H115192   2.801   2.902   2.133
 4891WAT     H215193   2.822   2.873   2.280
 4892WAT      O15194   2.893   1.302   2.279
 4892WAT     H115195   2.815   1.349   2.308
 4892WAT     H215196   2.863   1.211   2.267
 4893WAT      O15197   3.348   1.372   2.083
 4893WAT     H115198   3.394   1.367   1.999
 4893WAT     H215199   3.322   1.464   2.090
 4894WAT      O15200   3.535   1.335   1.884
 4894WAT     H115201   3.529   1.241   1.869
 4894WAT     H215202   3.612   1.346   1.939
 4895WAT      O15203   1.966   2.949   1.780
 4895WAT     H115204   1.949   2.886   1.850
 4895WAT     H215205   1.879   2.970   1.745
 4896WAT      O15206   2.028   1.332   1.531
 4896WAT     H115207   2.104   1.344   1.473
 4896WAT     H215208   1.982   1.416   1.525
 4897WAT      O15209   2.681   1.544   1.831
 4897WAT     H115210   2.601   1.506   1.795
 4897WAT     H215211   2.733   1.468   1.859
 4898WAT      O15212   3.132   1.210   1.954
 4898WAT     H115213   3.192   1.267   2.001
 4898WAT     H215214   3.058   1.267   1.931
 4899WAT      O15215   3.447   1.250   1.482
 4899WAT     H115216   3.465   1.340   1.508
 4899WAT     H215217   3.368   1.227   1.529
 4900WAT      O15218   2.125   2.818   1.526
 4900WAT     H115219   2.074   2.857   1.455
 4900WAT     H215220   2.119   2.881   1.597
 4901WAT      O15221   2.265   1.385   1.385
 4901WAT     H115222   2.318   1.306   1.373
 4901WAT     H215223   2.328   1.453   1.407
 4902WAT      O15224   2.484   1.359   1.690
 4902WAT     H115225   2.421   1.289   1.707
 4902WAT     H215226   2.430   1.435   1.669
 4903WAT      O15227   3.602   2.974   1.657
 4903WAT     H115228   3.619   2.905   1.593
 4903WAT     H215229   3.533   3.027   1.617
 4904WAT      O15230   2.497   1.287   2.934
 4904WAT     H115231   2.469   1.337   2.857
 4904WAT     H215232   2.535   1.207   2.897
 4905WAT      O15233   2.386   3.014   1.412
 4905WAT     H115234   2.459   2.985   1.358
 4905WAT     H215235   2.412   2.989   1.501
 4906WAT      O15236   2.302   2.625   1.413
 4906WAT     H115237   2.239   2.672   1.468
 4906WAT     H215238   2.314   2.541   1.457
 4907WAT      O15239   3.157   1.229   2.991
 4907WAT     H115240   3.146   1.260   3.081
 4907WAT     H215241   3.240   1.268   2.963
 4908WAT      O15242   2.860   2.208   0.216
 4908WAT     H115243   2.783   2.159   0.245
 4908WAT     H215244   2.926   2.140   0.199
 4909WAT      O15245   2.262   2.240   0.304
 4909WAT     H115246   2.179   2.212   0.344
 4909WAT     H215247   2.323   2.246   0.377
 4910WAT      O15248   2.261   2.642   0.324
 4910WAT     H115249   2.291   2.553   0.306
 4910WAT     H215250   2.335   2.698   0.301
 4911WAT      O15251   1.899   1.994   0.271
 4911WAT     H115252   1.957   1.918   0.271
 4911WAT     H215253   1.900   2.025   0.180
 4912WAT      O15254   2.804   2.475   0.217
 4912WAT     H115255   2.799   2.381   0.201
 4912WAT     H215256   2.880   2.485   0.274
 4913WAT      O15257   2.025   1.536   0.450
 4913WAT     H115258   2.006   1.447   0.477
 4913WAT     H215259   1.983   1.591   0.517
 4914WAT      O15260   2.084   1.786   0.311
 4914WAT     H115261   2.155   1.811   0.371
 4914WAT     H215262   2.054   1.701   0.344
 4915WAT      O15263   2.505   1.890   0.219
 4915WAT     H115264   2.557   1.940   0.282
 4915WAT     H215265   2.559   1.813   0.201
 4916WAT      O15266   3.714   1.707   0.590
 4916WAT     H115267   3.645   1.747   0.537
 4916WAT     H215268   3.742   1.777   0.649
 4917WAT      O15269   2.334   1.353   0.646
 4917WAT     H115270   2.334   1.406   0.566
 4917WAT     H215271   2.251   1.306   0.643
 4918WAT      O15272   2.460   2.319   0.464
 4918WAT     H115273   2.425   2.381   0.527
 4918WAT     H215274   2.476   2.371   0.385
 4919WAT      O15275   3.311   1.700   0.211
 4919WAT     H115276   3.239   1.728   0.267
 4919WAT     H215277   3.345   1.781   0.174
 4920WAT      O15278   2.302   1.526   0.446
 4920WAT     H115279   2.336   1.610   0.417
 4920WAT     H215280   2.208   1.540   0.457
 4921WAT      O15281   2.381   2.515   0.645
 4921WAT     H115282   2.442   2.583   0.617
 4921WAT     H215283   2.294   2.555   0.636
 4922WAT      O15284   3.471   2.661   0.436
 4922WAT     H115285   3.403   2.728   0.435
 4922WAT     H215286   3.526   2.681   0.360
 4923WAT      O15287   3.617   1.644   0.249
 4923WAT     H115288   3.522   1.647   0.262
 4923WAT     H215289   3.649   1.725   0.288
 4924WAT      O15290   3.225   2.846   0.308
 4924WAT     H115291   3.226   2.805   0.221
 4924WAT     H215292   3.170   2.923   0.297
 4925WAT      O15293   3.165   2.337   0.441
 4925WAT     H115294   3.207   2.315   0.357
 4925WAT     H215295   3.237   2.362   0.498
 4926WAT      O15296   3.560   2.175   0.450
 4926WAT     H115297   3.477   2.184   0.402
 4926WAT     H215298   3.620   2.234   0.404
 4927WAT      O15299   3.257   1.855   0.543
 4927WAT     H115300   3.215   1.937   0.570
 4927WAT     H215301   3.183   1.796   0.526
 4928WAT      O15302   2.516   2.501   0.247
 4928WAT     H115303   2.486   2.441   0.179
 4928WAT     H215304   2.611   2.506   0.236
 4929WAT      O15305   2.341   1.809   0.409
 4929WAT     H115306   2.395   1.823   0.331
 4929WAT     H215307   2.391   1.849   0.480
 4930WAT      O15308   3.325   2.859   0.613
 4930WAT     H115309   3.278   2.940   0.594
 4930WAT     H215310   3.256   2.794   0.628
 4931WAT      O15311   2.426   2.476   0.912
 4931WAT     H115312   2.336   2.498   0.937
 4931WAT     H215313   2.427   2.488   0.817
 4932WAT      O15314   2.308   2.163   0.770
 4932WAT     H115315   2.294   2.251   0.806
 4932WAT     H215316   2.220   2.129   0.754
 4933WAT      O15317   2.488   2.757   0.990
 4933WAT     H115318   2.485   2.797   0.904
 4933WAT     H215319   2.472   2.664   0.974
 4934WAT      O15320   3.683   2.835   1.120
 4934WAT     H115321   3.731   2.883   1.188
 4934WAT     H215322   3.745   2.829   1.047
 4935WAT      O15323   1.903   2.339   0.361
 4935WAT     H115324   1.912   2.353   0.267
 4935WAT     H215325   1.965   2.269   0.381
 4936WAT      O15326   3.622   2.553   0.836
 4936WAT     H115327   3.637   2.530   0.744
 4936WAT     H215328   3.629   2.470   0.883
 4937WAT      O15329   3.010   2.925   0.693
 4937WAT     H115330   3.061   2.916   0.774
 4937WAT     H215331   2.926   2.959   0.722
 4938WAT      O15332   3.609   1.760   0.933
 4938WAT     H115333   3.548   1.811   0.880
 4938WAT     H215334   3.577   1.670   0.927
 4939WAT      O15335   1.909   2.444   0.615
 4939WAT     H115336   1.924   2.397   0.533
 4939WAT     H215337   1.956   2.393   0.681
 4940WAT      O15338   2.815   1.644   0.679
 4940WAT     H115339   2.769   1.665   0.760
 4940WAT     H215340   2.775   1.562   0.649
 4941WAT      O15341   3.315   1.765   0.792
 4941WAT     H115342   3.230   1.736   0.824
 4941WAT     H215343   3.299   1.791   0.701
 4942WAT      O15344   3.024   1.916   1.001
 4942WAT     H115345   3.056   1.832   0.969
 4942WAT     H215346   3.103   1.967   1.018
 4943WAT      O15347   2.591   1.411   0.305
 4943WAT     H115348   2.620   1.502   0.297
 4943WAT     H215349   2.645   1.363   0.242
 4944WAT      O15350   2.609   1.959   0.958
 4944WAT     H115351   2.600   1.865   0.943
 4944WAT     H215352   2.693   1.982   0.919
 4945WAT      O15353   2.122   1.600   0.774
 4945WAT     H115354   2.083   1.685   0.794
 4945WAT     H215355   2.053   1.537   0.792
 4946WAT      O15356   2.780   1.609   1.081
 4946WAT     H115357   2.711   1.588   1.144
 4946WAT     H215358   2.854   1.637   1.134
 4947WAT      O15359   1.852   1.392   0.177
 4947WAT     H115360   1.824   1.451   0.247
 4947WAT     H215361   1.927   1.345   0.213
 4948WAT      O15362   3.007   1.993   0.363
 4948WAT     H115363   2.934   2.044   0.399
 4948WAT     H215364   2.968   1.911   0.334
 4949WAT      O15365   3.053   1.538   0.306
 4949WAT     H115366   3.055   1.583   0.390
 4949WAT     H215367   3.029   1.448   0.327
 4950WAT      O15368   3.395   1.279   0.889
 4950WAT     H115369   3.429   1.206   0.942
 4950WAT     H215370   3.400   1.248   0.799
 4951WAT      O15371   2.066   2.380   0.831
 4951WAT     H115372   2.028   2.317   0.892
 4951WAT     H215373   2.097   2.452   0.887
 4952WAT      O15374   2.682   2.066   0.379
 4952WAT     H115375   2.717   2.019   0.454
 4952WAT     H215376   2.661   2.153   0.413
 4953WAT      O15377   2.461   1.970   0.611
 4953WAT     H115378   2.430   2.057   0.634
 4953WAT     H215379   2.556   1.976   0.615
 4954WAT      O15380   3.389   2.291   0.250
 4954WAT     H115381   3.461   2.340   0.211
 4954WAT     H215382   3.369   2.223   0.186
 4955WAT      O15383   2.928   2.298   0.840
 4955WAT     H115384   2.920   2.207   0.812
 4955WAT     H215385   2.863   2.307   0.910
 4956WAT      O15386   2.066   2.055   0.726
 4956WAT     H115387   2.029   2.121   0.785
 4956WAT     H215388   2.037   1.971   0.762
 4957WAT      O15389   2.385   2.099   1.014
 4957WAT     H115390   2.357   2.115   0.924
 4957WAT     H215391   2.463   2.045   1.005
 4958WAT      O15392   2.920   2.580   0.813
 4958WAT     H115393   2.922   2.486   0.792
 4958WAT     H215394   2.850   2.589   0.878
 4959WAT      O15395   3.542   2.245   0.748
 4959WAT     H115396   3.469   2.303   0.729
 4959WAT     H215397   3.594   2.244   0.668
 4960WAT      O15398   2.864   2.745   0.522
 4960WAT     H115399   2.927   2.765   0.591
 4960WAT     H215400   2.900   2.667   0.479
 4961WAT      O15401   2.991   2.544   0.395
 4961WAT     H115402   3.055   2.474   0.407
 4961WAT     H215403   3.044   2.622   0.377
 4962WAT      O15404   3.168   2.625   0.715
 4962WAT     H115405   3.202   2.683   0.783
 4962WAT     H215406   3.077   2.611   0.738
 4963WAT      O15407   1.923   1.403   0.793
 4963WAT     H115408   1.852   1.423   0.854
 4963WAT     H215409   1.966   1.326   0.831
 4964WAT      O15410   1.953   2.802   0.891
 4964WAT     H115411   1.963   2.708   0.878
 4964WAT     H215412   1.887   2.829   0.827
 4965WAT      O15413   2.751   2.629   1.032
 4965WAT     H115414   2.718   2.557   1.087
 4965WAT     H215415   2.684   2.696   1.039
 4966WAT      O15416   3.073   1.653   0.568
 4966WAT     H115417   3.110   1.571   0.601
 4966WAT     H215418   2.987   1.658   0.610
 4967WAT      O15419   2.769   1.918   0.591
 4967WAT     H115420   2.819   1.966   0.657
 4967WAT     H215421   2.783   1.826   0.612
 4968WAT      O15422   3.489   1.540   0.675
 4968WAT     H115423   3.439   1.614   0.709
 4968WAT     H215424   3.571   1.579   0.644
 4969WAT      O15425   2.167   2.909   1.074
 4969WAT     H115426   2.247   2.941   1.115
 4969WAT     H215427   2.115   2.873   1.146
 4970WAT      O15428   3.051   2.519   1.068
 4970WAT     H115429   2.990   2.522   0.994
 4970WAT     H215430   3.020   2.447   1.122
 4971WAT      O15431   3.193   2.893   0.928
 4971WAT     H115432   3.289   2.884   0.925
 4971WAT     H215433   3.178   2.958   0.997
 4972WAT      O15434   1.940   2.159   0.968
 4972WAT     H115435   1.989   2.100   1.025
 4972WAT     H215436   1.865   2.186   1.021
 4973WAT      O15437   2.645   2.299   0.921
 4973WAT     H115438   2.567   2.355   0.913
 4973WAT     H215439   2.662   2.269   0.832
 4974WAT      O15440   3.358   2.472   0.977
 4974WAT     H115441   3.432   2.505   0.926
 4974WAT     H215442   3.282   2.488   0.922
 4975WAT      O15443   2.142   1.972   1.057
 4975WAT     H115444   2.146   1.943   1.148
 4975WAT     H215445   2.227   2.012   1.040
 4976WAT      O15446   2.337   1.829   0.854
 4976WAT     H115447   2.283   1.782   0.791
 4976WAT     H215448   2.403   1.873   0.801
 4977WAT      O15449   3.225   2.275   0.830
 4977WAT     H115450   3.267   2.292   0.914
 4977WAT     H215451   3.132   2.289   0.847
 4978WAT      O15452   3.273   2.010   1.030
 4978WAT     H115453   3.331   1.935   1.022
 4978WAT     H215454   3.291   2.063   0.953
 4979WAT      O15455   2.385   1.526   0.862
 4979WAT     H115456   2.375   1.464   0.789
 4979WAT     H215457   2.327   1.599   0.840
 4980WAT      O15458   2.661   1.382   0.565
 4980WAT     H115459   2.616   1.384   0.481
 4980WAT     H215460   2.598   1.342   0.625
 4981WAT      O15461   2.701   2.272   0.627
 4981WAT     H115462   2.744   2.356   0.610
 4981WAT     H215463   2.610   2.285   0.603
 4982WAT      O15464   2.935   2.043   0.766
 4982WAT     H115465   2.948   1.985   0.841
 4982WAT     H215466   3.021   2.048   0.724
 4983WAT      O15467   3.168   2.100   0.624
 4983WAT     H115468   3.118   2.153   0.562
 4983WAT     H215469   3.204   2.163   0.686
 4984WAT      O15470   2.488   2.903   0.739
 4984WAT     H115471   2.432   2.974   0.707
 4984WAT     H215472   2.511   2.854   0.661
 4985WAT      O15473   2.612   1.699   0.891
 4985WAT     H115474   2.671   1.668   0.960
 4985WAT     H215475   2.531   1.652   0.906
 4986WAT      O15476   3.094   1.661   0.915
 4986WAT     H115477   3.025   1.594   0.908
 4986WAT     H215478   3.166   1.616   0.959
 4987WAT      O15479   2.772   3.026   0.765
 4987WAT     H115480   2.765   3.116   0.795
 4987WAT     H215481   2.682   2.994   0.762
 4988WAT      O15482   1.962   2.845   0.370
 4988WAT     H115483   1.918   2.863   0.452
 4988WAT     H215484   2.018   2.921   0.355
 4989WAT      O15485   3.525   2.796   0.797
 4989WAT     H115486   3.464   2.801   0.723
 4989WAT     H215487   3.539   2.702   0.811
 4990WAT      O15488   3.393   2.468   0.607
 4990WAT     H115489   3.313   2.511   0.634
 4990WAT     H215490   3.435   2.529   0.546
 4991WAT      O15491   2.049   2.136   0.459
 4991WAT     H115492   2.085   2.125   0.548
 4991WAT     H215493   1.992   2.060   0.448
 4992WAT      O15494   3.530   1.981   0.760
 4992WAT     H115495   3.506   1.959   0.670
 4992WAT     H215496   3.554   2.074   0.757
 4993WAT      O15497   2.004   1.826   0.850
 4993WAT     H115498   1.914   1.823   0.883
 4993WAT     H215499   2.057   1.847   0.926
 4994WAT      O15500   3.372   1.504   1.038
 4994WAT     H115501   3.460   1.505   1.076
 4994WAT     H215502   3.374   1.431   0.977
 4995WAT      O15503   3.535   1.898   0.479
 4995WAT     H115504   3.440   1.895   0.490
 4995WAT     H215505   3.553   1.989   0.456
 4996WAT      O15506   2.054   1.252   0.284
 4996WAT     H115507   2.120   1.198   0.240
 4996WAT     H215508   2.096   1.279   0.366
 4997WAT      O15509   3.444   1.272   0.620
 4997WAT     H115510   3.507   1.335   0.656
 4997WAT     H215511   3.459   1.276   0.525
 4998WAT      O15512   2.031   1.269   0.560
 4998WAT     H115513   1.994   1.315   0.635
 4998WAT     H215514   1.996   1.180   0.567
 4999WAT      O15515   2.190   2.586   0.975
 4999WAT     H115516   2.186   2.549   1.064
 4999WAT     H215517   2.203   2.680   0.989
 5000WAT      O15518   2.560   2.742   0.535
 5000WAT     H115519   2.536   2.768   0.446
 5000WAT     H215520   2.654   2.758   0.540
 5001WAT      O15521   2.781   1.387   0.912
 5001WAT     H115522   2.775   1.448   0.985
 5001WAT     H215523   2.875   1.377   0.896
 5002WAT      O15524   3.045   1.355   0.875
 5002WAT     H115525   3.106   1.385   0.808
 5002WAT     H215526   3.099   1.305   0.937
 5003WAT      O15527   3.687   2.943   0.614
 5003WAT     H115528   3.636   2.983   0.544
 5003WAT     H215529   3.626   2.882   0.656
 5004WAT      O15530   2.097   1.222   0.886
 5004WAT     H115531   2.152   1.203   0.810
 5004WAT     H215532   2.103   1.143   0.940
 5005WAT      O15533   2.174   2.881   0.687
 5005WAT     H115534   2.115   2.868   0.761
 5005WAT     H215535   2.173   2.797   0.640
 5006WAT      O15536   3.119   1.211   0.508
 5006WAT     H115537   3.032   1.243   0.486
 5006WAT     H215538   3.107   1.162   0.590
 5007WAT      O15539   3.209   1.430   0.646
 5007WAT     H115540   3.177   1.349   0.607
 5007WAT     H215541   3.304   1.428   0.634
 5008WAT      O15542   3.455   3.008   0.344
 5008WAT     H115543   3.409   3.083   0.306
 5008WAT     H215544   3.392   2.936   0.337
 5009WAT      O15545   2.137   2.618   0.582
 5009WAT     H115546   2.065   2.556   0.576
 5009WAT     H215547   2.143   2.656   0.494
 5010WAT      O15548   2.498   2.838   0.262
 5010WAT     H115549   2.549   2.778   0.208
 5010WAT     H215550   2.564   2.890   0.309
 5011WAT      O15551   2.772   2.928   0.343
 5011WAT     H115552   2.800   2.902   0.256
 5011WAT     H215553   2.822   2.873   0.402
 5012WAT      O15554   2.893   1.302   0.401
 5012WAT     H115555   2.815   1.349   0.430
 5012WAT     H215556   2.863   1.211   0.390
 5013WAT      O15557   2.778   3.020   1.080
 5013WAT     H115558   2.871   2.997   1.084
 5013WAT     H215559   2.777   3.103   1.032
 5014WAT      O15560   2.497   1.287   1.056
 5014WAT     H115561   2.469   1.337   0.979
 5014WAT     H215562   2.535   1.207   1.020
 5015WAT      O15563   3.157   1.229   1.114
 5015WAT     H115564   3.146   1.259   1.204
 5015WAT     H215565   3.240   1.268   1.085
 5016WAT      O15566   3.435   2.944   1.061
 5016WAT     H115567   3.514   2.893   1.043
 5016WAT     H215568   3.464   3.011   1.123
 5017WAT      O15569   3.264   0.771   5.725
 5017WAT     H115570   3.216   0.694   5.758
 5017WAT     H215571   3.344   0.774   5.777
 5018WAT      O15572   2.886   1.000   5.688
 5018WAT     H115573   2.824   1.045   5.631
 5018WAT     H215574   2.971   1.016   5.648
 5019WAT      O15575   2.972   0.488   5.427
 5019WAT     H115576   2.910   0.534   5.371
 5019WAT     H215577   3.023   0.558   5.469
 5020WAT      O15578   1.909   0.556   5.165
 5020WAT     H115579   1.871   0.605   5.092
 5020WAT     H215580   1.935   0.624   5.228
 5021WAT      O15581   3.355   0.640   5.449
 5021WAT     H115582   3.344   0.546   5.461
 5021WAT     H215583   3.353   0.676   5.538
 5022WAT      O15584   2.909   0.203   5.385
 5022WAT     H115585   2.816   0.197   5.407
 5022WAT     H215586   2.925   0.297   5.373
 5023WAT      O15587   3.312   0.359   5.435
 5023WAT     H115588   3.250   0.326   5.370
 5023WAT     H215589   3.310   0.295   5.506
 5024WAT      O15590   2.469   0.256   5.663
 5024WAT     H115591   2.429   0.185   5.613
 5024WAT     H215592   2.478   0.221   5.752
 5025WAT      O15593   3.130   0.283   5.136
 5025WAT     H115594   3.173   0.199   5.121
 5025WAT     H215595   3.201   0.346   5.143
 5026WAT      O15596   2.940   0.776   5.532
 5026WAT     H115597   2.984   0.851   5.491
 5026WAT     H215598   2.934   0.801   5.625
 5027WAT      O15599   2.028   0.632   5.634
 5027WAT     H115600   1.988   0.647   5.549
 5027WAT     H215601   2.117   0.604   5.614
 5028WAT      O15602   3.207   1.076   5.268
 5028WAT     H115603   3.191   1.047   5.358
 5028WAT     H215604   3.192   0.998   5.215
 5029WAT      O15605   2.454   1.054   5.445
 5029WAT     H115606   2.437   0.962   5.425
 5029WAT     H215607   2.369   1.090   5.470
 5030WAT      O15608   3.177   0.828   5.124
 5030WAT     H115609   3.108   0.827   5.058
 5030WAT     H215610   3.251   0.785   5.081
 5031WAT      O15611   3.134   0.989   5.532
 5031WAT     H115612   3.179   0.911   5.563
 5031WAT     H215613   3.168   1.060   5.586
 5032WAT      O15614   2.313   0.514   5.303
 5032WAT     H115615   2.237   0.459   5.288
 5032WAT     H215616   2.387   0.462   5.269
 5033WAT      O15617   2.316   0.480   5.667
 5033WAT     H115618   2.369   0.401   5.661
 5033WAT     H215619   2.272   0.474   5.751
 5034WAT      O15620   2.806   0.607   5.194
 5034WAT     H115621   2.840   0.682   5.145
 5034WAT     H215622   2.723   0.638   5.230
 5035WAT      O15623   3.537   0.806   5.345
 5035WAT     H115624   3.472   0.741   5.373
 5035WAT     H215625   3.498   0.847   5.268
 5036WAT      O15626   3.095   0.539   5.731
 5036WAT     H115627   3.129   0.479   5.665
 5036WAT     H215628   3.006   0.507   5.748
 5037WAT      O15629   2.702   0.615   5.472
 5037WAT     H115630   2.772   0.670   5.508
 5037WAT     H215631   2.624   0.670   5.475
 5038WAT      O15632   1.917   0.177   5.019
 5038WAT     H115633   2.004   0.205   5.050
 5038WAT     H215634   1.868   0.258   5.009
 5039WAT      O15635   2.634   0.315   5.434
 5039WAT     H115636   2.678   0.397   5.455
 5039WAT     H215637   2.598   0.285   5.517
 5040WAT      O15638   3.374   0.696   5.000
 5040WAT     H115639   3.353   0.623   5.059
 5040WAT     H215640   3.337   0.670   4.916
 5041WAT      O15641   1.955   1.098   5.077
 5041WAT     H115642   1.990   1.159   5.012
 5041WAT     H215643   1.940   1.153   5.154
 5042WAT      O15644   3.333   0.486   5.167
 5042WAT     H115645   3.305   0.533   5.245
 5042WAT     H215646   3.414   0.441   5.193
 5043WAT      O15647   2.555   0.837   5.159
 5043WAT     H115648   2.555   0.910   5.097
 5043WAT     H215649   2.463   0.811   5.168
 5044WAT      O15650   2.115   0.359   5.233
 5044WAT     H115651   2.054   0.433   5.233
 5044WAT     H215652   2.163   0.368   5.150
 5045WAT      O15653   2.854   0.842   5.025
 5045WAT     H115654   2.864   0.822   4.932
 5045WAT     H215655   2.764   0.817   5.046
 5046WAT      O15656   2.718   1.096   5.495
 5046WAT     H115657   2.744   1.091   5.403
 5046WAT     H215658   2.623   1.082   5.493
 5047WAT      O15659   2.315   0.354   5.009
 5047WAT     H115660   2.393   0.344   5.064
 5047WAT     H215661   2.324   0.286   4.942
 5048WAT      O15662   2.266   1.113   5.787
 5048WAT     H115663   2.340   1.058   5.814
 5048WAT     H215664   2.304   1.199   5.773
 5049WAT      O15665   1.954   0.720   5.375
 5049WAT     H115666   1.862   0.745   5.373
 5049WAT     H215667   2.001   0.802   5.362
 5050WAT      O15668   2.576   1.030   4.969
 5050WAT     H115669   2.656   1.060   4.925
 5050WAT     H215670   2.525   0.987   4.900
 5051WAT      O15671   3.482   0.953   5.112
 5051WAT     H115672   3.454   0.912   5.030
 5051WAT     H215673   3.463   1.046   5.099
 5052WAT      O15674   2.629   0.552   4.955
 5052WAT     H115675   2.618   0.492   5.028
 5052WAT     H215676   2.612   0.499   4.877
 5053WAT      O15677   2.953   0.458   5.016
 5053WAT     H115678   2.898   0.503   5.080
 5053WAT     H215679   3.015   0.408   5.068
 5054WAT      O15680   2.519   0.353   5.205
 5054WAT     H115681   2.562   0.339   5.289
 5054WAT     H215682   2.533   0.273   5.156
 5055WAT      O15683   2.771   0.257   4.930
 5055WAT     H115684   2.823   0.185   4.894
 5055WAT     H215685   2.836   0.321   4.960
 5056WAT      O15686   2.827   1.066   5.159
 5056WAT     H115687   2.917   1.099   5.162
 5056WAT     H215688   2.831   0.993   5.098
 5057WAT      O15689   2.191   0.602   4.981
 5057WAT     H115690   2.234   0.656   5.047
 5057WAT     H215691   2.240   0.519   4.983
 5058WAT      O15692   1.913   0.881   5.727
 5058WAT     H115693   1.946   0.794   5.704
 5058WAT     H215694   1.956   0.902   5.810
 5059WAT      O15695   2.372   0.714   5.493
 5059WAT     H115696   2.342   0.702   5.583
 5059WAT     H215697   2.362   0.628   5.452
 5060WAT      O15698   3.650   0.692   4.965
 5060WAT     H115699   3.565   0.699   5.010
 5060WAT     H215700   3.667   0.781   4.933
 5061WAT      O15701   3.594   0.367   5.214
 5061WAT     H115702   3.671   0.423   5.224
 5061WAT     H215703   3.596   0.310   5.291
 5062WAT      O15704   1.945   0.220   5.636
 5062WAT     H115705   1.879   0.191   5.573
 5062WAT     H215706   2.029   0.208   5.592
 5063WAT      O15707   3.695   0.453   5.697
 5063WAT     H115708   3.733   0.374   5.659
 5063WAT     H215709   3.760   0.521   5.682
 5064WAT      O15710   3.602   0.396   4.930
 5064WAT     H115711   3.627   0.487   4.917
 5064WAT     H215712   3.581   0.389   5.023
 5065WAT      O15713   3.400   1.066   5.593
 5065WAT     H115714   3.459   1.033   5.525
 5065WAT     H215715   3.425   1.018   5.672
 5066WAT      O15716   1.966   1.072   5.535
 5066WAT     H115717   1.949   1.008   5.605
 5066WAT     H215718   1.879   1.092   5.500
 5067WAT      O15719   2.125   0.940   5.281
 5067WAT     H115720   2.074   0.979   5.210
 5067WAT     H215721   2.119   1.004   5.352
 5068WAT      O15722   3.602   1.097   5.412
 5068WAT     H115723   3.619   1.027   5.348
 5068WAT     H215724   3.533   1.149   5.372
 5069WAT      O15725   2.387   1.137   5.167
 5069WAT     H115726   2.459   1.107   5.112
 5069WAT     H215727   2.412   1.112   5.256
 5070WAT      O15728   2.302   0.747   5.168
 5070WAT     H115729   2.239   0.795   5.223
 5070WAT     H215730   2.314   0.663   5.212
 5071WAT      O15731   2.860   0.330   3.970
 5071WAT     H115732   2.783   0.282   4.000
 5071WAT     H215733   2.926   0.262   3.954
 5072WAT      O15734   2.262   0.363   4.059
 5072WAT     H115735   2.179   0.335   4.099
 5072WAT     H215736   2.323   0.369   4.132
 5073WAT      O15737   3.263   0.771   3.849
 5073WAT     H115738   3.217   0.694   3.881
 5073WAT     H215739   3.344   0.774   3.899
 5074WAT      O15740   2.261   0.765   4.078
 5074WAT     H115741   2.291   0.676   4.060
 5074WAT     H215742   2.335   0.821   4.056
 5075WAT      O15743   2.886   1.001   3.812
 5075WAT     H115744   2.824   1.044   3.754
 5075WAT     H215745   2.971   1.015   3.771
 5076WAT      O15746   2.804   0.598   3.972
 5076WAT     H115747   2.799   0.503   3.956
 5076WAT     H215748   2.880   0.608   4.029
 5077WAT      O15749   2.973   0.488   3.550
 5077WAT     H115750   2.910   0.534   3.494
 5077WAT     H215751   3.022   0.558   3.592
 5078WAT      O15752   2.460   0.441   4.219
 5078WAT     H115753   2.425   0.503   4.282
 5078WAT     H215754   2.476   0.494   4.140
 5079WAT      O15755   2.381   0.638   4.400
 5079WAT     H115756   2.442   0.705   4.371
 5079WAT     H215757   2.294   0.677   4.390
 5080WAT      O15758   1.909   0.556   3.288
 5080WAT     H115759   1.871   0.605   3.215
 5080WAT     H215760   1.935   0.624   3.351
 5081WAT      O15761   3.471   0.784   4.191
 5081WAT     H115762   3.403   0.851   4.191
 5081WAT     H215763   3.525   0.804   4.115
 5082WAT      O15764   3.225   0.968   4.063
 5082WAT     H115765   3.226   0.928   3.976
 5082WAT     H215766   3.170   1.046   4.052
 5083WAT      O15767   3.355   0.640   3.572
 5083WAT     H115768   3.344   0.546   3.584
 5083WAT     H215769   3.353   0.677   3.660
 5084WAT      O15770   3.165   0.460   4.195
 5084WAT     H115771   3.208   0.437   4.112
 5084WAT     H215772   3.237   0.484   4.253
 5085WAT      O15773   2.909   0.203   3.507
 5085WAT     H115774   2.816   0.197   3.530
 5085WAT     H215775   2.925   0.297   3.496
 5086WAT      O15776   3.560   0.298   4.205
 5086WAT     H115777   3.477   0.305   4.158
 5086WAT     H215778   3.619   0.357   4.159
 5087WAT      O15779   3.312   0.359   3.558
 5087WAT     H115780   3.250   0.326   3.493
 5087WAT     H215781   3.310   0.295   3.628
 5088WAT      O15782   2.469   0.256   3.785
 5088WAT     H115783   2.429   0.184   3.736
 5088WAT     H215784   2.478   0.221   3.874
 5089WAT      O15785   2.516   0.623   4.003
 5089WAT     H115786   2.486   0.564   3.933
 5089WAT     H215787   2.611   0.628   3.991
 5090WAT      O15788   3.325   0.982   4.368
 5090WAT     H115789   3.278   1.062   4.348
 5090WAT     H215790   3.256   0.916   4.383
 5091WAT      O15791   2.426   0.598   4.666
 5091WAT     H115792   2.336   0.621   4.692
 5091WAT     H215793   2.427   0.611   4.572
 5092WAT      O15794   3.130   0.283   3.258
 5092WAT     H115795   3.173   0.199   3.244
 5092WAT     H215796   3.201   0.346   3.266
 5093WAT      O15797   2.308   0.286   4.524
 5093WAT     H115798   2.294   0.373   4.560
 5093WAT     H215799   2.220   0.251   4.510
 5094WAT      O15800   2.940   0.776   3.655
 5094WAT     H115801   2.984   0.851   3.613
 5094WAT     H215802   2.933   0.801   3.747
 5095WAT      O15803   2.488   0.880   4.745
 5095WAT     H115804   2.485   0.920   4.659
 5095WAT     H215805   2.472   0.787   4.729
 5096WAT      O15806   3.683   0.958   4.875
 5096WAT     H115807   3.731   1.006   4.943
 5096WAT     H215808   3.745   0.951   4.802
 5097WAT      O15809   1.903   0.462   4.116
 5097WAT     H115810   1.911   0.476   4.022
 5097WAT     H215811   1.965   0.391   4.135
 5098WAT      O15812   2.027   0.631   3.757
 5098WAT     H115813   1.988   0.648   3.671
 5098WAT     H215814   2.117   0.604   3.737
 5099WAT      O15815   3.622   0.676   4.591
 5099WAT     H115816   3.637   0.653   4.499
 5099WAT     H215817   3.628   0.593   4.638
 5100WAT      O15818   3.010   1.047   4.448
 5100WAT     H115819   3.061   1.038   4.529
 5100WAT     H215820   2.926   1.081   4.477
 5101WAT      O15821   3.207   1.076   3.391
 5101WAT     H115822   3.191   1.047   3.480
 5101WAT     H215823   3.192   0.998   3.337
 5102WAT      O15824   2.454   1.054   3.568
 5102WAT     H115825   2.437   0.962   3.547
 5102WAT     H215826   2.369   1.090   3.592
 5103WAT      O15827   3.177   0.828   3.247
 5103WAT     H115828   3.108   0.827   3.181
 5103WAT     H215829   3.251   0.785   3.204
 5104WAT      O15830   3.133   0.989   3.655
 5104WAT     H115831   3.179   0.911   3.686
 5104WAT     H215832   3.168   1.060   3.708
 5105WAT      O15833   1.909   0.568   4.370
 5105WAT     H115834   1.924   0.520   4.288
 5105WAT     H215835   1.955   0.516   4.437
 5106WAT      O15836   2.067   0.503   4.586
 5106WAT     H115837   2.028   0.440   4.646
 5106WAT     H215838   2.097   0.574   4.643
 5107WAT      O15839   2.682   0.189   4.134
 5107WAT     H115840   2.718   0.141   4.208
 5107WAT     H215841   2.662   0.276   4.169
 5108WAT      O15842   2.313   0.514   3.426
 5108WAT     H115843   2.237   0.459   3.411
 5108WAT     H215844   2.387   0.462   3.392
 5109WAT      O15845   3.388   0.413   4.004
 5109WAT     H115846   3.461   0.463   3.966
 5109WAT     H215847   3.369   0.345   3.940
 5110WAT      O15848   2.928   0.420   4.595
 5110WAT     H115849   2.920   0.329   4.568
 5110WAT     H215850   2.863   0.430   4.665
 5111WAT      O15851   2.317   0.481   3.790
 5111WAT     H115852   2.369   0.401   3.783
 5111WAT     H215853   2.272   0.473   3.874
 5112WAT      O15854   2.806   0.607   3.317
 5112WAT     H115855   2.840   0.681   3.267
 5112WAT     H215856   2.723   0.638   3.353
 5113WAT      O15857   2.386   0.222   4.769
 5113WAT     H115858   2.356   0.237   4.680
 5113WAT     H215859   2.463   0.167   4.760
 5114WAT      O15860   2.920   0.702   4.568
 5114WAT     H115861   2.921   0.608   4.548
 5114WAT     H215862   2.850   0.711   4.632
 5115WAT      O15863   3.542   0.368   4.504
 5115WAT     H115864   3.468   0.426   4.483
 5115WAT     H215865   3.593   0.365   4.423
 5116WAT      O15866   3.537   0.806   3.468
 5116WAT     H115867   3.472   0.742   3.496
 5116WAT     H215868   3.498   0.847   3.391
 5117WAT      O15869   3.095   0.539   3.853
 5117WAT     H115870   3.129   0.479   3.787
 5117WAT     H215871   3.006   0.507   3.870
 5118WAT      O15872   2.702   0.615   3.595
 5118WAT     H115873   2.772   0.670   3.631
 5118WAT     H215874   2.624   0.670   3.597
 5119WAT      O15875   1.917   0.177   3.142
 5119WAT     H115876   2.004   0.205   3.172
 5119WAT     H215877   1.868   0.258   3.131
 5120WAT      O15878   2.634   0.315   3.556
 5120WAT     H115879   2.679   0.397   3.578
 5120WAT     H215880   2.598   0.285   3.639
 5121WAT      O15881   2.864   0.867   4.278
 5121WAT     H115882   2.927   0.888   4.346
 5121WAT     H215883   2.900   0.790   4.233
 5122WAT      O15884   2.991   0.667   4.150
 5122WAT     H115885   3.055   0.597   4.162
 5122WAT     H215886   3.044   0.745   4.132
 5123WAT      O15887   3.374   0.696   3.122
 5123WAT     H115888   3.353   0.623   3.181
 5123WAT     H215889   3.337   0.670   3.038
 5124WAT      O15890   3.168   0.748   4.470
 5124WAT     H115891   3.202   0.806   4.538
 5124WAT     H215892   3.077   0.734   4.493
 5125WAT      O15893   1.955   1.098   3.200
 5125WAT     H115894   1.990   1.159   3.134
 5125WAT     H215895   1.940   1.153   3.277
 5126WAT      O15896   3.333   0.486   3.289
 5126WAT     H115897   3.305   0.533   3.367
 5126WAT     H215898   3.414   0.441   3.315
 5127WAT      O15899   1.953   0.925   4.646
 5127WAT     H115900   1.963   0.831   4.633
 5127WAT     H215901   1.886   0.951   4.582
 5128WAT      O15902   2.751   0.751   4.787
 5128WAT     H115903   2.719   0.680   4.841
 5128WAT     H215904   2.684   0.819   4.793
 5129WAT      O15905   2.555   0.836   3.281
 5129WAT     H115906   2.554   0.910   3.220
 5129WAT     H215907   2.463   0.812   3.291
 5130WAT      O15908   2.115   0.359   3.355
 5130WAT     H115909   2.054   0.433   3.356
 5130WAT     H215910   2.163   0.368   3.273
 5131WAT      O15911   2.854   0.842   3.148
 5131WAT     H115912   2.864   0.822   3.055
 5131WAT     H215913   2.764   0.817   3.168
 5132WAT      O15914   2.718   1.096   3.617
 5132WAT     H115915   2.744   1.091   3.525
 5132WAT     H215916   2.623   1.082   3.615
 5133WAT      O15917   2.315   0.354   3.132
 5133WAT     H115918   2.393   0.344   3.187
 5133WAT     H215919   2.324   0.286   3.064
 5134WAT      O15920   3.519   0.904   3.941
 5134WAT     H115921   3.532   0.986   3.989
 5134WAT     H215922   3.606   0.883   3.907
 5135WAT      O15923   2.266   1.113   3.910
 5135WAT     H115924   2.340   1.058   3.936
 5135WAT     H215925   2.305   1.199   3.895
 5136WAT      O15926   1.954   0.720   3.498
 5136WAT     H115927   1.862   0.745   3.496
 5136WAT     H215928   2.001   0.802   3.485
 5137WAT      O15929   2.167   1.031   4.828
 5137WAT     H115930   2.247   1.063   4.870
 5137WAT     H215931   2.115   0.995   4.900
 5138WAT      O15932   2.576   1.030   3.092
 5138WAT     H115933   2.655   1.060   3.047
 5138WAT     H215934   2.525   0.987   3.023
 5139WAT      O15935   3.051   0.642   4.823
 5139WAT     H115936   2.990   0.644   4.749
 5139WAT     H215937   3.020   0.569   4.877
 5140WAT      O15938   3.193   1.016   4.683
 5140WAT     H115939   3.289   1.006   4.679
 5140WAT     H215940   3.178   1.080   4.752
 5141WAT      O15941   3.482   0.953   3.235
 5141WAT     H115942   3.454   0.912   3.153
 5141WAT     H215943   3.463   1.046   3.222
 5142WAT      O15944   1.940   0.281   4.723
 5142WAT     H115945   1.989   0.221   4.780
 5142WAT     H215946   1.864   0.308   4.776
 5143WAT      O15947   2.629   0.552   3.078
 5143WAT     H115948   2.618   0.492   3.151
 5143WAT     H215949   2.612   0.499   3.000
 5144WAT      O15950   2.644   0.422   4.676
 5144WAT     H115951   2.567   0.478   4.667
 5144WAT     H215952   2.662   0.392   4.587
 5145WAT      O15953   2.953   0.458   3.138
 5145WAT     H115954   2.898   0.503   3.203
 5145WAT     H215955   3.015   0.408   3.191
 5146WAT      O15956   3.358   0.595   4.732
 5146WAT     H115957   3.432   0.628   4.681
 5146WAT     H215958   3.282   0.611   4.676
 5147WAT      O15959   2.519   0.353   3.327
 5147WAT     H115960   2.562   0.339   3.411
 5147WAT     H215961   2.533   0.272   3.279
 5148WAT      O15962   2.771   0.257   3.053
 5148WAT     H115963   2.823   0.185   3.016
 5148WAT     H215964   2.836   0.321   3.083
 5149WAT      O15965   3.225   0.399   4.585
 5149WAT     H115966   3.267   0.414   4.669
 5149WAT     H215967   3.132   0.412   4.601
 5150WAT      O15968   2.702   0.394   4.383
 5150WAT     H115969   2.744   0.478   4.365
 5150WAT     H215970   2.610   0.408   4.358
 5151WAT      O15971   3.168   0.223   4.379
 5151WAT     H115972   3.117   0.276   4.318
 5151WAT     H215973   3.204   0.286   4.441
 5152WAT      O15974   2.488   1.026   4.494
 5152WAT     H115975   2.432   1.097   4.462
 5152WAT     H215976   2.512   0.976   4.416
 5153WAT      O15977   2.772   1.148   4.520
 5153WAT     H115978   2.765   1.239   4.550
 5153WAT     H215979   2.682   1.116   4.517
 5154WAT      O15980   2.827   1.066   3.282
 5154WAT     H115981   2.917   1.099   3.285
 5154WAT     H215982   2.831   0.993   3.220
 5155WAT      O15983   2.191   0.602   3.104
 5155WAT     H115984   2.234   0.656   3.169
 5155WAT     H215985   2.240   0.519   3.106
 5156WAT      O15986   1.913   0.881   3.850
 5156WAT     H115987   1.947   0.794   3.827
 5156WAT     H215988   1.956   0.902   3.933
 5157WAT      O15989   2.373   0.714   3.616
 5157WAT     H115990   2.342   0.701   3.706
 5157WAT     H215991   2.362   0.629   3.575
 5158WAT      O15992   1.962   0.968   4.124
 5158WAT     H115993   1.918   0.986   4.207
 5158WAT     H215994   2.018   1.044   4.110
 5159WAT      O15995   3.525   0.919   4.552
 5159WAT     H115996   3.464   0.924   4.478
 5159WAT     H215997   3.538   0.825   4.566
 5160WAT      O15998   3.650   0.692   3.087
 5160WAT     H115999   3.565   0.699   3.132
 5160WAT     H216000   3.667   0.781   3.055
 5161WAT      O16001   3.594   0.367   3.337
 5161WAT     H116002   3.671   0.423   3.346
 5161WAT     H216003   3.596   0.310   3.414
 5162WAT      O16004   1.945   0.220   3.759
 5162WAT     H116005   1.880   0.191   3.695
 5162WAT     H216006   2.029   0.208   3.715
 5163WAT      O16007   3.696   0.453   3.821
 5163WAT     H116008   3.733   0.374   3.781
 5163WAT     H216009   3.760   0.521   3.803
 5164WAT      O16010   3.393   0.590   4.362
 5164WAT     H116011   3.312   0.633   4.389
 5164WAT     H216012   3.435   0.652   4.301
 5165WAT      O16013   3.602   0.396   3.053
 5165WAT     H116014   3.627   0.487   3.040
 5165WAT     H216015   3.581   0.389   3.146
 5166WAT      O16016   2.049   0.257   4.214
 5166WAT     H116017   2.085   0.249   4.302
 5166WAT     H216018   1.992   0.181   4.204
 5167WAT      O16019   3.400   1.066   3.716
 5167WAT     H116020   3.459   1.033   3.647
 5167WAT     H216021   3.425   1.017   3.794
 5168WAT      O16022   2.190   0.709   4.730
 5168WAT     H116023   2.186   0.672   4.819
 5168WAT     H216024   2.203   0.803   4.744
 5169WAT      O16025   2.560   0.864   4.290
 5169WAT     H116026   2.536   0.890   4.201
 5169WAT     H216027   2.654   0.880   4.296
 5170WAT      O16028   3.687   1.065   4.369
 5170WAT     H116029   3.636   1.106   4.298
 5170WAT     H216030   3.625   1.005   4.410
 5171WAT      O16031   2.174   1.003   4.442
 5171WAT     H116032   2.115   0.990   4.516
 5171WAT     H216033   2.173   0.920   4.395
 5172WAT      O16034   3.455   1.131   4.097
 5172WAT     H116035   3.409   1.206   4.061
 5172WAT     H216036   3.391   1.060   4.093
 5173WAT      O16037   2.137   0.741   4.337
 5173WAT     H116038   2.065   0.678   4.331
 5173WAT     H216039   2.143   0.779   4.249
 5174WAT      O16040   2.498   0.961   4.016
 5174WAT     H116041   2.549   0.900   3.963
 5174WAT     H216042   2.563   1.012   4.064
 5175WAT      O16043   2.772   1.050   4.098
 5175WAT     H116044   2.801   1.025   4.010
 5175WAT     H216045   2.823   0.995   4.157
 5176WAT      O16046   1.966   1.072   3.658
 5176WAT     H116047   1.949   1.008   3.728
 5176WAT     H216048   1.879   1.092   3.623
 5177WAT      O16049   2.125   0.940   3.403
 5177WAT     H116050   2.074   0.980   3.332
 5177WAT     H216051   2.119   1.004   3.474
 5178WAT      O16052   2.778   1.143   4.835
 5178WAT     H116053   2.871   1.119   4.839
 5178WAT     H216054   2.777   1.225   4.787
 5179WAT      O16055   3.602   1.096   3.534
 5179WAT     H116056   3.619   1.028   3.470
 5179WAT     H216057   3.533   1.150   3.495
 5180WAT      O16058   2.387   1.137   3.290
 5180WAT     H116059   2.459   1.107   3.235
 5180WAT     H216060   2.412   1.112   3.379
 5181WAT      O16061   2.302   0.747   3.290
 5181WAT     H116062   2.239   0.795   3.345
 5181WAT     H216063   2.314   0.663   3.335
 5182WAT      O16064   3.435   1.066   4.816
 5182WAT     H116065   3.514   1.015   4.798
 5182WAT     H216066   3.464   1.133   4.878
 5183WAT      O16067   2.861   0.330   2.093
 5183WAT     H116068   2.783   0.282   2.123
 5183WAT     H216069   2.926   0.262   2.076
 5184WAT      O16070   2.262   0.363   2.181
 5184WAT     H116071   2.179   0.335   2.221
 5184WAT     H216072   2.323   0.369   2.254
 5185WAT      O16073   3.263   0.771   1.971
 5185WAT     H116074   3.217   0.694   2.003
 5185WAT     H216075   3.344   0.774   2.022
 5186WAT      O16076   2.261   0.765   2.201
 5186WAT     H116077   2.291   0.676   2.183
 5186WAT     H216078   2.335   0.821   2.178
 5187WAT      O16079   2.886   1.001   1.935
 5187WAT     H116080   2.824   1.044   1.876
 5187WAT     H216081   2.971   1.015   1.893
 5188WAT      O16082   2.804   0.598   2.094
 5188WAT     H116083   2.799   0.503   2.078
 5188WAT     H216084   2.880   0.608   2.151
 5189WAT      O16085   2.972   0.488   1.672
 5189WAT     H116086   2.910   0.534   1.616
 5189WAT     H216087   3.022   0.558   1.715
 5190WAT      O16088   2.460   0.441   2.342
 5190WAT     H116089   2.425   0.503   2.405
 5190WAT     H216090   2.476   0.494   2.263
 5191WAT      O16091   2.381   0.637   2.522
 5191WAT     H116092   2.442   0.706   2.494
 5191WAT     H216093   2.294   0.677   2.513
 5192WAT      O16094   1.909   0.556   1.410
 5192WAT     H116095   1.871   0.605   1.337
 5192WAT     H216096   1.935   0.624   1.473
 5193WAT      O16097   3.472   0.784   2.314
 5193WAT     H116098   3.403   0.851   2.313
 5193WAT     H216099   3.525   0.804   2.237
 5194WAT      O16100   3.225   0.968   2.185
 5194WAT     H116101   3.226   0.928   2.098
 5194WAT     H216102   3.170   1.046   2.175
 5195WAT      O16103   3.355   0.640   1.694
 5195WAT     H116104   3.344   0.546   1.707
 5195WAT     H216105   3.353   0.677   1.783
 5196WAT      O16106   3.165   0.460   2.318
 5196WAT     H116107   3.208   0.437   2.235
 5196WAT     H216108   3.237   0.484   2.376
 5197WAT      O16109   2.909   0.203   1.630
 5197WAT     H116110   2.816   0.197   1.653
 5197WAT     H216111   2.925   0.297   1.618
 5198WAT      O16112   3.560   0.298   2.327
 5198WAT     H116113   3.477   0.305   2.280
 5198WAT     H216114   3.619   0.357   2.280
 5199WAT      O16115   3.312   0.359   1.680
 5199WAT     H116116   3.250   0.326   1.615
 5199WAT     H216117   3.310   0.295   1.751
 5200WAT      O16118   2.469   0.256   1.908
 5200WAT     H116119   2.429   0.185   1.858
 5200WAT     H216120   2.478   0.221   1.997
 5201WAT      O16121   2.516   0.623   2.125
 5201WAT     H116122   2.486   0.564   2.055
 5201WAT     H216123   2.611   0.628   2.113
 5202WAT      O16124   3.325   0.982   2.491
 5202WAT     H116125   3.278   1.062   2.470
 5202WAT     H216126   3.256   0.916   2.506
 5203WAT      O16127   2.426   0.598   2.789
 5203WAT     H116128   2.336   0.621   2.814
 5203WAT     H216129   2.427   0.611   2.694
 5204WAT      O16130   3.130   0.283   1.381
 5204WAT     H116131   3.173   0.199   1.366
 5204WAT     H216132   3.201   0.346   1.388
 5205WAT      O16133   2.308   0.285   2.647
 5205WAT     H116134   2.294   0.373   2.683
 5205WAT     H216135   2.220   0.251   2.632
 5206WAT      O16136   2.940   0.776   1.778
 5206WAT     H116137   2.984   0.851   1.736
 5206WAT     H216138   2.934   0.801   1.870
 5207WAT      O16139   2.488   0.880   2.868
 5207WAT     H116140   2.485   0.920   2.781
 5207WAT     H216141   2.472   0.787   2.852
 5208WAT      O16142   3.683   0.958   2.997
 5208WAT     H116143   3.731   1.006   3.065
 5208WAT     H216144   3.745   0.951   2.925
 5209WAT      O16145   1.903   0.462   2.239
 5209WAT     H116146   1.911   0.476   2.144
 5209WAT     H216147   1.965   0.392   2.258
 5210WAT      O16148   2.027   0.631   1.879
 5210WAT     H116149   1.988   0.648   1.794
 5210WAT     H216150   2.117   0.604   1.859
 5211WAT      O16151   3.622   0.676   2.713
 5211WAT     H116152   3.637   0.652   2.622
 5211WAT     H216153   3.628   0.594   2.761
 5212WAT      O16154   3.010   1.047   2.571
 5212WAT     H116155   3.061   1.038   2.652
 5212WAT     H216156   2.926   1.081   2.600
 5213WAT      O16157   3.206   1.076   1.513
 5213WAT     H116158   3.191   1.047   1.603
 5213WAT     H216159   3.192   0.998   1.460
 5214WAT      O16160   2.454   1.054   1.691
 5214WAT     H116161   2.437   0.962   1.670
 5214WAT     H216162   2.369   1.090   1.715
 5215WAT      O16163   3.177   0.828   1.369
 5215WAT     H116164   3.108   0.827   1.303
 5215WAT     H216165   3.251   0.785   1.326
 5216WAT      O16166   3.133   0.989   1.777
 5216WAT     H116167   3.180   0.911   1.808
 5216WAT     H216168   3.168   1.060   1.831
 5217WAT      O16169   1.909   0.568   2.493
 5217WAT     H116170   1.924   0.520   2.411
 5217WAT     H216171   1.955   0.516   2.559
 5218WAT      O16172   2.067   0.503   2.709
 5218WAT     H116173   2.027   0.440   2.768
 5218WAT     H216174   2.097   0.574   2.766
 5219WAT      O16175   2.681   0.189   2.257
 5219WAT     H116176   2.718   0.141   2.331
 5219WAT     H216177   2.662   0.276   2.292
 5220WAT      O16178   2.313   0.514   1.548
 5220WAT     H116179   2.237   0.459   1.533
 5220WAT     H216180   2.387   0.462   1.514
 5221WAT      O16181   3.388   0.413   2.127
 5221WAT     H116182   3.461   0.463   2.088
 5221WAT     H216183   3.369   0.345   2.063
 5222WAT      O16184   2.927   0.420   2.717
 5222WAT     H116185   2.920   0.328   2.691
 5222WAT     H216186   2.864   0.430   2.788
 5223WAT      O16187   2.317   0.481   1.913
 5223WAT     H116188   2.369   0.400   1.906
 5223WAT     H216189   2.272   0.473   1.997
 5224WAT      O16190   2.806   0.607   1.439
 5224WAT     H116191   2.840   0.682   1.390
 5224WAT     H216192   2.723   0.638   1.475
 5225WAT      O16193   2.386   0.222   2.892
 5225WAT     H116194   2.356   0.237   2.802
 5225WAT     H216195   2.464   0.167   2.883
 5226WAT      O16196   2.920   0.702   2.690
 5226WAT     H116197   2.921   0.608   2.670
 5226WAT     H216198   2.850   0.711   2.755
 5227WAT      O16199   3.542   0.368   2.626
 5227WAT     H116200   3.468   0.426   2.606
 5227WAT     H216201   3.593   0.365   2.546
 5228WAT      O16202   3.537   0.806   1.590
 5228WAT     H116203   3.472   0.741   1.618
 5228WAT     H216204   3.498   0.847   1.513
 5229WAT      O16205   3.095   0.539   1.976
 5229WAT     H116206   3.129   0.479   1.910
 5229WAT     H216207   3.006   0.507   1.993
 5230WAT      O16208   2.702   0.615   1.717
 5230WAT     H116209   2.772   0.670   1.753
 5230WAT     H216210   2.624   0.670   1.720
 5231WAT      O16211   1.917   0.177   1.265
 5231WAT     H116212   2.004   0.205   1.295
 5231WAT     H216213   1.868   0.258   1.254
 5232WAT      O16214   2.634   0.315   1.679
 5232WAT     H116215   2.679   0.397   1.700
 5232WAT     H216216   2.598   0.285   1.762
 5233WAT      O16217   2.864   0.867   2.400
 5233WAT     H116218   2.928   0.888   2.468
 5233WAT     H216219   2.900   0.791   2.356
 5234WAT      O16220   2.991   0.667   2.272
 5234WAT     H116221   3.055   0.597   2.284
 5234WAT     H216222   3.044   0.745   2.254
 5235WAT      O16223   3.374   0.696   1.245
 5235WAT     H116224   3.353   0.623   1.304
 5235WAT     H216225   3.337   0.670   1.161
 5236WAT      O16226   3.168   0.748   2.593
 5236WAT     H116227   3.202   0.806   2.661
 5236WAT     H216228   3.077   0.734   2.616
 5237WAT      O16229   1.954   1.098   1.322
 5237WAT     H116230   1.990   1.159   1.257
 5237WAT     H216231   1.940   1.153   1.400
 5238WAT      O16232   3.333   0.486   1.412
 5238WAT     H116233   3.305   0.533   1.490
 5238WAT     H216234   3.414   0.441   1.438
 5239WAT      O16235   1.953   0.925   2.769
 5239WAT     H116236   1.963   0.831   2.756
 5239WAT     H216237   1.886   0.951   2.705
 5240WAT      O16238   2.751   0.751   2.910
 5240WAT     H116239   2.719   0.680   2.964
 5240WAT     H216240   2.684   0.819   2.916
 5241WAT      O16241   2.555   0.837   1.404
 5241WAT     H116242   2.555   0.910   1.342
 5241WAT     H216243   2.463   0.811   1.413
 5242WAT      O16244   2.115   0.359   1.478
 5242WAT     H116245   2.054   0.433   1.478
 5242WAT     H216246   2.163   0.368   1.395
 5243WAT      O16247   2.854   0.842   1.270
 5243WAT     H116248   2.864   0.822   1.177
 5243WAT     H216249   2.764   0.817   1.291
 5244WAT      O16250   2.718   1.096   1.740
 5244WAT     H116251   2.744   1.091   1.648
 5244WAT     H216252   2.623   1.082   1.738
 5245WAT      O16253   2.315   0.354   1.254
 5245WAT     H116254   2.393   0.344   1.310
 5245WAT     H216255   2.324   0.286   1.187
 5246WAT      O16256   3.519   0.904   2.064
 5246WAT     H116257   3.532   0.986   2.112
 5246WAT     H216258   3.606   0.883   2.030
 5247WAT      O16259   2.266   1.113   2.033
 5247WAT     H116260   2.340   1.058   2.059
 5247WAT     H216261   2.305   1.199   2.018
 5248WAT      O16262   1.954   0.720   1.620
 5248WAT     H116263   1.862   0.745   1.618
 5248WAT     H216264   2.001   0.802   1.607
 5249WAT      O16265   2.167   1.031   2.951
 5249WAT     H116266   2.247   1.063   2.993
 5249WAT     H216267   2.115   0.995   3.023
 5250WAT      O16268   2.576   1.029   1.214
 5250WAT     H116269   2.656   1.060   1.170
 5250WAT     H216270   2.525   0.987   1.145
 5251WAT      O16271   3.051   0.642   2.946
 5251WAT     H116272   2.990   0.644   2.871
 5251WAT     H216273   3.020   0.569   2.999
 5252WAT      O16274   3.193   1.016   2.806
 5252WAT     H116275   3.289   1.006   2.802
 5252WAT     H216276   3.178   1.080   2.875
 5253WAT      O16277   3.482   0.953   1.357
 5253WAT     H116278   3.454   0.912   1.275
 5253WAT     H216279   3.463   1.046   1.345
 5254WAT      O16280   1.940   0.281   2.846
 5254WAT     H116281   1.989   0.221   2.902
 5254WAT     H216282   1.864   0.308   2.898
 5255WAT      O16283   2.629   0.552   1.200
 5255WAT     H116284   2.618   0.491   1.273
 5255WAT     H216285   2.612   0.499   1.122
 5256WAT      O16286   2.644   0.422   2.798
 5256WAT     H116287   2.567   0.478   2.790
 5256WAT     H216288   2.662   0.392   2.709
 5257WAT      O16289   2.953   0.458   1.261
 5257WAT     H116290   2.898   0.503   1.325
 5257WAT     H216291   3.015   0.408   1.313
 5258WAT      O16292   3.358   0.595   2.855
 5258WAT     H116293   3.432   0.628   2.804
 5258WAT     H216294   3.282   0.611   2.799
 5259WAT      O16295   2.519   0.353   1.450
 5259WAT     H116296   2.562   0.339   1.534
 5259WAT     H216297   2.533   0.273   1.401
 5260WAT      O16298   2.771   0.257   1.175
 5260WAT     H116299   2.823   0.185   1.139
 5260WAT     H216300   2.836   0.321   1.205
 5261WAT      O16301   3.225   0.399   2.708
 5261WAT     H116302   3.267   0.414   2.792
 5261WAT     H216303   3.132   0.412   2.724
 5262WAT      O16304   2.702   0.394   2.506
 5262WAT     H116305   2.744   0.478   2.488
 5262WAT     H216306   2.610   0.408   2.481
 5263WAT      O16307   3.168   0.223   2.501
 5263WAT     H116308   3.118   0.276   2.440
 5263WAT     H216309   3.204   0.286   2.564
 5264WAT      O16310   2.488   1.026   2.616
 5264WAT     H116311   2.432   1.097   2.584
 5264WAT     H216312   2.512   0.976   2.538
 5265WAT      O16313   2.772   1.148   2.642
 5265WAT     H116314   2.765   1.238   2.673
 5265WAT     H216315   2.682   1.116   2.639
 5266WAT      O16316   2.827   1.066   1.404
 5266WAT     H116317   2.917   1.099   1.407
 5266WAT     H216318   2.831   0.993   1.343
 5267WAT      O16319   2.191   0.602   1.226
 5267WAT     H116320   2.234   0.656   1.292
 5267WAT     H216321   2.240   0.519   1.228
 5268WAT      O16322   1.912   0.881   1.973
 5268WAT     H116323   1.947   0.794   1.950
 5268WAT     H216324   1.956   0.902   2.056
 5269WAT      O16325   2.373   0.714   1.739
 5269WAT     H116326   2.342   0.701   1.829
 5269WAT     H216327   2.362   0.629   1.698
 5270WAT      O16328   1.961   0.968   2.246
 5270WAT     H116329   1.918   0.986   2.330
 5270WAT     H216330   2.018   1.044   2.232
 5271WAT      O16331   3.525   0.919   2.675
 5271WAT     H116332   3.464   0.924   2.601
 5271WAT     H216333   3.539   0.825   2.688
 5272WAT      O16334   3.650   0.692   1.210
 5272WAT     H116335   3.565   0.699   1.255
 5272WAT     H216336   3.667   0.781   1.178
 5273WAT      O16337   3.594   0.367   1.459
 5273WAT     H116338   3.671   0.423   1.469
 5273WAT     H216339   3.596   0.310   1.536
 5274WAT      O16340   1.945   0.220   1.881
 5274WAT     H116341   1.880   0.191   1.818
 5274WAT     H216342   2.029   0.207   1.837
 5275WAT      O16343   3.696   0.453   1.944
 5275WAT     H116344   3.733   0.374   1.904
 5275WAT     H216345   3.760   0.521   1.926
 5276WAT      O16346   3.393   0.590   2.485
 5276WAT     H116347   3.312   0.633   2.511
 5276WAT     H216348   3.435   0.652   2.424
 5277WAT      O16349   3.602   0.396   1.175
 5277WAT     H116350   3.627   0.487   1.162
 5277WAT     H216351   3.581   0.389   1.268
 5278WAT      O16352   2.049   0.257   2.336
 5278WAT     H116353   2.085   0.249   2.424
 5278WAT     H216354   1.992   0.181   2.326
 5279WAT      O16355   3.400   1.066   1.839
 5279WAT     H116356   3.459   1.033   1.770
 5279WAT     H216357   3.425   1.017   1.917
 5280WAT      O16358   2.190   0.709   2.853
 5280WAT     H116359   2.186   0.672   2.941
 5280WAT     H216360   2.203   0.803   2.867
 5281WAT      O16361   2.560   0.864   2.413
 5281WAT     H116362   2.536   0.890   2.324
 5281WAT     H216363   2.654   0.880   2.418
 5282WAT      O16364   3.687   1.065   2.492
 5282WAT     H116365   3.636   1.106   2.421
 5282WAT     H216366   3.625   1.005   2.533
 5283WAT      O16367   2.174   1.003   2.564
 5283WAT     H116368   2.115   0.990   2.639
 5283WAT     H216369   2.173   0.920   2.518
 5284WAT      O16370   3.455   1.131   2.220
 5284WAT     H116371   3.409   1.206   2.183
 5284WAT     H216372   3.391   1.060   2.216
 5285WAT      O16373   2.137   0.741   2.460
 5285WAT     H116374   2.065   0.678   2.454
 5285WAT     H216375   2.143   0.779   2.372
 5286WAT      O16376   2.498   0.961   2.139
 5286WAT     H116377   2.549   0.900   2.086
 5286WAT     H216378   2.563   1.013   2.186
 5287WAT      O16379   2.772   1.050   2.221
 5287WAT     H116380   2.801   1.025   2.133
 5287WAT     H216381   2.823   0.995   2.280
 5288WAT      O16382   1.966   1.072   1.781
 5288WAT     H116383   1.949   1.008   1.850
 5288WAT     H216384   1.879   1.092   1.745
 5289WAT      O16385   2.125   0.940   1.526
 5289WAT     H116386   2.074   0.979   1.455
 5289WAT     H216387   2.119   1.004   1.597
 5290WAT      O16388   2.778   1.143   2.957
 5290WAT     H116389   2.871   1.119   2.962
 5290WAT     H216390   2.777   1.225   2.909
 5291WAT      O16391   3.602   1.097   1.657
 5291WAT     H116392   3.619   1.027   1.593
 5291WAT     H216393   3.533   1.149   1.617
 5292WAT      O16394   2.387   1.137   1.412
 5292WAT     H116395   2.459   1.107   1.358
 5292WAT     H216396   2.412   1.112   1.501
 5293WAT      O16397   2.302   0.747   1.413
 5293WAT     H116398   2.239   0.795   1.468
 5293WAT     H216399   2.314   0.663   1.457
 5294WAT      O16400   3.435   1.066   2.939
 5294WAT     H116401   3.514   1.016   2.920
 5294WAT     H216402   3.464   1.133   3.001
 5295WAT      O16403   2.860   0.330   0.215
 5295WAT     H116404   2.783   0.282   0.245
 5295WAT     H216405   2.926   0.262   0.199
 5296WAT      O16406   2.262   0.363   0.304
 5296WAT     H116407   2.179   0.335   0.344
 5296WAT     H216408   2.323   0.369   0.377
 5297WAT      O16409   2.261   0.765   0.324
 5297WAT     H116410   2.291   0.676   0.306
 5297WAT     H216411   2.335   0.821   0.301
 5298WAT      O16412   2.804   0.598   0.217
 5298WAT     H116413   2.799   0.504   0.201
 5298WAT     H216414   2.880   0.608   0.274
 5299WAT      O16415   2.460   0.441   0.464
 5299WAT     H116416   2.425   0.503   0.527
 5299WAT     H216417   2.476   0.494   0.385
 5300WAT      O16418   2.381   0.637   0.645
 5300WAT     H116419   2.442   0.706   0.617
 5300WAT     H216420   2.294   0.677   0.636
 5301WAT      O16421   3.471   0.784   0.436
 5301WAT     H116422   3.403   0.851   0.435
 5301WAT     H216423   3.526   0.804   0.360
 5302WAT      O16424   3.225   0.968   0.308
 5302WAT     H116425   3.226   0.928   0.221
 5302WAT     H216426   3.170   1.046   0.298
 5303WAT      O16427   3.165   0.460   0.440
 5303WAT     H116428   3.208   0.437   0.358
 5303WAT     H216429   3.237   0.484   0.498
 5304WAT      O16430   3.560   0.298   0.449
 5304WAT     H116431   3.477   0.305   0.403
 5304WAT     H216432   3.619   0.357   0.404
 5305WAT      O16433   2.516   0.624   0.247
 5305WAT     H116434   2.486   0.564   0.179
 5305WAT     H216435   2.611   0.628   0.236
 5306WAT      O16436   3.325   0.981   0.613
 5306WAT     H116437   3.278   1.062   0.594
 5306WAT     H216438   3.256   0.916   0.628
 5307WAT      O16439   2.426   0.598   0.912
 5307WAT     H116440   2.336   0.621   0.937
 5307WAT     H216441   2.427   0.611   0.817
 5308WAT      O16442   2.308   0.285   0.770
 5308WAT     H116443   2.294   0.373   0.805
 5308WAT     H216444   2.220   0.251   0.755
 5309WAT      O16445   2.488   0.880   0.990
 5309WAT     H116446   2.485   0.920   0.904
 5309WAT     H216447   2.472   0.787   0.974
 5310WAT      O16448   3.683   0.958   1.120
 5310WAT     H116449   3.731   1.006   1.188
 5310WAT     H216450   3.745   0.951   1.047
 5311WAT      O16451   1.902   0.462   0.361
 5311WAT     H116452   1.912   0.476   0.267
 5311WAT     H216453   1.965   0.392   0.381
 5312WAT      O16454   3.622   0.676   0.836
 5312WAT     H116455   3.637   0.653   0.744
 5312WAT     H216456   3.628   0.593   0.883
 5313WAT      O16457   3.010   1.047   0.693
 5313WAT     H116458   3.061   1.038   0.774
 5313WAT     H216459   2.926   1.081   0.722
 5314WAT      O16460   1.909   0.568   0.615
 5314WAT     H116461   1.924   0.520   0.533
 5314WAT     H216462   1.955   0.516   0.682
 5315WAT      O16463   2.067   0.503   0.831
 5315WAT     H116464   2.028   0.440   0.891
 5315WAT     H216465   2.097   0.574   0.888
 5316WAT      O16466   2.682   0.189   0.379
 5316WAT     H116467   2.718   0.141   0.454
 5316WAT     H216468   2.661   0.276   0.414
 5317WAT      O16469   3.389   0.413   0.250
 5317WAT     H116470   3.461   0.463   0.211
 5317WAT     H216471   3.369   0.345   0.186
 5318WAT      O16472   2.928   0.420   0.840
 5318WAT     H116473   2.920   0.329   0.813
 5318WAT     H216474   2.863   0.430   0.910
 5319WAT      O16475   2.386   0.222   1.014
 5319WAT     H116476   2.356   0.237   0.925
 5319WAT     H216477   2.463   0.167   1.005
 5320WAT      O16478   2.920   0.702   0.813
 5320WAT     H116479   2.921   0.608   0.793
 5320WAT     H216480   2.850   0.711   0.878
 5321WAT      O16481   3.542   0.368   0.749
 5321WAT     H116482   3.468   0.426   0.728
 5321WAT     H216483   3.593   0.365   0.668
 5322WAT      O16484   2.864   0.867   0.522
 5322WAT     H116485   2.927   0.887   0.591
 5322WAT     H216486   2.900   0.790   0.479
 5323WAT      O16487   2.991   0.667   0.395
 5323WAT     H116488   3.055   0.597   0.407
 5323WAT     H216489   3.044   0.745   0.377
 5324WAT      O16490   3.168   0.748   0.715
 5324WAT     H116491   3.202   0.806   0.783
 5324WAT     H216492   3.077   0.734   0.738
 5325WAT      O16493   1.953   0.925   0.891
 5325WAT     H116494   1.963   0.831   0.878
 5325WAT     H216495   1.886   0.951   0.827
 5326WAT      O16496   2.751   0.751   1.032
 5326WAT     H116497   2.719   0.680   1.087
 5326WAT     H216498   2.684   0.819   1.038
 5327WAT      O16499   2.167   1.031   1.074
 5327WAT     H116500   2.247   1.063   1.115
 5327WAT     H216501   2.115   0.995   1.146
 5328WAT      O16502   3.051   0.642   1.068
 5328WAT     H116503   2.990   0.644   0.994
 5328WAT     H216504   3.020   0.569   1.122
 5329WAT      O16505   3.193   1.016   0.928
 5329WAT     H116506   3.289   1.006   0.925
 5329WAT     H216507   3.178   1.080   0.997
 5330WAT      O16508   1.940   0.281   0.968
 5330WAT     H116509   1.989   0.221   1.025
 5330WAT     H216510   1.864   0.308   1.021
 5331WAT      O16511   2.644   0.422   0.921
 5331WAT     H116512   2.567   0.478   0.913
 5331WAT     H216513   2.661   0.392   0.832
 5332WAT      O16514   3.358   0.595   0.977
 5332WAT     H116515   3.432   0.628   0.926
 5332WAT     H216516   3.282   0.611   0.922
 5333WAT      O16517   3.225   0.399   0.830
 5333WAT     H116518   3.267   0.414   0.914
 5333WAT     H216519   3.132   0.412   0.847
 5334WAT      O16520   2.702   0.394   0.628
 5334WAT     H116521   2.744   0.478   0.610
 5334WAT     H216522   2.610   0.408   0.603
 5335WAT      O16523   3.168   0.223   0.623
 5335WAT     H116524   3.117   0.276   0.563
 5335WAT     H216525   3.204   0.286   0.686
 5336WAT      O16526   2.488   1.026   0.739
 5336WAT     H116527   2.432   1.097   0.707
 5336WAT     H216528   2.511   0.976   0.661
 5337WAT      O16529   2.772   1.148   0.765
 5337WAT     H116530   2.765   1.239   0.795
 5337WAT     H216531   2.682   1.116   0.762
 5338WAT      O16532   1.962   0.967   0.370
 5338WAT     H116533   1.918   0.986   0.452
 5338WAT     H216534   2.018   1.044   0.355
 5339WAT      O16535   3.525   0.919   0.797
 5339WAT     H116536   3.464   0.924   0.723
 5339WAT     H216537   3.539   0.825   0.811
 5340WAT      O16538   3.393   0.590   0.607
 5340WAT     H116539   3.313   0.633   0.634
 5340WAT     H216540   3.435   0.652   0.547
 5341WAT      O16541   2.049   0.257   0.459
 5341WAT     H116542   2.085   0.249   0.547
 5341WAT     H216543   1.992   0.181   0.449
 5342WAT      O16544   2.190   0.709   0.975
 5342WAT     H116545   2.186   0.672   1.064
 5342WAT     H216546   2.203   0.803   0.989
 5343WAT      O16547   2.560   0.864   0.535
 5343WAT     H116548   2.536   0.890   0.446
 5343WAT     H216549   2.654   0.880   0.540
 5344WAT      O16550   3.687   1.065   0.614
 5344WAT     H116551   3.636   1.106   0.544
 5344WAT     H216552   3.625   1.005   0.656
 5345WAT      O16553   2.174   1.003   0.687
 5345WAT     H116554   2.115   0.990   0.761
 5345WAT     H216555   2.173   0.920   0.640
 5346WAT      O16556   3.455   1.131   0.344
 5346WAT     H116557   3.409   1.206   0.306
 5346WAT     H216558   3.392   1.059   0.337
 5347WAT      O16559   2.137   0.741   0.582
 5347WAT     H116560   2.065   0.678   0.576
 5347WAT     H216561   2.143   0.779   0.494
 5348WAT      O16562   2.498   0.960   0.263
 5348WAT     H116563   2.549   0.900   0.208
 5348WAT     H216564   2.563   1.012   0.309
 5349WAT      O16565   2.772   1.051   0.343
 5349WAT     H116566   2.800   1.025   0.256
 5349WAT     H216567   2.822   0.995   0.402
 5350WAT      O16568   2.778   1.143   1.080
 5350WAT     H116569   2.871   1.119   1.084
 5350WAT     H216570   2.777   1.225   1.032
 5351WAT      O16571   3.435   1.066   1.061
 5351WAT     H116572   3.514   1.015   1.043
 5351WAT     H216573   3.464   1.133   1.123
 5352WAT      O16574   1.170   5.785   5.660
 5352WAT     H116575   1.162   5.693   5.633
 5352WAT     H216576   1.129   5.835   5.590
 5353WAT      O16577   0.444   5.348   5.418
 5353WAT     H116578   0.454   5.438   5.449
 5353WAT     H216579   0.353   5.343   5.389
 5354WAT      O16580   1.409   5.260   5.565
 5354WAT     H116581   1.491   5.211   5.569
 5354WAT     H216582   1.412   5.319   5.640
 5355WAT      O16583   0.793   5.029   5.710
 5355WAT     H116584   0.823   4.973   5.639
 5355WAT     H216585   0.700   5.042   5.693
 5356WAT      O16586   1.032   5.835   5.385
 5356WAT     H116587   0.939   5.829   5.407
 5356WAT     H216588   1.047   5.929   5.373
 5357WAT      O16589   1.030   5.461   5.083
 5357WAT     H116590   0.937   5.479   5.094
 5357WAT     H216591   1.062   5.535   5.031
 5358WAT      O16592   0.592   5.888   5.663
 5358WAT     H116593   0.552   5.817   5.613
 5358WAT     H216594   0.601   5.854   5.752
 5359WAT      O16595   1.610   5.041   4.967
 5359WAT     H116596   1.580   5.049   5.057
 5359WAT     H216597   1.686   5.099   4.962
 5360WAT      O16598   0.263   5.777   5.413
 5360WAT     H116599   0.250   5.850   5.352
 5360WAT     H216600   0.230   5.701   5.365
 5361WAT      O16601   0.509   5.112   5.751
 5361WAT     H116602   0.464   5.190   5.718
 5361WAT     H216603   0.564   5.144   5.822
 5362WAT      O16604   0.819   5.074   5.239
 5362WAT     H116605   0.758   5.074   5.312
 5362WAT     H216606   0.811   4.987   5.200
 5363WAT      O16607   0.487   5.624   5.524
 5363WAT     H116608   0.465   5.603   5.614
 5363WAT     H216609   0.410   5.669   5.489
 5364WAT      O16610   1.211   5.625   5.384
 5364WAT     H116611   1.151   5.697   5.366
 5364WAT     H216612   1.266   5.619   5.306
 5365WAT      O16613   1.072   5.489   5.587
 5365WAT     H116614   1.111   5.520   5.506
 5365WAT     H216615   1.107   5.400   5.598
 5366WAT      O16616   0.774   5.415   5.837
 5366WAT     H116617   0.774   5.371   5.752
 5366WAT     H216618   0.863   5.447   5.848
 5367WAT      O16619   0.359   5.403   5.733
 5367WAT     H116620   0.325   5.451   5.808
 5367WAT     H216621   0.282   5.358   5.697
 5368WAT      O16622   0.780   5.514   5.137
 5368WAT     H116623   0.792   5.511   5.232
 5368WAT     H216624   0.741   5.601   5.120
 5369WAT      O16625   0.681   5.746   5.075
 5369WAT     H116626   0.624   5.702   5.012
 5369WAT     H216627   0.751   5.783   5.022
 5370WAT      O16628   1.058   5.185   5.296
 5370WAT     H116629   0.976   5.135   5.289
 5370WAT     H216630   1.039   5.269   5.255
 5371WAT      O16631   1.329   5.622   5.126
 5371WAT     H116632   1.417   5.653   5.109
 5371WAT     H216633   1.326   5.534   5.087
 5372WAT      O16634   1.557   5.752   5.072
 5372WAT     H116635   1.548   5.796   4.988
 5372WAT     H216636   1.628   5.799   5.116
 5373WAT      O16637   0.346   4.981   5.480
 5373WAT     H116638   0.333   4.981   5.575
 5373WAT     H216639   0.264   5.016   5.445
 5374WAT      O16640   1.532   5.303   5.282
 5374WAT     H116641   1.469   5.313   5.210
 5374WAT     H216642   1.482   5.324   5.361
 5375WAT      O16643   0.729   5.531   5.423
 5375WAT     H116644   0.658   5.578   5.467
 5375WAT     H216645   0.758   5.465   5.487
 5376WAT      O16646   1.133   5.203   5.567
 5376WAT     H116647   1.119   5.205   5.472
 5376WAT     H216648   1.228   5.208   5.578
 5377WAT      O16649   0.549   5.362   5.160
 5377WAT     H116650   0.634   5.405   5.154
 5377WAT     H216651   0.513   5.393   5.244
 5378WAT      O16652   1.441   5.819   5.652
 5378WAT     H116653   1.347   5.820   5.670
 5378WAT     H216654   1.474   5.741   5.697
 5379WAT      O16655   0.309   5.731   5.078
 5379WAT     H116656   0.316   5.636   5.087
 5379WAT     H216657   0.398   5.763   5.087
 5380WAT      O16658   0.893   5.888   4.930
 5380WAT     H116659   0.946   5.817   4.894
 5380WAT     H216660   0.958   5.953   4.960
 5381WAT      O16661   0.532   5.593   4.900
 5381WAT     H116662   0.512   5.507   4.936
 5381WAT     H216663   0.514   5.585   4.806
 5382WAT      O16664   1.280   5.075   5.153
 5382WAT     H116665   1.308   4.991   5.189
 5382WAT     H216666   1.202   5.099   5.204
 5383WAT      O16667   0.413   5.305   4.898
 5383WAT     H116668   0.443   5.304   4.808
 5383WAT     H216669   0.485   5.269   4.949
 5384WAT      O16670   0.734   5.198   4.997
 5384WAT     H116671   0.698   5.131   4.940
 5384WAT     H216672   0.754   5.153   5.079
 5385WAT      O16673   1.363   5.330   5.059
 5385WAT     H116674   1.404   5.312   4.975
 5385WAT     H216675   1.331   5.245   5.090
 5386WAT      O16676   1.712   5.822   5.429
 5386WAT     H116677   1.675   5.745   5.386
 5386WAT     H216678   1.639   5.860   5.478
 5387WAT      O16679   1.639   5.643   5.760
 5387WAT     H116680   1.692   5.596   5.696
 5387WAT     H216681   1.698   5.658   5.833
 5388WAT      O16682   0.243   5.479   5.022
 5388WAT     H116683   0.314   5.434   4.974
 5388WAT     H216684   0.172   5.485   4.959
 5389WAT      O16685   0.207   5.083   4.926
 5389WAT     H116686   0.279   5.137   4.959
 5389WAT     H216687   0.235   5.056   4.838
 5390WAT      O16688   1.590   5.570   5.353
 5390WAT     H116689   1.638   5.546   5.432
 5390WAT     H216690   1.569   5.486   5.311
 5391WAT      O16691   1.732   5.434   5.606
 5391WAT     H116692   1.721   5.418   5.700
 5391WAT     H216693   1.808   5.382   5.582
 5392WAT      O16694   1.821   5.216   4.931
 5392WAT     H116695   1.913   5.204   4.910
 5392WAT     H216696   1.818   5.226   5.026
 5393WAT      O16697   1.828   5.293   5.194
 5393WAT     H116698   1.748   5.287   5.246
 5393WAT     H216699   1.848   5.387   5.192
 5394WAT      O16700   1.470   5.127   5.838
 5394WAT     H116701   1.515   5.121   5.754
 5394WAT     H216702   1.445   5.219   5.845
 5395WAT      O16703   1.658   5.091   5.639
 5395WAT     H116704   1.651   4.996   5.624
 5395WAT     H216705   1.735   5.100   5.694
 5396WAT      O16706   0.804   5.299   5.586
 5396WAT     H116707   0.723   5.260   5.550
 5396WAT     H216708   0.855   5.223   5.615
 5397WAT      O16709   1.255   4.965   5.708
 5397WAT     H116710   1.315   5.022   5.756
 5397WAT     H216711   1.181   5.021   5.686
 5398WAT      O16712   1.569   5.005   5.237
 5398WAT     H116713   1.588   5.095   5.263
 5398WAT     H216714   1.490   4.982   5.284
 5399WAT      O16715   0.388   5.140   5.140
 5399WAT     H116716   0.441   5.061   5.128
 5399WAT     H216717   0.451   5.208   5.162
 5400WAT      O16718   0.607   5.114   5.445
 5400WAT     H116719   0.544   5.044   5.462
 5400WAT     H216720   0.553   5.190   5.424
 5401WAT      O16721   1.169   5.785   3.783
 5401WAT     H116722   1.162   5.693   3.756
 5401WAT     H216723   1.129   5.834   3.712
 5402WAT      O16724   0.983   5.963   3.971
 5402WAT     H116725   0.906   5.915   4.000
 5402WAT     H216726   1.049   5.895   3.954
 5403WAT      O16727   1.030   5.511   3.994
 5403WAT     H116728   1.069   5.425   3.984
 5403WAT     H216729   1.022   5.545   3.904
 5404WAT      O16730   0.444   5.348   3.541
 5404WAT     H116731   0.454   5.438   3.571
 5404WAT     H216732   0.353   5.343   3.511
 5405WAT      O16733   1.409   5.260   3.688
 5405WAT     H116734   1.491   5.211   3.692
 5405WAT     H216735   1.412   5.319   3.763
 5406WAT      O16736   0.209   5.539   4.064
 5406WAT     H116737   0.277   5.567   4.126
 5406WAT     H216738   0.177   5.456   4.099
 5407WAT      O16739   0.628   5.645   3.974
 5407WAT     H116740   0.680   5.695   4.037
 5407WAT     H216741   0.681   5.567   3.956
 5408WAT      O16742   1.837   5.462   4.344
 5408WAT     H116743   1.767   5.502   4.292
 5408WAT     H216744   1.865   5.532   4.404
 5409WAT      O16745   0.456   5.108   4.400
 5409WAT     H116746   0.456   5.161   4.321
 5409WAT     H216747   0.373   5.061   4.398
 5410WAT      O16748   1.433   5.454   3.965
 5410WAT     H116749   1.362   5.483   4.023
 5410WAT     H216750   1.469   5.535   3.929
 5411WAT      O16751   0.424   5.280   4.200
 5411WAT     H116752   0.458   5.365   4.172
 5411WAT     H216753   0.330   5.295   4.213
 5412WAT      O16754   1.739   5.399   4.004
 5412WAT     H116755   1.644   5.402   4.017
 5412WAT     H216756   1.772   5.480   4.043
 5413WAT      O16757   0.793   5.029   3.833
 5413WAT     H116758   0.823   4.973   3.762
 5413WAT     H216759   0.700   5.042   3.815
 5414WAT      O16760   1.032   5.835   3.508
 5414WAT     H116761   0.939   5.829   3.530
 5414WAT     H216762   1.047   5.929   3.496
 5415WAT      O16763   1.030   5.462   3.205
 5415WAT     H116764   0.937   5.479   3.216
 5415WAT     H216765   1.062   5.535   3.153
 5416WAT      O16766   1.379   5.610   4.299
 5416WAT     H116767   1.337   5.692   4.324
 5416WAT     H216768   1.306   5.551   4.280
 5417WAT      O16769   0.592   5.888   3.785
 5417WAT     H116770   0.551   5.817   3.736
 5417WAT     H216771   0.601   5.854   3.874
 5418WAT      O16772   0.464   5.564   4.164
 5418WAT     H116773   0.517   5.577   4.086
 5418WAT     H216774   0.514   5.604   4.235
 5419WAT      O16775   1.610   5.041   3.090
 5419WAT     H116776   1.580   5.049   3.180
 5419WAT     H216777   1.686   5.099   3.085
 5420WAT      O16778   0.263   5.777   3.535
 5420WAT     H116779   0.250   5.850   3.474
 5420WAT     H216780   0.230   5.701   3.487
 5421WAT      O16781   1.732   5.515   4.687
 5421WAT     H116782   1.670   5.566   4.635
 5421WAT     H216783   1.699   5.425   4.682
 5422WAT      O16784   0.509   5.112   3.873
 5422WAT     H116785   0.464   5.190   3.840
 5422WAT     H216786   0.564   5.144   3.945
 5423WAT      O16787   0.937   5.399   4.434
 5423WAT     H116788   0.890   5.419   4.515
 5423WAT     H216789   0.897   5.317   4.404
 5424WAT      O16790   1.437   5.520   4.547
 5424WAT     H116791   1.352   5.491   4.579
 5424WAT     H216792   1.421   5.545   4.456
 5425WAT      O16793   1.146   5.671   4.756
 5425WAT     H116794   1.179   5.587   4.724
 5425WAT     H216795   1.226   5.722   4.773
 5426WAT      O16796   0.820   5.074   3.361
 5426WAT     H116797   0.757   5.074   3.434
 5426WAT     H216798   0.811   4.987   3.323
 5427WAT      O16799   0.713   5.166   4.060
 5427WAT     H116800   0.741   5.257   4.051
 5427WAT     H216801   0.767   5.118   3.998
 5428WAT      O16802   0.487   5.623   3.646
 5428WAT     H116803   0.465   5.603   3.737
 5428WAT     H216804   0.410   5.669   3.612
 5429WAT      O16805   1.211   5.624   3.506
 5429WAT     H116806   1.151   5.697   3.488
 5429WAT     H216807   1.266   5.619   3.428
 5430WAT      O16808   0.732   5.714   4.712
 5430WAT     H116809   0.722   5.620   4.698
 5430WAT     H216810   0.817   5.736   4.674
 5431WAT      O16811   1.072   5.489   3.710
 5431WAT     H116812   1.111   5.520   3.628
 5431WAT     H216813   1.107   5.400   3.720
 5432WAT      O16814   0.245   5.356   4.528
 5432WAT     H116815   0.205   5.440   4.549
 5432WAT     H216816   0.177   5.291   4.547
 5433WAT      O16817   0.902   5.364   4.836
 5433WAT     H116818   0.833   5.343   4.899
 5433WAT     H216819   0.977   5.392   4.889
 5434WAT      O16820   1.130   5.747   4.120
 5434WAT     H116821   1.057   5.798   4.154
 5434WAT     H216822   1.090   5.666   4.089
 5435WAT      O16823   0.774   5.415   3.959
 5435WAT     H116824   0.775   5.372   3.873
 5435WAT     H216825   0.863   5.447   3.970
 5436WAT      O16826   0.359   5.402   3.855
 5436WAT     H116827   0.325   5.452   3.930
 5436WAT     H216828   0.282   5.358   3.819
 5437WAT      O16829   0.780   5.515   3.259
 5437WAT     H116830   0.792   5.511   3.354
 5437WAT     H216831   0.741   5.601   3.243
 5438WAT      O16832   1.176   5.293   4.060
 5438WAT     H116833   1.178   5.338   4.145
 5438WAT     H216834   1.151   5.203   4.081
 5439WAT      O16835   0.681   5.746   3.198
 5439WAT     H116836   0.624   5.702   3.135
 5439WAT     H216837   0.751   5.783   3.145
 5440WAT      O16838   1.519   5.034   4.644
 5440WAT     H116839   1.551   4.961   4.697
 5440WAT     H216840   1.522   5.002   4.554
 5441WAT      O16841   0.804   5.821   4.134
 5441WAT     H116842   0.840   5.774   4.209
 5441WAT     H216843   0.785   5.909   4.168
 5442WAT      O16844   0.583   5.725   4.366
 5442WAT     H116845   0.552   5.813   4.388
 5442WAT     H216846   0.678   5.731   4.370
 5443WAT      O16847   1.058   5.185   3.419
 5443WAT     H116848   0.976   5.135   3.412
 5443WAT     H216849   1.038   5.269   3.378
 5444WAT      O16850   1.329   5.622   3.249
 5444WAT     H116851   1.417   5.653   3.231
 5444WAT     H216852   1.326   5.534   3.210
 5445WAT      O16853   0.188   5.809   4.481
 5445WAT     H116854   0.153   5.876   4.539
 5445WAT     H216855   0.159   5.726   4.518
 5446WAT      O16856   0.508   5.855   4.769
 5446WAT     H116857   0.479   5.870   4.679
 5446WAT     H216858   0.586   5.800   4.760
 5447WAT      O16859   1.557   5.752   3.195
 5447WAT     H116860   1.548   5.796   3.111
 5447WAT     H216861   1.628   5.799   3.239
 5448WAT      O16862   0.346   4.982   3.602
 5448WAT     H116863   0.333   4.981   3.697
 5448WAT     H216864   0.264   5.016   3.567
 5449WAT      O16865   1.194   5.407   4.323
 5449WAT     H116866   1.232   5.326   4.356
 5449WAT     H216867   1.109   5.413   4.365
 5450WAT      O16868   1.532   5.303   3.404
 5450WAT     H116869   1.469   5.313   3.333
 5450WAT     H216870   1.482   5.324   3.483
 5451WAT      O16871   0.729   5.531   3.546
 5451WAT     H116872   0.658   5.578   3.590
 5451WAT     H216873   0.757   5.465   3.609
 5452WAT      O16874   0.890   5.673   4.346
 5452WAT     H116875   0.942   5.720   4.412
 5452WAT     H216876   0.906   5.580   4.366
 5453WAT      O16877   1.132   5.203   3.690
 5453WAT     H116878   1.119   5.205   3.595
 5453WAT     H216879   1.227   5.208   3.701
 5454WAT      O16880   0.549   5.362   3.283
 5454WAT     H116881   0.634   5.405   3.277
 5454WAT     H216882   0.513   5.393   3.366
 5455WAT      O16883   1.613   5.295   4.430
 5455WAT     H116884   1.562   5.369   4.464
 5455WAT     H216885   1.694   5.333   4.398
 5456WAT      O16886   1.441   5.820   3.775
 5456WAT     H116887   1.347   5.820   3.792
 5456WAT     H216888   1.473   5.741   3.819
 5457WAT      O16889   0.309   5.731   3.201
 5457WAT     H116890   0.316   5.636   3.209
 5457WAT     H216891   0.398   5.763   3.210
 5458WAT      O16892   0.264   5.726   4.811
 5458WAT     H116893   0.267   5.698   4.903
 5458WAT     H216894   0.349   5.767   4.796
 5459WAT      O16895   0.459   5.584   4.609
 5459WAT     H116896   0.404   5.536   4.546
 5459WAT     H216897   0.525   5.627   4.555
 5460WAT      O16898   0.894   5.888   3.053
 5460WAT     H116899   0.946   5.817   3.016
 5460WAT     H216900   0.958   5.953   3.083
 5461WAT      O16901   1.396   5.765   4.786
 5461WAT     H116902   1.454   5.690   4.777
 5461WAT     H216903   1.413   5.818   4.708
 5462WAT      O16904   0.507   5.281   4.617
 5462WAT     H116905   0.498   5.219   4.545
 5462WAT     H216906   0.449   5.353   4.594
 5463WAT      O16907   0.784   5.137   4.320
 5463WAT     H116908   0.739   5.139   4.236
 5463WAT     H216909   0.720   5.097   4.380
 5464WAT      O16910   1.058   5.799   4.521
 5464WAT     H116911   1.070   5.741   4.596
 5464WAT     H216912   1.144   5.803   4.479
 5465WAT      O16913   1.291   5.855   4.379
 5465WAT     H116914   1.240   5.907   4.317
 5465WAT     H216915   1.326   5.919   4.441
 5466WAT      O16916   0.532   5.593   3.023
 5466WAT     H116917   0.512   5.507   3.059
 5466WAT     H216918   0.514   5.585   2.929
 5467WAT      O16919   0.735   5.454   4.646
 5467WAT     H116920   0.794   5.423   4.715
 5467WAT     H216921   0.653   5.407   4.661
 5468WAT      O16922   1.217   5.416   4.670
 5468WAT     H116923   1.148   5.349   4.663
 5468WAT     H216924   1.289   5.371   4.714
 5469WAT      O16925   1.280   5.075   3.275
 5469WAT     H116926   1.308   4.991   3.311
 5469WAT     H216927   1.202   5.098   3.327
 5470WAT      O16928   0.413   5.305   3.021
 5470WAT     H116929   0.443   5.304   2.930
 5470WAT     H216930   0.485   5.269   3.071
 5471WAT      O16931   0.734   5.198   3.120
 5471WAT     H116932   0.698   5.131   3.062
 5471WAT     H216933   0.754   5.153   3.201
 5472WAT      O16934   1.363   5.330   3.182
 5472WAT     H116935   1.404   5.312   3.098
 5472WAT     H216936   1.331   5.245   3.213
 5473WAT      O16937   1.712   5.822   3.552
 5473WAT     H116938   1.675   5.745   3.508
 5473WAT     H216939   1.639   5.860   3.600
 5474WAT      O16940   1.651   5.737   4.515
 5474WAT     H116941   1.628   5.714   4.425
 5474WAT     H216942   1.677   5.829   4.510
 5475WAT      O16943   1.495   5.259   4.793
 5475WAT     H116944   1.583   5.260   4.831
 5475WAT     H216945   1.496   5.185   4.732
 5476WAT      O16946   1.639   5.643   3.883
 5476WAT     H116947   1.692   5.595   3.819
 5476WAT     H216948   1.699   5.659   3.956
 5477WAT      O16949   1.658   5.653   4.235
 5477WAT     H116950   1.563   5.649   4.244
 5477WAT     H216951   1.676   5.743   4.209
 5478WAT      O16952   0.244   5.479   3.145
 5478WAT     H116953   0.313   5.434   3.097
 5478WAT     H216954   0.172   5.485   3.082
 5479WAT      O16955   0.207   5.083   3.048
 5479WAT     H116956   0.279   5.137   3.081
 5479WAT     H216957   0.235   5.056   2.961
 5480WAT      O16958   1.590   5.570   3.475
 5480WAT     H116959   1.638   5.546   3.555
 5480WAT     H216960   1.569   5.486   3.434
 5481WAT      O16961   0.177   5.009   4.038
 5481WAT     H116962   0.242   4.953   3.995
 5481WAT     H216963   0.219   5.033   4.121
 5482WAT      O16964   1.732   5.434   3.729
 5482WAT     H116965   1.721   5.418   3.823
 5482WAT     H216966   1.808   5.382   3.705
 5483WAT      O16967   1.567   5.027   4.375
 5483WAT     H116968   1.629   5.090   4.411
 5483WAT     H216969   1.581   5.031   4.280
 5484WAT      O16970   1.821   5.216   3.053
 5484WAT     H116971   1.913   5.204   3.032
 5484WAT     H216972   1.819   5.226   3.148
 5485WAT      O16973   1.828   5.293   3.316
 5485WAT     H116974   1.748   5.287   3.369
 5485WAT     H216975   1.848   5.387   3.314
 5486WAT      O16976   0.903   5.142   4.667
 5486WAT     H116977   0.897   5.203   4.740
 5486WAT     H216978   0.997   5.132   4.651
 5487WAT      O16979   1.168   5.110   4.630
 5487WAT     H116980   1.229   5.140   4.563
 5487WAT     H216981   1.222   5.060   4.691
 5488WAT      O16982   0.219   4.977   4.641
 5488WAT     H116983   0.274   4.958   4.565
 5488WAT     H216984   0.226   4.898   4.695
 5489WAT      O16985   1.242   4.966   4.263
 5489WAT     H116986   1.155   4.998   4.241
 5489WAT     H216987   1.229   4.917   4.345
 5490WAT      O16988   1.332   5.185   4.401
 5490WAT     H116989   1.299   5.104   4.362
 5490WAT     H216990   1.427   5.182   4.389
 5491WAT      O16991   1.016   5.057   4.156
 5491WAT     H116992   0.938   5.104   4.185
 5491WAT     H216993   0.986   4.966   4.144
 5492WAT      O16994   1.470   5.127   3.961
 5492WAT     H116995   1.516   5.121   3.877
 5492WAT     H216996   1.444   5.219   3.968
 5493WAT      O16997   1.657   5.090   3.761
 5493WAT     H116998   1.651   4.996   3.747
 5493WAT     H216999   1.735   5.101   3.816
 5494WAT      O17000   0.803   5.299   3.708
 5494WAT     H117001   0.723   5.261   3.672
 5494WAT     H217002   0.855   5.223   3.736
 5495WAT      O17003   1.255   4.965   3.832
 5495WAT     H117004   1.315   5.022   3.879
 5495WAT     H217005   1.181   5.021   3.809
 5496WAT      O17006   1.569   5.005   3.359
 5496WAT     H117007   1.588   5.095   3.386
 5496WAT     H217008   1.490   4.982   3.407
 5497WAT      O17009   0.388   5.140   3.262
 5497WAT     H117010   0.441   5.061   3.250
 5497WAT     H217011   0.451   5.208   3.285
 5498WAT      O17012   0.607   5.114   3.568
 5498WAT     H117013   0.544   5.044   3.584
 5498WAT     H217014   0.553   5.190   3.546
 5499WAT      O17015   0.620   5.042   4.811
 5499WAT     H117016   0.591   5.092   4.735
 5499WAT     H217017   0.658   4.962   4.775
 5500WAT      O17018   1.279   4.984   4.869
 5500WAT     H117019   1.268   5.015   4.959
 5500WAT     H217020   1.362   5.023   4.840
 5501WAT      O17021   1.170   5.785   1.905
 5501WAT     H117022   1.162   5.693   1.878
 5501WAT     H217023   1.129   5.835   1.835
 5502WAT      O17024   0.984   5.963   2.094
 5502WAT     H117025   0.906   5.914   2.122
 5502WAT     H217026   1.049   5.895   2.076
 5503WAT      O17027   1.030   5.511   2.117
 5503WAT     H117028   1.069   5.425   2.107
 5503WAT     H217029   1.022   5.545   2.027
 5504WAT      O17030   0.444   5.348   1.663
 5504WAT     H117031   0.454   5.438   1.694
 5504WAT     H217032   0.353   5.343   1.634
 5505WAT      O17033   1.409   5.260   1.810
 5505WAT     H117034   1.491   5.211   1.814
 5505WAT     H217035   1.412   5.319   1.885
 5506WAT      O17036   0.209   5.539   2.187
 5506WAT     H117037   0.277   5.567   2.249
 5506WAT     H217038   0.177   5.456   2.222
 5507WAT      O17039   0.628   5.645   2.096
 5507WAT     H117040   0.680   5.695   2.159
 5507WAT     H217041   0.681   5.567   2.079
 5508WAT      O17042   1.837   5.462   2.467
 5508WAT     H117043   1.767   5.502   2.415
 5508WAT     H217044   1.865   5.532   2.527
 5509WAT      O17045   0.456   5.108   2.523
 5509WAT     H117046   0.456   5.161   2.443
 5509WAT     H217047   0.373   5.061   2.521
 5510WAT      O17048   1.433   5.454   2.087
 5510WAT     H117049   1.362   5.483   2.145
 5510WAT     H217050   1.469   5.535   2.051
 5511WAT      O17051   0.424   5.280   2.323
 5511WAT     H117052   0.458   5.365   2.294
 5511WAT     H217053   0.330   5.295   2.335
 5512WAT      O17054   1.739   5.399   2.127
 5512WAT     H117055   1.644   5.402   2.140
 5512WAT     H217056   1.772   5.480   2.166
 5513WAT      O17057   0.793   5.029   1.955
 5513WAT     H117058   0.823   4.973   1.884
 5513WAT     H217059   0.700   5.042   1.938
 5514WAT      O17060   1.032   5.835   1.631
 5514WAT     H117061   0.939   5.829   1.653
 5514WAT     H217062   1.047   5.929   1.618
 5515WAT      O17063   1.030   5.461   1.328
 5515WAT     H117064   0.937   5.479   1.339
 5515WAT     H217065   1.062   5.535   1.276
 5516WAT      O17066   1.379   5.609   2.422
 5516WAT     H117067   1.337   5.692   2.446
 5516WAT     H217068   1.306   5.551   2.402
 5517WAT      O17069   0.592   5.888   1.908
 5517WAT     H117070   0.551   5.817   1.858
 5517WAT     H217071   0.601   5.853   1.997
 5518WAT      O17072   0.464   5.564   2.287
 5518WAT     H117073   0.517   5.577   2.208
 5518WAT     H217074   0.514   5.604   2.357
 5519WAT      O17075   1.610   5.041   1.212
 5519WAT     H117076   1.580   5.049   1.302
 5519WAT     H217077   1.686   5.099   1.207
 5520WAT      O17078   0.263   5.777   1.658
 5520WAT     H117079   0.250   5.850   1.597
 5520WAT     H217080   0.230   5.701   1.610
 5521WAT      O17081   1.732   5.515   2.810
 5521WAT     H117082   1.670   5.566   2.757
 5521WAT     H217083   1.699   5.425   2.804
 5522WAT      O17084   0.509   5.112   1.996
 5522WAT     H117085   0.464   5.190   1.963
 5522WAT     H217086   0.564   5.144   2.067
 5523WAT      O17087   0.937   5.399   2.557
 5523WAT     H117088   0.890   5.419   2.638
 5523WAT     H217089   0.897   5.317   2.526
 5524WAT      O17090   1.437   5.521   2.670
 5524WAT     H117091   1.352   5.491   2.702
 5524WAT     H217092   1.421   5.545   2.579
 5525WAT      O17093   1.147   5.671   2.879
 5525WAT     H117094   1.178   5.587   2.847
 5525WAT     H217095   1.226   5.722   2.895
 5526WAT      O17096   0.819   5.074   1.484
 5526WAT     H117097   0.758   5.074   1.557
 5526WAT     H217098   0.811   4.987   1.446
 5527WAT      O17099   0.712   5.166   2.182
 5527WAT     H117100   0.741   5.257   2.174
 5527WAT     H217101   0.767   5.118   2.121
 5528WAT      O17102   0.487   5.624   1.769
 5528WAT     H117103   0.465   5.603   1.859
 5528WAT     H217104   0.410   5.669   1.734
 5529WAT      O17105   1.211   5.624   1.629
 5529WAT     H117106   1.151   5.697   1.611
 5529WAT     H217107   1.266   5.619   1.551
 5530WAT      O17108   0.732   5.714   2.835
 5530WAT     H117109   0.722   5.620   2.821
 5530WAT     H217110   0.816   5.736   2.796
 5531WAT      O17111   1.072   5.489   1.833
 5531WAT     H117112   1.111   5.520   1.751
 5531WAT     H217113   1.107   5.400   1.843
 5532WAT      O17114   0.245   5.356   2.651
 5532WAT     H117115   0.205   5.440   2.672
 5532WAT     H217116   0.177   5.291   2.670
 5533WAT      O17117   0.902   5.364   2.958
 5533WAT     H117118   0.833   5.343   3.022
 5533WAT     H217119   0.977   5.392   3.011
 5534WAT      O17120   1.130   5.747   2.242
 5534WAT     H117121   1.057   5.798   2.276
 5534WAT     H217122   1.090   5.666   2.211
 5535WAT      O17123   0.774   5.415   2.082
 5535WAT     H117124   0.775   5.372   1.996
 5535WAT     H217125   0.863   5.447   2.093
 5536WAT      O17126   0.359   5.402   1.978
 5536WAT     H117127   0.325   5.452   2.053
 5536WAT     H217128   0.282   5.358   1.942
 5537WAT      O17129   0.780   5.515   1.382
 5537WAT     H117130   0.792   5.511   1.477
 5537WAT     H217131   0.741   5.601   1.366
 5538WAT      O17132   1.176   5.293   2.183
 5538WAT     H117133   1.178   5.338   2.267
 5538WAT     H217134   1.151   5.203   2.204
 5539WAT      O17135   0.681   5.746   1.321
 5539WAT     H117136   0.624   5.702   1.257
 5539WAT     H217137   0.751   5.783   1.268
 5540WAT      O17138   1.518   5.034   2.767
 5540WAT     H117139   1.551   4.960   2.819
 5540WAT     H217140   1.522   5.003   2.676
 5541WAT      O17141   0.804   5.821   2.257
 5541WAT     H117142   0.840   5.773   2.331
 5541WAT     H217143   0.785   5.909   2.291
 5542WAT      O17144   0.583   5.725   2.489
 5542WAT     H117145   0.552   5.813   2.511
 5542WAT     H217146   0.678   5.731   2.492
 5543WAT      O17147   1.058   5.185   1.542
 5543WAT     H117148   0.976   5.135   1.534
 5543WAT     H217149   1.039   5.269   1.500
 5544WAT      O17150   1.329   5.622   1.371
 5544WAT     H117151   1.417   5.653   1.354
 5544WAT     H217152   1.326   5.534   1.332
 5545WAT      O17153   0.188   5.809   2.603
 5545WAT     H117154   0.153   5.876   2.662
 5545WAT     H217155   0.159   5.726   2.640
 5546WAT      O17156   0.509   5.855   2.892
 5546WAT     H117157   0.479   5.870   2.802
 5546WAT     H217158   0.586   5.800   2.883
 5547WAT      O17159   1.557   5.752   1.317
 5547WAT     H117160   1.548   5.796   1.233
 5547WAT     H217161   1.628   5.799   1.361
 5548WAT      O17162   0.346   4.981   1.725
 5548WAT     H117163   0.333   4.981   1.820
 5548WAT     H217164   0.264   5.016   1.690
 5549WAT      O17165   1.195   5.407   2.445
 5549WAT     H117166   1.232   5.326   2.479
 5549WAT     H217167   1.109   5.413   2.487
 5550WAT      O17168   1.532   5.303   1.527
 5550WAT     H117169   1.469   5.313   1.455
 5550WAT     H217170   1.482   5.324   1.606
 5551WAT      O17171   0.729   5.531   1.668
 5551WAT     H117172   0.658   5.578   1.712
 5551WAT     H217173   0.758   5.465   1.732
 5552WAT      O17174   0.890   5.673   2.469
 5552WAT     H117175   0.941   5.720   2.535
 5552WAT     H217176   0.906   5.580   2.488
 5553WAT      O17177   1.132   5.203   1.812
 5553WAT     H117178   1.119   5.205   1.717
 5553WAT     H217179   1.227   5.208   1.823
 5554WAT      O17180   0.548   5.362   1.406
 5554WAT     H117181   0.634   5.405   1.399
 5554WAT     H217182   0.513   5.393   1.489
 5555WAT      O17183   1.613   5.295   2.553
 5555WAT     H117184   1.562   5.369   2.587
 5555WAT     H217185   1.694   5.333   2.521
 5556WAT      O17186   1.441   5.819   1.897
 5556WAT     H117187   1.347   5.820   1.915
 5556WAT     H217188   1.474   5.741   1.942
 5557WAT      O17189   0.309   5.731   1.324
 5557WAT     H117190   0.316   5.636   1.332
 5557WAT     H217191   0.398   5.763   1.332
 5558WAT      O17192   0.264   5.726   2.934
 5558WAT     H117193   0.267   5.698   3.026
 5558WAT     H217194   0.349   5.767   2.919
 5559WAT      O17195   0.459   5.584   2.731
 5559WAT     H117196   0.404   5.536   2.669
 5559WAT     H217197   0.525   5.627   2.678
 5560WAT      O17198   0.893   5.888   1.175
 5560WAT     H117199   0.946   5.817   1.139
 5560WAT     H217200   0.958   5.953   1.205
 5561WAT      O17201   1.396   5.765   2.908
 5561WAT     H117202   1.454   5.690   2.899
 5561WAT     H217203   1.413   5.818   2.830
 5562WAT      O17204   0.508   5.281   2.739
 5562WAT     H117205   0.498   5.219   2.667
 5562WAT     H217206   0.449   5.353   2.717
 5563WAT      O17207   0.784   5.137   2.443
 5563WAT     H117208   0.739   5.139   2.358
 5563WAT     H217209   0.720   5.097   2.502
 5564WAT      O17210   1.058   5.799   2.643
 5564WAT     H117211   1.070   5.741   2.718
 5564WAT     H217212   1.144   5.803   2.601
 5565WAT      O17213   1.291   5.855   2.502
 5565WAT     H117214   1.240   5.907   2.440
 5565WAT     H217215   1.326   5.919   2.564
 5566WAT      O17216   0.533   5.593   1.145
 5566WAT     H117217   0.512   5.507   1.181
 5566WAT     H217218   0.514   5.585   1.051
 5567WAT      O17219   0.735   5.454   2.769
 5567WAT     H117220   0.794   5.423   2.838
 5567WAT     H217221   0.653   5.407   2.784
 5568WAT      O17222   1.217   5.416   2.792
 5568WAT     H117223   1.148   5.349   2.786
 5568WAT     H217224   1.289   5.371   2.837
 5569WAT      O17225   1.279   5.075   1.398
 5569WAT     H117226   1.308   4.991   1.434
 5569WAT     H217227   1.202   5.099   1.450
 5570WAT      O17228   0.413   5.305   1.143
 5570WAT     H117229   0.443   5.304   1.053
 5570WAT     H217230   0.485   5.269   1.194
 5571WAT      O17231   0.734   5.198   1.242
 5571WAT     H117232   0.698   5.131   1.185
 5571WAT     H217233   0.754   5.153   1.324
 5572WAT      O17234   1.363   5.330   1.304
 5572WAT     H117235   1.404   5.312   1.220
 5572WAT     H217236   1.331   5.245   1.335
 5573WAT      O17237   1.712   5.822   1.674
 5573WAT     H117238   1.675   5.745   1.631
 5573WAT     H217239   1.639   5.860   1.723
 5574WAT      O17240   1.651   5.737   2.638
 5574WAT     H117241   1.628   5.714   2.548
 5574WAT     H217242   1.677   5.829   2.633
 5575WAT      O17243   1.495   5.259   2.915
 5575WAT     H117244   1.582   5.260   2.954
 5575WAT     H217245   1.496   5.185   2.854
 5576WAT      O17246   1.639   5.643   2.005
 5576WAT     H117247   1.692   5.596   1.941
 5576WAT     H217248   1.698   5.659   2.078
 5577WAT      O17249   1.658   5.653   2.357
 5577WAT     H117250   1.563   5.649   2.367
 5577WAT     H217251   1.676   5.744   2.332
 5578WAT      O17252   0.243   5.479   1.267
 5578WAT     H117253   0.314   5.434   1.219
 5578WAT     H217254   0.172   5.485   1.204
 5579WAT      O17255   0.207   5.083   1.171
 5579WAT     H117256   0.279   5.137   1.204
 5579WAT     H217257   0.235   5.056   1.083
 5580WAT      O17258   1.590   5.570   1.598
 5580WAT     H117259   1.638   5.547   1.678
 5580WAT     H217260   1.569   5.486   1.557
 5581WAT      O17261   0.177   5.009   2.161
 5581WAT     H117262   0.242   4.953   2.118
 5581WAT     H217263   0.219   5.033   2.244
 5582WAT      O17264   1.732   5.434   1.852
 5582WAT     H117265   1.721   5.418   1.945
 5582WAT     H217266   1.808   5.382   1.827
 5583WAT      O17267   1.567   5.027   2.497
 5583WAT     H117268   1.629   5.090   2.533
 5583WAT     H217269   1.581   5.031   2.403
 5584WAT      O17270   1.821   5.216   1.176
 5584WAT     H117271   1.913   5.204   1.155
 5584WAT     H217272   1.819   5.226   1.271
 5585WAT      O17273   1.828   5.293   1.439
 5585WAT     H117274   1.748   5.287   1.491
 5585WAT     H217275   1.848   5.387   1.437
 5586WAT      O17276   0.903   5.142   2.789
 5586WAT     H117277   0.897   5.203   2.862
 5586WAT     H217278   0.997   5.132   2.774
 5587WAT      O17279   1.168   5.110   2.752
 5587WAT     H117280   1.229   5.140   2.686
 5587WAT     H217281   1.221   5.060   2.814
 5588WAT      O17282   0.219   4.977   2.763
 5588WAT     H117283   0.274   4.958   2.687
 5588WAT     H217284   0.226   4.899   2.818
 5589WAT      O17285   1.242   4.966   2.386
 5589WAT     H117286   1.155   4.998   2.363
 5589WAT     H217287   1.229   4.917   2.467
 5590WAT      O17288   1.332   5.185   2.524
 5590WAT     H117289   1.299   5.104   2.484
 5590WAT     H217290   1.427   5.181   2.512
 5591WAT      O17291   1.016   5.057   2.279
 5591WAT     H117292   0.938   5.104   2.308
 5591WAT     H217293   0.986   4.966   2.267
 5592WAT      O17294   1.470   5.127   2.083
 5592WAT     H117295   1.516   5.121   1.999
 5592WAT     H217296   1.444   5.219   2.090
 5593WAT      O17297   1.657   5.090   1.884
 5593WAT     H117298   1.651   4.996   1.870
 5593WAT     H217299   1.734   5.101   1.939
 5594WAT      O17300   0.803   5.299   1.831
 5594WAT     H117301   0.723   5.261   1.795
 5594WAT     H217302   0.855   5.223   1.859
 5595WAT      O17303   1.255   4.965   1.954
 5595WAT     H117304   1.315   5.022   2.001
 5595WAT     H217305   1.181   5.021   1.931
 5596WAT      O17306   1.569   5.005   1.482
 5596WAT     H117307   1.588   5.095   1.509
 5596WAT     H217308   1.490   4.982   1.529
 5597WAT      O17309   0.388   5.140   1.385
 5597WAT     H117310   0.441   5.061   1.373
 5597WAT     H217311   0.451   5.208   1.407
 5598WAT      O17312   0.607   5.114   1.690
 5598WAT     H117313   0.544   5.044   1.707
 5598WAT     H217314   0.553   5.190   1.669
 5599WAT      O17315   0.620   5.042   2.934
 5599WAT     H117316   0.591   5.092   2.857
 5599WAT     H217317   0.658   4.962   2.897
 5600WAT      O17318   1.279   4.984   2.991
 5600WAT     H117319   1.268   5.015   3.081
 5600WAT     H217320   1.362   5.023   2.963
 5601WAT      O17321   0.983   5.963   0.216
 5601WAT     H117322   0.906   5.915   0.245
 5601WAT     H217323   1.049   5.895   0.199
 5602WAT      O17324   0.208   5.540   0.310
 5602WAT     H117325   0.277   5.567   0.371
 5602WAT     H217326   0.177   5.456   0.344
 5603WAT      O17327   0.628   5.644   0.220
 5603WAT     H117328   0.680   5.695   0.282
 5603WAT     H217329   0.682   5.568   0.201
 5604WAT      O17330   1.837   5.462   0.590
 5604WAT     H117331   1.768   5.502   0.537
 5604WAT     H217332   1.865   5.532   0.649
 5605WAT      O17333   0.456   5.108   0.646
 5605WAT     H117334   0.456   5.161   0.566
 5605WAT     H217335   0.373   5.061   0.643
 5606WAT      O17336   1.433   5.454   0.211
 5606WAT     H117337   1.362   5.483   0.268
 5606WAT     H217338   1.468   5.535   0.174
 5607WAT      O17339   0.424   5.280   0.446
 5607WAT     H117340   0.458   5.365   0.417
 5607WAT     H217341   0.330   5.295   0.458
 5608WAT      O17342   1.739   5.399   0.250
 5608WAT     H117343   1.644   5.402   0.262
 5608WAT     H217344   1.772   5.480   0.288
 5609WAT      O17345   1.379   5.610   0.544
 5609WAT     H117346   1.337   5.692   0.569
 5609WAT     H217347   1.306   5.551   0.525
 5610WAT      O17348   0.464   5.564   0.409
 5610WAT     H117349   0.517   5.577   0.331
 5610WAT     H217350   0.514   5.604   0.480
 5611WAT      O17351   1.731   5.515   0.933
 5611WAT     H117352   1.670   5.566   0.880
 5611WAT     H217353   1.699   5.425   0.927
 5612WAT      O17354   0.937   5.399   0.679
 5612WAT     H117355   0.891   5.419   0.760
 5612WAT     H217356   0.897   5.317   0.649
 5613WAT      O17357   1.437   5.520   0.792
 5613WAT     H117358   1.352   5.491   0.824
 5613WAT     H217359   1.421   5.545   0.701
 5614WAT      O17360   1.147   5.671   1.001
 5614WAT     H117361   1.179   5.587   0.969
 5614WAT     H217362   1.226   5.722   1.018
 5615WAT      O17363   0.713   5.166   0.306
 5615WAT     H117364   0.742   5.257   0.297
 5615WAT     H217365   0.767   5.118   0.242
 5616WAT      O17366   0.731   5.714   0.957
 5616WAT     H117367   0.722   5.620   0.943
 5616WAT     H217368   0.817   5.736   0.919
 5617WAT      O17369   0.245   5.355   0.774
 5617WAT     H117370   0.205   5.440   0.794
 5617WAT     H217371   0.177   5.291   0.793
 5618WAT      O17372   0.902   5.364   1.081
 5618WAT     H117373   0.833   5.343   1.144
 5618WAT     H217374   0.977   5.392   1.134
 5619WAT      O17375   1.130   5.748   0.364
 5619WAT     H117376   1.057   5.798   0.399
 5619WAT     H217377   1.090   5.666   0.334
 5620WAT      O17378   1.175   5.293   0.306
 5620WAT     H117379   1.178   5.338   0.390
 5620WAT     H217380   1.151   5.203   0.327
 5621WAT      O17381   1.518   5.034   0.889
 5621WAT     H117382   1.551   4.961   0.942
 5621WAT     H217383   1.522   5.002   0.799
 5622WAT      O17384   0.804   5.821   0.379
 5622WAT     H117385   0.840   5.774   0.454
 5622WAT     H217386   0.785   5.909   0.413
 5623WAT      O17387   0.583   5.725   0.612
 5623WAT     H117388   0.552   5.813   0.634
 5623WAT     H217389   0.678   5.731   0.615
 5624WAT      O17390   0.188   5.809   0.726
 5624WAT     H117391   0.153   5.876   0.785
 5624WAT     H217392   0.159   5.726   0.763
 5625WAT      O17393   0.508   5.855   1.014
 5625WAT     H117394   0.479   5.870   0.924
 5625WAT     H217395   0.586   5.800   1.005
 5626WAT      O17396   1.194   5.407   0.568
 5626WAT     H117397   1.232   5.326   0.601
 5626WAT     H217398   1.109   5.412   0.610
 5627WAT      O17399   0.891   5.673   0.591
 5627WAT     H117400   0.941   5.720   0.657
 5627WAT     H217401   0.906   5.580   0.612
 5628WAT      O17402   1.612   5.295   0.675
 5628WAT     H117403   1.562   5.369   0.709
 5628WAT     H217404   1.694   5.333   0.644
 5629WAT      O17405   0.264   5.726   1.056
 5629WAT     H117406   0.267   5.698   1.148
 5629WAT     H217407   0.349   5.767   1.041
 5630WAT      O17408   0.459   5.584   0.854
 5630WAT     H117409   0.404   5.537   0.791
 5630WAT     H217410   0.525   5.627   0.801
 5631WAT      O17411   1.396   5.765   1.031
 5631WAT     H117412   1.454   5.690   1.022
 5631WAT     H217413   1.413   5.818   0.953
 5632WAT      O17414   0.507   5.281   0.862
 5632WAT     H117415   0.498   5.219   0.790
 5632WAT     H217416   0.449   5.353   0.839
 5633WAT      O17417   0.784   5.137   0.565
 5633WAT     H117418   0.739   5.139   0.481
 5633WAT     H217419   0.720   5.097   0.625
 5634WAT      O17420   1.058   5.799   0.766
 5634WAT     H117421   1.070   5.741   0.841
 5634WAT     H217422   1.144   5.803   0.724
 5635WAT      O17423   1.291   5.855   0.624
 5635WAT     H117424   1.239   5.907   0.562
 5635WAT     H217425   1.326   5.919   0.686
 5636WAT      O17426   0.735   5.454   0.891
 5636WAT     H117427   0.794   5.423   0.960
 5636WAT     H217428   0.653   5.407   0.906
 5637WAT      O17429   1.217   5.416   0.915
 5637WAT     H117430   1.148   5.349   0.908
 5637WAT     H217431   1.289   5.371   0.959
 5638WAT      O17432   1.651   5.737   0.760
 5638WAT     H117433   1.629   5.714   0.670
 5638WAT     H217434   1.677   5.829   0.756
 5639WAT      O17435   1.495   5.259   1.038
 5639WAT     H117436   1.583   5.260   1.076
 5639WAT     H217437   1.496   5.185   0.977
 5640WAT      O17438   1.658   5.653   0.480
 5640WAT     H117439   1.563   5.649   0.489
 5640WAT     H217440   1.676   5.743   0.455
 5641WAT      O17441   0.177   5.008   0.284
 5641WAT     H117442   0.242   4.953   0.240
 5641WAT     H217443   0.219   5.034   0.366
 5642WAT      O17444   1.566   5.027   0.620
 5642WAT     H117445   1.629   5.090   0.656
 5642WAT     H217446   1.581   5.031   0.525
 5643WAT      O17447   0.903   5.142   0.912
 5643WAT     H117448   0.897   5.203   0.985
 5643WAT     H217449   0.997   5.132   0.896
 5644WAT      O17450   1.168   5.110   0.875
 5644WAT     H117451   1.229   5.140   0.808
 5644WAT     H217452   1.222   5.060   0.937
 5645WAT      O17453   0.219   4.977   0.886
 5645WAT     H117454   0.274   4.958   0.810
 5645WAT     H217455   0.226   4.899   0.941
 5646WAT      O17456   1.242   4.965   0.508
 5646WAT     H117457   1.155   4.998   0.486
 5646WAT     H217458   1.229   4.917   0.590
 5647WAT      O17459   1.332   5.185   0.646
 5647WAT     H117460   1.299   5.104   0.607
 5647WAT     H217461   1.427   5.182   0.634
 5648WAT      O17462   1.016   5.057   0.401
 5648WAT     H117463   0.938   5.104   0.430
 5648WAT     H217464   0.986   4.966   0.390
 5649WAT      O17465   0.620   5.042   1.056
 5649WAT     H117466   0.591   5.092   0.980
 5649WAT     H217467   0.658   4.962   1.020
 5650WAT      O17468   1.279   4.984   1.114
 5650WAT     H117469   1.268   5.015   1.204
 5650WAT     H217470   1.362   5.023   1.085
 5651WAT      O17471   1.170   3.907   5.660
 5651WAT     H117472   1.162   3.816   5.633
 5651WAT     H217473   1.129   3.957   5.590
 5652WAT      O17474   1.386   4.526   5.725
 5652WAT     H117475   1.339   4.449   5.758
 5652WAT     H217476   1.467   4.528   5.777
 5653WAT      O17477   1.008   4.754   5.688
 5653WAT     H117478   0.946   4.799   5.631
 5653WAT     H217479   1.094   4.770   5.648
 5654WAT      O17480   0.444   3.471   5.418
 5654WAT     H117481   0.454   3.561   5.449
 5654WAT     H217482   0.353   3.466   5.389
 5655WAT      O17483   1.409   3.383   5.565
 5655WAT     H117484   1.491   3.334   5.569
 5655WAT     H217485   1.412   3.442   5.640
 5656WAT      O17486   1.095   4.243   5.427
 5656WAT     H117487   1.033   4.289   5.371
 5656WAT     H217488   1.146   4.313   5.469
 5657WAT      O17489   0.793   3.152   5.710
 5657WAT     H117490   0.823   3.096   5.639
 5657WAT     H217491   0.700   3.165   5.693
 5658WAT      O17492   1.477   4.395   5.449
 5658WAT     H117493   1.466   4.301   5.461
 5658WAT     H217494   1.476   4.431   5.538
 5659WAT      O17495   1.032   3.958   5.386
 5659WAT     H117496   0.939   3.951   5.406
 5659WAT     H217497   1.047   4.052   5.373
 5660WAT      O17498   1.030   3.584   5.082
 5660WAT     H117499   0.937   3.601   5.094
 5660WAT     H217500   1.062   3.658   5.031
 5661WAT      O17501   1.434   4.114   5.435
 5661WAT     H117502   1.372   4.080   5.371
 5661WAT     H217503   1.433   4.050   5.506
 5662WAT      O17504   0.592   4.010   5.663
 5662WAT     H117505   0.551   3.939   5.613
 5662WAT     H217506   0.601   3.976   5.752
 5663WAT      O17507   1.252   4.038   5.136
 5663WAT     H117508   1.295   3.954   5.121
 5663WAT     H217509   1.324   4.101   5.144
 5664WAT      O17510   1.063   4.531   5.532
 5664WAT     H117511   1.107   4.606   5.491
 5664WAT     H217512   1.057   4.556   5.625
 5665WAT      O17513   1.610   3.164   4.967
 5665WAT     H117514   1.579   3.172   5.057
 5665WAT     H217515   1.686   3.221   4.962
 5666WAT      O17516   0.263   3.899   5.413
 5666WAT     H117517   0.250   3.973   5.353
 5666WAT     H217518   0.230   3.823   5.364
 5667WAT      O17519   1.330   4.831   5.268
 5667WAT     H117520   1.314   4.802   5.358
 5667WAT     H217521   1.314   4.753   5.215
 5668WAT      O17522   0.577   4.809   5.446
 5668WAT     H117523   0.560   4.717   5.424
 5668WAT     H217524   0.492   4.845   5.470
 5669WAT      O17525   1.300   4.583   5.124
 5669WAT     H117526   1.230   4.581   5.058
 5669WAT     H217527   1.374   4.539   5.082
 5670WAT      O17528   1.256   4.744   5.532
 5670WAT     H117529   1.302   4.666   5.563
 5670WAT     H217530   1.290   4.815   5.586
 5671WAT      O17531   0.509   3.235   5.751
 5671WAT     H117532   0.464   3.313   5.718
 5671WAT     H217533   0.564   3.267   5.822
 5672WAT      O17534   0.819   3.197   5.239
 5672WAT     H117535   0.758   3.196   5.312
 5672WAT     H217536   0.811   3.110   5.200
 5673WAT      O17537   0.488   3.747   5.524
 5673WAT     H117538   0.464   3.725   5.614
 5673WAT     H217539   0.410   3.791   5.489
 5674WAT      O17540   1.211   3.747   5.384
 5674WAT     H117541   1.151   3.820   5.365
 5674WAT     H217542   1.266   3.741   5.306
 5675WAT      O17543   1.072   3.612   5.588
 5675WAT     H117544   1.111   3.643   5.506
 5675WAT     H217545   1.107   3.523   5.598
 5676WAT      O17546   0.774   3.538   5.837
 5676WAT     H117547   0.774   3.494   5.752
 5676WAT     H217548   0.863   3.570   5.848
 5677WAT      O17549   0.359   3.526   5.733
 5677WAT     H117550   0.325   3.574   5.808
 5677WAT     H217551   0.282   3.481   5.697
 5678WAT      O17552   0.779   3.637   5.137
 5678WAT     H117553   0.792   3.634   5.232
 5678WAT     H217554   0.741   3.724   5.120
 5679WAT      O17555   0.680   3.870   5.075
 5679WAT     H117556   0.624   3.824   5.012
 5679WAT     H217557   0.752   3.905   5.022
 5680WAT      O17558   0.436   4.268   5.302
 5680WAT     H117559   0.359   4.214   5.288
 5680WAT     H217560   0.509   4.216   5.269
 5681WAT      O17561   1.058   3.307   5.296
 5681WAT     H117562   0.976   3.258   5.289
 5681WAT     H217563   1.039   3.391   5.255
 5682WAT      O17564   1.329   3.745   5.126
 5682WAT     H117565   1.418   3.776   5.109
 5682WAT     H217566   1.326   3.657   5.087
 5683WAT      O17567   0.440   4.236   5.667
 5683WAT     H117568   0.492   4.156   5.661
 5683WAT     H217569   0.395   4.229   5.751
 5684WAT      O17570   0.929   4.362   5.194
 5684WAT     H117571   0.963   4.437   5.145
 5684WAT     H217572   0.846   4.393   5.230
 5685WAT      O17573   1.557   3.876   5.073
 5685WAT     H117574   1.548   3.919   4.988
 5685WAT     H217575   1.628   3.922   5.116
 5686WAT      O17576   1.660   4.561   5.345
 5686WAT     H117577   1.595   4.496   5.373
 5686WAT     H217578   1.621   4.602   5.268
 5687WAT      O17579   1.217   4.294   5.731
 5687WAT     H117580   1.252   4.234   5.665
 5687WAT     H217581   1.129   4.261   5.748
 5688WAT      O17582   0.825   4.370   5.472
 5688WAT     H117583   0.894   4.425   5.508
 5688WAT     H217584   0.747   4.424   5.475
 5689WAT      O17585   0.758   4.069   5.434
 5689WAT     H117586   0.801   4.152   5.455
 5689WAT     H217587   0.720   4.040   5.517
 5690WAT      O17588   0.346   3.105   5.480
 5690WAT     H117589   0.333   3.104   5.575
 5690WAT     H217590   0.264   3.139   5.445
 5691WAT      O17591   1.497   4.450   5.000
 5691WAT     H117592   1.475   4.378   5.059
 5691WAT     H217593   1.460   4.425   4.916
 5692WAT      O17594   1.456   4.242   5.166
 5692WAT     H117595   1.427   4.288   5.245
 5692WAT     H217596   1.536   4.196   5.193
 5693WAT      O17597   0.678   4.592   5.159
 5693WAT     H117598   0.677   4.665   5.097
 5693WAT     H217599   0.586   4.566   5.168
 5694WAT      O17600   0.238   4.113   5.233
 5694WAT     H117601   0.176   4.187   5.233
 5694WAT     H217602   0.284   4.121   5.150
 5695WAT      O17603   1.532   3.426   5.282
 5695WAT     H117604   1.469   3.436   5.210
 5695WAT     H217605   1.482   3.446   5.361
 5696WAT      O17606   0.976   4.597   5.025
 5696WAT     H117607   0.986   4.576   4.932
 5696WAT     H217608   0.886   4.572   5.045
 5697WAT      O17609   0.729   3.653   5.423
 5697WAT     H117610   0.658   3.700   5.467
 5697WAT     H217611   0.758   3.588   5.487
 5698WAT      O17612   1.133   3.326   5.567
 5698WAT     H117613   1.119   3.328   5.472
 5698WAT     H217614   1.228   3.331   5.578
 5699WAT      O17615   0.841   4.850   5.495
 5699WAT     H117616   0.866   4.846   5.402
 5699WAT     H217617   0.746   4.837   5.494
 5700WAT      O17618   0.549   3.484   5.160
 5700WAT     H117619   0.634   3.528   5.154
 5700WAT     H217620   0.513   3.515   5.244
 5701WAT      O17621   1.441   3.941   5.651
 5701WAT     H117622   1.347   3.942   5.670
 5701WAT     H217623   1.474   3.864   5.697
 5702WAT      O17624   0.439   4.109   5.009
 5702WAT     H117625   0.516   4.099   5.064
 5702WAT     H217626   0.447   4.041   4.942
 5703WAT      O17627   0.309   3.853   5.077
 5703WAT     H117628   0.316   3.758   5.088
 5703WAT     H217629   0.398   3.886   5.087
 5704WAT      O17630   0.389   4.868   5.786
 5704WAT     H117631   0.462   4.813   5.814
 5704WAT     H217632   0.428   4.955   5.773
 5705WAT      O17633   0.699   4.784   4.969
 5705WAT     H117634   0.779   4.815   4.925
 5705WAT     H217635   0.648   4.742   4.900
 5706WAT      O17636   1.605   4.708   5.111
 5706WAT     H117637   1.576   4.666   5.030
 5706WAT     H217638   1.585   4.801   5.099
 5707WAT      O17639   0.751   4.307   4.955
 5707WAT     H117640   0.741   4.247   5.028
 5707WAT     H217641   0.735   4.254   4.877
 5708WAT      O17642   1.075   4.213   5.016
 5708WAT     H117643   1.021   4.258   5.080
 5708WAT     H217644   1.138   4.163   5.068
 5709WAT      O17645   0.641   4.108   5.205
 5709WAT     H117646   0.684   4.094   5.289
 5709WAT     H217647   0.656   4.027   5.156
 5710WAT      O17648   0.893   4.011   4.931
 5710WAT     H117649   0.946   3.940   4.894
 5710WAT     H217650   0.958   4.076   4.960
 5711WAT      O17651   0.532   3.716   4.900
 5711WAT     H117652   0.512   3.630   4.936
 5711WAT     H217653   0.515   3.708   4.807
 5712WAT      O17654   1.280   3.198   5.153
 5712WAT     H117655   1.307   3.113   5.189
 5712WAT     H217656   1.202   3.221   5.204
 5713WAT      O17657   0.413   3.428   4.898
 5713WAT     H117658   0.443   3.426   4.808
 5713WAT     H217659   0.485   3.392   4.949
 5714WAT      O17660   0.734   3.321   4.997
 5714WAT     H117661   0.699   3.253   4.940
 5714WAT     H217662   0.754   3.276   5.079
 5715WAT      O17663   0.949   4.821   5.159
 5715WAT     H117664   1.039   4.854   5.162
 5715WAT     H217665   0.953   4.747   5.098
 5716WAT      O17666   0.314   4.357   4.981
 5716WAT     H117667   0.357   4.411   5.047
 5716WAT     H217668   0.362   4.274   4.983
 5717WAT      O17669   0.496   4.469   5.493
 5717WAT     H117670   0.465   4.457   5.583
 5717WAT     H217671   0.484   4.383   5.452
 5718WAT      O17672   1.773   4.447   4.965
 5718WAT     H117673   1.688   4.454   5.010
 5718WAT     H217674   1.790   4.536   4.933
 5719WAT      O17675   1.717   4.121   5.214
 5719WAT     H117676   1.793   4.178   5.224
 5719WAT     H217677   1.719   4.065   5.291
 5720WAT      O17678   1.817   4.208   5.698
 5720WAT     H117679   1.855   4.129   5.659
 5720WAT     H217680   1.882   4.276   5.681
 5721WAT      O17681   1.725   4.151   4.930
 5721WAT     H117682   1.749   4.242   4.917
 5721WAT     H217683   1.704   4.144   5.023
 5722WAT      O17684   1.363   3.453   5.059
 5722WAT     H117685   1.404   3.434   4.975
 5722WAT     H217686   1.331   3.368   5.090
 5723WAT      O17687   1.712   3.945   5.429
 5723WAT     H117688   1.674   3.868   5.386
 5723WAT     H217689   1.639   3.983   5.478
 5724WAT      O17690   1.639   3.766   5.760
 5724WAT     H117691   1.692   3.719   5.696
 5724WAT     H217692   1.698   3.780   5.834
 5725WAT      O17693   0.243   3.601   5.022
 5725WAT     H117694   0.313   3.556   4.974
 5725WAT     H217695   0.172   3.607   4.959
 5726WAT      O17696   0.207   3.206   4.926
 5726WAT     H117697   0.279   3.260   4.958
 5726WAT     H217698   0.235   3.178   4.838
 5727WAT      O17699   1.590   3.693   5.353
 5727WAT     H117700   1.638   3.669   5.432
 5727WAT     H217701   1.569   3.610   5.311
 5728WAT      O17702   1.731   3.556   5.606
 5728WAT     H117703   1.721   3.541   5.700
 5728WAT     H217704   1.809   3.505   5.582
 5729WAT      O17705   1.821   3.338   4.931
 5729WAT     H117706   1.913   3.326   4.910
 5729WAT     H217707   1.818   3.348   5.026
 5730WAT      O17708   1.828   3.416   5.194
 5730WAT     H117709   1.748   3.410   5.246
 5730WAT     H217710   1.848   3.510   5.192
 5731WAT      O17711   1.523   4.820   5.593
 5731WAT     H117712   1.582   4.788   5.525
 5731WAT     H217713   1.548   4.773   5.672
 5732WAT      O17714   1.470   3.249   5.837
 5732WAT     H117715   1.516   3.244   5.754
 5732WAT     H217716   1.444   3.341   5.845
 5733WAT      O17717   1.658   3.213   5.639
 5733WAT     H117718   1.650   3.119   5.624
 5733WAT     H217719   1.735   3.222   5.694
 5734WAT      O17720   0.804   3.421   5.586
 5734WAT     H117721   0.723   3.383   5.550
 5734WAT     H217722   0.855   3.346   5.615
 5735WAT      O17723   1.255   3.088   5.708
 5735WAT     H117724   1.315   3.145   5.756
 5735WAT     H217725   1.181   3.144   5.686
 5736WAT      O17726   1.569   3.128   5.237
 5736WAT     H117727   1.588   3.218   5.263
 5736WAT     H217728   1.490   3.105   5.284
 5737WAT      O17729   0.249   4.696   5.280
 5737WAT     H117730   0.196   4.734   5.210
 5737WAT     H217731   0.241   4.758   5.352
 5738WAT      O17732   0.388   3.262   5.141
 5738WAT     H117733   0.441   3.183   5.128
 5738WAT     H217734   0.451   3.330   5.162
 5739WAT      O17735   0.607   3.236   5.445
 5739WAT     H117736   0.544   3.166   5.462
 5739WAT     H217737   0.553   3.312   5.424
 5740WAT      O17738   1.724   4.852   5.412
 5740WAT     H117739   1.742   4.783   5.348
 5740WAT     H217740   1.655   4.904   5.372
 5741WAT      O17741   0.510   4.891   5.167
 5741WAT     H117742   0.582   4.862   5.112
 5741WAT     H217743   0.535   4.867   5.256
 5742WAT      O17744   0.425   4.502   5.168
 5742WAT     H117745   0.362   4.550   5.223
 5742WAT     H217746   0.436   4.418   5.212
 5743WAT      O17747   1.170   3.907   3.783
 5743WAT     H117748   1.162   3.816   3.756
 5743WAT     H217749   1.129   3.957   3.712
 5744WAT      O17750   0.983   4.085   3.970
 5744WAT     H117751   0.906   4.036   4.000
 5744WAT     H217752   1.049   4.017   3.954
 5745WAT      O17753   0.385   4.117   4.058
 5745WAT     H117754   0.302   4.091   4.099
 5745WAT     H217755   0.446   4.124   4.132
 5746WAT      O17756   1.386   4.526   3.849
 5746WAT     H117757   1.339   4.449   3.881
 5746WAT     H217758   1.467   4.528   3.899
 5747WAT      O17759   0.383   4.520   4.079
 5747WAT     H117760   0.413   4.431   4.060
 5747WAT     H217761   0.458   4.576   4.056
 5748WAT      O17762   1.008   4.755   3.812
 5748WAT     H117763   0.946   4.799   3.754
 5748WAT     H217764   1.094   4.770   3.771
 5749WAT      O17765   0.927   4.353   3.972
 5749WAT     H117766   0.922   4.258   3.956
 5749WAT     H217767   1.003   4.363   4.029
 5750WAT      O17768   1.030   3.633   3.994
 5750WAT     H117769   1.069   3.547   3.984
 5750WAT     H217770   1.022   3.667   3.904
 5751WAT      O17771   0.444   3.471   3.541
 5751WAT     H117772   0.454   3.561   3.571
 5751WAT     H217773   0.353   3.466   3.511
 5752WAT      O17774   1.409   3.383   3.688
 5752WAT     H117775   1.491   3.334   3.692
 5752WAT     H217776   1.412   3.442   3.763
 5753WAT      O17777   0.209   3.662   4.064
 5753WAT     H117778   0.277   3.689   4.126
 5753WAT     H217779   0.177   3.579   4.099
 5754WAT      O17780   0.629   3.768   3.973
 5754WAT     H117781   0.680   3.817   4.038
 5754WAT     H217782   0.681   3.690   3.956
 5755WAT      O17783   0.456   3.231   4.400
 5755WAT     H117784   0.456   3.284   4.320
 5755WAT     H217785   0.373   3.184   4.398
 5756WAT      O17786   1.096   4.243   3.550
 5756WAT     H117787   1.033   4.289   3.494
 5756WAT     H217788   1.145   4.312   3.592
 5757WAT      O17789   0.582   4.196   4.219
 5757WAT     H117790   0.548   4.258   4.282
 5757WAT     H217791   0.599   4.249   4.140
 5758WAT      O17792   1.432   3.577   3.964
 5758WAT     H117793   1.362   3.605   4.023
 5758WAT     H217794   1.469   3.658   3.930
 5759WAT      O17795   0.423   3.403   4.200
 5759WAT     H117796   0.458   3.487   4.172
 5759WAT     H217797   0.330   3.418   4.213
 5760WAT      O17798   0.503   4.393   4.400
 5760WAT     H117799   0.564   4.461   4.371
 5760WAT     H217800   0.416   4.432   4.390
 5761WAT      O17801   1.594   4.539   4.191
 5761WAT     H117802   1.526   4.606   4.191
 5761WAT     H217803   1.648   4.559   4.115
 5762WAT      O17804   0.793   3.152   3.833
 5762WAT     H117805   0.823   3.096   3.762
 5762WAT     H217806   0.700   3.165   3.815
 5763WAT      O17807   1.348   4.723   4.062
 5763WAT     H117808   1.349   4.683   3.976
 5763WAT     H217809   1.292   4.801   4.052
 5764WAT      O17810   1.477   4.395   3.572
 5764WAT     H117811   1.466   4.301   3.584
 5764WAT     H217812   1.476   4.431   3.660
 5765WAT      O17813   1.288   4.214   4.195
 5765WAT     H117814   1.330   4.192   4.112
 5765WAT     H217815   1.360   4.238   4.253
 5766WAT      O17816   1.032   3.958   3.508
 5766WAT     H117817   0.939   3.951   3.529
 5766WAT     H217818   1.047   4.052   3.496
 5767WAT      O17819   1.030   3.584   3.205
 5767WAT     H117820   0.937   3.601   3.216
 5767WAT     H217821   1.062   3.657   3.153
 5768WAT      O17822   1.434   4.114   3.557
 5768WAT     H117823   1.372   4.080   3.493
 5768WAT     H217824   1.433   4.050   3.628
 5769WAT      O17825   1.379   3.732   4.299
 5769WAT     H117826   1.338   3.815   4.324
 5769WAT     H217827   1.305   3.674   4.280
 5770WAT      O17828   0.592   4.010   3.785
 5770WAT     H117829   0.551   3.939   3.736
 5770WAT     H217830   0.601   3.976   3.874
 5771WAT      O17831   0.639   4.378   4.003
 5771WAT     H117832   0.609   4.319   3.933
 5771WAT     H217833   0.734   4.383   3.991
 5772WAT      O17834   0.464   3.686   4.164
 5772WAT     H117835   0.517   3.700   4.086
 5772WAT     H217836   0.514   3.726   4.235
 5773WAT      O17837   1.448   4.736   4.369
 5773WAT     H117838   1.401   4.817   4.348
 5773WAT     H217839   1.379   4.671   4.383
 5774WAT      O17840   0.548   4.353   4.667
 5774WAT     H117841   0.459   4.376   4.692
 5774WAT     H217842   0.549   4.365   4.571
 5775WAT      O17843   1.252   4.038   3.258
 5775WAT     H117844   1.296   3.954   3.244
 5775WAT     H217845   1.324   4.101   3.266
 5776WAT      O17846   0.431   4.041   4.524
 5776WAT     H117847   0.417   4.128   4.560
 5776WAT     H217848   0.343   4.006   4.509
 5777WAT      O17849   1.063   4.531   3.655
 5777WAT     H117850   1.107   4.606   3.613
 5777WAT     H217851   1.056   4.556   3.747
 5778WAT      O17852   0.610   4.635   4.745
 5778WAT     H117853   0.608   4.675   4.659
 5778WAT     H217854   0.594   4.542   4.729
 5779WAT      O17855   1.610   3.163   3.091
 5779WAT     H117856   1.579   3.174   3.180
 5779WAT     H217857   1.686   3.221   3.084
 5780WAT      O17858   0.263   3.900   3.535
 5780WAT     H117859   0.250   3.973   3.475
 5780WAT     H217860   0.230   3.823   3.487
 5781WAT      O17861   1.806   4.712   4.875
 5781WAT     H117862   1.853   4.761   4.943
 5781WAT     H217863   1.868   4.706   4.802
 5782WAT      O17864   1.745   4.431   4.591
 5782WAT     H117865   1.759   4.407   4.499
 5782WAT     H217866   1.751   4.348   4.638
 5783WAT      O17867   1.133   4.802   4.448
 5783WAT     H117868   1.184   4.793   4.529
 5783WAT     H217869   1.048   4.837   4.477
 5784WAT      O17870   1.330   4.831   3.391
 5784WAT     H117871   1.314   4.802   3.480
 5784WAT     H217872   1.314   4.753   3.337
 5785WAT      O17873   0.577   4.809   3.568
 5785WAT     H117874   0.560   4.717   3.547
 5785WAT     H217875   0.492   4.845   3.592
 5786WAT      O17876   1.300   4.583   3.247
 5786WAT     H117877   1.230   4.581   3.181
 5786WAT     H217878   1.374   4.539   3.204
 5787WAT      O17879   1.256   4.744   3.655
 5787WAT     H117880   1.302   4.666   3.686
 5787WAT     H217881   1.290   4.815   3.708
 5788WAT      O17882   1.732   3.637   4.687
 5788WAT     H117883   1.670   3.688   4.635
 5788WAT     H217884   1.698   3.547   4.682
 5789WAT      O17885   0.509   3.235   3.873
 5789WAT     H117886   0.464   3.313   3.840
 5789WAT     H217887   0.564   3.267   3.945
 5790WAT      O17888   0.937   3.521   4.434
 5790WAT     H117889   0.890   3.542   4.515
 5790WAT     H217890   0.897   3.440   4.404
 5791WAT      O17891   1.437   3.642   4.547
 5791WAT     H117892   1.352   3.613   4.579
 5791WAT     H217893   1.421   3.669   4.456
 5792WAT      O17894   1.146   3.794   4.756
 5792WAT     H117895   1.179   3.710   4.724
 5792WAT     H217896   1.226   3.845   4.773
 5793WAT      O17897   0.819   3.197   3.362
 5793WAT     H117898   0.757   3.196   3.434
 5793WAT     H217899   0.812   3.110   3.322
 5794WAT      O17900   0.713   3.289   4.060
 5794WAT     H117901   0.742   3.380   4.051
 5794WAT     H217902   0.767   3.240   3.998
 5795WAT      O17903   0.488   3.746   3.646
 5795WAT     H117904   0.465   3.725   3.737
 5795WAT     H217905   0.410   3.791   3.612
 5796WAT      O17906   1.211   3.747   3.506
 5796WAT     H117907   1.151   3.820   3.488
 5796WAT     H217908   1.265   3.741   3.428
 5797WAT      O17909   0.732   3.837   4.713
 5797WAT     H117910   0.722   3.743   4.698
 5797WAT     H217911   0.816   3.859   4.674
 5798WAT      O17912   1.073   3.612   3.710
 5798WAT     H117913   1.111   3.643   3.628
 5798WAT     H217914   1.107   3.523   3.720
 5799WAT      O17915   0.245   3.479   4.528
 5799WAT     H117916   0.205   3.563   4.549
 5799WAT     H217917   0.177   3.414   4.547
 5800WAT      O17918   0.902   3.486   4.836
 5800WAT     H117919   0.833   3.466   4.899
 5800WAT     H217920   0.977   3.514   4.889
 5801WAT      O17921   1.130   3.870   4.119
 5801WAT     H117922   1.057   3.921   4.154
 5801WAT     H217923   1.090   3.788   4.089
 5802WAT      O17924   0.774   3.538   3.959
 5802WAT     H117925   0.775   3.495   3.873
 5802WAT     H217926   0.863   3.570   3.970
 5803WAT      O17927   0.359   3.526   3.855
 5803WAT     H117928   0.325   3.574   3.930
 5803WAT     H217929   0.282   3.481   3.819
 5804WAT      O17930   0.779   3.638   3.259
 5804WAT     H117931   0.792   3.634   3.354
 5804WAT     H217932   0.741   3.724   3.243
 5805WAT      O17933   1.176   3.415   4.060
 5805WAT     H117934   1.178   3.460   4.145
 5805WAT     H217935   1.151   3.326   4.081
 5806WAT      O17936   0.680   3.871   3.198
 5806WAT     H117937   0.624   3.824   3.135
 5806WAT     H217938   0.752   3.905   3.144
 5807WAT      O17939   1.518   3.157   4.644
 5807WAT     H117940   1.551   3.084   4.697
 5807WAT     H217941   1.522   3.125   4.554
 5808WAT      O17942   0.189   4.258   4.586
 5808WAT     H117943   0.150   4.195   4.647
 5808WAT     H217944   0.220   4.329   4.642
 5809WAT      O17945   0.804   3.944   4.134
 5809WAT     H117946   0.839   3.896   4.209
 5809WAT     H217947   0.785   4.031   4.169
 5810WAT      O17948   0.583   3.848   4.366
 5810WAT     H117949   0.552   3.935   4.388
 5810WAT     H217950   0.678   3.854   4.370
 5811WAT      O17951   0.436   4.268   3.425
 5811WAT     H117952   0.359   4.214   3.411
 5811WAT     H217953   0.509   4.216   3.392
 5812WAT      O17954   1.510   4.168   4.004
 5812WAT     H117955   1.583   4.218   3.966
 5812WAT     H217956   1.491   4.100   3.940
 5813WAT      O17957   1.058   3.307   3.419
 5813WAT     H117958   0.976   3.258   3.412
 5813WAT     H217959   1.039   3.392   3.378
 5814WAT      O17960   1.051   4.175   4.595
 5814WAT     H117961   1.043   4.084   4.568
 5814WAT     H217962   0.986   4.185   4.665
 5815WAT      O17963   1.329   3.745   3.249
 5815WAT     H117964   1.418   3.776   3.231
 5815WAT     H217965   1.326   3.657   3.210
 5816WAT      O17966   0.441   4.236   3.790
 5816WAT     H117967   0.492   4.155   3.783
 5816WAT     H217968   0.395   4.228   3.874
 5817WAT      O17969   0.930   4.362   3.317
 5817WAT     H117970   0.963   4.436   3.267
 5817WAT     H217971   0.846   4.393   3.353
 5818WAT      O17972   0.188   3.932   4.481
 5818WAT     H117973   0.152   3.999   4.539
 5818WAT     H217974   0.159   3.849   4.518
 5819WAT      O17975   0.508   3.977   4.769
 5819WAT     H117976   0.479   3.992   4.679
 5819WAT     H217977   0.586   3.923   4.761
 5820WAT      O17978   1.043   4.457   4.569
 5820WAT     H117979   1.044   4.363   4.547
 5820WAT     H217980   0.972   4.467   4.632
 5821WAT      O17981   1.556   3.876   3.196
 5821WAT     H117982   1.548   3.919   3.111
 5821WAT     H217983   1.628   3.922   3.239
 5822WAT      O17984   1.664   4.122   4.503
 5822WAT     H117985   1.591   4.181   4.483
 5822WAT     H217986   1.717   4.122   4.423
 5823WAT      O17987   1.660   4.561   3.468
 5823WAT     H117988   1.595   4.496   3.496
 5823WAT     H217989   1.620   4.602   3.391
 5824WAT      O17990   1.217   4.294   3.853
 5824WAT     H117991   1.252   4.234   3.787
 5824WAT     H217992   1.129   4.261   3.870
 5825WAT      O17993   0.825   4.370   3.595
 5825WAT     H117994   0.894   4.425   3.632
 5825WAT     H217995   0.747   4.424   3.597
 5826WAT      O17996   0.758   4.069   3.556
 5826WAT     H117997   0.801   4.152   3.578
 5826WAT     H217998   0.720   4.039   3.639
 5827WAT      O17999   0.986   4.622   4.278
 5827WAT     H118000   1.050   4.642   4.346
 5827WAT     H218001   1.022   4.545   4.234
 5828WAT      O18002   0.346   3.105   3.602
 5828WAT     H118003   0.333   3.104   3.697
 5828WAT     H218004   0.264   3.139   3.567
 5829WAT      O18005   1.114   4.422   4.150
 5829WAT     H118006   1.178   4.352   4.161
 5829WAT     H218007   1.167   4.500   4.132
 5830WAT      O18008   1.497   4.450   3.122
 5830WAT     H118009   1.475   4.378   3.181
 5830WAT     H218010   1.460   4.425   3.038
 5831WAT      O18011   1.291   4.503   4.470
 5831WAT     H118012   1.324   4.560   4.539
 5831WAT     H218013   1.199   4.489   4.493
 5832WAT      O18014   1.456   4.241   3.289
 5832WAT     H118015   1.427   4.288   3.367
 5832WAT     H218016   1.536   4.196   3.315
 5833WAT      O18017   0.874   4.507   4.787
 5833WAT     H118018   0.842   4.435   4.841
 5833WAT     H218019   0.806   4.574   4.793
 5834WAT      O18020   0.678   4.591   3.281
 5834WAT     H118021   0.677   4.665   3.220
 5834WAT     H218022   0.586   4.567   3.291
 5835WAT      O18023   0.238   4.113   3.356
 5835WAT     H118024   0.177   4.187   3.356
 5835WAT     H218025   0.284   4.121   3.273
 5836WAT      O18026   1.194   3.530   4.322
 5836WAT     H118027   1.232   3.449   4.356
 5836WAT     H218028   1.109   3.536   4.365
 5837WAT      O18029   1.532   3.427   3.404
 5837WAT     H118030   1.469   3.436   3.333
 5837WAT     H218031   1.481   3.446   3.483
 5838WAT      O18032   0.976   4.597   3.148
 5838WAT     H118033   0.987   4.577   3.055
 5838WAT     H218034   0.886   4.572   3.168
 5839WAT      O18035   0.729   3.653   3.545
 5839WAT     H118036   0.658   3.700   3.590
 5839WAT     H218037   0.758   3.588   3.609
 5840WAT      O18038   0.890   3.795   4.346
 5840WAT     H118039   0.941   3.843   4.412
 5840WAT     H218040   0.906   3.703   4.366
 5841WAT      O18041   1.132   3.326   3.690
 5841WAT     H118042   1.119   3.327   3.595
 5841WAT     H218043   1.227   3.331   3.701
 5842WAT      O18044   0.841   4.850   3.617
 5842WAT     H118045   0.867   4.846   3.525
 5842WAT     H218046   0.746   4.837   3.616
 5843WAT      O18047   0.549   3.485   3.283
 5843WAT     H118048   0.634   3.528   3.277
 5843WAT     H218049   0.513   3.515   3.366
 5844WAT      O18050   1.613   3.417   4.430
 5844WAT     H118051   1.562   3.491   4.464
 5844WAT     H218052   1.694   3.457   4.398
 5845WAT      O18053   1.441   3.942   3.775
 5845WAT     H118054   1.347   3.942   3.792
 5845WAT     H218055   1.473   3.863   3.819
 5846WAT      O18056   0.439   4.109   3.132
 5846WAT     H118057   0.516   4.099   3.187
 5846WAT     H218058   0.447   4.042   3.065
 5847WAT      O18059   0.309   3.853   3.200
 5847WAT     H118060   0.316   3.758   3.210
 5847WAT     H218061   0.398   3.886   3.210
 5848WAT      O18062   1.642   4.658   3.942
 5848WAT     H118063   1.654   4.741   3.989
 5848WAT     H218064   1.728   4.637   3.907
 5849WAT      O18065   0.389   4.868   3.909
 5849WAT     H118066   0.462   4.813   3.936
 5849WAT     H218067   0.428   4.954   3.895
 5850WAT      O18068   0.289   4.785   4.828
 5850WAT     H118069   0.369   4.818   4.870
 5850WAT     H218070   0.237   4.750   4.900
 5851WAT      O18071   0.700   4.785   3.092
 5851WAT     H118072   0.778   4.815   3.047
 5851WAT     H218073   0.648   4.742   3.024
 5852WAT      O18074   1.173   4.396   4.823
 5852WAT     H118075   1.112   4.399   4.749
 5852WAT     H218076   1.142   4.324   4.877
 5853WAT      O18077   1.316   4.771   4.682
 5853WAT     H118078   1.411   4.761   4.680
 5853WAT     H218079   1.300   4.835   4.751
 5854WAT      O18080   1.605   4.708   3.234
 5854WAT     H118081   1.576   4.666   3.153
 5854WAT     H218082   1.585   4.801   3.222
 5855WAT      O18083   0.751   4.307   3.078
 5855WAT     H118084   0.741   4.247   3.151
 5855WAT     H218085   0.735   4.254   3.000
 5856WAT      O18086   0.768   4.177   4.676
 5856WAT     H118087   0.690   4.232   4.667
 5856WAT     H218088   0.785   4.146   4.587
 5857WAT      O18089   1.075   4.213   3.138
 5857WAT     H118090   1.021   4.258   3.203
 5857WAT     H218091   1.138   4.163   3.190
 5858WAT      O18092   1.481   4.350   4.732
 5858WAT     H118093   1.555   4.382   4.681
 5858WAT     H218094   1.405   4.366   4.676
 5859WAT      O18095   0.264   3.849   4.811
 5859WAT     H118096   0.267   3.820   4.903
 5859WAT     H218097   0.350   3.889   4.796
 5860WAT      O18098   0.641   4.108   3.327
 5860WAT     H118099   0.684   4.094   3.412
 5860WAT     H218100   0.656   4.027   3.279
 5861WAT      O18101   0.459   3.706   4.609
 5861WAT     H118102   0.405   3.659   4.546
 5861WAT     H218103   0.525   3.750   4.555
 5862WAT      O18104   0.893   4.011   3.054
 5862WAT     H118105   0.946   3.940   3.016
 5862WAT     H218106   0.958   4.076   3.083
 5863WAT      O18107   1.348   4.153   4.585
 5863WAT     H118108   1.390   4.169   4.669
 5863WAT     H218109   1.255   4.167   4.601
 5864WAT      O18110   1.396   3.888   4.785
 5864WAT     H118111   1.454   3.812   4.777
 5864WAT     H218112   1.414   3.941   4.708
 5865WAT      O18113   0.507   3.404   4.617
 5865WAT     H118114   0.498   3.342   4.544
 5865WAT     H218115   0.448   3.476   4.594
 5866WAT      O18116   0.784   3.260   4.320
 5866WAT     H118117   0.739   3.262   4.236
 5866WAT     H218118   0.720   3.220   4.380
 5867WAT      O18119   0.823   4.149   4.382
 5867WAT     H118120   0.866   4.233   4.365
 5867WAT     H218121   0.732   4.163   4.358
 5868WAT      O18122   1.058   3.921   4.521
 5868WAT     H118123   1.071   3.863   4.596
 5868WAT     H218124   1.144   3.926   4.479
 5869WAT      O18125   1.291   3.978   4.379
 5869WAT     H118126   1.240   4.030   4.317
 5869WAT     H218127   1.326   4.041   4.441
 5870WAT      O18128   0.532   3.716   3.023
 5870WAT     H118129   0.512   3.630   3.059
 5870WAT     H218130   0.515   3.708   2.930
 5871WAT      O18131   0.610   4.781   4.494
 5871WAT     H118132   0.555   4.852   4.462
 5871WAT     H218133   0.634   4.731   4.416
 5872WAT      O18134   0.735   3.576   4.646
 5872WAT     H118135   0.794   3.546   4.715
 5872WAT     H218136   0.654   3.529   4.661
 5873WAT      O18137   1.217   3.538   4.670
 5873WAT     H118138   1.148   3.472   4.663
 5873WAT     H218139   1.289   3.493   4.714
 5874WAT      O18140   1.280   3.198   3.275
 5874WAT     H118141   1.308   3.113   3.312
 5874WAT     H218142   1.203   3.221   3.327
 5875WAT      O18143   0.413   3.428   3.021
 5875WAT     H118144   0.443   3.426   2.930
 5875WAT     H218145   0.485   3.392   3.071
 5876WAT      O18146   0.895   4.903   4.520
 5876WAT     H118147   0.888   4.993   4.550
 5876WAT     H218148   0.805   4.871   4.517
 5877WAT      O18149   0.734   3.321   3.119
 5877WAT     H118150   0.699   3.253   3.062
 5877WAT     H218151   0.754   3.276   3.201
 5878WAT      O18152   0.950   4.821   3.282
 5878WAT     H118153   1.039   4.854   3.284
 5878WAT     H218154   0.953   4.747   3.221
 5879WAT      O18155   0.314   4.357   3.104
 5879WAT     H118156   0.358   4.411   3.169
 5879WAT     H218157   0.362   4.274   3.106
 5880WAT      O18158   0.496   4.469   3.616
 5880WAT     H118159   0.465   4.457   3.706
 5880WAT     H218160   0.484   4.384   3.575
 5881WAT      O18161   1.648   4.674   4.552
 5881WAT     H118162   1.587   4.679   4.479
 5881WAT     H218163   1.661   4.580   4.566
 5882WAT      O18164   1.773   4.447   3.087
 5882WAT     H118165   1.688   4.454   3.132
 5882WAT     H218166   1.790   4.536   3.055
 5883WAT      O18167   1.717   4.121   3.337
 5883WAT     H118168   1.793   4.178   3.346
 5883WAT     H218169   1.719   4.065   3.414
 5884WAT      O18170   1.516   4.345   4.362
 5884WAT     H118171   1.435   4.388   4.389
 5884WAT     H218172   1.557   4.406   4.301
 5885WAT      O18173   1.725   4.151   3.053
 5885WAT     H118174   1.749   4.242   3.040
 5885WAT     H218175   1.704   4.144   3.146
 5886WAT      O18176   1.363   3.453   3.182
 5886WAT     H118177   1.404   3.434   3.098
 5886WAT     H218178   1.331   3.368   3.213
 5887WAT      O18179   1.712   3.945   3.552
 5887WAT     H118180   1.675   3.868   3.508
 5887WAT     H218181   1.639   3.983   3.600
 5888WAT      O18182   1.652   3.858   4.515
 5888WAT     H118183   1.628   3.836   4.425
 5888WAT     H218184   1.676   3.951   4.511
 5889WAT      O18185   1.495   3.382   4.793
 5889WAT     H118186   1.583   3.383   4.831
 5889WAT     H218187   1.496   3.308   4.732
 5890WAT      O18188   0.244   3.601   3.145
 5890WAT     H118189   0.313   3.556   3.097
 5890WAT     H218190   0.172   3.607   3.082
 5891WAT      O18191   0.207   3.206   3.048
 5891WAT     H118192   0.279   3.260   3.081
 5891WAT     H218193   0.235   3.179   2.961
 5892WAT      O18194   1.589   3.693   3.476
 5892WAT     H118195   1.639   3.669   3.554
 5892WAT     H218196   1.569   3.610   3.433
 5893WAT      O18197   0.178   3.132   4.038
 5893WAT     H118198   0.242   3.075   3.995
 5893WAT     H218199   0.219   3.156   4.121
 5894WAT      O18200   1.567   3.150   4.375
 5894WAT     H118201   1.629   3.212   4.411
 5894WAT     H218202   1.581   3.153   4.280
 5895WAT      O18203   1.820   3.337   3.053
 5895WAT     H118204   1.913   3.327   3.032
 5895WAT     H218205   1.819   3.348   3.148
 5896WAT      O18206   1.522   4.820   3.715
 5896WAT     H118207   1.582   4.788   3.647
 5896WAT     H218208   1.548   4.772   3.794
 5897WAT      O18209   0.313   4.464   4.730
 5897WAT     H118210   0.308   4.427   4.819
 5897WAT     H218211   0.326   4.557   4.744
 5898WAT      O18212   0.683   4.619   4.290
 5898WAT     H118213   0.659   4.645   4.201
 5898WAT     H218214   0.777   4.635   4.295
 5899WAT      O18215   0.903   3.265   4.667
 5899WAT     H118216   0.897   3.326   4.740
 5899WAT     H218217   0.997   3.255   4.651
 5900WAT      O18218   1.168   3.232   4.630
 5900WAT     H118219   1.229   3.263   4.563
 5900WAT     H218220   1.222   3.183   4.691
 5901WAT      O18221   1.810   4.820   4.368
 5901WAT     H118222   1.759   4.861   4.298
 5901WAT     H218223   1.748   4.760   4.410
 5902WAT      O18224   0.219   3.099   4.641
 5902WAT     H118225   0.274   3.081   4.565
 5902WAT     H218226   0.226   3.020   4.695
 5903WAT      O18227   0.297   4.758   4.442
 5903WAT     H118228   0.237   4.745   4.516
 5903WAT     H218229   0.296   4.675   4.395
 5904WAT      O18230   1.242   3.089   4.264
 5904WAT     H118231   1.155   3.121   4.241
 5904WAT     H218232   1.229   3.039   4.344
 5905WAT      O18233   1.332   3.308   4.402
 5905WAT     H118234   1.299   3.227   4.362
 5905WAT     H218235   1.427   3.304   4.389
 5906WAT      O18236   1.577   4.885   4.097
 5906WAT     H118237   1.531   4.961   4.061
 5906WAT     H218238   1.513   4.814   4.093
 5907WAT      O18239   0.259   4.496   4.337
 5907WAT     H118240   0.187   4.433   4.330
 5907WAT     H218241   0.266   4.533   4.249
 5908WAT      O18242   0.620   4.716   4.016
 5908WAT     H118243   0.672   4.655   3.963
 5908WAT     H218244   0.685   4.767   4.064
 5909WAT      O18245   0.894   4.805   4.098
 5909WAT     H118246   0.924   4.780   4.010
 5909WAT     H218247   0.945   4.750   4.157
 5910WAT      O18248   1.016   3.179   4.156
 5910WAT     H118249   0.938   3.227   4.185
 5910WAT     H218250   0.986   3.089   4.144
 5911WAT      O18251   1.471   3.249   3.961
 5911WAT     H118252   1.515   3.244   3.876
 5911WAT     H218253   1.444   3.341   3.969
 5912WAT      O18254   0.804   3.421   3.708
 5912WAT     H118255   0.723   3.383   3.672
 5912WAT     H218256   0.855   3.346   3.736
 5913WAT      O18257   1.255   3.088   3.831
 5913WAT     H118258   1.315   3.145   3.879
 5913WAT     H218259   1.181   3.144   3.809
 5914WAT      O18260   0.249   4.696   3.402
 5914WAT     H118261   0.196   4.734   3.332
 5914WAT     H218262   0.241   4.758   3.475
 5915WAT      O18263   0.388   3.262   3.263
 5915WAT     H118264   0.441   3.183   3.250
 5915WAT     H218265   0.451   3.330   3.285
 5916WAT      O18266   0.607   3.236   3.568
 5916WAT     H118267   0.544   3.166   3.584
 5916WAT     H218268   0.553   3.312   3.546
 5917WAT      O18269   0.901   4.898   4.835
 5917WAT     H118270   0.994   4.874   4.839
 5917WAT     H218271   0.899   4.980   4.787
 5918WAT      O18272   1.724   4.851   3.535
 5918WAT     H118273   1.742   4.783   3.470
 5918WAT     H218274   1.656   4.905   3.494
 5919WAT      O18275   0.620   3.164   4.811
 5919WAT     H118276   0.591   3.214   4.735
 5919WAT     H218277   0.658   3.084   4.775
 5920WAT      O18278   0.510   4.892   3.290
 5920WAT     H118279   0.582   4.862   3.235
 5920WAT     H218280   0.535   4.867   3.379
 5921WAT      O18281   0.425   4.502   3.291
 5921WAT     H118282   0.362   4.550   3.345
 5921WAT     H218283   0.436   4.418   3.335
 5922WAT      O18284   1.280   3.106   4.869
 5922WAT     H118285   1.268   3.137   4.959
 5922WAT     H218286   1.362   3.146   4.840
 5923WAT      O18287   1.558   4.821   4.816
 5923WAT     H118288   1.637   4.770   4.798
 5923WAT     H218289   1.587   4.888   4.878
 5924WAT      O18290   1.170   3.907   1.905
 5924WAT     H118291   1.162   3.816   1.878
 5924WAT     H218292   1.129   3.957   1.834
 5925WAT      O18293   0.983   4.085   2.093
 5925WAT     H118294   0.906   4.036   2.122
 5925WAT     H218295   1.049   4.017   2.076
 5926WAT      O18296   0.385   4.117   2.181
 5926WAT     H118297   0.302   4.091   2.221
 5926WAT     H218298   0.446   4.124   2.254
 5927WAT      O18299   1.386   4.526   1.971
 5927WAT     H118300   1.339   4.449   2.003
 5927WAT     H218301   1.467   4.528   2.022
 5928WAT      O18302   0.383   4.520   2.202
 5928WAT     H118303   0.413   4.431   2.183
 5928WAT     H218304   0.457   4.576   2.178
 5929WAT      O18305   1.008   4.755   1.934
 5929WAT     H118306   0.946   4.799   1.876
 5929WAT     H218307   1.094   4.770   1.894
 5930WAT      O18308   0.927   4.353   2.094
 5930WAT     H118309   0.922   4.258   2.078
 5930WAT     H218310   1.003   4.363   2.151
 5931WAT      O18311   1.030   3.633   2.117
 5931WAT     H118312   1.069   3.547   2.107
 5931WAT     H218313   1.022   3.667   2.027
 5932WAT      O18314   0.444   3.471   1.663
 5932WAT     H118315   0.454   3.561   1.694
 5932WAT     H218316   0.353   3.466   1.634
 5933WAT      O18317   1.409   3.383   1.810
 5933WAT     H118318   1.491   3.334   1.814
 5933WAT     H218319   1.412   3.442   1.886
 5934WAT      O18320   0.209   3.662   2.187
 5934WAT     H118321   0.277   3.689   2.249
 5934WAT     H218322   0.177   3.579   2.222
 5935WAT      O18323   0.629   3.768   2.096
 5935WAT     H118324   0.680   3.818   2.160
 5935WAT     H218325   0.681   3.690   2.079
 5936WAT      O18326   1.837   3.585   2.467
 5936WAT     H118327   1.767   3.624   2.415
 5936WAT     H218328   1.864   3.654   2.527
 5937WAT      O18329   0.456   3.231   2.523
 5937WAT     H118330   0.456   3.283   2.443
 5937WAT     H218331   0.373   3.184   2.521
 5938WAT      O18332   1.095   4.243   1.672
 5938WAT     H118333   1.033   4.289   1.616
 5938WAT     H218334   1.145   4.312   1.715
 5939WAT      O18335   0.582   4.196   2.342
 5939WAT     H118336   0.548   4.258   2.405
 5939WAT     H218337   0.599   4.249   2.263
 5940WAT      O18338   1.433   3.577   2.087
 5940WAT     H118339   1.362   3.606   2.145
 5940WAT     H218340   1.469   3.658   2.051
 5941WAT      O18341   0.424   3.403   2.323
 5941WAT     H118342   0.458   3.487   2.294
 5941WAT     H218343   0.330   3.418   2.335
 5942WAT      O18344   0.503   4.392   2.522
 5942WAT     H118345   0.564   4.461   2.494
 5942WAT     H218346   0.416   4.432   2.513
 5943WAT      O18347   1.594   4.539   2.314
 5943WAT     H118348   1.526   4.606   2.313
 5943WAT     H218349   1.648   4.559   2.237
 5944WAT      O18350   1.739   3.522   2.127
 5944WAT     H118351   1.644   3.525   2.141
 5944WAT     H218352   1.772   3.603   2.166
 5945WAT      O18353   0.793   3.152   1.955
 5945WAT     H118354   0.823   3.096   1.884
 5945WAT     H218355   0.700   3.165   1.938
 5946WAT      O18356   1.348   4.723   2.185
 5946WAT     H118357   1.349   4.683   2.098
 5946WAT     H218358   1.292   4.800   2.175
 5947WAT      O18359   1.477   4.395   1.694
 5947WAT     H118360   1.466   4.301   1.707
 5947WAT     H218361   1.476   4.432   1.783
 5948WAT      O18362   1.288   4.214   2.318
 5948WAT     H118363   1.330   4.192   2.235
 5948WAT     H218364   1.360   4.239   2.375
 5949WAT      O18365   1.032   3.958   1.631
 5949WAT     H118366   0.939   3.952   1.652
 5949WAT     H218367   1.047   4.052   1.618
 5950WAT      O18368   1.030   3.584   1.328
 5950WAT     H118369   0.937   3.601   1.339
 5950WAT     H218370   1.062   3.658   1.276
 5951WAT      O18371   1.682   4.052   2.327
 5951WAT     H118372   1.599   4.061   2.280
 5951WAT     H218373   1.742   4.112   2.281
 5952WAT      O18374   1.434   4.114   1.680
 5952WAT     H118375   1.372   4.080   1.616
 5952WAT     H218376   1.433   4.050   1.751
 5953WAT      O18377   1.379   3.732   2.421
 5953WAT     H118378   1.338   3.815   2.446
 5953WAT     H218379   1.305   3.674   2.402
 5954WAT      O18380   0.592   4.010   1.908
 5954WAT     H118381   0.551   3.939   1.858
 5954WAT     H218382   0.601   3.975   1.997
 5955WAT      O18383   0.639   4.378   2.125
 5955WAT     H118384   0.609   4.319   2.055
 5955WAT     H218385   0.734   4.383   2.113
 5956WAT      O18386   0.464   3.686   2.287
 5956WAT     H118387   0.517   3.700   2.208
 5956WAT     H218388   0.514   3.726   2.357
 5957WAT      O18389   1.448   4.736   2.492
 5957WAT     H118390   1.401   4.817   2.471
 5957WAT     H218391   1.379   4.671   2.506
 5958WAT      O18392   0.548   4.353   2.789
 5958WAT     H118393   0.459   4.376   2.814
 5958WAT     H218394   0.549   4.365   2.694
 5959WAT      O18395   1.252   4.038   1.381
 5959WAT     H118396   1.295   3.954   1.366
 5959WAT     H218397   1.324   4.101   1.388
 5960WAT      O18398   0.431   4.041   2.647
 5960WAT     H118399   0.416   4.128   2.683
 5960WAT     H218400   0.343   4.006   2.631
 5961WAT      O18401   1.063   4.531   1.778
 5961WAT     H118402   1.107   4.606   1.736
 5961WAT     H218403   1.057   4.556   1.870
 5962WAT      O18404   0.610   4.635   2.868
 5962WAT     H118405   0.608   4.675   2.781
 5962WAT     H218406   0.594   4.542   2.852
 5963WAT      O18407   1.610   3.164   1.212
 5963WAT     H118408   1.580   3.172   1.302
 5963WAT     H218409   1.686   3.221   1.207
 5964WAT      O18410   0.263   3.899   1.658
 5964WAT     H118411   0.250   3.973   1.598
 5964WAT     H218412   0.230   3.823   1.609
 5965WAT      O18413   1.806   4.713   2.997
 5965WAT     H118414   1.853   4.761   3.065
 5965WAT     H218415   1.868   4.706   2.925
 5966WAT      O18416   1.745   4.431   2.713
 5966WAT     H118417   1.760   4.407   2.622
 5966WAT     H218418   1.751   4.349   2.761
 5967WAT      O18419   1.133   4.802   2.571
 5967WAT     H118420   1.184   4.793   2.652
 5967WAT     H218421   1.048   4.837   2.600
 5968WAT      O18422   1.329   4.831   1.513
 5968WAT     H118423   1.314   4.802   1.603
 5968WAT     H218424   1.314   4.753   1.460
 5969WAT      O18425   0.577   4.809   1.691
 5969WAT     H118426   0.560   4.717   1.670
 5969WAT     H218427   0.492   4.845   1.715
 5970WAT      O18428   1.300   4.583   1.369
 5970WAT     H118429   1.230   4.581   1.303
 5970WAT     H218430   1.374   4.539   1.327
 5971WAT      O18431   1.255   4.744   1.777
 5971WAT     H118432   1.302   4.666   1.808
 5971WAT     H218433   1.290   4.815   1.831
 5972WAT      O18434   1.732   3.637   2.810
 5972WAT     H118435   1.670   3.688   2.757
 5972WAT     H218436   1.698   3.547   2.804
 5973WAT      O18437   0.509   3.235   1.996
 5973WAT     H118438   0.464   3.313   1.963
 5973WAT     H218439   0.564   3.267   2.067
 5974WAT      O18440   0.937   3.521   2.557
 5974WAT     H118441   0.890   3.542   2.638
 5974WAT     H218442   0.897   3.440   2.526
 5975WAT      O18443   1.437   3.642   2.669
 5975WAT     H118444   1.352   3.613   2.702
 5975WAT     H218445   1.421   3.668   2.579
 5976WAT      O18446   1.146   3.794   2.879
 5976WAT     H118447   1.179   3.710   2.847
 5976WAT     H218448   1.226   3.845   2.895
 5977WAT      O18449   0.819   3.197   1.484
 5977WAT     H118450   0.758   3.196   1.557
 5977WAT     H218451   0.812   3.110   1.445
 5978WAT      O18452   0.712   3.289   2.182
 5978WAT     H118453   0.742   3.380   2.173
 5978WAT     H218454   0.767   3.240   2.121
 5979WAT      O18455   0.488   3.747   1.769
 5979WAT     H118456   0.465   3.725   1.859
 5979WAT     H218457   0.410   3.791   1.734
 5980WAT      O18458   1.211   3.747   1.629
 5980WAT     H118459   1.151   3.820   1.611
 5980WAT     H218460   1.265   3.741   1.551
 5981WAT      O18461   0.732   3.837   2.836
 5981WAT     H118462   0.722   3.743   2.821
 5981WAT     H218463   0.816   3.859   2.796
 5982WAT      O18464   1.072   3.612   1.833
 5982WAT     H118465   1.111   3.643   1.751
 5982WAT     H218466   1.107   3.523   1.843
 5983WAT      O18467   0.245   3.479   2.651
 5983WAT     H118468   0.205   3.563   2.672
 5983WAT     H218469   0.177   3.414   2.670
 5984WAT      O18470   0.902   3.486   2.958
 5984WAT     H118471   0.833   3.466   3.022
 5984WAT     H218472   0.977   3.514   3.011
 5985WAT      O18473   1.130   3.870   2.241
 5985WAT     H118474   1.057   3.921   2.276
 5985WAT     H218475   1.090   3.788   2.211
 5986WAT      O18476   0.774   3.538   2.082
 5986WAT     H118477   0.775   3.495   1.996
 5986WAT     H218478   0.863   3.570   2.093
 5987WAT      O18479   0.359   3.526   1.978
 5987WAT     H118480   0.325   3.574   2.053
 5987WAT     H218481   0.282   3.481   1.942
 5988WAT      O18482   0.780   3.638   1.382
 5988WAT     H118483   0.792   3.634   1.477
 5988WAT     H218484   0.741   3.724   1.366
 5989WAT      O18485   1.176   3.415   2.183
 5989WAT     H118486   1.178   3.461   2.267
 5989WAT     H218487   1.151   3.326   2.204
 5990WAT      O18488   0.680   3.870   1.320
 5990WAT     H118489   0.625   3.824   1.257
 5990WAT     H218490   0.752   3.905   1.267
 5991WAT      O18491   1.519   3.157   2.767
 5991WAT     H118492   1.551   3.083   2.819
 5991WAT     H218493   1.522   3.126   2.676
 5992WAT      O18494   0.190   4.258   2.709
 5992WAT     H118495   0.150   4.195   2.769
 5992WAT     H218496   0.220   4.329   2.765
 5993WAT      O18497   0.804   3.944   2.256
 5993WAT     H118498   0.840   3.896   2.331
 5993WAT     H218499   0.785   4.031   2.292
 5994WAT      O18500   0.583   3.848   2.488
 5994WAT     H118501   0.552   3.935   2.511
 5994WAT     H218502   0.678   3.854   2.492
 5995WAT      O18503   0.436   4.268   1.547
 5995WAT     H118504   0.359   4.214   1.533
 5995WAT     H218505   0.509   4.216   1.514
 5996WAT      O18506   1.511   4.168   2.127
 5996WAT     H118507   1.583   4.218   2.088
 5996WAT     H218508   1.491   4.100   2.062
 5997WAT      O18509   1.058   3.307   1.541
 5997WAT     H118510   0.976   3.258   1.534
 5997WAT     H218511   1.039   3.391   1.500
 5998WAT      O18512   1.050   4.175   2.717
 5998WAT     H118513   1.043   4.084   2.690
 5998WAT     H218514   0.987   4.185   2.788
 5999WAT      O18515   1.329   3.745   1.371
 5999WAT     H118516   1.418   3.776   1.354
 5999WAT     H218517   1.326   3.657   1.332
 6000WAT      O18518   0.441   4.236   1.913
 6000WAT     H118519   0.492   4.155   1.906
 6000WAT     H218520   0.394   4.228   1.996
 6001WAT      O18521   0.929   4.362   1.439
 6001WAT     H118522   0.963   4.437   1.390
 6001WAT     H218523   0.846   4.393   1.475
 6002WAT      O18524   0.188   3.932   2.603
 6002WAT     H118525   0.152   3.998   2.662
 6002WAT     H218526   0.159   3.849   2.640
 6003WAT      O18527   0.508   3.977   2.892
 6003WAT     H118528   0.479   3.993   2.802
 6003WAT     H218529   0.587   3.923   2.883
 6004WAT      O18530   1.043   4.457   2.691
 6004WAT     H118531   1.043   4.363   2.670
 6004WAT     H218532   0.972   4.466   2.755
 6005WAT      O18533   1.556   3.876   1.318
 6005WAT     H118534   1.548   3.919   1.233
 6005WAT     H218535   1.628   3.922   1.361
 6006WAT      O18536   1.664   4.122   2.626
 6006WAT     H118537   1.591   4.181   2.606
 6006WAT     H218538   1.717   4.121   2.545
 6007WAT      O18539   1.660   4.561   1.590
 6007WAT     H118540   1.595   4.496   1.618
 6007WAT     H218541   1.621   4.602   1.513
 6008WAT      O18542   1.217   4.294   1.976
 6008WAT     H118543   1.252   4.234   1.910
 6008WAT     H218544   1.129   4.261   1.993
 6009WAT      O18545   0.825   4.370   1.717
 6009WAT     H118546   0.894   4.425   1.754
 6009WAT     H218547   0.747   4.424   1.720
 6010WAT      O18548   0.758   4.069   1.679
 6010WAT     H118549   0.801   4.152   1.700
 6010WAT     H218550   0.720   4.040   1.762
 6011WAT      O18551   0.986   4.621   2.400
 6011WAT     H118552   1.050   4.642   2.468
 6011WAT     H218553   1.022   4.545   2.356
 6012WAT      O18554   0.346   3.105   1.725
 6012WAT     H118555   0.333   3.104   1.820
 6012WAT     H218556   0.264   3.139   1.690
 6013WAT      O18557   1.114   4.422   2.272
 6013WAT     H118558   1.178   4.352   2.284
 6013WAT     H218559   1.167   4.500   2.254
 6014WAT      O18560   1.497   4.450   1.245
 6014WAT     H118561   1.475   4.378   1.304
 6014WAT     H218562   1.460   4.425   1.161
 6015WAT      O18563   1.291   4.502   2.593
 6015WAT     H118564   1.324   4.561   2.661
 6015WAT     H218565   1.199   4.489   2.616
 6016WAT      O18566   1.456   4.241   1.411
 6016WAT     H118567   1.427   4.288   1.490
 6016WAT     H218568   1.536   4.196   1.438
 6017WAT      O18569   0.874   4.507   2.910
 6017WAT     H118570   0.842   4.435   2.964
 6017WAT     H218571   0.806   4.574   2.916
 6018WAT      O18572   0.678   4.592   1.404
 6018WAT     H118573   0.677   4.665   1.342
 6018WAT     H218574   0.586   4.566   1.413
 6019WAT      O18575   0.238   4.113   1.478
 6019WAT     H118576   0.176   4.187   1.478
 6019WAT     H218577   0.284   4.121   1.395
 6020WAT      O18578   1.195   3.530   2.445
 6020WAT     H118579   1.232   3.449   2.479
 6020WAT     H218580   1.109   3.536   2.487
 6021WAT      O18581   1.532   3.426   1.527
 6021WAT     H118582   1.469   3.436   1.455
 6021WAT     H218583   1.482   3.446   1.606
 6022WAT      O18584   0.976   4.597   1.270
 6022WAT     H118585   0.986   4.576   1.177
 6022WAT     H218586   0.886   4.572   1.290
 6023WAT      O18587   0.729   3.653   1.668
 6023WAT     H118588   0.658   3.700   1.712
 6023WAT     H218589   0.758   3.588   1.732
 6024WAT      O18590   0.891   3.795   2.469
 6024WAT     H118591   0.941   3.843   2.534
 6024WAT     H218592   0.906   3.703   2.489
 6025WAT      O18593   1.132   3.326   1.812
 6025WAT     H118594   1.119   3.328   1.717
 6025WAT     H218595   1.227   3.331   1.823
 6026WAT      O18596   0.841   4.850   1.740
 6026WAT     H118597   0.866   4.846   1.648
 6026WAT     H218598   0.746   4.837   1.739
 6027WAT      O18599   0.549   3.485   1.406
 6027WAT     H118600   0.634   3.528   1.399
 6027WAT     H218601   0.513   3.515   1.489
 6028WAT      O18602   1.613   3.417   2.553
 6028WAT     H118603   1.562   3.491   2.587
 6028WAT     H218604   1.694   3.457   2.521
 6029WAT      O18605   1.441   3.942   1.897
 6029WAT     H118606   1.347   3.942   1.915
 6029WAT     H218607   1.474   3.864   1.941
 6030WAT      O18608   0.439   4.110   1.254
 6030WAT     H118609   0.516   4.099   1.310
 6030WAT     H218610   0.447   4.041   1.187
 6031WAT      O18611   0.308   3.853   1.323
 6031WAT     H118612   0.316   3.758   1.333
 6031WAT     H218613   0.398   3.886   1.332
 6032WAT      O18614   1.642   4.658   2.065
 6032WAT     H118615   1.654   4.741   2.112
 6032WAT     H218616   1.728   4.637   2.030
 6033WAT      O18617   0.389   4.868   2.032
 6033WAT     H118618   0.462   4.813   2.059
 6033WAT     H218619   0.428   4.954   2.018
 6034WAT      O18620   0.289   4.785   2.951
 6034WAT     H118621   0.369   4.818   2.992
 6034WAT     H218622   0.238   4.750   3.023
 6035WAT      O18623   0.699   4.784   1.214
 6035WAT     H118624   0.778   4.815   1.170
 6035WAT     H218625   0.648   4.742   1.145
 6036WAT      O18626   1.173   4.397   2.946
 6036WAT     H118627   1.113   4.399   2.872
 6036WAT     H218628   1.142   4.324   3.000
 6037WAT      O18629   1.316   4.771   2.805
 6037WAT     H118630   1.411   4.761   2.803
 6037WAT     H218631   1.301   4.835   2.874
 6038WAT      O18632   1.605   4.708   1.357
 6038WAT     H118633   1.576   4.666   1.276
 6038WAT     H218634   1.585   4.801   1.345
 6039WAT      O18635   0.751   4.307   1.200
 6039WAT     H118636   0.741   4.246   1.273
 6039WAT     H218637   0.735   4.254   1.122
 6040WAT      O18638   0.768   4.177   2.798
 6040WAT     H118639   0.690   4.232   2.790
 6040WAT     H218640   0.784   4.146   2.709
 6041WAT      O18641   1.075   4.213   1.261
 6041WAT     H118642   1.021   4.258   1.325
 6041WAT     H218643   1.138   4.163   1.313
 6042WAT      O18644   1.481   4.349   2.854
 6042WAT     H118645   1.555   4.382   2.804
 6042WAT     H218646   1.405   4.366   2.799
 6043WAT      O18647   0.264   3.849   2.934
 6043WAT     H118648   0.267   3.820   3.026
 6043WAT     H218649   0.350   3.889   2.919
 6044WAT      O18650   0.641   4.108   1.450
 6044WAT     H118651   0.684   4.094   1.534
 6044WAT     H218652   0.656   4.027   1.401
 6045WAT      O18653   0.459   3.706   2.731
 6045WAT     H118654   0.405   3.659   2.668
 6045WAT     H218655   0.525   3.750   2.678
 6046WAT      O18656   0.893   4.011   1.176
 6046WAT     H118657   0.946   3.940   1.139
 6046WAT     H218658   0.958   4.076   1.205
 6047WAT      O18659   1.348   4.153   2.708
 6047WAT     H118660   1.390   4.170   2.792
 6047WAT     H218661   1.255   4.167   2.724
 6048WAT      O18662   1.396   3.888   2.908
 6048WAT     H118663   1.454   3.812   2.899
 6048WAT     H218664   1.414   3.941   2.831
 6049WAT      O18665   0.508   3.404   2.739
 6049WAT     H118666   0.498   3.342   2.667
 6049WAT     H218667   0.448   3.476   2.717
 6050WAT      O18668   0.784   3.260   2.443
 6050WAT     H118669   0.739   3.262   2.358
 6050WAT     H218670   0.720   3.220   2.502
 6051WAT      O18671   0.823   4.149   2.505
 6051WAT     H118672   0.866   4.233   2.488
 6051WAT     H218673   0.732   4.163   2.481
 6052WAT      O18674   1.058   3.921   2.643
 6052WAT     H118675   1.071   3.863   2.718
 6052WAT     H218676   1.144   3.926   2.601
 6053WAT      O18677   1.291   3.978   2.502
 6053WAT     H118678   1.240   4.030   2.440
 6053WAT     H218679   1.326   4.041   2.564
 6054WAT      O18680   0.532   3.716   1.145
 6054WAT     H118681   0.512   3.630   1.181
 6054WAT     H218682   0.515   3.708   1.052
 6055WAT      O18683   0.610   4.781   2.616
 6055WAT     H118684   0.555   4.852   2.584
 6055WAT     H218685   0.634   4.731   2.538
 6056WAT      O18686   0.735   3.576   2.769
 6056WAT     H118687   0.794   3.546   2.838
 6056WAT     H218688   0.654   3.529   2.784
 6057WAT      O18689   1.217   3.538   2.792
 6057WAT     H118690   1.148   3.472   2.786
 6057WAT     H218691   1.289   3.493   2.837
 6058WAT      O18692   1.280   3.198   1.398
 6058WAT     H118693   1.307   3.113   1.434
 6058WAT     H218694   1.203   3.221   1.450
 6059WAT      O18695   0.413   3.428   1.143
 6059WAT     H118696   0.443   3.426   1.053
 6059WAT     H218697   0.485   3.392   1.194
 6060WAT      O18698   0.895   4.903   2.642
 6060WAT     H118699   0.888   4.993   2.673
 6060WAT     H218700   0.805   4.871   2.639
 6061WAT      O18701   0.734   3.321   1.242
 6061WAT     H118702   0.699   3.253   1.185
 6061WAT     H218703   0.754   3.276   1.324
 6062WAT      O18704   0.950   4.821   1.404
 6062WAT     H118705   1.039   4.854   1.407
 6062WAT     H218706   0.953   4.747   1.343
 6063WAT      O18707   0.314   4.357   1.226
 6063WAT     H118708   0.357   4.411   1.292
 6063WAT     H218709   0.362   4.274   1.228
 6064WAT      O18710   0.496   4.469   1.739
 6064WAT     H118711   0.465   4.457   1.829
 6064WAT     H218712   0.484   4.384   1.698
 6065WAT      O18713   1.648   4.674   2.675
 6065WAT     H118714   1.587   4.679   2.601
 6065WAT     H218715   1.662   4.580   2.688
 6066WAT      O18716   1.773   4.447   1.210
 6066WAT     H118717   1.688   4.454   1.255
 6066WAT     H218718   1.790   4.536   1.178
 6067WAT      O18719   1.717   4.121   1.459
 6067WAT     H118720   1.793   4.178   1.469
 6067WAT     H218721   1.719   4.065   1.536
 6068WAT      O18722   1.818   4.208   1.944
 6068WAT     H118723   1.855   4.129   1.904
 6068WAT     H218724   1.882   4.276   1.926
 6069WAT      O18725   1.516   4.345   2.485
 6069WAT     H118726   1.435   4.388   2.512
 6069WAT     H218727   1.557   4.406   2.424
 6070WAT      O18728   1.725   4.150   1.176
 6070WAT     H118729   1.749   4.242   1.162
 6070WAT     H218730   1.704   4.145   1.269
 6071WAT      O18731   1.363   3.453   1.304
 6071WAT     H118732   1.404   3.434   1.220
 6071WAT     H218733   1.331   3.368   1.335
 6072WAT      O18734   1.712   3.945   1.674
 6072WAT     H118735   1.675   3.868   1.631
 6072WAT     H218736   1.639   3.983   1.723
 6073WAT      O18737   1.652   3.858   2.638
 6073WAT     H118738   1.628   3.836   2.548
 6073WAT     H218739   1.676   3.951   2.634
 6074WAT      O18740   1.495   3.382   2.915
 6074WAT     H118741   1.582   3.383   2.954
 6074WAT     H218742   1.496   3.308   2.854
 6075WAT      O18743   1.639   3.767   2.005
 6075WAT     H118744   1.692   3.718   1.941
 6075WAT     H218745   1.698   3.781   2.079
 6076WAT      O18746   1.658   3.775   2.356
 6076WAT     H118747   1.563   3.772   2.368
 6076WAT     H218748   1.676   3.866   2.333
 6077WAT      O18749   0.243   3.601   1.267
 6077WAT     H118750   0.313   3.556   1.219
 6077WAT     H218751   0.172   3.607   1.204
 6078WAT      O18752   0.207   3.206   1.171
 6078WAT     H118753   0.279   3.260   1.203
 6078WAT     H218754   0.235   3.178   1.083
 6079WAT      O18755   1.590   3.693   1.598
 6079WAT     H118756   1.638   3.669   1.678
 6079WAT     H218757   1.569   3.609   1.557
 6080WAT      O18758   0.178   3.132   2.161
 6080WAT     H118759   0.242   3.075   2.118
 6080WAT     H218760   0.219   3.156   2.244
 6081WAT      O18761   1.732   3.556   1.851
 6081WAT     H118762   1.721   3.540   1.945
 6081WAT     H218763   1.808   3.505   1.827
 6082WAT      O18764   1.567   3.149   2.497
 6082WAT     H118765   1.629   3.212   2.533
 6082WAT     H218766   1.581   3.154   2.403
 6083WAT      O18767   1.820   3.338   1.176
 6083WAT     H118768   1.913   3.326   1.155
 6083WAT     H218769   1.819   3.348   1.271
 6084WAT      O18770   1.828   3.416   1.439
 6084WAT     H118771   1.748   3.410   1.491
 6084WAT     H218772   1.848   3.510   1.437
 6085WAT      O18773   1.522   4.820   1.838
 6085WAT     H118774   1.582   4.788   1.770
 6085WAT     H218775   1.548   4.772   1.917
 6086WAT      O18776   0.313   4.464   2.853
 6086WAT     H118777   0.308   4.427   2.941
 6086WAT     H218778   0.326   4.558   2.867
 6087WAT      O18779   0.683   4.619   2.413
 6087WAT     H118780   0.659   4.645   2.324
 6087WAT     H218781   0.777   4.635   2.418
 6088WAT      O18782   0.903   3.265   2.789
 6088WAT     H118783   0.897   3.326   2.862
 6088WAT     H218784   0.997   3.255   2.774
 6089WAT      O18785   1.168   3.232   2.752
 6089WAT     H118786   1.229   3.263   2.686
 6089WAT     H218787   1.222   3.183   2.814
 6090WAT      O18788   1.809   4.820   2.491
 6090WAT     H118789   1.759   4.861   2.421
 6090WAT     H218790   1.748   4.760   2.533
 6091WAT      O18791   0.219   3.099   2.763
 6091WAT     H118792   0.274   3.080   2.687
 6091WAT     H218793   0.226   3.021   2.817
 6092WAT      O18794   0.297   4.758   2.564
 6092WAT     H118795   0.237   4.745   2.638
 6092WAT     H218796   0.296   4.675   2.518
 6093WAT      O18797   1.242   3.089   2.386
 6093WAT     H118798   1.155   3.121   2.363
 6093WAT     H218799   1.228   3.039   2.467
 6094WAT      O18800   1.332   3.308   2.524
 6094WAT     H118801   1.299   3.227   2.484
 6094WAT     H218802   1.427   3.304   2.512
 6095WAT      O18803   1.577   4.885   2.220
 6095WAT     H118804   1.531   4.961   2.183
 6095WAT     H218805   1.513   4.814   2.216
 6096WAT      O18806   0.259   4.496   2.460
 6096WAT     H118807   0.187   4.433   2.453
 6096WAT     H218808   0.266   4.533   2.372
 6097WAT      O18809   0.620   4.716   2.139
 6097WAT     H118810   0.672   4.655   2.086
 6097WAT     H218811   0.685   4.768   2.186
 6098WAT      O18812   0.894   4.805   2.221
 6098WAT     H118813   0.924   4.780   2.133
 6098WAT     H218814   0.945   4.750   2.280
 6099WAT      O18815   1.016   3.179   2.279
 6099WAT     H118816   0.938   3.227   2.308
 6099WAT     H218817   0.986   3.089   2.267
 6100WAT      O18818   1.470   3.249   2.083
 6100WAT     H118819   1.516   3.244   1.999
 6100WAT     H218820   1.444   3.341   2.090
 6101WAT      O18821   1.657   3.213   1.884
 6101WAT     H118822   1.651   3.118   1.870
 6101WAT     H218823   1.735   3.223   1.939
 6102WAT      O18824   0.804   3.421   1.831
 6102WAT     H118825   0.723   3.383   1.795
 6102WAT     H218826   0.855   3.346   1.859
 6103WAT      O18827   1.255   3.088   1.954
 6103WAT     H118828   1.315   3.145   2.001
 6103WAT     H218829   1.181   3.144   1.931
 6104WAT      O18830   1.569   3.128   1.482
 6104WAT     H118831   1.588   3.218   1.508
 6104WAT     H218832   1.490   3.105   1.529
 6105WAT      O18833   0.249   4.696   1.525
 6105WAT     H118834   0.196   4.734   1.455
 6105WAT     H218835   0.241   4.758   1.597
 6106WAT      O18836   0.388   3.262   1.385
 6106WAT     H118837   0.441   3.183   1.373
 6106WAT     H218838   0.451   3.330   1.407
 6107WAT      O18839   0.607   3.236   1.690
 6107WAT     H118840   0.544   3.166   1.707
 6107WAT     H218841   0.553   3.312   1.669
 6108WAT      O18842   0.901   4.898   2.957
 6108WAT     H118843   0.994   4.874   2.962
 6108WAT     H218844   0.899   4.980   2.909
 6109WAT      O18845   1.724   4.851   1.657
 6109WAT     H118846   1.742   4.783   1.593
 6109WAT     H218847   1.655   4.905   1.617
 6110WAT      O18848   0.620   3.164   2.934
 6110WAT     H118849   0.591   3.214   2.857
 6110WAT     H218850   0.658   3.084   2.897
 6111WAT      O18851   0.510   4.892   1.412
 6111WAT     H118852   0.582   4.862   1.358
 6111WAT     H218853   0.535   4.867   1.501
 6112WAT      O18854   0.425   4.502   1.413
 6112WAT     H118855   0.362   4.550   1.468
 6112WAT     H218856   0.436   4.418   1.457
 6113WAT      O18857   1.280   3.106   2.991
 6113WAT     H118858   1.268   3.137   3.081
 6113WAT     H218859   1.362   3.146   2.963
 6114WAT      O18860   1.558   4.821   2.939
 6114WAT     H118861   1.637   4.771   2.920
 6114WAT     H218862   1.587   4.888   3.001
 6115WAT      O18863   0.983   4.085   0.215
 6115WAT     H118864   0.906   4.036   0.245
 6115WAT     H218865   1.049   4.017   0.199
 6116WAT      O18866   0.385   4.117   0.304
 6116WAT     H118867   0.302   4.091   0.344
 6116WAT     H218868   0.446   4.124   0.377
 6117WAT      O18869   0.383   4.520   0.324
 6117WAT     H118870   0.413   4.431   0.306
 6117WAT     H218871   0.458   4.576   0.301
 6118WAT      O18872   0.927   4.353   0.217
 6118WAT     H118873   0.922   4.259   0.201
 6118WAT     H218874   1.003   4.363   0.274
 6119WAT      O18875   0.208   3.663   0.310
 6119WAT     H118876   0.277   3.689   0.371
 6119WAT     H218877   0.177   3.579   0.344
 6120WAT      O18878   0.628   3.767   0.219
 6120WAT     H118879   0.680   3.818   0.282
 6120WAT     H218880   0.682   3.690   0.201
 6121WAT      O18881   1.837   3.584   0.589
 6121WAT     H118882   1.767   3.624   0.537
 6121WAT     H218883   1.864   3.654   0.649
 6122WAT      O18884   0.456   3.231   0.646
 6122WAT     H118885   0.457   3.283   0.566
 6122WAT     H218886   0.373   3.184   0.643
 6123WAT      O18887   0.583   4.196   0.464
 6123WAT     H118888   0.547   4.258   0.527
 6123WAT     H218889   0.599   4.248   0.385
 6124WAT      O18890   1.433   3.577   0.210
 6124WAT     H118891   1.362   3.606   0.268
 6124WAT     H218892   1.469   3.658   0.174
 6125WAT      O18893   0.424   3.403   0.446
 6125WAT     H118894   0.458   3.487   0.417
 6125WAT     H218895   0.330   3.418   0.458
 6126WAT      O18896   0.503   4.392   0.645
 6126WAT     H118897   0.564   4.461   0.617
 6126WAT     H218898   0.416   4.432   0.636
 6127WAT      O18899   1.593   4.539   0.436
 6127WAT     H118900   1.526   4.607   0.435
 6127WAT     H218901   1.649   4.559   0.360
 6128WAT      O18902   1.739   3.522   0.249
 6128WAT     H118903   1.644   3.525   0.262
 6128WAT     H218904   1.772   3.603   0.288
 6129WAT      O18905   1.348   4.723   0.308
 6129WAT     H118906   1.349   4.683   0.221
 6129WAT     H218907   1.292   4.801   0.298
 6130WAT      O18908   1.288   4.214   0.441
 6130WAT     H118909   1.330   4.192   0.357
 6130WAT     H218910   1.360   4.239   0.498
 6131WAT      O18911   1.682   4.053   0.450
 6131WAT     H118912   1.599   4.061   0.402
 6131WAT     H218913   1.742   4.112   0.404
 6132WAT      O18914   1.379   3.733   0.544
 6132WAT     H118915   1.338   3.815   0.569
 6132WAT     H218916   1.306   3.674   0.525
 6133WAT      O18917   0.639   4.378   0.248
 6133WAT     H118918   0.609   4.319   0.179
 6133WAT     H218919   0.734   4.383   0.236
 6134WAT      O18920   0.464   3.686   0.409
 6134WAT     H118921   0.517   3.700   0.331
 6134WAT     H218922   0.514   3.726   0.480
 6135WAT      O18923   1.448   4.736   0.613
 6135WAT     H118924   1.401   4.817   0.594
 6135WAT     H218925   1.379   4.671   0.628
 6136WAT      O18926   0.548   4.353   0.912
 6136WAT     H118927   0.459   4.376   0.937
 6136WAT     H218928   0.549   4.365   0.816
 6137WAT      O18929   0.431   4.040   0.770
 6137WAT     H118930   0.416   4.128   0.805
 6137WAT     H218931   0.343   4.006   0.754
 6138WAT      O18932   0.611   4.635   0.990
 6138WAT     H118933   0.608   4.675   0.904
 6138WAT     H218934   0.594   4.542   0.974
 6139WAT      O18935   1.806   4.712   1.120
 6139WAT     H118936   1.853   4.761   1.188
 6139WAT     H218937   1.868   4.706   1.047
 6140WAT      O18938   1.745   4.431   0.836
 6140WAT     H118939   1.760   4.408   0.744
 6140WAT     H218940   1.751   4.348   0.883
 6141WAT      O18941   1.133   4.802   0.693
 6141WAT     H118942   1.184   4.793   0.774
 6141WAT     H218943   1.048   4.837   0.722
 6142WAT      O18944   1.732   3.637   0.933
 6142WAT     H118945   1.670   3.688   0.880
 6142WAT     H218946   1.698   3.547   0.927
 6143WAT      O18947   0.937   3.521   0.679
 6143WAT     H118948   0.891   3.542   0.760
 6143WAT     H218949   0.897   3.440   0.649
 6144WAT      O18950   1.437   3.642   0.792
 6144WAT     H118951   1.352   3.613   0.824
 6144WAT     H218952   1.421   3.668   0.701
 6145WAT      O18953   1.146   3.794   1.001
 6145WAT     H118954   1.179   3.710   0.969
 6145WAT     H218955   1.226   3.845   1.018
 6146WAT      O18956   0.713   3.289   0.305
 6146WAT     H118957   0.742   3.380   0.296
 6146WAT     H218958   0.767   3.240   0.243
 6147WAT      O18959   0.732   3.837   0.958
 6147WAT     H118960   0.722   3.743   0.943
 6147WAT     H218961   0.816   3.859   0.919
 6148WAT      O18962   0.245   3.478   0.774
 6148WAT     H118963   0.205   3.563   0.794
 6148WAT     H218964   0.177   3.414   0.793
 6149WAT      O18965   0.902   3.486   1.081
 6149WAT     H118966   0.833   3.466   1.144
 6149WAT     H218967   0.977   3.514   1.134
 6150WAT      O18968   1.130   3.870   0.363
 6150WAT     H118969   1.057   3.921   0.399
 6150WAT     H218970   1.090   3.788   0.334
 6151WAT      O18971   1.175   3.416   0.305
 6151WAT     H118972   1.178   3.461   0.390
 6151WAT     H218973   1.151   3.326   0.327
 6152WAT      O18974   1.518   3.157   0.889
 6152WAT     H118975   1.551   3.084   0.942
 6152WAT     H218976   1.522   3.125   0.799
 6153WAT      O18977   0.189   4.258   0.831
 6153WAT     H118978   0.150   4.195   0.892
 6153WAT     H218979   0.220   4.329   0.887
 6154WAT      O18980   0.805   3.944   0.379
 6154WAT     H118981   0.839   3.896   0.454
 6154WAT     H218982   0.784   4.031   0.413
 6155WAT      O18983   0.583   3.848   0.611
 6155WAT     H118984   0.552   3.935   0.634
 6155WAT     H218985   0.678   3.854   0.615
 6156WAT      O18986   1.511   4.168   0.250
 6156WAT     H118987   1.582   4.218   0.211
 6156WAT     H218988   1.491   4.100   0.185
 6157WAT      O18989   1.051   4.175   0.840
 6157WAT     H118990   1.043   4.084   0.813
 6157WAT     H218991   0.986   4.185   0.910
 6158WAT      O18992   0.188   3.932   0.726
 6158WAT     H118993   0.152   3.998   0.785
 6158WAT     H218994   0.159   3.849   0.763
 6159WAT      O18995   0.508   3.977   1.014
 6159WAT     H118996   0.479   3.992   0.924
 6159WAT     H218997   0.586   3.923   1.006
 6160WAT      O18998   1.043   4.457   0.814
 6160WAT     H118999   1.043   4.363   0.793
 6160WAT     H219000   0.972   4.466   0.878
 6161WAT      O19001   1.664   4.122   0.748
 6161WAT     H119002   1.591   4.181   0.729
 6161WAT     H219003   1.717   4.122   0.668
 6162WAT      O19004   0.986   4.622   0.523
 6162WAT     H119005   1.050   4.642   0.591
 6162WAT     H219006   1.022   4.544   0.479
 6163WAT      O19007   1.114   4.422   0.395
 6163WAT     H119008   1.178   4.352   0.407
 6163WAT     H219009   1.167   4.500   0.377
 6164WAT      O19010   1.291   4.503   0.715
 6164WAT     H119011   1.324   4.560   0.784
 6164WAT     H219012   1.199   4.489   0.738
 6165WAT      O19013   0.874   4.506   1.032
 6165WAT     H119014   0.842   4.435   1.087
 6165WAT     H219015   0.806   4.574   1.038
 6166WAT      O19016   1.194   3.530   0.568
 6166WAT     H119017   1.232   3.449   0.601
 6166WAT     H219018   1.109   3.536   0.610
 6167WAT      O19019   0.891   3.795   0.591
 6167WAT     H119020   0.941   3.843   0.657
 6167WAT     H219021   0.906   3.703   0.612
 6168WAT      O19022   1.613   3.417   0.675
 6168WAT     H119023   1.562   3.491   0.709
 6168WAT     H219024   1.694   3.456   0.644
 6169WAT      O19025   0.289   4.785   1.073
 6169WAT     H119026   0.369   4.818   1.115
 6169WAT     H219027   0.238   4.750   1.146
 6170WAT      O19028   1.173   4.396   1.068
 6170WAT     H119029   1.112   4.399   0.994
 6170WAT     H219030   1.142   4.324   1.122
 6171WAT      O19031   1.316   4.771   0.928
 6171WAT     H119032   1.411   4.761   0.925
 6171WAT     H219033   1.301   4.835   0.997
 6172WAT      O19034   0.768   4.177   0.921
 6172WAT     H119035   0.690   4.232   0.913
 6172WAT     H219036   0.784   4.146   0.832
 6173WAT      O19037   1.481   4.349   0.977
 6173WAT     H119038   1.555   4.382   0.926
 6173WAT     H219039   1.405   4.366   0.922
 6174WAT      O19040   0.264   3.849   1.056
 6174WAT     H119041   0.267   3.820   1.148
 6174WAT     H219042   0.350   3.889   1.041
 6175WAT      O19043   0.459   3.706   0.854
 6175WAT     H119044   0.405   3.659   0.791
 6175WAT     H219045   0.525   3.751   0.801
 6176WAT      O19046   1.348   4.153   0.830
 6176WAT     H119047   1.390   4.170   0.914
 6176WAT     H219048   1.254   4.167   0.847
 6177WAT      O19049   1.396   3.888   1.030
 6177WAT     H119050   1.454   3.812   1.022
 6177WAT     H219051   1.414   3.941   0.953
 6178WAT      O19052   0.507   3.404   0.862
 6178WAT     H119053   0.498   3.342   0.789
 6178WAT     H219054   0.448   3.476   0.839
 6179WAT      O19055   0.784   3.260   0.565
 6179WAT     H119056   0.739   3.262   0.481
 6179WAT     H219057   0.720   3.220   0.625
 6180WAT      O19058   0.823   4.149   0.627
 6180WAT     H119059   0.866   4.233   0.610
 6180WAT     H219060   0.732   4.163   0.603
 6181WAT      O19061   1.058   3.921   0.766
 6181WAT     H119062   1.071   3.863   0.841
 6181WAT     H219063   1.144   3.926   0.724
 6182WAT      O19064   1.291   3.978   0.624
 6182WAT     H119065   1.240   4.030   0.562
 6182WAT     H219066   1.326   4.041   0.686
 6183WAT      O19067   0.611   4.781   0.739
 6183WAT     H119068   0.555   4.852   0.707
 6183WAT     H219069   0.634   4.731   0.661
 6184WAT      O19070   0.735   3.576   0.891
 6184WAT     H119071   0.794   3.546   0.960
 6184WAT     H219072   0.654   3.529   0.906
 6185WAT      O19073   1.217   3.538   0.915
 6185WAT     H119074   1.148   3.472   0.908
 6185WAT     H219075   1.289   3.493   0.959
 6186WAT      O19076   0.895   4.903   0.764
 6186WAT     H119077   0.888   4.993   0.795
 6186WAT     H219078   0.805   4.871   0.762
 6187WAT      O19079   1.648   4.674   0.797
 6187WAT     H119080   1.587   4.679   0.723
 6187WAT     H219081   1.661   4.580   0.811
 6188WAT      O19082   1.516   4.344   0.607
 6188WAT     H119083   1.435   4.388   0.634
 6188WAT     H219084   1.557   4.406   0.546
 6189WAT      O19085   1.652   3.858   0.760
 6189WAT     H119086   1.628   3.836   0.670
 6189WAT     H219087   1.676   3.951   0.757
 6190WAT      O19088   1.495   3.382   1.038
 6190WAT     H119089   1.583   3.383   1.076
 6190WAT     H219090   1.496   3.308   0.977
 6191WAT      O19091   1.658   3.775   0.479
 6191WAT     H119092   1.563   3.772   0.490
 6191WAT     H219093   1.676   3.866   0.456
 6192WAT      O19094   0.177   3.131   0.284
 6192WAT     H119095   0.242   3.076   0.240
 6192WAT     H219096   0.219   3.156   0.366
 6193WAT      O19097   1.567   3.150   0.620
 6193WAT     H119098   1.629   3.212   0.656
 6193WAT     H219099   1.581   3.154   0.525
 6194WAT      O19100   0.313   4.464   0.975
 6194WAT     H119101   0.308   4.427   1.064
 6194WAT     H219102   0.326   4.558   0.989
 6195WAT      O19103   0.683   4.619   0.535
 6195WAT     H119104   0.659   4.645   0.446
 6195WAT     H219105   0.777   4.635   0.540
 6196WAT      O19106   0.903   3.265   0.912
 6196WAT     H119107   0.897   3.326   0.985
 6196WAT     H219108   0.997   3.255   0.896
 6197WAT      O19109   1.168   3.232   0.875
 6197WAT     H119110   1.229   3.263   0.808
 6197WAT     H219111   1.222   3.183   0.937
 6198WAT      O19112   1.810   4.820   0.614
 6198WAT     H119113   1.759   4.861   0.544
 6198WAT     H219114   1.748   4.760   0.656
 6199WAT      O19115   0.219   3.099   0.886
 6199WAT     H119116   0.274   3.081   0.810
 6199WAT     H219117   0.226   3.021   0.940
 6200WAT      O19118   0.297   4.758   0.687
 6200WAT     H119119   0.237   4.745   0.761
 6200WAT     H219120   0.296   4.675   0.640
 6201WAT      O19121   1.242   3.088   0.508
 6201WAT     H119122   1.155   3.121   0.486
 6201WAT     H219123   1.229   3.039   0.589
 6202WAT      O19124   1.332   3.308   0.647
 6202WAT     H119125   1.299   3.227   0.607
 6202WAT     H219126   1.426   3.304   0.634
 6203WAT      O19127   1.577   4.885   0.344
 6203WAT     H119128   1.531   4.961   0.306
 6203WAT     H219129   1.514   4.814   0.337
 6204WAT      O19130   0.259   4.496   0.582
 6204WAT     H119131   0.187   4.433   0.575
 6204WAT     H219132   0.266   4.533   0.494
 6205WAT      O19133   0.620   4.715   0.262
 6205WAT     H119134   0.672   4.655   0.208
 6205WAT     H219135   0.685   4.768   0.309
 6206WAT      O19136   0.894   4.805   0.343
 6206WAT     H119137   0.923   4.780   0.256
 6206WAT     H219138   0.944   4.750   0.402
 6207WAT      O19139   1.016   3.179   0.401
 6207WAT     H119140   0.938   3.227   0.430
 6207WAT     H219141   0.986   3.089   0.390
 6208WAT      O19142   0.901   4.898   1.080
 6208WAT     H119143   0.994   4.874   1.084
 6208WAT     H219144   0.899   4.980   1.032
 6209WAT      O19145   0.620   3.164   1.056
 6209WAT     H119146   0.591   3.214   0.980
 6209WAT     H219147   0.658   3.084   1.020
 6210WAT      O19148   1.280   3.106   1.114
 6210WAT     H119149   1.268   3.137   1.204
 6210WAT     H219150   1.362   3.146   1.085
 6211WAT      O19151   1.558   4.821   1.061
 6211WAT     H119152   1.637   4.770   1.043
 6211WAT     H219153   1.587   4.888   1.123
 6212WAT      O19154   1.170   2.030   5.660
 6212WAT     H119155   1.162   1.939   5.633
 6212WAT     H219156   1.129   2.080   5.590
 6213WAT      O19157   1.386   2.648   5.725
 6213WAT     H119158   1.339   2.572   5.758
 6213WAT     H219159   1.467   2.650   5.777
 6214WAT      O19160   1.008   2.877   5.688
 6214WAT     H119161   0.946   2.922   5.631
 6214WAT     H219162   1.094   2.893   5.648
 6215WAT      O19163   0.444   1.593   5.418
 6215WAT     H119164   0.454   1.683   5.449
 6215WAT     H219165   0.353   1.588   5.389
 6216WAT      O19166   1.409   1.506   5.565
 6216WAT     H119167   1.491   1.457   5.569
 6216WAT     H219168   1.412   1.565   5.640
 6217WAT      O19169   1.095   2.365   5.427
 6217WAT     H119170   1.033   2.411   5.371
 6217WAT     H219171   1.146   2.435   5.469
 6218WAT      O19172   0.793   1.274   5.711
 6218WAT     H119173   0.823   1.219   5.639
 6218WAT     H219174   0.700   1.288   5.693
 6219WAT      O19175   1.477   2.518   5.449
 6219WAT     H119176   1.466   2.424   5.461
 6219WAT     H219177   1.476   2.554   5.538
 6220WAT      O19178   1.032   2.081   5.386
 6220WAT     H119179   0.938   2.074   5.406
 6220WAT     H219180   1.047   2.174   5.373
 6221WAT      O19181   1.030   1.707   5.082
 6221WAT     H119182   0.937   1.724   5.094
 6221WAT     H219183   1.062   1.781   5.031
 6222WAT      O19184   1.434   2.237   5.435
 6222WAT     H119185   1.372   2.203   5.371
 6222WAT     H219186   1.433   2.172   5.506
 6223WAT      O19187   0.592   2.133   5.663
 6223WAT     H119188   0.551   2.062   5.613
 6223WAT     H219189   0.601   2.098   5.752
 6224WAT      O19190   1.252   2.161   5.136
 6224WAT     H119191   1.295   2.077   5.121
 6224WAT     H219192   1.324   2.224   5.144
 6225WAT      O19193   1.063   2.654   5.532
 6225WAT     H119194   1.107   2.729   5.491
 6225WAT     H219195   1.057   2.679   5.625
 6226WAT      O19196   1.610   1.286   4.967
 6226WAT     H119197   1.580   1.294   5.057
 6226WAT     H219198   1.686   1.344   4.962
 6227WAT      O19199   0.263   2.022   5.413
 6227WAT     H119200   0.250   2.096   5.353
 6227WAT     H219201   0.230   1.946   5.364
 6228WAT      O19202   1.330   2.953   5.268
 6228WAT     H119203   1.314   2.924   5.358
 6228WAT     H219204   1.314   2.875   5.215
 6229WAT      O19205   0.577   2.931   5.446
 6229WAT     H119206   0.560   2.839   5.424
 6229WAT     H219207   0.492   2.967   5.470
 6230WAT      O19208   1.300   2.705   5.124
 6230WAT     H119209   1.230   2.704   5.058
 6230WAT     H219210   1.374   2.662   5.081
 6231WAT      O19211   1.256   2.867   5.532
 6231WAT     H119212   1.302   2.789   5.563
 6231WAT     H219213   1.290   2.938   5.586
 6232WAT      O19214   0.509   1.357   5.751
 6232WAT     H119215   0.464   1.435   5.718
 6232WAT     H219216   0.564   1.389   5.822
 6233WAT      O19217   0.819   1.319   5.239
 6233WAT     H119218   0.758   1.319   5.312
 6233WAT     H219219   0.811   1.232   5.200
 6234WAT      O19220   0.488   1.869   5.524
 6234WAT     H119221   0.464   1.848   5.614
 6234WAT     H219222   0.410   1.914   5.489
 6235WAT      O19223   1.211   1.870   5.384
 6235WAT     H119224   1.151   1.942   5.365
 6235WAT     H219225   1.266   1.864   5.306
 6236WAT      O19226   1.072   1.734   5.588
 6236WAT     H119227   1.111   1.766   5.506
 6236WAT     H219228   1.107   1.646   5.598
 6237WAT      O19229   0.774   1.660   5.837
 6237WAT     H119230   0.774   1.616   5.752
 6237WAT     H219231   0.863   1.692   5.848
 6238WAT      O19232   0.359   1.648   5.733
 6238WAT     H119233   0.325   1.696   5.808
 6238WAT     H219234   0.282   1.603   5.697
 6239WAT      O19235   0.779   1.760   5.137
 6239WAT     H119236   0.792   1.756   5.232
 6239WAT     H219237   0.742   1.846   5.120
 6240WAT      O19238   0.680   1.993   5.075
 6240WAT     H119239   0.624   1.947   5.012
 6240WAT     H219240   0.752   2.027   5.022
 6241WAT      O19241   0.436   2.391   5.302
 6241WAT     H119242   0.359   2.337   5.288
 6241WAT     H219243   0.509   2.339   5.269
 6242WAT      O19244   1.058   1.430   5.296
 6242WAT     H119245   0.976   1.380   5.289
 6242WAT     H219246   1.039   1.514   5.255
 6243WAT      O19247   1.329   1.867   5.126
 6243WAT     H119248   1.418   1.898   5.109
 6243WAT     H219249   1.326   1.780   5.087
 6244WAT      O19250   0.440   2.358   5.667
 6244WAT     H119251   0.492   2.278   5.661
 6244WAT     H219252   0.395   2.352   5.751
 6245WAT      O19253   0.929   2.484   5.194
 6245WAT     H119254   0.963   2.559   5.145
 6245WAT     H219255   0.846   2.515   5.230
 6246WAT      O19256   1.557   1.998   5.073
 6246WAT     H119257   1.548   2.041   4.988
 6246WAT     H219258   1.628   2.044   5.116
 6247WAT      O19259   1.659   2.684   5.345
 6247WAT     H119260   1.595   2.619   5.373
 6247WAT     H219261   1.621   2.724   5.268
 6248WAT      O19262   1.217   2.417   5.731
 6248WAT     H119263   1.252   2.357   5.665
 6248WAT     H219264   1.129   2.384   5.748
 6249WAT      O19265   0.825   2.492   5.472
 6249WAT     H119266   0.894   2.547   5.509
 6249WAT     H219267   0.747   2.547   5.475
 6250WAT      O19268   0.758   2.192   5.434
 6250WAT     H119269   0.801   2.275   5.455
 6250WAT     H219270   0.721   2.162   5.517
 6251WAT      O19271   0.346   1.227   5.480
 6251WAT     H119272   0.333   1.227   5.575
 6251WAT     H219273   0.264   1.261   5.445
 6252WAT      O19274   1.497   2.573   5.000
 6252WAT     H119275   1.475   2.501   5.059
 6252WAT     H219276   1.460   2.548   4.916
 6253WAT      O19277   1.456   2.364   5.166
 6253WAT     H119278   1.427   2.411   5.245
 6253WAT     H219279   1.536   2.319   5.193
 6254WAT      O19280   0.678   2.714   5.159
 6254WAT     H119281   0.677   2.787   5.097
 6254WAT     H219282   0.587   2.689   5.168
 6255WAT      O19283   0.238   2.236   5.233
 6255WAT     H119284   0.177   2.310   5.233
 6255WAT     H219285   0.284   2.244   5.150
 6256WAT      O19286   1.532   1.548   5.282
 6256WAT     H119287   1.469   1.559   5.210
 6256WAT     H219288   1.482   1.569   5.361
 6257WAT      O19289   0.976   2.719   5.025
 6257WAT     H119290   0.986   2.699   4.932
 6257WAT     H219291   0.886   2.695   5.045
 6258WAT      O19292   0.729   1.776   5.423
 6258WAT     H119293   0.658   1.823   5.467
 6258WAT     H219294   0.758   1.710   5.487
 6259WAT      O19295   1.133   1.448   5.567
 6259WAT     H119296   1.119   1.450   5.472
 6259WAT     H219297   1.228   1.453   5.578
 6260WAT      O19298   0.841   2.973   5.495
 6260WAT     H119299   0.866   2.968   5.402
 6260WAT     H219300   0.746   2.959   5.494
 6261WAT      O19301   0.549   1.607   5.160
 6261WAT     H119302   0.634   1.650   5.154
 6261WAT     H219303   0.513   1.638   5.244
 6262WAT      O19304   1.441   2.064   5.652
 6262WAT     H119305   1.347   2.064   5.670
 6262WAT     H219306   1.474   1.986   5.697
 6263WAT      O19307   0.438   2.232   5.009
 6263WAT     H119308   0.516   2.222   5.064
 6263WAT     H219309   0.447   2.163   4.942
 6264WAT      O19310   0.309   1.976   5.077
 6264WAT     H119311   0.316   1.881   5.088
 6264WAT     H219312   0.398   2.008   5.087
 6265WAT      O19313   0.389   2.990   5.786
 6265WAT     H119314   0.462   2.935   5.814
 6265WAT     H219315   0.427   3.077   5.774
 6266WAT      O19316   0.699   2.907   4.969
 6266WAT     H119317   0.779   2.938   4.925
 6266WAT     H219318   0.648   2.865   4.900
 6267WAT      O19319   1.605   2.830   5.111
 6267WAT     H119320   1.576   2.789   5.030
 6267WAT     H219321   1.585   2.923   5.099
 6268WAT      O19322   0.751   2.430   4.955
 6268WAT     H119323   0.741   2.369   5.028
 6268WAT     H219324   0.735   2.376   4.877
 6269WAT      O19325   1.075   2.336   5.016
 6269WAT     H119326   1.021   2.381   5.080
 6269WAT     H219327   1.137   2.285   5.068
 6270WAT      O19328   0.641   2.231   5.205
 6270WAT     H119329   0.684   2.216   5.289
 6270WAT     H219330   0.656   2.150   5.156
 6271WAT      O19331   0.893   2.133   4.931
 6271WAT     H119332   0.946   2.063   4.894
 6271WAT     H219333   0.958   2.198   4.960
 6272WAT      O19334   0.532   1.839   4.900
 6272WAT     H119335   0.512   1.752   4.936
 6272WAT     H219336   0.515   1.830   4.806
 6273WAT      O19337   1.280   1.320   5.153
 6273WAT     H119338   1.308   1.236   5.189
 6273WAT     H219339   1.202   1.344   5.204
 6274WAT      O19340   0.413   1.550   4.898
 6274WAT     H119341   0.443   1.549   4.808
 6274WAT     H219342   0.485   1.514   4.949
 6275WAT      O19343   0.734   1.443   4.997
 6275WAT     H119344   0.698   1.376   4.940
 6275WAT     H219345   0.754   1.398   5.079
 6276WAT      O19346   0.950   2.943   5.159
 6276WAT     H119347   1.039   2.976   5.162
 6276WAT     H219348   0.953   2.870   5.098
 6277WAT      O19349   0.314   2.480   4.981
 6277WAT     H119350   0.357   2.534   5.047
 6277WAT     H219351   0.362   2.397   4.983
 6278WAT      O19352   0.495   2.592   5.494
 6278WAT     H119353   0.465   2.579   5.583
 6278WAT     H219354   0.484   2.506   5.452
 6279WAT      O19355   1.773   2.570   4.965
 6279WAT     H119356   1.688   2.576   5.010
 6279WAT     H219357   1.790   2.658   4.933
 6280WAT      O19358   1.717   2.244   5.214
 6280WAT     H119359   1.793   2.301   5.224
 6280WAT     H219360   1.719   2.187   5.291
 6281WAT      O19361   1.817   2.330   5.698
 6281WAT     H119362   1.855   2.251   5.659
 6281WAT     H219363   1.882   2.398   5.681
 6282WAT      O19364   1.725   2.273   4.930
 6282WAT     H119365   1.749   2.364   4.917
 6282WAT     H219366   1.704   2.267   5.023
 6283WAT      O19367   1.363   1.576   5.059
 6283WAT     H119368   1.404   1.557   4.975
 6283WAT     H219369   1.331   1.491   5.090
 6284WAT      O19370   1.712   2.067   5.429
 6284WAT     H119371   1.675   1.990   5.386
 6284WAT     H219372   1.639   2.105   5.478
 6285WAT      O19373   1.639   1.889   5.760
 6285WAT     H119374   1.692   1.841   5.696
 6285WAT     H219375   1.698   1.903   5.834
 6286WAT      O19376   0.243   1.724   5.022
 6286WAT     H119377   0.314   1.679   4.974
 6286WAT     H219378   0.172   1.730   4.959
 6287WAT      O19379   0.207   1.328   4.926
 6287WAT     H119380   0.279   1.382   4.959
 6287WAT     H219381   0.235   1.301   4.838
 6288WAT      O19382   1.590   1.815   5.353
 6288WAT     H119383   1.638   1.791   5.432
 6288WAT     H219384   1.569   1.732   5.311
 6289WAT      O19385   1.732   1.679   5.606
 6289WAT     H119386   1.721   1.663   5.700
 6289WAT     H219387   1.808   1.627   5.582
 6290WAT      O19388   1.821   1.461   4.931
 6290WAT     H119389   1.913   1.449   4.910
 6290WAT     H219390   1.818   1.471   5.026
 6291WAT      O19391   1.828   1.539   5.194
 6291WAT     H119392   1.748   1.533   5.246
 6291WAT     H219393   1.848   1.633   5.192
 6292WAT      O19394   1.523   2.943   5.593
 6292WAT     H119395   1.582   2.911   5.525
 6292WAT     H219396   1.548   2.896   5.672
 6293WAT      O19397   1.470   1.372   5.837
 6293WAT     H119398   1.516   1.367   5.754
 6293WAT     H219399   1.444   1.464   5.845
 6294WAT      O19400   1.658   1.336   5.639
 6294WAT     H119401   1.651   1.241   5.624
 6294WAT     H219402   1.735   1.345   5.694
 6295WAT      O19403   0.804   1.544   5.586
 6295WAT     H119404   0.723   1.505   5.550
 6295WAT     H219405   0.855   1.468   5.615
 6296WAT      O19406   1.255   1.210   5.708
 6296WAT     H119407   1.315   1.267   5.757
 6296WAT     H219408   1.181   1.267   5.686
 6297WAT      O19409   1.569   1.250   5.237
 6297WAT     H119410   1.588   1.340   5.263
 6297WAT     H219411   1.490   1.227   5.284
 6298WAT      O19412   0.249   2.818   5.280
 6298WAT     H119413   0.196   2.857   5.210
 6298WAT     H219414   0.241   2.881   5.352
 6299WAT      O19415   0.388   1.385   5.140
 6299WAT     H119416   0.441   1.306   5.128
 6299WAT     H219417   0.451   1.453   5.162
 6300WAT      O19418   0.607   1.359   5.445
 6300WAT     H119419   0.544   1.289   5.462
 6300WAT     H219420   0.553   1.435   5.424
 6301WAT      O19421   1.724   2.974   5.412
 6301WAT     H119422   1.742   2.905   5.348
 6301WAT     H219423   1.655   3.027   5.372
 6302WAT      O19424   0.509   3.014   5.167
 6302WAT     H119425   0.582   2.985   5.112
 6302WAT     H219426   0.535   2.989   5.256
 6303WAT      O19427   0.425   2.625   5.168
 6303WAT     H119428   0.362   2.672   5.223
 6303WAT     H219429   0.436   2.541   5.212
 6304WAT      O19430   1.170   2.030   3.783
 6304WAT     H119431   1.162   1.939   3.756
 6304WAT     H219432   1.129   2.080   3.712
 6305WAT      O19433   0.983   2.208   3.970
 6305WAT     H119434   0.906   2.159   4.000
 6305WAT     H219435   1.049   2.140   3.954
 6306WAT      O19436   0.384   2.240   4.059
 6306WAT     H119437   0.302   2.213   4.099
 6306WAT     H219438   0.446   2.246   4.132
 6307WAT      O19439   1.386   2.648   3.849
 6307WAT     H119440   1.339   2.571   3.881
 6307WAT     H219441   1.467   2.651   3.899
 6308WAT      O19442   0.383   2.642   4.079
 6308WAT     H119443   0.413   2.553   4.060
 6308WAT     H219444   0.458   2.698   4.056
 6309WAT      O19445   1.008   2.878   3.812
 6309WAT     H119446   0.946   2.922   3.754
 6309WAT     H219447   1.094   2.892   3.771
 6310WAT      O19448   0.927   2.475   3.972
 6310WAT     H119449   0.922   2.380   3.956
 6310WAT     H219450   1.003   2.485   4.029
 6311WAT      O19451   1.030   1.756   3.994
 6311WAT     H119452   1.069   1.670   3.984
 6311WAT     H219453   1.022   1.790   3.904
 6312WAT      O19454   0.444   1.593   3.541
 6312WAT     H119455   0.454   1.683   3.571
 6312WAT     H219456   0.353   1.588   3.511
 6313WAT      O19457   1.409   1.506   3.688
 6313WAT     H119458   1.491   1.457   3.692
 6313WAT     H219459   1.412   1.565   3.763
 6314WAT      O19460   0.209   1.785   4.064
 6314WAT     H119461   0.277   1.812   4.126
 6314WAT     H219462   0.177   1.702   4.099
 6315WAT      O19463   0.628   1.891   3.974
 6315WAT     H119464   0.680   1.940   4.038
 6315WAT     H219465   0.681   1.813   3.956
 6316WAT      O19466   1.837   1.707   4.344
 6316WAT     H119467   1.767   1.747   4.292
 6316WAT     H219468   1.864   1.777   4.404
 6317WAT      O19469   0.456   1.353   4.400
 6317WAT     H119470   0.456   1.406   4.321
 6317WAT     H219471   0.373   1.306   4.398
 6318WAT      O19472   1.096   2.365   3.550
 6318WAT     H119473   1.033   2.411   3.494
 6318WAT     H219474   1.145   2.435   3.592
 6319WAT      O19475   0.582   2.319   4.219
 6319WAT     H119476   0.548   2.381   4.282
 6319WAT     H219477   0.599   2.371   4.140
 6320WAT      O19478   1.433   1.700   3.965
 6320WAT     H119479   1.362   1.728   4.023
 6320WAT     H219480   1.469   1.781   3.929
 6321WAT      O19481   0.424   1.525   4.200
 6321WAT     H119482   0.458   1.610   4.172
 6321WAT     H219483   0.330   1.540   4.213
 6322WAT      O19484   0.503   2.515   4.400
 6322WAT     H119485   0.564   2.583   4.371
 6322WAT     H219486   0.416   2.555   4.390
 6323WAT      O19487   1.594   2.661   4.191
 6323WAT     H119488   1.526   2.728   4.191
 6323WAT     H219489   1.648   2.681   4.115
 6324WAT      O19490   1.739   1.644   4.004
 6324WAT     H119491   1.644   1.647   4.018
 6324WAT     H219492   1.772   1.725   4.043
 6325WAT      O19493   0.793   1.274   3.833
 6325WAT     H119494   0.823   1.219   3.762
 6325WAT     H219495   0.700   1.288   3.815
 6326WAT      O19496   1.348   2.846   4.062
 6326WAT     H119497   1.349   2.805   3.976
 6326WAT     H219498   1.292   2.923   4.052
 6327WAT      O19499   1.477   2.518   3.572
 6327WAT     H119500   1.466   2.423   3.584
 6327WAT     H219501   1.476   2.554   3.660
 6328WAT      O19502   1.288   2.337   4.195
 6328WAT     H119503   1.330   2.315   4.112
 6328WAT     H219504   1.360   2.362   4.253
 6329WAT      O19505   1.032   2.081   3.508
 6329WAT     H119506   0.939   2.074   3.529
 6329WAT     H219507   1.047   2.174   3.496
 6330WAT      O19508   1.030   1.707   3.205
 6330WAT     H119509   0.937   1.724   3.216
 6330WAT     H219510   1.062   1.780   3.153
 6331WAT      O19511   1.682   2.175   4.205
 6331WAT     H119512   1.599   2.184   4.157
 6331WAT     H219513   1.742   2.234   4.159
 6332WAT      O19514   1.434   2.237   3.557
 6332WAT     H119515   1.372   2.203   3.493
 6332WAT     H219516   1.433   2.172   3.628
 6333WAT      O19517   1.379   1.855   4.298
 6333WAT     H119518   1.337   1.937   4.324
 6333WAT     H219519   1.306   1.796   4.280
 6334WAT      O19520   0.592   2.133   3.785
 6334WAT     H119521   0.551   2.062   3.736
 6334WAT     H219522   0.601   2.098   3.874
 6335WAT      O19523   0.639   2.501   4.002
 6335WAT     H119524   0.609   2.442   3.933
 6335WAT     H219525   0.734   2.506   3.991
 6336WAT      O19526   0.464   1.809   4.164
 6336WAT     H119527   0.517   1.823   4.086
 6336WAT     H219528   0.514   1.849   4.235
 6337WAT      O19529   1.448   2.859   4.368
 6337WAT     H119530   1.401   2.940   4.349
 6337WAT     H219531   1.379   2.794   4.383
 6338WAT      O19532   0.548   2.476   4.667
 6338WAT     H119533   0.459   2.498   4.692
 6338WAT     H219534   0.549   2.488   4.571
 6339WAT      O19535   1.252   2.161   3.258
 6339WAT     H119536   1.296   2.077   3.244
 6339WAT     H219537   1.324   2.224   3.266
 6340WAT      O19538   0.431   2.163   4.524
 6340WAT     H119539   0.417   2.251   4.560
 6340WAT     H219540   0.343   2.129   4.509
 6341WAT      O19541   1.063   2.654   3.655
 6341WAT     H119542   1.107   2.729   3.613
 6341WAT     H219543   1.056   2.679   3.747
 6342WAT      O19544   0.610   2.757   4.745
 6342WAT     H119545   0.608   2.797   4.659
 6342WAT     H219546   0.594   2.664   4.729
 6343WAT      O19547   1.610   1.286   3.090
 6343WAT     H119548   1.580   1.294   3.180
 6343WAT     H219549   1.686   1.344   3.085
 6344WAT      O19550   0.263   2.022   3.535
 6344WAT     H119551   0.250   2.095   3.474
 6344WAT     H219552   0.230   1.946   3.487
 6345WAT      O19553   1.806   2.835   4.875
 6345WAT     H119554   1.853   2.883   4.943
 6345WAT     H219555   1.868   2.829   4.802
 6346WAT      O19556   1.745   2.554   4.591
 6346WAT     H119557   1.760   2.530   4.499
 6346WAT     H219558   1.751   2.470   4.638
 6347WAT      O19559   1.133   2.925   4.448
 6347WAT     H119560   1.184   2.916   4.529
 6347WAT     H219561   1.048   2.959   4.477
 6348WAT      O19562   1.329   2.953   3.390
 6348WAT     H119563   1.314   2.924   3.480
 6348WAT     H219564   1.313   2.875   3.337
 6349WAT      O19565   0.577   2.931   3.568
 6349WAT     H119566   0.560   2.839   3.547
 6349WAT     H219567   0.492   2.967   3.592
 6350WAT      O19568   1.300   2.705   3.247
 6350WAT     H119569   1.230   2.704   3.181
 6350WAT     H219570   1.374   2.662   3.204
 6351WAT      O19571   1.256   2.867   3.655
 6351WAT     H119572   1.302   2.789   3.686
 6351WAT     H219573   1.290   2.938   3.708
 6352WAT      O19574   1.732   1.760   4.687
 6352WAT     H119575   1.670   1.811   4.635
 6352WAT     H219576   1.698   1.670   4.682
 6353WAT      O19577   0.509   1.357   3.873
 6353WAT     H119578   0.464   1.435   3.840
 6353WAT     H219579   0.564   1.389   3.945
 6354WAT      O19580   0.937   1.644   4.434
 6354WAT     H119581   0.890   1.665   4.515
 6354WAT     H219582   0.897   1.562   4.404
 6355WAT      O19583   1.437   1.765   4.547
 6355WAT     H119584   1.352   1.736   4.579
 6355WAT     H219585   1.421   1.791   4.456
 6356WAT      O19586   1.146   1.916   4.756
 6356WAT     H119587   1.179   1.832   4.724
 6356WAT     H219588   1.226   1.967   4.773
 6357WAT      O19589   0.820   1.319   3.361
 6357WAT     H119590   0.757   1.319   3.434
 6357WAT     H219591   0.811   1.232   3.323
 6358WAT      O19592   0.713   1.411   4.060
 6358WAT     H119593   0.741   1.502   4.051
 6358WAT     H219594   0.767   1.363   3.998
 6359WAT      O19595   0.487   1.869   3.646
 6359WAT     H119596   0.465   1.848   3.737
 6359WAT     H219597   0.410   1.914   3.612
 6360WAT      O19598   1.211   1.870   3.506
 6360WAT     H119599   1.151   1.942   3.488
 6360WAT     H219600   1.266   1.864   3.428
 6361WAT      O19601   0.732   1.959   4.713
 6361WAT     H119602   0.722   1.865   4.698
 6361WAT     H219603   0.816   1.981   4.674
 6362WAT      O19604   1.072   1.734   3.710
 6362WAT     H119605   1.111   1.765   3.628
 6362WAT     H219606   1.107   1.646   3.721
 6363WAT      O19607   0.245   1.601   4.528
 6363WAT     H119608   0.205   1.685   4.549
 6363WAT     H219609   0.176   1.537   4.547
 6364WAT      O19610   0.902   1.609   4.836
 6364WAT     H119611   0.833   1.588   4.899
 6364WAT     H219612   0.977   1.637   4.889
 6365WAT      O19613   1.130   1.993   4.119
 6365WAT     H119614   1.057   2.044   4.154
 6365WAT     H219615   1.090   1.911   4.089
 6366WAT      O19616   0.774   1.660   3.959
 6366WAT     H119617   0.775   1.617   3.873
 6366WAT     H219618   0.863   1.692   3.970
 6367WAT      O19619   0.359   1.648   3.855
 6367WAT     H119620   0.325   1.696   3.930
 6367WAT     H219621   0.282   1.603   3.819
 6368WAT      O19622   0.779   1.760   3.259
 6368WAT     H119623   0.792   1.756   3.354
 6368WAT     H219624   0.741   1.846   3.243
 6369WAT      O19625   1.176   1.538   4.060
 6369WAT     H119626   1.178   1.583   4.145
 6369WAT     H219627   1.151   1.448   4.081
 6370WAT      O19628   0.680   1.993   3.198
 6370WAT     H119629   0.624   1.947   3.135
 6370WAT     H219630   0.752   2.027   3.145
 6371WAT      O19631   1.518   1.279   4.644
 6371WAT     H119632   1.551   1.206   4.697
 6371WAT     H219633   1.522   1.247   4.554
 6372WAT      O19634   0.190   2.380   4.586
 6372WAT     H119635   0.150   2.318   4.647
 6372WAT     H219636   0.220   2.452   4.642
 6373WAT      O19637   0.804   2.067   4.134
 6373WAT     H119638   0.840   2.018   4.209
 6373WAT     H219639   0.785   2.154   4.168
 6374WAT      O19640   0.583   1.970   4.366
 6374WAT     H119641   0.552   2.057   4.388
 6374WAT     H219642   0.678   1.976   4.370
 6375WAT      O19643   0.436   2.391   3.425
 6375WAT     H119644   0.359   2.337   3.411
 6375WAT     H219645   0.509   2.339   3.392
 6376WAT      O19646   1.511   2.291   4.005
 6376WAT     H119647   1.583   2.340   3.966
 6376WAT     H219648   1.491   2.223   3.940
 6377WAT      O19649   1.058   1.430   3.419
 6377WAT     H119650   0.976   1.380   3.412
 6377WAT     H219651   1.038   1.514   3.378
 6378WAT      O19652   1.050   2.298   4.595
 6378WAT     H119653   1.043   2.207   4.567
 6378WAT     H219654   0.986   2.307   4.665
 6379WAT      O19655   1.329   1.867   3.249
 6379WAT     H119656   1.418   1.898   3.231
 6379WAT     H219657   1.326   1.780   3.210
 6380WAT      O19658   0.441   2.359   3.790
 6380WAT     H119659   0.491   2.278   3.783
 6380WAT     H219660   0.395   2.351   3.874
 6381WAT      O19661   0.929   2.485   3.317
 6381WAT     H119662   0.963   2.559   3.267
 6381WAT     H219663   0.846   2.515   3.353
 6382WAT      O19664   0.188   2.054   4.481
 6382WAT     H119665   0.152   2.121   4.539
 6382WAT     H219666   0.159   1.971   4.518
 6383WAT      O19667   0.508   2.099   4.769
 6383WAT     H119668   0.480   2.115   4.679
 6383WAT     H219669   0.586   2.045   4.760
 6384WAT      O19670   1.043   2.580   4.569
 6384WAT     H119671   1.044   2.486   4.547
 6384WAT     H219672   0.972   2.589   4.632
 6385WAT      O19673   1.556   1.998   3.196
 6385WAT     H119674   1.548   2.041   3.111
 6385WAT     H219675   1.628   2.044   3.239
 6386WAT      O19676   1.665   2.245   4.503
 6386WAT     H119677   1.591   2.303   4.483
 6386WAT     H219678   1.716   2.244   4.422
 6387WAT      O19679   1.660   2.683   3.468
 6387WAT     H119680   1.595   2.619   3.496
 6387WAT     H219681   1.620   2.725   3.391
 6388WAT      O19682   1.217   2.417   3.853
 6388WAT     H119683   1.252   2.357   3.787
 6388WAT     H219684   1.129   2.384   3.870
 6389WAT      O19685   0.825   2.492   3.595
 6389WAT     H119686   0.894   2.547   3.632
 6389WAT     H219687   0.747   2.547   3.597
 6390WAT      O19688   0.758   2.192   3.556
 6390WAT     H119689   0.801   2.275   3.578
 6390WAT     H219690   0.720   2.162   3.639
 6391WAT      O19691   0.986   2.745   4.278
 6391WAT     H119692   1.050   2.765   4.346
 6391WAT     H219693   1.022   2.667   4.234
 6392WAT      O19694   0.346   1.227   3.603
 6392WAT     H119695   0.333   1.227   3.697
 6392WAT     H219696   0.264   1.261   3.567
 6393WAT      O19697   1.114   2.544   4.150
 6393WAT     H119698   1.178   2.474   4.161
 6393WAT     H219699   1.167   2.622   4.132
 6394WAT      O19700   1.497   2.573   3.122
 6394WAT     H119701   1.475   2.501   3.181
 6394WAT     H219702   1.460   2.548   3.038
 6395WAT      O19703   1.291   2.625   4.470
 6395WAT     H119704   1.324   2.683   4.539
 6395WAT     H219705   1.199   2.611   4.493
 6396WAT      O19706   1.456   2.364   3.288
 6396WAT     H119707   1.427   2.411   3.367
 6396WAT     H219708   1.536   2.319   3.315
 6397WAT      O19709   0.874   2.629   4.787
 6397WAT     H119710   0.841   2.557   4.841
 6397WAT     H219711   0.806   2.696   4.794
 6398WAT      O19712   0.678   2.714   3.282
 6398WAT     H119713   0.677   2.787   3.220
 6398WAT     H219714   0.587   2.689   3.291
 6399WAT      O19715   0.238   2.236   3.356
 6399WAT     H119716   0.177   2.310   3.356
 6399WAT     H219717   0.284   2.244   3.273
 6400WAT      O19718   1.195   1.652   4.322
 6400WAT     H119719   1.232   1.571   4.356
 6400WAT     H219720   1.109   1.659   4.365
 6401WAT      O19721   1.532   1.548   3.404
 6401WAT     H119722   1.469   1.559   3.333
 6401WAT     H219723   1.482   1.569   3.483
 6402WAT      O19724   0.976   2.719   3.148
 6402WAT     H119725   0.987   2.699   3.055
 6402WAT     H219726   0.886   2.695   3.168
 6403WAT      O19727   0.729   1.776   3.545
 6403WAT     H119728   0.658   1.823   3.590
 6403WAT     H219729   0.757   1.710   3.609
 6404WAT      O19730   0.890   1.918   4.346
 6404WAT     H119731   0.941   1.965   4.412
 6404WAT     H219732   0.906   1.826   4.366
 6405WAT      O19733   1.132   1.448   3.690
 6405WAT     H119734   1.119   1.450   3.595
 6405WAT     H219735   1.227   1.453   3.701
 6406WAT      O19736   0.841   2.973   3.617
 6406WAT     H119737   0.867   2.968   3.525
 6406WAT     H219738   0.746   2.959   3.616
 6407WAT      O19739   0.549   1.607   3.283
 6407WAT     H119740   0.634   1.650   3.277
 6407WAT     H219741   0.513   1.638   3.366
 6408WAT      O19742   1.612   1.540   4.430
 6408WAT     H119743   1.562   1.614   4.464
 6408WAT     H219744   1.694   1.579   4.398
 6409WAT      O19745   1.441   2.065   3.775
 6409WAT     H119746   1.347   2.064   3.792
 6409WAT     H219747   1.474   1.986   3.818
 6410WAT      O19748   0.438   2.232   3.132
 6410WAT     H119749   0.516   2.222   3.187
 6410WAT     H219750   0.448   2.164   3.065
 6411WAT      O19751   0.309   1.976   3.200
 6411WAT     H119752   0.316   1.881   3.210
 6411WAT     H219753   0.398   2.008   3.210
 6412WAT      O19754   1.641   2.781   3.942
 6412WAT     H119755   1.654   2.863   3.989
 6412WAT     H219756   1.728   2.760   3.907
 6413WAT      O19757   0.389   2.991   3.909
 6413WAT     H119758   0.462   2.935   3.936
 6413WAT     H219759   0.428   3.077   3.895
 6414WAT      O19760   0.289   2.908   4.828
 6414WAT     H119761   0.369   2.941   4.870
 6414WAT     H219762   0.237   2.873   4.900
 6415WAT      O19763   0.700   2.907   3.092
 6415WAT     H119764   0.778   2.938   3.047
 6415WAT     H219765   0.648   2.865   3.024
 6416WAT      O19766   1.173   2.519   4.823
 6416WAT     H119767   1.112   2.522   4.749
 6416WAT     H219768   1.142   2.447   4.877
 6417WAT      O19769   1.316   2.893   4.683
 6417WAT     H119770   1.411   2.884   4.680
 6417WAT     H219771   1.300   2.958   4.751
 6418WAT      O19772   1.605   2.830   3.234
 6418WAT     H119773   1.576   2.789   3.153
 6418WAT     H219774   1.585   2.923   3.222
 6419WAT      O19775   0.751   2.430   3.078
 6419WAT     H119776   0.741   2.369   3.151
 6419WAT     H219777   0.735   2.376   3.000
 6420WAT      O19778   0.767   2.299   4.676
 6420WAT     H119779   0.690   2.355   4.667
 6420WAT     H219780   0.785   2.269   4.587
 6421WAT      O19781   1.075   2.336   3.138
 6421WAT     H119782   1.021   2.381   3.203
 6421WAT     H219783   1.137   2.285   3.190
 6422WAT      O19784   1.481   2.472   4.732
 6422WAT     H119785   1.555   2.505   4.681
 6422WAT     H219786   1.405   2.488   4.676
 6423WAT      O19787   0.264   1.972   4.811
 6423WAT     H119788   0.267   1.943   4.903
 6423WAT     H219789   0.350   2.012   4.796
 6424WAT      O19790   0.641   2.231   3.327
 6424WAT     H119791   0.684   2.216   3.412
 6424WAT     H219792   0.656   2.150   3.279
 6425WAT      O19793   0.459   1.829   4.609
 6425WAT     H119794   0.405   1.782   4.546
 6425WAT     H219795   0.525   1.873   4.555
 6426WAT      O19796   0.893   2.133   3.054
 6426WAT     H119797   0.946   2.063   3.016
 6426WAT     H219798   0.958   2.198   3.083
 6427WAT      O19799   1.348   2.275   4.585
 6427WAT     H119800   1.390   2.292   4.669
 6427WAT     H219801   1.255   2.290   4.601
 6428WAT      O19802   1.396   2.010   4.785
 6428WAT     H119803   1.454   1.935   4.777
 6428WAT     H219804   1.413   2.063   4.708
 6429WAT      O19805   0.507   1.526   4.617
 6429WAT     H119806   0.498   1.465   4.544
 6429WAT     H219807   0.449   1.599   4.594
 6430WAT      O19808   0.784   1.382   4.320
 6430WAT     H119809   0.739   1.384   4.236
 6430WAT     H219810   0.720   1.342   4.380
 6431WAT      O19811   0.824   2.272   4.382
 6431WAT     H119812   0.866   2.356   4.365
 6431WAT     H219813   0.732   2.285   4.358
 6432WAT      O19814   1.058   2.044   4.521
 6432WAT     H119815   1.071   1.985   4.596
 6432WAT     H219816   1.144   2.048   4.479
 6433WAT      O19817   1.291   2.100   4.379
 6433WAT     H119818   1.240   2.153   4.317
 6433WAT     H219819   1.327   2.163   4.441
 6434WAT      O19820   0.532   1.839   3.023
 6434WAT     H119821   0.512   1.752   3.059
 6434WAT     H219822   0.515   1.830   2.929
 6435WAT      O19823   0.610   2.903   4.494
 6435WAT     H119824   0.555   2.974   4.462
 6435WAT     H219825   0.634   2.854   4.416
 6436WAT      O19826   0.735   1.699   4.646
 6436WAT     H119827   0.794   1.668   4.715
 6436WAT     H219828   0.653   1.652   4.661
 6437WAT      O19829   1.217   1.661   4.670
 6437WAT     H119830   1.148   1.594   4.663
 6437WAT     H219831   1.289   1.616   4.714
 6438WAT      O19832   1.280   1.320   3.276
 6438WAT     H119833   1.308   1.236   3.311
 6438WAT     H219834   1.202   1.343   3.327
 6439WAT      O19835   0.413   1.550   3.021
 6439WAT     H119836   0.443   1.549   2.930
 6439WAT     H219837   0.485   1.514   3.071
 6440WAT      O19838   0.895   3.026   4.520
 6440WAT     H119839   0.888   3.116   4.550
 6440WAT     H219840   0.805   2.994   4.517
 6441WAT      O19841   0.734   1.443   3.120
 6441WAT     H119842   0.699   1.376   3.062
 6441WAT     H219843   0.754   1.398   3.201
 6442WAT      O19844   0.950   2.943   3.282
 6442WAT     H119845   1.039   2.976   3.284
 6442WAT     H219846   0.953   2.870   3.220
 6443WAT      O19847   0.314   2.480   3.104
 6443WAT     H119848   0.358   2.534   3.169
 6443WAT     H219849   0.362   2.397   3.106
 6444WAT      O19850   0.496   2.592   3.616
 6444WAT     H119851   0.465   2.579   3.706
 6444WAT     H219852   0.484   2.507   3.574
 6445WAT      O19853   1.648   2.796   4.552
 6445WAT     H119854   1.587   2.801   4.478
 6445WAT     H219855   1.661   2.702   4.566
 6446WAT      O19856   1.773   2.570   3.087
 6446WAT     H119857   1.688   2.576   3.132
 6446WAT     H219858   1.790   2.658   3.055
 6447WAT      O19859   1.717   2.244   3.337
 6447WAT     H119860   1.793   2.301   3.347
 6447WAT     H219861   1.719   2.187   3.414
 6448WAT      O19862   1.818   2.330   3.821
 6448WAT     H119863   1.855   2.251   3.781
 6448WAT     H219864   1.882   2.398   3.803
 6449WAT      O19865   1.516   2.468   4.362
 6449WAT     H119866   1.435   2.511   4.389
 6449WAT     H219867   1.557   2.529   4.301
 6450WAT      O19868   1.725   2.273   3.053
 6450WAT     H119869   1.749   2.364   3.040
 6450WAT     H219870   1.704   2.267   3.146
 6451WAT      O19871   1.363   1.576   3.182
 6451WAT     H119872   1.404   1.557   3.098
 6451WAT     H219873   1.331   1.491   3.213
 6452WAT      O19874   1.712   2.067   3.551
 6452WAT     H119875   1.675   1.990   3.509
 6452WAT     H219876   1.639   2.105   3.600
 6453WAT      O19877   1.652   1.981   4.515
 6453WAT     H119878   1.628   1.959   4.425
 6453WAT     H219879   1.676   2.074   4.511
 6454WAT      O19880   1.495   1.504   4.793
 6454WAT     H119881   1.583   1.505   4.831
 6454WAT     H219882   1.496   1.431   4.732
 6455WAT      O19883   1.639   1.890   3.882
 6455WAT     H119884   1.691   1.840   3.819
 6455WAT     H219885   1.698   1.904   3.956
 6456WAT      O19886   1.658   1.898   4.234
 6456WAT     H119887   1.563   1.895   4.245
 6456WAT     H219888   1.676   1.989   4.210
 6457WAT      O19889   0.244   1.724   3.145
 6457WAT     H119890   0.313   1.679   3.097
 6457WAT     H219891   0.172   1.730   3.082
 6458WAT      O19892   0.207   1.328   3.048
 6458WAT     H119893   0.279   1.382   3.081
 6458WAT     H219894   0.235   1.301   2.961
 6459WAT      O19895   1.590   1.815   3.476
 6459WAT     H119896   1.638   1.791   3.555
 6459WAT     H219897   1.569   1.732   3.434
 6460WAT      O19898   0.177   1.254   4.038
 6460WAT     H119899   0.242   1.198   3.995
 6460WAT     H219900   0.219   1.278   4.121
 6461WAT      O19901   1.732   1.679   3.729
 6461WAT     H119902   1.721   1.663   3.823
 6461WAT     H219903   1.808   1.627   3.705
 6462WAT      O19904   1.567   1.272   4.375
 6462WAT     H119905   1.629   1.335   4.411
 6462WAT     H219906   1.581   1.276   4.280
 6463WAT      O19907   1.821   1.461   3.053
 6463WAT     H119908   1.913   1.449   3.032
 6463WAT     H219909   1.819   1.471   3.148
 6464WAT      O19910   1.828   1.539   3.317
 6464WAT     H119911   1.748   1.533   3.369
 6464WAT     H219912   1.848   1.632   3.314
 6465WAT      O19913   1.523   2.944   3.715
 6465WAT     H119914   1.582   2.911   3.647
 6465WAT     H219915   1.548   2.895   3.794
 6466WAT      O19916   0.313   2.586   4.730
 6466WAT     H119917   0.308   2.549   4.819
 6466WAT     H219918   0.326   2.680   4.744
 6467WAT      O19919   0.683   2.742   4.290
 6467WAT     H119920   0.659   2.768   4.201
 6467WAT     H219921   0.777   2.758   4.296
 6468WAT      O19922   0.903   1.387   4.667
 6468WAT     H119923   0.897   1.448   4.740
 6468WAT     H219924   0.997   1.377   4.651
 6469WAT      O19925   1.168   1.355   4.630
 6469WAT     H119926   1.229   1.386   4.563
 6469WAT     H219927   1.222   1.305   4.691
 6470WAT      O19928   1.809   2.944   4.369
 6470WAT     H119929   1.759   2.983   4.298
 6470WAT     H219930   1.748   2.882   4.410
 6471WAT      O19931   0.219   1.222   4.641
 6471WAT     H119932   0.274   1.204   4.565
 6471WAT     H219933   0.226   1.143   4.695
 6472WAT      O19934   0.297   2.881   4.442
 6472WAT     H119935   0.237   2.868   4.516
 6472WAT     H219936   0.296   2.797   4.395
 6473WAT      O19937   1.242   1.211   4.263
 6473WAT     H119938   1.155   1.243   4.241
 6473WAT     H219939   1.229   1.162   4.345
 6474WAT      O19940   1.332   1.430   4.401
 6474WAT     H119941   1.299   1.349   4.362
 6474WAT     H219942   1.426   1.427   4.389
 6475WAT      O19943   1.577   3.008   4.097
 6475WAT     H119944   1.531   3.084   4.061
 6475WAT     H219945   1.513   2.937   4.093
 6476WAT      O19946   0.260   2.618   4.337
 6476WAT     H119947   0.187   2.555   4.330
 6476WAT     H219948   0.266   2.656   4.249
 6477WAT      O19949   0.620   2.839   4.016
 6477WAT     H119950   0.672   2.778   3.963
 6477WAT     H219951   0.685   2.890   4.064
 6478WAT      O19952   0.894   2.928   4.097
 6478WAT     H119953   0.923   2.902   4.010
 6478WAT     H219954   0.944   2.873   4.157
 6479WAT      O19955   1.016   1.302   4.156
 6479WAT     H119956   0.938   1.349   4.185
 6479WAT     H219957   0.986   1.211   4.144
 6480WAT      O19958   1.470   1.372   3.961
 6480WAT     H119959   1.516   1.367   3.877
 6480WAT     H219960   1.444   1.464   3.968
 6481WAT      O19961   1.657   1.335   3.761
 6481WAT     H119962   1.651   1.241   3.747
 6481WAT     H219963   1.735   1.346   3.816
 6482WAT      O19964   0.803   1.544   3.708
 6482WAT     H119965   0.723   1.505   3.672
 6482WAT     H219966   0.855   1.468   3.736
 6483WAT      O19967   1.255   1.210   3.831
 6483WAT     H119968   1.315   1.267   3.879
 6483WAT     H219969   1.181   1.267   3.809
 6484WAT      O19970   1.569   1.250   3.359
 6484WAT     H119971   1.588   1.340   3.386
 6484WAT     H219972   1.490   1.227   3.407
 6485WAT      O19973   0.249   2.818   3.402
 6485WAT     H119974   0.196   2.857   3.332
 6485WAT     H219975   0.241   2.881   3.475
 6486WAT      O19976   0.388   1.385   3.263
 6486WAT     H119977   0.441   1.306   3.250
 6486WAT     H219978   0.451   1.453   3.285
 6487WAT      O19979   0.607   1.359   3.568
 6487WAT     H119980   0.544   1.289   3.584
 6487WAT     H219981   0.553   1.435   3.546
 6488WAT      O19982   0.901   3.020   4.835
 6488WAT     H119983   0.994   2.997   4.839
 6488WAT     H219984   0.899   3.103   4.787
 6489WAT      O19985   0.620   1.287   4.811
 6489WAT     H119986   0.591   1.337   4.735
 6489WAT     H219987   0.658   1.207   4.775
 6490WAT      O19988   0.509   3.014   3.290
 6490WAT     H119989   0.582   2.985   3.235
 6490WAT     H219990   0.535   2.989   3.379
 6491WAT      O19991   0.425   2.625   3.291
 6491WAT     H119992   0.362   2.673   3.345
 6491WAT     H219993   0.436   2.541   3.335
 6492WAT      O19994   1.279   1.229   4.869
 6492WAT     H119995   1.268   1.260   4.959
 6492WAT     H219996   1.362   1.268   4.840
 6493WAT      O19997   1.558   2.944   4.816
 6493WAT     H119998   1.637   2.893   4.798
 6493WAT     H219999   1.587   3.011   4.878
 6494WAT      O20000   1.170   2.030   1.905
 6494WAT     H120001   1.162   1.939   1.878
 6494WAT     H220002   1.129   2.080   1.834
 6495WAT      O20003   0.983   2.208   2.093
 6495WAT     H120004   0.906   2.159   2.122
 6495WAT     H220005   1.049   2.140   2.076
 6496WAT      O20006   0.385   2.240   2.181
 6496WAT     H120007   0.302   2.213   2.221
 6496WAT     H220008   0.446   2.246   2.254
 6497WAT      O20009   1.386   2.648   1.971
 6497WAT     H120010   1.339   2.571   2.003
 6497WAT     H220011   1.467   2.651   2.022
 6498WAT      O20012   0.383   2.642   2.202
 6498WAT     H120013   0.413   2.553   2.183
 6498WAT     H220014   0.457   2.698   2.178
 6499WAT      O20015   1.008   2.878   1.934
 6499WAT     H120016   0.946   2.922   1.876
 6499WAT     H220017   1.094   2.892   1.893
 6500WAT      O20018   0.927   2.475   2.094
 6500WAT     H120019   0.922   2.380   2.078
 6500WAT     H220020   1.003   2.485   2.151
 6501WAT      O20021   1.030   1.756   2.117
 6501WAT     H120022   1.069   1.670   2.107
 6501WAT     H220023   1.022   1.790   2.027
 6502WAT      O20024   0.444   1.593   1.663
 6502WAT     H120025   0.454   1.683   1.694
 6502WAT     H220026   0.353   1.588   1.634
 6503WAT      O20027   1.409   1.506   1.810
 6503WAT     H120028   1.491   1.457   1.814
 6503WAT     H220029   1.412   1.565   1.886
 6504WAT      O20030   0.209   1.785   2.187
 6504WAT     H120031   0.277   1.812   2.249
 6504WAT     H220032   0.177   1.702   2.222
 6505WAT      O20033   0.629   1.891   2.096
 6505WAT     H120034   0.679   1.940   2.160
 6505WAT     H220035   0.681   1.813   2.079
 6506WAT      O20036   1.837   1.707   2.467
 6506WAT     H120037   1.767   1.747   2.415
 6506WAT     H220038   1.864   1.777   2.527
 6507WAT      O20039   0.456   1.353   2.523
 6507WAT     H120040   0.456   1.406   2.443
 6507WAT     H220041   0.373   1.306   2.521
 6508WAT      O20042   1.095   2.365   1.672
 6508WAT     H120043   1.033   2.411   1.616
 6508WAT     H220044   1.145   2.435   1.715
 6509WAT      O20045   0.582   2.319   2.342
 6509WAT     H120046   0.548   2.381   2.405
 6509WAT     H220047   0.599   2.371   2.263
 6510WAT      O20048   1.433   1.699   2.087
 6510WAT     H120049   1.362   1.728   2.145
 6510WAT     H220050   1.469   1.781   2.051
 6511WAT      O20051   0.424   1.525   2.323
 6511WAT     H120052   0.458   1.610   2.294
 6511WAT     H220053   0.330   1.540   2.335
 6512WAT      O20054   0.503   2.515   2.522
 6512WAT     H120055   0.564   2.583   2.494
 6512WAT     H220056   0.416   2.555   2.513
 6513WAT      O20057   1.594   2.661   2.314
 6513WAT     H120058   1.526   2.728   2.313
 6513WAT     H220059   1.648   2.681   2.237
 6514WAT      O20060   1.739   1.644   2.127
 6514WAT     H120061   1.644   1.647   2.141
 6514WAT     H220062   1.772   1.725   2.166
 6515WAT      O20063   0.793   1.275   1.956
 6515WAT     H120064   0.823   1.219   1.884
 6515WAT     H220065   0.700   1.288   1.938
 6516WAT      O20066   1.348   2.846   2.185
 6516WAT     H120067   1.349   2.805   2.098
 6516WAT     H220068   1.292   2.923   2.175
 6517WAT      O20069   1.477   2.518   1.694
 6517WAT     H120070   1.466   2.423   1.707
 6517WAT     H220071   1.476   2.554   1.783
 6518WAT      O20072   1.288   2.337   2.318
 6518WAT     H120073   1.330   2.315   2.235
 6518WAT     H220074   1.361   2.362   2.375
 6519WAT      O20075   1.032   2.081   1.631
 6519WAT     H120076   0.939   2.074   1.652
 6519WAT     H220077   1.047   2.174   1.618
 6520WAT      O20078   1.030   1.707   1.328
 6520WAT     H120079   0.937   1.724   1.339
 6520WAT     H220080   1.062   1.781   1.276
 6521WAT      O20081   1.682   2.175   2.327
 6521WAT     H120082   1.599   2.184   2.280
 6521WAT     H220083   1.742   2.234   2.281
 6522WAT      O20084   1.434   2.237   1.680
 6522WAT     H120085   1.372   2.203   1.616
 6522WAT     H220086   1.433   2.172   1.751
 6523WAT      O20087   1.379   1.855   2.421
 6523WAT     H120088   1.337   1.937   2.447
 6523WAT     H220089   1.306   1.796   2.403
 6524WAT      O20090   0.592   2.133   1.908
 6524WAT     H120091   0.551   2.062   1.858
 6524WAT     H220092   0.601   2.098   1.997
 6525WAT      O20093   0.639   2.501   2.124
 6525WAT     H120094   0.609   2.442   2.055
 6525WAT     H220095   0.734   2.506   2.113
 6526WAT      O20096   0.464   1.809   2.287
 6526WAT     H120097   0.517   1.823   2.208
 6526WAT     H220098   0.514   1.849   2.357
 6527WAT      O20099   1.448   2.859   2.491
 6527WAT     H120100   1.401   2.940   2.471
 6527WAT     H220101   1.379   2.794   2.506
 6528WAT      O20102   0.548   2.476   2.789
 6528WAT     H120103   0.459   2.498   2.814
 6528WAT     H220104   0.549   2.488   2.694
 6529WAT      O20105   1.252   2.161   1.381
 6529WAT     H120106   1.295   2.077   1.366
 6529WAT     H220107   1.324   2.224   1.388
 6530WAT      O20108   0.431   2.163   2.647
 6530WAT     H120109   0.417   2.250   2.683
 6530WAT     H220110   0.343   2.129   2.631
 6531WAT      O20111   1.063   2.654   1.778
 6531WAT     H120112   1.107   2.729   1.736
 6531WAT     H220113   1.057   2.679   1.870
 6532WAT      O20114   0.610   2.757   2.868
 6532WAT     H120115   0.608   2.797   2.781
 6532WAT     H220116   0.594   2.664   2.852
 6533WAT      O20117   1.610   1.286   1.212
 6533WAT     H120118   1.580   1.294   1.302
 6533WAT     H220119   1.686   1.344   1.207
 6534WAT      O20120   0.263   2.022   1.658
 6534WAT     H120121   0.250   2.096   1.598
 6534WAT     H220122   0.230   1.946   1.610
 6535WAT      O20123   1.806   2.834   2.997
 6535WAT     H120124   1.853   2.883   3.065
 6535WAT     H220125   1.868   2.829   2.924
 6536WAT      O20126   1.745   2.554   2.713
 6536WAT     H120127   1.760   2.530   2.622
 6536WAT     H220128   1.751   2.471   2.761
 6537WAT      O20129   1.133   2.925   2.571
 6537WAT     H120130   1.184   2.916   2.652
 6537WAT     H220131   1.048   2.959   2.600
 6538WAT      O20132   1.330   2.953   1.513
 6538WAT     H120133   1.314   2.924   1.603
 6538WAT     H220134   1.314   2.875   1.460
 6539WAT      O20135   0.577   2.931   1.691
 6539WAT     H120136   0.560   2.839   1.670
 6539WAT     H220137   0.492   2.967   1.715
 6540WAT      O20138   1.300   2.705   1.369
 6540WAT     H120139   1.230   2.704   1.303
 6540WAT     H220140   1.374   2.662   1.326
 6541WAT      O20141   1.255   2.867   1.777
 6541WAT     H120142   1.302   2.789   1.808
 6541WAT     H220143   1.290   2.938   1.831
 6542WAT      O20144   1.732   1.760   2.810
 6542WAT     H120145   1.670   1.811   2.757
 6542WAT     H220146   1.698   1.670   2.804
 6543WAT      O20147   0.509   1.357   1.996
 6543WAT     H120148   0.464   1.435   1.963
 6543WAT     H220149   0.564   1.389   2.067
 6544WAT      O20150   0.937   1.644   2.557
 6544WAT     H120151   0.890   1.665   2.638
 6544WAT     H220152   0.897   1.562   2.526
 6545WAT      O20153   1.437   1.765   2.669
 6545WAT     H120154   1.352   1.736   2.702
 6545WAT     H220155   1.421   1.790   2.579
 6546WAT      O20156   1.147   1.916   2.879
 6546WAT     H120157   1.179   1.832   2.847
 6546WAT     H220158   1.226   1.967   2.895
 6547WAT      O20159   0.819   1.319   1.484
 6547WAT     H120160   0.758   1.319   1.557
 6547WAT     H220161   0.811   1.232   1.446
 6548WAT      O20162   0.712   1.411   2.182
 6548WAT     H120163   0.741   1.502   2.174
 6548WAT     H220164   0.767   1.363   2.121
 6549WAT      O20165   0.487   1.869   1.769
 6549WAT     H120166   0.465   1.848   1.859
 6549WAT     H220167   0.410   1.914   1.734
 6550WAT      O20168   1.211   1.870   1.629
 6550WAT     H120169   1.151   1.942   1.611
 6550WAT     H220170   1.266   1.864   1.551
 6551WAT      O20171   0.732   1.959   2.836
 6551WAT     H120172   0.722   1.865   2.821
 6551WAT     H220173   0.816   1.981   2.796
 6552WAT      O20174   1.073   1.734   1.833
 6552WAT     H120175   1.111   1.766   1.751
 6552WAT     H220176   1.107   1.646   1.843
 6553WAT      O20177   0.245   1.601   2.651
 6553WAT     H120178   0.205   1.685   2.672
 6553WAT     H220179   0.176   1.537   2.670
 6554WAT      O20180   0.902   1.609   2.958
 6554WAT     H120181   0.833   1.588   3.022
 6554WAT     H220182   0.977   1.637   3.011
 6555WAT      O20183   1.130   1.993   2.241
 6555WAT     H120184   1.057   2.044   2.276
 6555WAT     H220185   1.090   1.911   2.211
 6556WAT      O20186   0.774   1.660   2.082
 6556WAT     H120187   0.775   1.617   1.996
 6556WAT     H220188   0.863   1.692   2.093
 6557WAT      O20189   0.359   1.648   1.978
 6557WAT     H120190   0.325   1.696   2.053
 6557WAT     H220191   0.282   1.603   1.942
 6558WAT      O20192   0.779   1.760   1.382
 6558WAT     H120193   0.792   1.756   1.477
 6558WAT     H220194   0.741   1.846   1.366
 6559WAT      O20195   1.176   1.538   2.183
 6559WAT     H120196   1.178   1.583   2.267
 6559WAT     H220197   1.151   1.448   2.204
 6560WAT      O20198   0.680   1.993   1.320
 6560WAT     H120199   0.624   1.947   1.257
 6560WAT     H220200   0.752   2.027   1.268
 6561WAT      O20201   1.518   1.279   2.767
 6561WAT     H120202   1.551   1.205   2.819
 6561WAT     H220203   1.522   1.248   2.676
 6562WAT      O20204   0.190   2.381   2.709
 6562WAT     H120205   0.150   2.318   2.769
 6562WAT     H220206   0.220   2.452   2.765
 6563WAT      O20207   0.804   2.067   2.257
 6563WAT     H120208   0.840   2.018   2.331
 6563WAT     H220209   0.785   2.154   2.291
 6564WAT      O20210   0.583   1.970   2.488
 6564WAT     H120211   0.552   2.057   2.511
 6564WAT     H220212   0.678   1.976   2.492
 6565WAT      O20213   0.436   2.391   1.547
 6565WAT     H120214   0.359   2.337   1.533
 6565WAT     H220215   0.509   2.339   1.514
 6566WAT      O20216   1.511   2.291   2.127
 6566WAT     H120217   1.583   2.340   2.088
 6566WAT     H220218   1.491   2.223   2.063
 6567WAT      O20219   1.058   1.430   1.542
 6567WAT     H120220   0.976   1.380   1.534
 6567WAT     H220221   1.039   1.514   1.500
 6568WAT      O20222   1.050   2.298   2.717
 6568WAT     H120223   1.043   2.207   2.690
 6568WAT     H220224   0.986   2.307   2.788
 6569WAT      O20225   1.329   1.867   1.371
 6569WAT     H120226   1.418   1.898   1.354
 6569WAT     H220227   1.326   1.780   1.332
 6570WAT      O20228   0.441   2.359   1.913
 6570WAT     H120229   0.492   2.277   1.906
 6570WAT     H220230   0.394   2.351   1.996
 6571WAT      O20231   0.929   2.484   1.439
 6571WAT     H120232   0.963   2.559   1.390
 6571WAT     H220233   0.846   2.515   1.475
 6572WAT      O20234   0.188   2.054   2.603
 6572WAT     H120235   0.152   2.121   2.662
 6572WAT     H220236   0.159   1.971   2.640
 6573WAT      O20237   0.508   2.099   2.892
 6573WAT     H120238   0.479   2.115   2.802
 6573WAT     H220239   0.586   2.045   2.883
 6574WAT      O20240   1.043   2.580   2.691
 6574WAT     H120241   1.044   2.486   2.669
 6574WAT     H220242   0.972   2.589   2.755
 6575WAT      O20243   1.556   1.998   1.318
 6575WAT     H120244   1.548   2.041   1.233
 6575WAT     H220245   1.628   2.044   1.361
 6576WAT      O20246   1.665   2.245   2.626
 6576WAT     H120247   1.591   2.303   2.606
 6576WAT     H220248   1.717   2.244   2.545
 6577WAT      O20249   1.660   2.684   1.590
 6577WAT     H120250   1.595   2.619   1.618
 6577WAT     H220251   1.621   2.724   1.513
 6578WAT      O20252   1.217   2.417   1.976
 6578WAT     H120253   1.252   2.357   1.910
 6578WAT     H220254   1.129   2.384   1.993
 6579WAT      O20255   0.825   2.492   1.717
 6579WAT     H120256   0.894   2.547   1.754
 6579WAT     H220257   0.747   2.547   1.720
 6580WAT      O20258   0.758   2.192   1.679
 6580WAT     H120259   0.801   2.275   1.700
 6580WAT     H220260   0.720   2.162   1.762
 6581WAT      O20261   0.986   2.744   2.400
 6581WAT     H120262   1.050   2.765   2.468
 6581WAT     H220263   1.022   2.668   2.356
 6582WAT      O20264   0.346   1.227   1.726
 6582WAT     H120265   0.333   1.227   1.820
 6582WAT     H220266   0.264   1.261   1.690
 6583WAT      O20267   1.114   2.544   2.272
 6583WAT     H120268   1.178   2.474   2.284
 6583WAT     H220269   1.167   2.622   2.254
 6584WAT      O20270   1.497   2.573   1.245
 6584WAT     H120271   1.475   2.501   1.304
 6584WAT     H220272   1.460   2.548   1.161
 6585WAT      O20273   1.291   2.625   2.593
 6585WAT     H120274   1.324   2.683   2.661
 6585WAT     H220275   1.199   2.611   2.616
 6586WAT      O20276   1.456   2.364   1.411
 6586WAT     H120277   1.427   2.411   1.490
 6586WAT     H220278   1.536   2.319   1.438
 6587WAT      O20279   0.874   2.629   2.910
 6587WAT     H120280   0.841   2.557   2.964
 6587WAT     H220281   0.806   2.696   2.917
 6588WAT      O20282   0.678   2.714   1.404
 6588WAT     H120283   0.677   2.787   1.342
 6588WAT     H220284   0.587   2.689   1.413
 6589WAT      O20285   0.238   2.236   1.478
 6589WAT     H120286   0.177   2.310   1.478
 6589WAT     H220287   0.284   2.244   1.395
 6590WAT      O20288   1.195   1.652   2.445
 6590WAT     H120289   1.232   1.571   2.479
 6590WAT     H220290   1.109   1.659   2.487
 6591WAT      O20291   1.532   1.548   1.527
 6591WAT     H120292   1.469   1.559   1.455
 6591WAT     H220293   1.482   1.569   1.606
 6592WAT      O20294   0.976   2.719   1.270
 6592WAT     H120295   0.986   2.699   1.177
 6592WAT     H220296   0.886   2.695   1.290
 6593WAT      O20297   0.729   1.776   1.668
 6593WAT     H120298   0.658   1.823   1.712
 6593WAT     H220299   0.758   1.710   1.732
 6594WAT      O20300   0.891   1.918   2.469
 6594WAT     H120301   0.941   1.966   2.535
 6594WAT     H220302   0.906   1.826   2.488
 6595WAT      O20303   1.132   1.448   1.812
 6595WAT     H120304   1.119   1.450   1.717
 6595WAT     H220305   1.227   1.453   1.823
 6596WAT      O20306   0.841   2.973   1.740
 6596WAT     H120307   0.867   2.968   1.648
 6596WAT     H220308   0.746   2.959   1.739
 6597WAT      O20309   0.548   1.607   1.406
 6597WAT     H120310   0.634   1.650   1.399
 6597WAT     H220311   0.513   1.638   1.489
 6598WAT      O20312   1.612   1.540   2.553
 6598WAT     H120313   1.562   1.614   2.587
 6598WAT     H220314   1.694   1.579   2.521
 6599WAT      O20315   1.441   2.065   1.898
 6599WAT     H120316   1.347   2.064   1.915
 6599WAT     H220317   1.474   1.986   1.941
 6600WAT      O20318   0.439   2.232   1.254
 6600WAT     H120319   0.516   2.222   1.309
 6600WAT     H220320   0.448   2.163   1.188
 6601WAT      O20321   0.309   1.976   1.323
 6601WAT     H120322   0.316   1.881   1.333
 6601WAT     H220323   0.398   2.008   1.332
 6602WAT      O20324   1.642   2.781   2.065
 6602WAT     H120325   1.654   2.863   2.112
 6602WAT     H220326   1.728   2.760   2.030
 6603WAT      O20327   0.389   2.991   2.032
 6603WAT     H120328   0.462   2.935   2.059
 6603WAT     H220329   0.428   3.077   2.018
 6604WAT      O20330   0.289   2.908   2.951
 6604WAT     H120331   0.369   2.941   2.992
 6604WAT     H220332   0.238   2.873   3.023
 6605WAT      O20333   0.699   2.907   1.214
 6605WAT     H120334   0.778   2.938   1.170
 6605WAT     H220335   0.648   2.865   1.145
 6606WAT      O20336   1.173   2.519   2.946
 6606WAT     H120337   1.113   2.522   2.872
 6606WAT     H220338   1.142   2.446   2.999
 6607WAT      O20339   1.316   2.893   2.806
 6607WAT     H120340   1.411   2.884   2.803
 6607WAT     H220341   1.300   2.958   2.874
 6608WAT      O20342   1.605   2.830   1.357
 6608WAT     H120343   1.576   2.789   1.275
 6608WAT     H220344   1.585   2.923   1.345
 6609WAT      O20345   0.751   2.430   1.200
 6609WAT     H120346   0.741   2.369   1.273
 6609WAT     H220347   0.735   2.377   1.122
 6610WAT      O20348   0.768   2.299   2.798
 6610WAT     H120349   0.690   2.355   2.790
 6610WAT     H220350   0.785   2.269   2.709
 6611WAT      O20351   1.075   2.336   1.261
 6611WAT     H120352   1.021   2.381   1.325
 6611WAT     H220353   1.137   2.285   1.313
 6612WAT      O20354   1.481   2.471   2.854
 6612WAT     H120355   1.555   2.505   2.804
 6612WAT     H220356   1.405   2.488   2.799
 6613WAT      O20357   0.264   1.972   2.934
 6613WAT     H120358   0.267   1.943   3.026
 6613WAT     H220359   0.350   2.012   2.919
 6614WAT      O20360   0.641   2.231   1.450
 6614WAT     H120361   0.684   2.216   1.534
 6614WAT     H220362   0.656   2.150   1.401
 6615WAT      O20363   0.459   1.829   2.731
 6615WAT     H120364   0.405   1.782   2.668
 6615WAT     H220365   0.525   1.873   2.678
 6616WAT      O20366   0.893   2.133   1.176
 6616WAT     H120367   0.946   2.063   1.139
 6616WAT     H220368   0.958   2.198   1.205
 6617WAT      O20369   1.348   2.275   2.708
 6617WAT     H120370   1.390   2.292   2.792
 6617WAT     H220371   1.255   2.290   2.724
 6618WAT      O20372   1.395   2.010   2.908
 6618WAT     H120373   1.454   1.935   2.899
 6618WAT     H220374   1.413   2.064   2.831
 6619WAT      O20375   0.507   1.526   2.740
 6619WAT     H120376   0.498   1.465   2.667
 6619WAT     H220377   0.449   1.598   2.717
 6620WAT      O20378   0.784   1.382   2.443
 6620WAT     H120379   0.739   1.384   2.358
 6620WAT     H220380   0.720   1.342   2.502
 6621WAT      O20381   0.823   2.272   2.505
 6621WAT     H120382   0.866   2.356   2.488
 6621WAT     H220383   0.732   2.285   2.481
 6622WAT      O20384   1.058   2.044   2.643
 6622WAT     H120385   1.071   1.985   2.718
 6622WAT     H220386   1.144   2.048   2.601
 6623WAT      O20387   1.291   2.100   2.501
 6623WAT     H120388   1.240   2.153   2.440
 6623WAT     H220389   1.326   2.163   2.564
 6624WAT      O20390   0.532   1.839   1.145
 6624WAT     H120391   0.512   1.752   1.181
 6624WAT     H220392   0.515   1.830   1.051
 6625WAT      O20393   0.610   2.903   2.616
 6625WAT     H120394   0.555   2.974   2.584
 6625WAT     H220395   0.634   2.854   2.538
 6626WAT      O20396   0.735   1.699   2.769
 6626WAT     H120397   0.794   1.668   2.838
 6626WAT     H220398   0.653   1.652   2.784
 6627WAT      O20399   1.217   1.661   2.793
 6627WAT     H120400   1.148   1.594   2.786
 6627WAT     H220401   1.289   1.616   2.837
 6628WAT      O20402   1.279   1.320   1.398
 6628WAT     H120403   1.308   1.236   1.434
 6628WAT     H220404   1.202   1.344   1.450
 6629WAT      O20405   0.413   1.550   1.143
 6629WAT     H120406   0.443   1.549   1.053
 6629WAT     H220407   0.485   1.514   1.194
 6630WAT      O20408   0.895   3.026   2.642
 6630WAT     H120409   0.888   3.116   2.673
 6630WAT     H220410   0.805   2.994   2.639
 6631WAT      O20411   0.734   1.443   1.243
 6631WAT     H120412   0.699   1.376   1.185
 6631WAT     H220413   0.754   1.398   1.324
 6632WAT      O20414   0.950   2.943   1.404
 6632WAT     H120415   1.039   2.976   1.407
 6632WAT     H220416   0.953   2.870   1.343
 6633WAT      O20417   0.314   2.480   1.226
 6633WAT     H120418   0.357   2.534   1.292
 6633WAT     H220419   0.362   2.397   1.228
 6634WAT      O20420   0.496   2.592   1.739
 6634WAT     H120421   0.465   2.579   1.829
 6634WAT     H220422   0.484   2.507   1.697
 6635WAT      O20423   1.648   2.796   2.675
 6635WAT     H120424   1.587   2.801   2.601
 6635WAT     H220425   1.662   2.702   2.688
 6636WAT      O20426   1.773   2.570   1.210
 6636WAT     H120427   1.688   2.576   1.255
 6636WAT     H220428   1.790   2.658   1.179
 6637WAT      O20429   1.717   2.244   1.459
 6637WAT     H120430   1.793   2.301   1.469
 6637WAT     H220431   1.719   2.187   1.536
 6638WAT      O20432   1.818   2.330   1.944
 6638WAT     H120433   1.855   2.251   1.904
 6638WAT     H220434   1.882   2.398   1.926
 6639WAT      O20435   1.516   2.468   2.485
 6639WAT     H120436   1.435   2.511   2.512
 6639WAT     H220437   1.557   2.529   2.424
 6640WAT      O20438   1.725   2.273   1.176
 6640WAT     H120439   1.749   2.364   1.162
 6640WAT     H220440   1.704   2.267   1.269
 6641WAT      O20441   1.363   1.576   1.304
 6641WAT     H120442   1.404   1.557   1.220
 6641WAT     H220443   1.331   1.491   1.335
 6642WAT      O20444   1.712   2.067   1.674
 6642WAT     H120445   1.675   1.990   1.631
 6642WAT     H220446   1.639   2.105   1.723
 6643WAT      O20447   1.652   1.981   2.638
 6643WAT     H120448   1.628   1.959   2.548
 6643WAT     H220449   1.676   2.074   2.634
 6644WAT      O20450   1.495   1.504   2.915
 6644WAT     H120451   1.583   1.505   2.954
 6644WAT     H220452   1.496   1.431   2.854
 6645WAT      O20453   1.639   1.890   2.004
 6645WAT     H120454   1.692   1.840   1.941
 6645WAT     H220455   1.698   1.904   2.078
 6646WAT      O20456   1.658   1.898   2.356
 6646WAT     H120457   1.563   1.895   2.368
 6646WAT     H220458   1.676   1.989   2.333
 6647WAT      O20459   0.243   1.724   1.267
 6647WAT     H120460   0.313   1.679   1.219
 6647WAT     H220461   0.172   1.730   1.204
 6648WAT      O20462   0.207   1.328   1.171
 6648WAT     H120463   0.279   1.382   1.204
 6648WAT     H220464   0.235   1.301   1.083
 6649WAT      O20465   1.590   1.815   1.598
 6649WAT     H120466   1.638   1.791   1.678
 6649WAT     H220467   1.569   1.731   1.557
 6650WAT      O20468   0.177   1.254   2.161
 6650WAT     H120469   0.242   1.198   2.118
 6650WAT     H220470   0.219   1.278   2.244
 6651WAT      O20471   1.732   1.679   1.852
 6651WAT     H120472   1.721   1.662   1.945
 6651WAT     H220473   1.808   1.627   1.827
 6652WAT      O20474   1.567   1.272   2.497
 6652WAT     H120475   1.629   1.335   2.533
 6652WAT     H220476   1.581   1.276   2.403
 6653WAT      O20477   1.820   1.461   1.176
 6653WAT     H120478   1.913   1.449   1.155
 6653WAT     H220479   1.819   1.471   1.271
 6654WAT      O20480   1.828   1.539   1.439
 6654WAT     H120481   1.748   1.533   1.491
 6654WAT     H220482   1.848   1.633   1.437
 6655WAT      O20483   1.522   2.943   1.838
 6655WAT     H120484   1.582   2.911   1.770
 6655WAT     H220485   1.548   2.895   1.917
 6656WAT      O20486   0.313   2.586   2.853
 6656WAT     H120487   0.308   2.549   2.941
 6656WAT     H220488   0.326   2.680   2.867
 6657WAT      O20489   0.683   2.742   2.413
 6657WAT     H120490   0.659   2.768   2.324
 6657WAT     H220491   0.777   2.758   2.418
 6658WAT      O20492   0.903   1.387   2.789
 6658WAT     H120493   0.897   1.448   2.862
 6658WAT     H220494   0.997   1.377   2.774
 6659WAT      O20495   1.168   1.355   2.752
 6659WAT     H120496   1.229   1.386   2.686
 6659WAT     H220497   1.222   1.305   2.814
 6660WAT      O20498   1.809   2.943   2.492
 6660WAT     H120499   1.759   2.983   2.421
 6660WAT     H220500   1.749   2.882   2.533
 6661WAT      O20501   0.219   1.222   2.763
 6661WAT     H120502   0.274   1.204   2.687
 6661WAT     H220503   0.226   1.144   2.817
 6662WAT      O20504   0.297   2.881   2.564
 6662WAT     H120505   0.237   2.868   2.638
 6662WAT     H220506   0.296   2.797   2.518
 6663WAT      O20507   1.242   1.211   2.386
 6663WAT     H120508   1.155   1.243   2.363
 6663WAT     H220509   1.229   1.162   2.467
 6664WAT      O20510   1.332   1.431   2.524
 6664WAT     H120511   1.300   1.349   2.484
 6664WAT     H220512   1.426   1.427   2.512
 6665WAT      O20513   1.577   3.008   2.220
 6665WAT     H120514   1.531   3.083   2.183
 6665WAT     H220515   1.513   2.937   2.216
 6666WAT      O20516   0.260   2.618   2.460
 6666WAT     H120517   0.187   2.555   2.453
 6666WAT     H220518   0.266   2.656   2.372
 6667WAT      O20519   0.620   2.838   2.139
 6667WAT     H120520   0.672   2.778   2.086
 6667WAT     H220521   0.685   2.890   2.186
 6668WAT      O20522   0.894   2.928   2.220
 6668WAT     H120523   0.923   2.902   2.133
 6668WAT     H220524   0.944   2.873   2.280
 6669WAT      O20525   1.016   1.302   2.279
 6669WAT     H120526   0.938   1.349   2.308
 6669WAT     H220527   0.986   1.211   2.267
 6670WAT      O20528   1.470   1.372   2.083
 6670WAT     H120529   1.516   1.367   1.999
 6670WAT     H220530   1.444   1.464   2.090
 6671WAT      O20531   1.657   1.335   1.884
 6671WAT     H120532   1.651   1.241   1.870
 6671WAT     H220533   1.734   1.346   1.939
 6672WAT      O20534   0.803   1.544   1.831
 6672WAT     H120535   0.723   1.506   1.795
 6672WAT     H220536   0.855   1.468   1.859
 6673WAT      O20537   1.255   1.210   1.954
 6673WAT     H120538   1.315   1.267   2.001
 6673WAT     H220539   1.181   1.267   1.931
 6674WAT      O20540   1.569   1.250   1.482
 6674WAT     H120541   1.588   1.340   1.508
 6674WAT     H220542   1.490   1.227   1.529
 6675WAT      O20543   0.249   2.818   1.525
 6675WAT     H120544   0.196   2.857   1.455
 6675WAT     H220545   0.241   2.881   1.597
 6676WAT      O20546   0.388   1.385   1.385
 6676WAT     H120547   0.441   1.306   1.373
 6676WAT     H220548   0.451   1.453   1.407
 6677WAT      O20549   0.607   1.359   1.690
 6677WAT     H120550   0.544   1.289   1.707
 6677WAT     H220551   0.553   1.435   1.669
 6678WAT      O20552   0.901   3.020   2.957
 6678WAT     H120553   0.994   2.997   2.962
 6678WAT     H220554   0.899   3.103   2.909
 6679WAT      O20555   1.724   2.974   1.657
 6679WAT     H120556   1.742   2.905   1.593
 6679WAT     H220557   1.656   3.027   1.617
 6680WAT      O20558   0.620   1.287   2.934
 6680WAT     H120559   0.591   1.337   2.857
 6680WAT     H220560   0.658   1.207   2.897
 6681WAT      O20561   0.509   3.014   1.412
 6681WAT     H120562   0.582   2.985   1.358
 6681WAT     H220563   0.535   2.989   1.501
 6682WAT      O20564   0.425   2.625   1.413
 6682WAT     H120565   0.362   2.672   1.468
 6682WAT     H220566   0.436   2.541   1.457
 6683WAT      O20567   1.279   1.229   2.991
 6683WAT     H120568   1.268   1.260   3.081
 6683WAT     H220569   1.362   1.268   2.963
 6684WAT      O20570   1.558   2.943   2.939
 6684WAT     H120571   1.637   2.893   2.920
 6684WAT     H220572   1.587   3.011   3.001
 6685WAT      O20573   0.983   2.208   0.215
 6685WAT     H120574   0.906   2.159   0.245
 6685WAT     H220575   1.049   2.140   0.199
 6686WAT      O20576   0.384   2.240   0.304
 6686WAT     H120577   0.302   2.213   0.344
 6686WAT     H220578   0.446   2.246   0.377
 6687WAT      O20579   0.383   2.642   0.324
 6687WAT     H120580   0.413   2.553   0.306
 6687WAT     H220581   0.458   2.698   0.301
 6688WAT      O20582   0.927   2.475   0.217
 6688WAT     H120583   0.922   2.381   0.201
 6688WAT     H220584   1.003   2.485   0.274
 6689WAT      O20585   0.208   1.786   0.310
 6689WAT     H120586   0.277   1.812   0.371
 6689WAT     H220587   0.177   1.702   0.344
 6690WAT      O20588   0.628   1.890   0.219
 6690WAT     H120589   0.680   1.941   0.282
 6690WAT     H220590   0.682   1.813   0.201
 6691WAT      O20591   1.837   1.707   0.589
 6691WAT     H120592   1.768   1.747   0.537
 6691WAT     H220593   1.864   1.777   0.649
 6692WAT      O20594   0.456   1.353   0.646
 6692WAT     H120595   0.456   1.406   0.566
 6692WAT     H220596   0.373   1.306   0.643
 6693WAT      O20597   0.583   2.319   0.464
 6693WAT     H120598   0.547   2.381   0.527
 6693WAT     H220599   0.599   2.371   0.385
 6694WAT      O20600   1.433   1.700   0.210
 6694WAT     H120601   1.362   1.728   0.268
 6694WAT     H220602   1.468   1.781   0.174
 6695WAT      O20603   0.424   1.525   0.446
 6695WAT     H120604   0.458   1.610   0.417
 6695WAT     H220605   0.330   1.540   0.458
 6696WAT      O20606   0.503   2.515   0.645
 6696WAT     H120607   0.564   2.583   0.617
 6696WAT     H220608   0.416   2.555   0.636
 6697WAT      O20609   1.593   2.661   0.436
 6697WAT     H120610   1.526   2.729   0.435
 6697WAT     H220611   1.649   2.681   0.360
 6698WAT      O20612   1.739   1.644   0.249
 6698WAT     H120613   1.644   1.647   0.262
 6698WAT     H220614   1.772   1.725   0.288
 6699WAT      O20615   1.348   2.846   0.308
 6699WAT     H120616   1.349   2.805   0.221
 6699WAT     H220617   1.292   2.923   0.297
 6700WAT      O20618   1.288   2.337   0.441
 6700WAT     H120619   1.330   2.315   0.357
 6700WAT     H220620   1.360   2.362   0.498
 6701WAT      O20621   1.682   2.175   0.450
 6701WAT     H120622   1.599   2.184   0.402
 6701WAT     H220623   1.742   2.234   0.404
 6702WAT      O20624   1.379   1.855   0.543
 6702WAT     H120625   1.337   1.937   0.570
 6702WAT     H220626   1.306   1.796   0.526
 6703WAT      O20627   0.639   2.501   0.247
 6703WAT     H120628   0.609   2.441   0.179
 6703WAT     H220629   0.734   2.506   0.236
 6704WAT      O20630   0.464   1.809   0.409
 6704WAT     H120631   0.517   1.823   0.331
 6704WAT     H220632   0.514   1.849   0.480
 6705WAT      O20633   1.448   2.859   0.613
 6705WAT     H120634   1.401   2.940   0.594
 6705WAT     H220635   1.379   2.794   0.628
 6706WAT      O20636   0.548   2.476   0.912
 6706WAT     H120637   0.459   2.498   0.937
 6706WAT     H220638   0.549   2.488   0.816
 6707WAT      O20639   0.431   2.163   0.770
 6707WAT     H120640   0.417   2.251   0.806
 6707WAT     H220641   0.343   2.129   0.754
 6708WAT      O20642   0.610   2.757   0.990
 6708WAT     H120643   0.608   2.797   0.904
 6708WAT     H220644   0.594   2.664   0.974
 6709WAT      O20645   1.806   2.835   1.120
 6709WAT     H120646   1.853   2.883   1.188
 6709WAT     H220647   1.868   2.829   1.047
 6710WAT      O20648   1.745   2.554   0.836
 6710WAT     H120649   1.760   2.530   0.744
 6710WAT     H220650   1.751   2.470   0.883
 6711WAT      O20651   1.133   2.925   0.693
 6711WAT     H120652   1.184   2.916   0.774
 6711WAT     H220653   1.048   2.959   0.722
 6712WAT      O20654   1.732   1.760   0.933
 6712WAT     H120655   1.670   1.811   0.880
 6712WAT     H220656   1.698   1.670   0.927
 6713WAT      O20657   0.937   1.644   0.679
 6713WAT     H120658   0.891   1.665   0.760
 6713WAT     H220659   0.897   1.562   0.649
 6714WAT      O20660   1.437   1.765   0.792
 6714WAT     H120661   1.352   1.736   0.824
 6714WAT     H220662   1.421   1.791   0.701
 6715WAT      O20663   1.147   1.916   1.001
 6715WAT     H120664   1.179   1.832   0.969
 6715WAT     H220665   1.226   1.967   1.018
 6716WAT      O20666   0.713   1.411   0.305
 6716WAT     H120667   0.742   1.502   0.297
 6716WAT     H220668   0.767   1.363   0.243
 6717WAT      O20669   0.732   1.959   0.958
 6717WAT     H120670   0.722   1.865   0.943
 6717WAT     H220671   0.816   1.981   0.919
 6718WAT      O20672   0.245   1.601   0.774
 6718WAT     H120673   0.205   1.685   0.794
 6718WAT     H220674   0.176   1.537   0.793
 6719WAT      O20675   0.902   1.609   1.081
 6719WAT     H120676   0.833   1.588   1.144
 6719WAT     H220677   0.977   1.637   1.134
 6720WAT      O20678   1.130   1.993   0.363
 6720WAT     H120679   1.057   2.044   0.399
 6720WAT     H220680   1.090   1.911   0.334
 6721WAT      O20681   1.175   1.538   0.306
 6721WAT     H120682   1.178   1.583   0.390
 6721WAT     H220683   1.151   1.448   0.327
 6722WAT      O20684   1.518   1.279   0.889
 6722WAT     H120685   1.551   1.206   0.942
 6722WAT     H220686   1.522   1.247   0.799
 6723WAT      O20687   0.190   2.380   0.831
 6723WAT     H120688   0.150   2.318   0.892
 6723WAT     H220689   0.220   2.452   0.887
 6724WAT      O20690   0.805   2.066   0.379
 6724WAT     H120691   0.839   2.019   0.454
 6724WAT     H220692   0.784   2.153   0.413
 6725WAT      O20693   0.583   1.970   0.611
 6725WAT     H120694   0.552   2.057   0.634
 6725WAT     H220695   0.678   1.976   0.615
 6726WAT      O20696   1.511   2.291   0.250
 6726WAT     H120697   1.583   2.340   0.211
 6726WAT     H220698   1.491   2.223   0.186
 6727WAT      O20699   1.050   2.298   0.840
 6727WAT     H120700   1.043   2.207   0.812
 6727WAT     H220701   0.986   2.307   0.910
 6728WAT      O20702   0.188   2.054   0.726
 6728WAT     H120703   0.152   2.121   0.785
 6728WAT     H220704   0.159   1.971   0.763
 6729WAT      O20705   0.508   2.099   1.014
 6729WAT     H120706   0.480   2.115   0.924
 6729WAT     H220707   0.586   2.045   1.005
 6730WAT      O20708   1.043   2.580   0.814
 6730WAT     H120709   1.044   2.486   0.792
 6730WAT     H220710   0.972   2.589   0.878
 6731WAT      O20711   1.665   2.245   0.748
 6731WAT     H120712   1.591   2.303   0.728
 6731WAT     H220713   1.717   2.244   0.668
 6732WAT      O20714   0.986   2.745   0.523
 6732WAT     H120715   1.050   2.765   0.591
 6732WAT     H220716   1.022   2.667   0.479
 6733WAT      O20717   1.114   2.544   0.395
 6733WAT     H120718   1.177   2.474   0.407
 6733WAT     H220719   1.167   2.622   0.377
 6734WAT      O20720   1.291   2.625   0.715
 6734WAT     H120721   1.324   2.683   0.784
 6734WAT     H220722   1.199   2.611   0.738
 6735WAT      O20723   0.874   2.629   1.032
 6735WAT     H120724   0.842   2.557   1.087
 6735WAT     H220725   0.806   2.696   1.039
 6736WAT      O20726   1.195   1.653   0.568
 6736WAT     H120727   1.232   1.571   0.601
 6736WAT     H220728   1.109   1.658   0.610
 6737WAT      O20729   0.891   1.918   0.591
 6737WAT     H120730   0.941   1.966   0.657
 6737WAT     H220731   0.906   1.826   0.612
 6738WAT      O20732   1.612   1.540   0.675
 6738WAT     H120733   1.562   1.614   0.709
 6738WAT     H220734   1.694   1.579   0.644
 6739WAT      O20735   0.289   2.908   1.073
 6739WAT     H120736   0.369   2.941   1.115
 6739WAT     H220737   0.238   2.873   1.146
 6740WAT      O20738   1.173   2.519   1.068
 6740WAT     H120739   1.112   2.522   0.994
 6740WAT     H220740   1.142   2.447   1.122
 6741WAT      O20741   1.316   2.893   0.928
 6741WAT     H120742   1.411   2.884   0.925
 6741WAT     H220743   1.301   2.958   0.997
 6742WAT      O20744   0.768   2.299   0.921
 6742WAT     H120745   0.690   2.355   0.913
 6742WAT     H220746   0.785   2.269   0.832
 6743WAT      O20747   1.481   2.471   0.977
 6743WAT     H120748   1.555   2.505   0.926
 6743WAT     H220749   1.405   2.488   0.922
 6744WAT      O20750   0.264   1.972   1.056
 6744WAT     H120751   0.267   1.943   1.148
 6744WAT     H220752   0.350   2.012   1.041
 6745WAT      O20753   0.459   1.829   0.854
 6745WAT     H120754   0.405   1.782   0.791
 6745WAT     H220755   0.525   1.873   0.801
 6746WAT      O20756   1.348   2.275   0.830
 6746WAT     H120757   1.390   2.292   0.914
 6746WAT     H220758   1.254   2.289   0.847
 6747WAT      O20759   1.395   2.010   1.030
 6747WAT     H120760   1.454   1.935   1.022
 6747WAT     H220761   1.413   2.063   0.953
 6748WAT      O20762   0.507   1.526   0.862
 6748WAT     H120763   0.498   1.465   0.789
 6748WAT     H220764   0.449   1.599   0.840
 6749WAT      O20765   0.784   1.382   0.565
 6749WAT     H120766   0.739   1.384   0.481
 6749WAT     H220767   0.720   1.342   0.625
 6750WAT      O20768   0.824   2.272   0.627
 6750WAT     H120769   0.866   2.356   0.610
 6750WAT     H220770   0.732   2.285   0.603
 6751WAT      O20771   1.058   2.043   0.766
 6751WAT     H120772   1.071   1.985   0.841
 6751WAT     H220773   1.144   2.048   0.724
 6752WAT      O20774   1.291   2.100   0.624
 6752WAT     H120775   1.240   2.153   0.562
 6752WAT     H220776   1.327   2.163   0.686
 6753WAT      O20777   0.610   2.903   0.739
 6753WAT     H120778   0.555   2.974   0.707
 6753WAT     H220779   0.634   2.854   0.661
 6754WAT      O20780   0.735   1.699   0.891
 6754WAT     H120781   0.794   1.668   0.960
 6754WAT     H220782   0.653   1.652   0.906
 6755WAT      O20783   1.217   1.661   0.915
 6755WAT     H120784   1.148   1.594   0.908
 6755WAT     H220785   1.289   1.616   0.959
 6756WAT      O20786   0.895   3.026   0.764
 6756WAT     H120787   0.888   3.116   0.795
 6756WAT     H220788   0.805   2.994   0.762
 6757WAT      O20789   1.648   2.796   0.797
 6757WAT     H120790   1.587   2.801   0.723
 6757WAT     H220791   1.661   2.702   0.811
 6758WAT      O20792   1.515   2.467   0.607
 6758WAT     H120793   1.435   2.511   0.634
 6758WAT     H220794   1.557   2.529   0.546
 6759WAT      O20795   1.652   1.981   0.760
 6759WAT     H120796   1.628   1.959   0.670
 6759WAT     H220797   1.676   2.074   0.757
 6760WAT      O20798   1.495   1.504   1.038
 6760WAT     H120799   1.583   1.505   1.076
 6760WAT     H220800   1.496   1.431   0.977
 6761WAT      O20801   1.658   1.898   0.479
 6761WAT     H120802   1.563   1.895   0.490
 6761WAT     H220803   1.676   1.989   0.456
 6762WAT      O20804   0.177   1.253   0.284
 6762WAT     H120805   0.242   1.198   0.240
 6762WAT     H220806   0.219   1.279   0.366
 6763WAT      O20807   1.566   1.272   0.620
 6763WAT     H120808   1.629   1.335   0.656
 6763WAT     H220809   1.581   1.276   0.525
 6764WAT      O20810   0.313   2.586   0.975
 6764WAT     H120811   0.308   2.549   1.064
 6764WAT     H220812   0.326   2.680   0.989
 6765WAT      O20813   0.683   2.742   0.535
 6765WAT     H120814   0.659   2.768   0.446
 6765WAT     H220815   0.777   2.758   0.540
 6766WAT      O20816   0.903   1.387   0.912
 6766WAT     H120817   0.897   1.448   0.985
 6766WAT     H220818   0.997   1.377   0.896
 6767WAT      O20819   1.168   1.355   0.875
 6767WAT     H120820   1.229   1.385   0.808
 6767WAT     H220821   1.222   1.305   0.937
 6768WAT      O20822   1.809   2.943   0.614
 6768WAT     H120823   1.758   2.983   0.544
 6768WAT     H220824   1.749   2.882   0.656
 6769WAT      O20825   0.219   1.222   0.886
 6769WAT     H120826   0.274   1.204   0.810
 6769WAT     H220827   0.226   1.144   0.940
 6770WAT      O20828   0.297   2.881   0.687
 6770WAT     H120829   0.237   2.868   0.761
 6770WAT     H220830   0.296   2.797   0.640
 6771WAT      O20831   1.242   1.210   0.508
 6771WAT     H120832   1.155   1.243   0.486
 6771WAT     H220833   1.229   1.162   0.590
 6772WAT      O20834   1.332   1.430   0.647
 6772WAT     H120835   1.299   1.349   0.607
 6772WAT     H220836   1.426   1.427   0.634
 6773WAT      O20837   1.577   3.008   0.344
 6773WAT     H120838   1.531   3.083   0.306
 6773WAT     H220839   1.514   2.936   0.337
 6774WAT      O20840   0.259   2.618   0.582
 6774WAT     H120841   0.188   2.555   0.575
 6774WAT     H220842   0.266   2.656   0.494
 6775WAT      O20843   0.620   2.838   0.262
 6775WAT     H120844   0.672   2.778   0.208
 6775WAT     H220845   0.686   2.890   0.309
 6776WAT      O20846   0.894   2.928   0.343
 6776WAT     H120847   0.923   2.902   0.256
 6776WAT     H220848   0.944   2.873   0.403
 6777WAT      O20849   1.016   1.302   0.401
 6777WAT     H120850   0.938   1.349   0.430
 6777WAT     H220851   0.986   1.211   0.390
 6778WAT      O20852   0.901   3.020   1.080
 6778WAT     H120853   0.994   2.997   1.084
 6778WAT     H220854   0.899   3.103   1.032
 6779WAT      O20855   0.620   1.287   1.056
 6779WAT     H120856   0.591   1.337   0.980
 6779WAT     H220857   0.658   1.207   1.020
 6780WAT      O20858   1.279   1.229   1.114
 6780WAT     H120859   1.268   1.260   1.204
 6780WAT     H220860   1.362   1.268   1.085
 6781WAT      O20861   1.558   2.944   1.061
 6781WAT     H120862   1.637   2.893   1.043
 6781WAT     H220863   1.587   3.011   1.123
 6782WAT      O20864   1.386   0.771   5.725
 6782WAT     H120865   1.339   0.695   5.758
 6782WAT     H220866   1.467   0.774   5.777
 6783WAT      O20867   1.008   1.000   5.688
 6783WAT     H120868   0.946   1.045   5.631
 6783WAT     H220869   1.094   1.016   5.648
 6784WAT      O20870   1.095   0.488   5.427
 6784WAT     H120871   1.033   0.534   5.371
 6784WAT     H220872   1.146   0.558   5.469
 6785WAT      O20873   1.477   0.640   5.449
 6785WAT     H120874   1.466   0.546   5.461
 6785WAT     H220875   1.476   0.676   5.538
 6786WAT      O20876   1.031   0.203   5.385
 6786WAT     H120877   0.938   0.197   5.407
 6786WAT     H220878   1.047   0.297   5.373
 6787WAT      O20879   1.434   0.359   5.435
 6787WAT     H120880   1.372   0.326   5.371
 6787WAT     H220881   1.433   0.295   5.506
 6788WAT      O20882   0.592   0.256   5.663
 6788WAT     H120883   0.551   0.185   5.613
 6788WAT     H220884   0.601   0.221   5.752
 6789WAT      O20885   1.252   0.283   5.136
 6789WAT     H120886   1.296   0.199   5.121
 6789WAT     H220887   1.324   0.346   5.143
 6790WAT      O20888   1.063   0.776   5.532
 6790WAT     H120889   1.107   0.851   5.491
 6790WAT     H220890   1.057   0.801   5.625
 6791WAT      O20891   1.330   1.076   5.268
 6791WAT     H120892   1.314   1.047   5.358
 6791WAT     H220893   1.314   0.998   5.215
 6792WAT      O20894   0.577   1.054   5.446
 6792WAT     H120895   0.560   0.962   5.424
 6792WAT     H220896   0.492   1.090   5.470
 6793WAT      O20897   1.300   0.828   5.124
 6793WAT     H120898   1.230   0.827   5.058
 6793WAT     H220899   1.374   0.784   5.081
 6794WAT      O20900   1.256   0.989   5.532
 6794WAT     H120901   1.302   0.911   5.563
 6794WAT     H220902   1.290   1.060   5.586
 6795WAT      O20903   0.436   0.514   5.303
 6795WAT     H120904   0.359   0.459   5.288
 6795WAT     H220905   0.509   0.462   5.269
 6796WAT      O20906   0.440   0.481   5.667
 6796WAT     H120907   0.492   0.401   5.661
 6796WAT     H220908   0.395   0.474   5.751
 6797WAT      O20909   0.929   0.607   5.194
 6797WAT     H120910   0.963   0.682   5.145
 6797WAT     H220911   0.846   0.638   5.230
 6798WAT      O20912   1.660   0.806   5.345
 6798WAT     H120913   1.595   0.741   5.373
 6798WAT     H220914   1.621   0.847   5.268
 6799WAT      O20915   1.218   0.539   5.731
 6799WAT     H120916   1.252   0.479   5.665
 6799WAT     H220917   1.129   0.507   5.748
 6800WAT      O20918   0.825   0.615   5.472
 6800WAT     H120919   0.894   0.670   5.508
 6800WAT     H220920   0.747   0.670   5.475
 6801WAT      O20921   0.757   0.315   5.434
 6801WAT     H120922   0.801   0.398   5.455
 6801WAT     H220923   0.721   0.285   5.517
 6802WAT      O20924   1.497   0.696   5.000
 6802WAT     H120925   1.475   0.623   5.059
 6802WAT     H220926   1.460   0.670   4.916
 6803WAT      O20927   1.456   0.486   5.167
 6803WAT     H120928   1.427   0.533   5.245
 6803WAT     H220929   1.536   0.441   5.193
 6804WAT      O20930   0.678   0.837   5.159
 6804WAT     H120931   0.677   0.910   5.097
 6804WAT     H220932   0.586   0.811   5.168
 6805WAT      O20933   0.238   0.359   5.233
 6805WAT     H120934   0.177   0.433   5.233
 6805WAT     H220935   0.285   0.367   5.150
 6806WAT      O20936   0.976   0.842   5.025
 6806WAT     H120937   0.986   0.822   4.932
 6806WAT     H220938   0.886   0.817   5.045
 6807WAT      O20939   0.841   1.096   5.495
 6807WAT     H120940   0.866   1.091   5.402
 6807WAT     H220941   0.746   1.082   5.494
 6808WAT      O20942   0.438   0.354   5.009
 6808WAT     H120943   0.516   0.344   5.064
 6808WAT     H220944   0.447   0.286   4.942
 6809WAT      O20945   0.389   1.113   5.786
 6809WAT     H120946   0.462   1.058   5.814
 6809WAT     H220947   0.428   1.200   5.773
 6810WAT      O20948   0.699   1.029   4.969
 6810WAT     H120949   0.779   1.060   4.925
 6810WAT     H220950   0.648   0.987   4.900
 6811WAT      O20951   1.605   0.953   5.111
 6811WAT     H120952   1.576   0.912   5.030
 6811WAT     H220953   1.585   1.046   5.099
 6812WAT      O20954   0.751   0.552   4.955
 6812WAT     H120955   0.741   0.492   5.028
 6812WAT     H220956   0.735   0.499   4.877
 6813WAT      O20957   1.075   0.458   5.016
 6813WAT     H120958   1.021   0.503   5.080
 6813WAT     H220959   1.138   0.408   5.068
 6814WAT      O20960   0.641   0.353   5.205
 6814WAT     H120961   0.684   0.339   5.289
 6814WAT     H220962   0.656   0.273   5.156
 6815WAT      O20963   0.893   0.257   4.930
 6815WAT     H120964   0.946   0.185   4.894
 6815WAT     H220965   0.958   0.321   4.960
 6816WAT      O20966   0.950   1.066   5.159
 6816WAT     H120967   1.039   1.099   5.162
 6816WAT     H220968   0.953   0.993   5.098
 6817WAT      O20969   0.314   0.602   4.981
 6817WAT     H120970   0.357   0.656   5.047
 6817WAT     H220971   0.362   0.519   4.983
 6818WAT      O20972   0.496   0.714   5.493
 6818WAT     H120973   0.465   0.702   5.583
 6818WAT     H220974   0.484   0.628   5.452
 6819WAT      O20975   1.773   0.692   4.965
 6819WAT     H120976   1.688   0.699   5.010
 6819WAT     H220977   1.790   0.781   4.933
 6820WAT      O20978   1.717   0.367   5.214
 6820WAT     H120979   1.794   0.423   5.224
 6820WAT     H220980   1.719   0.310   5.291
 6821WAT      O20981   1.817   0.453   5.697
 6821WAT     H120982   1.855   0.374   5.659
 6821WAT     H220983   1.882   0.521   5.681
 6822WAT      O20984   1.725   0.396   4.930
 6822WAT     H120985   1.749   0.487   4.917
 6822WAT     H220986   1.704   0.389   5.023
 6823WAT      O20987   1.523   1.066   5.593
 6823WAT     H120988   1.582   1.033   5.525
 6823WAT     H220989   1.548   1.018   5.672
 6824WAT      O20990   0.249   0.941   5.280
 6824WAT     H120991   0.196   0.979   5.210
 6824WAT     H220992   0.241   1.004   5.352
 6825WAT      O20993   1.724   1.097   5.412
 6825WAT     H120994   1.742   1.028   5.348
 6825WAT     H220995   1.655   1.149   5.372
 6826WAT      O20996   0.510   1.136   5.167
 6826WAT     H120997   0.582   1.107   5.112
 6826WAT     H220998   0.535   1.112   5.256
 6827WAT      O20999   0.425   0.747   5.168
 6827WAT     H121000   0.362   0.795   5.223
 6827WAT     H221001   0.436   0.663   5.212
 6828WAT      O21002   0.983   0.330   3.970
 6828WAT     H121003   0.906   0.282   4.001
 6828WAT     H221004   1.049   0.262   3.954
 6829WAT      O21005   0.384   0.362   4.059
 6829WAT     H121006   0.302   0.336   4.099
 6829WAT     H221007   0.446   0.369   4.131
 6830WAT      O21008   1.386   0.771   3.849
 6830WAT     H121009   1.339   0.694   3.882
 6830WAT     H221010   1.467   0.774   3.899
 6831WAT      O21011   0.383   0.765   4.079
 6831WAT     H121012   0.413   0.676   4.060
 6831WAT     H221013   0.458   0.821   4.056
 6832WAT      O21014   1.008   1.001   3.812
 6832WAT     H121015   0.946   1.044   3.754
 6832WAT     H221016   1.094   1.015   3.771
 6833WAT      O21017   0.927   0.598   3.972
 6833WAT     H121018   0.922   0.503   3.956
 6833WAT     H221019   1.003   0.608   4.029
 6834WAT      O21020   1.096   0.488   3.550
 6834WAT     H121021   1.033   0.534   3.494
 6834WAT     H221022   1.145   0.558   3.592
 6835WAT      O21023   0.582   0.441   4.218
 6835WAT     H121024   0.548   0.503   4.282
 6835WAT     H221025   0.599   0.494   4.140
 6836WAT      O21026   0.503   0.638   4.400
 6836WAT     H121027   0.564   0.706   4.371
 6836WAT     H221028   0.416   0.677   4.390
 6837WAT      O21029   1.594   0.784   4.191
 6837WAT     H121030   1.526   0.851   4.190
 6837WAT     H221031   1.648   0.804   4.115
 6838WAT      O21032   1.348   0.968   4.063
 6838WAT     H121033   1.349   0.928   3.976
 6838WAT     H221034   1.292   1.046   4.052
 6839WAT      O21035   1.477   0.640   3.572
 6839WAT     H121036   1.466   0.546   3.584
 6839WAT     H221037   1.476   0.677   3.660
 6840WAT      O21038   1.288   0.460   4.195
 6840WAT     H121039   1.330   0.437   4.112
 6840WAT     H221040   1.360   0.483   4.253
 6841WAT      O21041   1.031   0.203   3.507
 6841WAT     H121042   0.939   0.197   3.530
 6841WAT     H221043   1.047   0.297   3.496
 6842WAT      O21044   1.682   0.298   4.205
 6842WAT     H121045   1.600   0.306   4.157
 6842WAT     H221046   1.742   0.357   4.159
 6843WAT      O21047   1.434   0.359   3.557
 6843WAT     H121048   1.372   0.326   3.493
 6843WAT     H221049   1.433   0.295   3.628
 6844WAT      O21050   0.592   0.256   3.785
 6844WAT     H121051   0.551   0.185   3.736
 6844WAT     H221052   0.601   0.221   3.874
 6845WAT      O21053   0.639   0.623   4.003
 6845WAT     H121054   0.609   0.564   3.933
 6845WAT     H221055   0.734   0.628   3.991
 6846WAT      O21056   1.448   0.981   4.368
 6846WAT     H121057   1.401   1.062   4.348
 6846WAT     H221058   1.379   0.917   4.383
 6847WAT      O21059   0.548   0.598   4.666
 6847WAT     H121060   0.459   0.621   4.692
 6847WAT     H221061   0.550   0.611   4.572
 6848WAT      O21062   1.252   0.283   3.258
 6848WAT     H121063   1.296   0.199   3.244
 6848WAT     H221064   1.324   0.346   3.266
 6849WAT      O21065   0.430   0.285   4.524
 6849WAT     H121066   0.417   0.373   4.560
 6849WAT     H221067   0.342   0.251   4.510
 6850WAT      O21068   1.063   0.776   3.655
 6850WAT     H121069   1.107   0.851   3.614
 6850WAT     H221070   1.056   0.801   3.747
 6851WAT      O21071   0.610   0.880   4.745
 6851WAT     H121072   0.608   0.920   4.659
 6851WAT     H221073   0.594   0.787   4.729
 6852WAT      O21074   1.806   0.958   4.875
 6852WAT     H121075   1.853   1.006   4.943
 6852WAT     H221076   1.868   0.951   4.802
 6853WAT      O21077   1.745   0.676   4.591
 6853WAT     H121078   1.760   0.652   4.499
 6853WAT     H221079   1.750   0.593   4.638
 6854WAT      O21080   1.133   1.047   4.448
 6854WAT     H121081   1.184   1.038   4.529
 6854WAT     H221082   1.048   1.082   4.477
 6855WAT      O21083   1.329   1.076   3.391
 6855WAT     H121084   1.314   1.047   3.480
 6855WAT     H221085   1.314   0.998   3.337
 6856WAT      O21086   0.577   1.054   3.568
 6856WAT     H121087   0.560   0.962   3.547
 6856WAT     H221088   0.492   1.090   3.592
 6857WAT      O21089   1.300   0.828   3.247
 6857WAT     H121090   1.230   0.827   3.181
 6857WAT     H221091   1.374   0.784   3.204
 6858WAT      O21092   1.256   0.989   3.655
 6858WAT     H121093   1.302   0.911   3.686
 6858WAT     H221094   1.290   1.060   3.708
 6859WAT      O21095   0.190   0.503   4.586
 6859WAT     H121096   0.150   0.440   4.646
 6859WAT     H221097   0.220   0.574   4.643
 6860WAT      O21098   0.804   0.189   4.134
 6860WAT     H121099   0.840   0.141   4.209
 6860WAT     H221100   0.784   0.276   4.169
 6861WAT      O21101   0.436   0.514   3.426
 6861WAT     H121102   0.359   0.459   3.411
 6861WAT     H221103   0.509   0.462   3.392
 6862WAT      O21104   1.510   0.413   4.004
 6862WAT     H121105   1.583   0.463   3.966
 6862WAT     H221106   1.491   0.345   3.940
 6863WAT      O21107   1.051   0.420   4.595
 6863WAT     H121108   1.043   0.328   4.568
 6863WAT     H221109   0.986   0.430   4.665
 6864WAT      O21110   0.441   0.481   3.790
 6864WAT     H121111   0.492   0.400   3.783
 6864WAT     H221112   0.395   0.473   3.874
 6865WAT      O21113   0.930   0.607   3.317
 6865WAT     H121114   0.963   0.682   3.267
 6865WAT     H221115   0.846   0.638   3.353
 6866WAT      O21116   0.509   0.222   4.769
 6866WAT     H121117   0.479   0.237   4.679
 6866WAT     H221118   0.586   0.167   4.760
 6867WAT      O21119   1.043   0.702   4.568
 6867WAT     H121120   1.044   0.608   4.547
 6867WAT     H221121   0.972   0.712   4.632
 6868WAT      O21122   1.665   0.368   4.504
 6868WAT     H121123   1.591   0.426   4.483
 6868WAT     H221124   1.716   0.366   4.423
 6869WAT      O21125   1.660   0.806   3.468
 6869WAT     H121126   1.595   0.741   3.496
 6869WAT     H221127   1.620   0.847   3.391
 6870WAT      O21128   1.218   0.539   3.853
 6870WAT     H121129   1.252   0.479   3.787
 6870WAT     H221130   1.129   0.507   3.870
 6871WAT      O21131   0.825   0.615   3.595
 6871WAT     H121132   0.894   0.670   3.632
 6871WAT     H221133   0.747   0.670   3.597
 6872WAT      O21134   0.757   0.315   3.556
 6872WAT     H121135   0.801   0.398   3.578
 6872WAT     H221136   0.720   0.285   3.639
 6873WAT      O21137   0.986   0.867   4.278
 6873WAT     H121138   1.050   0.888   4.346
 6873WAT     H221139   1.022   0.790   4.233
 6874WAT      O21140   1.114   0.667   4.150
 6874WAT     H121141   1.178   0.597   4.162
 6874WAT     H221142   1.167   0.745   4.132
 6875WAT      O21143   1.497   0.696   3.122
 6875WAT     H121144   1.475   0.623   3.181
 6875WAT     H221145   1.460   0.671   3.038
 6876WAT      O21146   1.291   0.748   4.470
 6876WAT     H121147   1.324   0.806   4.539
 6876WAT     H221148   1.199   0.734   4.493
 6877WAT      O21149   1.456   0.486   3.289
 6877WAT     H121150   1.427   0.533   3.367
 6877WAT     H221151   1.536   0.441   3.315
 6878WAT      O21152   0.874   0.752   4.787
 6878WAT     H121153   0.842   0.680   4.841
 6878WAT     H221154   0.806   0.819   4.793
 6879WAT      O21155   0.678   0.836   3.281
 6879WAT     H121156   0.677   0.910   3.220
 6879WAT     H221157   0.586   0.812   3.291
 6880WAT      O21158   0.238   0.359   3.356
 6880WAT     H121159   0.177   0.433   3.356
 6880WAT     H221160   0.284   0.367   3.273
 6881WAT      O21161   0.976   0.842   3.148
 6881WAT     H121162   0.987   0.822   3.055
 6881WAT     H221163   0.886   0.817   3.168
 6882WAT      O21164   0.841   1.096   3.617
 6882WAT     H121165   0.867   1.091   3.525
 6882WAT     H221166   0.746   1.082   3.616
 6883WAT      O21167   0.438   0.354   3.131
 6883WAT     H121168   0.516   0.344   3.187
 6883WAT     H221169   0.447   0.286   3.065
 6884WAT      O21170   1.641   0.904   3.941
 6884WAT     H121171   1.654   0.986   3.989
 6884WAT     H221172   1.728   0.882   3.907
 6885WAT      O21173   0.389   1.113   3.909
 6885WAT     H121174   0.462   1.058   3.936
 6885WAT     H221175   0.428   1.199   3.895
 6886WAT      O21176   0.289   1.030   4.828
 6886WAT     H121177   0.369   1.063   4.870
 6886WAT     H221178   0.237   0.995   4.900
 6887WAT      O21179   0.700   1.030   3.092
 6887WAT     H121180   0.778   1.060   3.047
 6887WAT     H221181   0.648   0.987   3.024
 6888WAT      O21182   1.173   0.642   4.823
 6888WAT     H121183   1.112   0.644   4.749
 6888WAT     H221184   1.142   0.569   4.877
 6889WAT      O21185   1.316   1.016   4.683
 6889WAT     H121186   1.411   1.006   4.680
 6889WAT     H221187   1.300   1.080   4.751
 6890WAT      O21188   1.605   0.953   3.234
 6890WAT     H121189   1.576   0.912   3.153
 6890WAT     H221190   1.585   1.046   3.222
 6891WAT      O21191   0.751   0.552   3.078
 6891WAT     H121192   0.741   0.492   3.151
 6891WAT     H221193   0.735   0.499   3.000
 6892WAT      O21194   0.767   0.422   4.676
 6892WAT     H121195   0.690   0.478   4.668
 6892WAT     H221196   0.785   0.392   4.587
 6893WAT      O21197   1.075   0.458   3.138
 6893WAT     H121198   1.021   0.503   3.203
 6893WAT     H221199   1.138   0.408   3.190
 6894WAT      O21200   1.481   0.595   4.732
 6894WAT     H121201   1.555   0.628   4.681
 6894WAT     H221202   1.405   0.611   4.676
 6895WAT      O21203   0.641   0.353   3.327
 6895WAT     H121204   0.684   0.339   3.412
 6895WAT     H221205   0.656   0.272   3.279
 6896WAT      O21206   0.893   0.257   3.053
 6896WAT     H121207   0.946   0.186   3.016
 6896WAT     H221208   0.958   0.321   3.083
 6897WAT      O21209   1.348   0.399   4.585
 6897WAT     H121210   1.390   0.414   4.669
 6897WAT     H221211   1.255   0.412   4.602
 6898WAT      O21212   0.824   0.394   4.383
 6898WAT     H121213   0.866   0.478   4.365
 6898WAT     H221214   0.732   0.408   4.358
 6899WAT      O21215   1.291   0.223   4.378
 6899WAT     H121216   1.239   0.276   4.318
 6899WAT     H221217   1.326   0.286   4.441
 6900WAT      O21218   0.610   1.026   4.494
 6900WAT     H121219   0.555   1.097   4.462
 6900WAT     H221220   0.634   0.976   4.416
 6901WAT      O21221   0.895   1.148   4.520
 6901WAT     H121222   0.888   1.239   4.550
 6901WAT     H221223   0.805   1.116   4.517
 6902WAT      O21224   0.950   1.066   3.282
 6902WAT     H121225   1.039   1.099   3.284
 6902WAT     H221226   0.953   0.993   3.220
 6903WAT      O21227   0.314   0.602   3.104
 6903WAT     H121228   0.358   0.656   3.169
 6903WAT     H221229   0.362   0.519   3.106
 6904WAT      O21230   0.496   0.714   3.616
 6904WAT     H121231   0.465   0.702   3.706
 6904WAT     H221232   0.484   0.629   3.575
 6905WAT      O21233   1.648   0.919   4.552
 6905WAT     H121234   1.587   0.924   4.478
 6905WAT     H221235   1.661   0.825   4.566
 6906WAT      O21236   1.773   0.692   3.087
 6906WAT     H121237   1.688   0.699   3.132
 6906WAT     H221238   1.790   0.781   3.055
 6907WAT      O21239   1.716   0.367   3.337
 6907WAT     H121240   1.794   0.423   3.346
 6907WAT     H221241   1.719   0.310   3.414
 6908WAT      O21242   1.818   0.453   3.821
 6908WAT     H121243   1.855   0.374   3.781
 6908WAT     H221244   1.882   0.521   3.803
 6909WAT      O21245   1.516   0.590   4.362
 6909WAT     H121246   1.435   0.633   4.389
 6909WAT     H221247   1.557   0.652   4.301
 6910WAT      O21248   1.725   0.396   3.053
 6910WAT     H121249   1.749   0.487   3.040
 6910WAT     H221250   1.704   0.389   3.146
 6911WAT      O21251   1.523   1.066   3.715
 6911WAT     H121252   1.582   1.034   3.647
 6911WAT     H221253   1.548   1.017   3.794
 6912WAT      O21254   0.313   0.709   4.730
 6912WAT     H121255   0.308   0.672   4.819
 6912WAT     H221256   0.326   0.803   4.744
 6913WAT      O21257   0.683   0.864   4.290
 6913WAT     H121258   0.659   0.890   4.201
 6913WAT     H221259   0.777   0.880   4.296
 6914WAT      O21260   1.809   1.065   4.368
 6914WAT     H121261   1.759   1.106   4.298
 6914WAT     H221262   1.748   1.005   4.410
 6915WAT      O21263   0.297   1.003   4.442
 6915WAT     H121264   0.237   0.990   4.516
 6915WAT     H221265   0.296   0.920   4.395
 6916WAT      O21266   1.577   1.131   4.097
 6916WAT     H121267   1.531   1.206   4.061
 6916WAT     H221268   1.513   1.060   4.093
 6917WAT      O21269   0.259   0.741   4.337
 6917WAT     H121270   0.187   0.678   4.330
 6917WAT     H221271   0.266   0.778   4.249
 6918WAT      O21272   0.620   0.961   4.016
 6918WAT     H121273   0.672   0.900   3.963
 6918WAT     H221274   0.685   1.012   4.064
 6919WAT      O21275   0.894   1.050   4.098
 6919WAT     H121276   0.924   1.025   4.010
 6919WAT     H221277   0.945   0.995   4.157
 6920WAT      O21278   0.249   0.941   3.402
 6920WAT     H121279   0.196   0.979   3.332
 6920WAT     H221280   0.241   1.004   3.475
 6921WAT      O21281   0.901   1.143   4.835
 6921WAT     H121282   0.994   1.119   4.839
 6921WAT     H221283   0.899   1.225   4.787
 6922WAT      O21284   1.724   1.096   3.535
 6922WAT     H121285   1.742   1.028   3.470
 6922WAT     H221286   1.656   1.150   3.494
 6923WAT      O21287   0.510   1.137   3.290
 6923WAT     H121288   0.582   1.107   3.235
 6923WAT     H221289   0.535   1.112   3.379
 6924WAT      O21290   0.425   0.747   3.291
 6924WAT     H121291   0.362   0.795   3.345
 6924WAT     H221292   0.436   0.663   3.335
 6925WAT      O21293   1.558   1.066   4.816
 6925WAT     H121294   1.637   1.015   4.798
 6925WAT     H221295   1.587   1.133   4.878
 6926WAT      O21296   0.983   0.330   2.093
 6926WAT     H121297   0.906   0.281   2.123
 6926WAT     H221298   1.049   0.262   2.076
 6927WAT      O21299   0.385   0.362   2.181
 6927WAT     H121300   0.302   0.336   2.221
 6927WAT     H221301   0.446   0.369   2.254
 6928WAT      O21302   1.386   0.771   1.971
 6928WAT     H121303   1.339   0.694   2.003
 6928WAT     H221304   1.467   0.774   2.022
 6929WAT      O21305   0.383   0.765   2.202
 6929WAT     H121306   0.413   0.676   2.183
 6929WAT     H221307   0.457   0.821   2.178
 6930WAT      O21308   1.008   1.001   1.935
 6930WAT     H121309   0.946   1.044   1.876
 6930WAT     H221310   1.094   1.015   1.893
 6931WAT      O21311   0.927   0.598   2.094
 6931WAT     H121312   0.922   0.503   2.078
 6931WAT     H221313   1.003   0.608   2.151
 6932WAT      O21314   1.095   0.488   1.672
 6932WAT     H121315   1.033   0.534   1.616
 6932WAT     H221316   1.145   0.558   1.715
 6933WAT      O21317   0.582   0.441   2.341
 6933WAT     H121318   0.548   0.503   2.405
 6933WAT     H221319   0.599   0.494   2.263
 6934WAT      O21320   0.503   0.637   2.522
 6934WAT     H121321   0.564   0.706   2.494
 6934WAT     H221322   0.416   0.677   2.513
 6935WAT      O21323   1.594   0.784   2.314
 6935WAT     H121324   1.526   0.851   2.313
 6935WAT     H221325   1.648   0.804   2.237
 6936WAT      O21326   1.348   0.968   2.185
 6936WAT     H121327   1.349   0.928   2.098
 6936WAT     H221328   1.292   1.045   2.175
 6937WAT      O21329   1.477   0.640   1.694
 6937WAT     H121330   1.466   0.546   1.707
 6937WAT     H221331   1.476   0.677   1.783
 6938WAT      O21332   1.288   0.460   2.318
 6938WAT     H121333   1.330   0.437   2.235
 6938WAT     H221334   1.360   0.484   2.375
 6939WAT      O21335   1.031   0.203   1.630
 6939WAT     H121336   0.939   0.197   1.653
 6939WAT     H221337   1.047   0.297   1.618
 6940WAT      O21338   1.683   0.298   2.327
 6940WAT     H121339   1.599   0.306   2.280
 6940WAT     H221340   1.742   0.357   2.280
 6941WAT      O21341   1.434   0.359   1.680
 6941WAT     H121342   1.372   0.326   1.616
 6941WAT     H221343   1.433   0.295   1.751
 6942WAT      O21344   0.592   0.256   1.908
 6942WAT     H121345   0.551   0.185   1.858
 6942WAT     H221346   0.601   0.221   1.997
 6943WAT      O21347   0.639   0.623   2.125
 6943WAT     H121348   0.609   0.564   2.055
 6943WAT     H221349   0.734   0.628   2.113
 6944WAT      O21350   1.448   0.981   2.491
 6944WAT     H121351   1.401   1.062   2.470
 6944WAT     H221352   1.379   0.917   2.506
 6945WAT      O21353   0.548   0.598   2.788
 6945WAT     H121354   0.459   0.621   2.814
 6945WAT     H221355   0.550   0.611   2.694
 6946WAT      O21356   1.252   0.283   1.381
 6946WAT     H121357   1.296   0.199   1.366
 6946WAT     H221358   1.324   0.346   1.388
 6947WAT      O21359   0.430   0.285   2.647
 6947WAT     H121360   0.417   0.373   2.683
 6947WAT     H221361   0.342   0.252   2.632
 6948WAT      O21362   1.063   0.776   1.778
 6948WAT     H121363   1.107   0.851   1.736
 6948WAT     H221364   1.057   0.801   1.870
 6949WAT      O21365   0.610   0.880   2.868
 6949WAT     H121366   0.608   0.920   2.781
 6949WAT     H221367   0.594   0.787   2.852
 6950WAT      O21368   1.806   0.958   2.997
 6950WAT     H121369   1.853   1.006   3.065
 6950WAT     H221370   1.868   0.951   2.925
 6951WAT      O21371   1.745   0.676   2.713
 6951WAT     H121372   1.760   0.652   2.622
 6951WAT     H221373   1.750   0.594   2.761
 6952WAT      O21374   1.133   1.047   2.571
 6952WAT     H121375   1.184   1.038   2.652
 6952WAT     H221376   1.048   1.082   2.600
 6953WAT      O21377   1.329   1.076   1.513
 6953WAT     H121378   1.314   1.047   1.603
 6953WAT     H221379   1.314   0.998   1.460
 6954WAT      O21380   0.577   1.054   1.691
 6954WAT     H121381   0.560   0.962   1.670
 6954WAT     H221382   0.492   1.090   1.715
 6955WAT      O21383   1.300   0.828   1.369
 6955WAT     H121384   1.230   0.827   1.303
 6955WAT     H221385   1.374   0.784   1.326
 6956WAT      O21386   1.255   0.989   1.777
 6956WAT     H121387   1.302   0.911   1.808
 6956WAT     H221388   1.290   1.060   1.831
 6957WAT      O21389   0.190   0.503   2.709
 6957WAT     H121390   0.150   0.440   2.768
 6957WAT     H221391   0.220   0.574   2.766
 6958WAT      O21392   0.804   0.189   2.257
 6958WAT     H121393   0.840   0.141   2.331
 6958WAT     H221394   0.784   0.276   2.292
 6959WAT      O21395   0.436   0.514   1.548
 6959WAT     H121396   0.359   0.459   1.533
 6959WAT     H221397   0.509   0.462   1.514
 6960WAT      O21398   1.511   0.413   2.127
 6960WAT     H121399   1.583   0.463   2.088
 6960WAT     H221400   1.491   0.345   2.063
 6961WAT      O21401   1.050   0.420   2.717
 6961WAT     H121402   1.043   0.328   2.691
 6961WAT     H221403   0.987   0.430   2.788
 6962WAT      O21404   0.441   0.481   1.913
 6962WAT     H121405   0.492   0.400   1.906
 6962WAT     H221406   0.394   0.473   1.996
 6963WAT      O21407   0.929   0.607   1.439
 6963WAT     H121408   0.963   0.682   1.390
 6963WAT     H221409   0.846   0.638   1.475
 6964WAT      O21410   0.509   0.222   2.892
 6964WAT     H121411   0.479   0.237   2.802
 6964WAT     H221412   0.587   0.167   2.883
 6965WAT      O21413   1.043   0.702   2.691
 6965WAT     H121414   1.043   0.608   2.670
 6965WAT     H221415   0.972   0.711   2.755
 6966WAT      O21416   1.665   0.368   2.626
 6966WAT     H121417   1.591   0.426   2.606
 6966WAT     H221418   1.716   0.365   2.546
 6967WAT      O21419   1.660   0.806   1.590
 6967WAT     H121420   1.595   0.741   1.618
 6967WAT     H221421   1.621   0.847   1.513
 6968WAT      O21422   1.218   0.539   1.976
 6968WAT     H121423   1.252   0.479   1.910
 6968WAT     H221424   1.129   0.507   1.993
 6969WAT      O21425   0.825   0.615   1.717
 6969WAT     H121426   0.894   0.670   1.754
 6969WAT     H221427   0.747   0.670   1.720
 6970WAT      O21428   0.757   0.315   1.679
 6970WAT     H121429   0.801   0.398   1.700
 6970WAT     H221430   0.721   0.285   1.762
 6971WAT      O21431   0.986   0.867   2.400
 6971WAT     H121432   1.050   0.888   2.468
 6971WAT     H221433   1.022   0.791   2.356
 6972WAT      O21434   1.114   0.667   2.272
 6972WAT     H121435   1.178   0.597   2.284
 6972WAT     H221436   1.167   0.745   2.254
 6973WAT      O21437   1.497   0.696   1.245
 6973WAT     H121438   1.475   0.623   1.304
 6973WAT     H221439   1.460   0.670   1.161
 6974WAT      O21440   1.291   0.748   2.593
 6974WAT     H121441   1.324   0.806   2.661
 6974WAT     H221442   1.199   0.734   2.616
 6975WAT      O21443   1.456   0.486   1.412
 6975WAT     H121444   1.427   0.533   1.490
 6975WAT     H221445   1.536   0.442   1.438
 6976WAT      O21446   0.874   0.752   2.910
 6976WAT     H121447   0.842   0.680   2.964
 6976WAT     H221448   0.806   0.819   2.916
 6977WAT      O21449   0.678   0.837   1.404
 6977WAT     H121450   0.677   0.910   1.342
 6977WAT     H221451   0.586   0.811   1.413
 6978WAT      O21452   0.238   0.359   1.478
 6978WAT     H121453   0.177   0.433   1.478
 6978WAT     H221454   0.285   0.367   1.395
 6979WAT      O21455   0.976   0.842   1.270
 6979WAT     H121456   0.986   0.821   1.177
 6979WAT     H221457   0.886   0.817   1.290
 6980WAT      O21458   0.841   1.096   1.740
 6980WAT     H121459   0.867   1.091   1.648
 6980WAT     H221460   0.746   1.082   1.739
 6981WAT      O21461   0.438   0.354   1.254
 6981WAT     H121462   0.515   0.344   1.310
 6981WAT     H221463   0.447   0.286   1.187
 6982WAT      O21464   1.641   0.904   2.064
 6982WAT     H121465   1.654   0.986   2.112
 6982WAT     H221466   1.728   0.882   2.030
 6983WAT      O21467   0.389   1.113   2.032
 6983WAT     H121468   0.462   1.058   2.059
 6983WAT     H221469   0.428   1.199   2.018
 6984WAT      O21470   0.289   1.030   2.951
 6984WAT     H121471   0.369   1.063   2.992
 6984WAT     H221472   0.238   0.995   3.023
 6985WAT      O21473   0.699   1.029   1.214
 6985WAT     H121474   0.779   1.060   1.170
 6985WAT     H221475   0.648   0.987   1.145
 6986WAT      O21476   1.173   0.642   2.946
 6986WAT     H121477   1.113   0.644   2.872
 6986WAT     H221478   1.142   0.569   3.000
 6987WAT      O21479   1.316   1.016   2.806
 6987WAT     H121480   1.411   1.006   2.803
 6987WAT     H221481   1.300   1.080   2.874
 6988WAT      O21482   1.605   0.953   1.357
 6988WAT     H121483   1.576   0.912   1.275
 6988WAT     H221484   1.585   1.046   1.345
 6989WAT      O21485   0.751   0.552   1.200
 6989WAT     H121486   0.741   0.491   1.273
 6989WAT     H221487   0.735   0.499   1.122
 6990WAT      O21488   0.767   0.422   2.798
 6990WAT     H121489   0.690   0.478   2.790
 6990WAT     H221490   0.785   0.392   2.709
 6991WAT      O21491   1.075   0.458   1.261
 6991WAT     H121492   1.021   0.503   1.325
 6991WAT     H221493   1.138   0.408   1.313
 6992WAT      O21494   1.481   0.595   2.855
 6992WAT     H121495   1.555   0.628   2.804
 6992WAT     H221496   1.405   0.611   2.799
 6993WAT      O21497   0.641   0.353   1.450
 6993WAT     H121498   0.684   0.339   1.534
 6993WAT     H221499   0.656   0.273   1.401
 6994WAT      O21500   0.893   0.257   1.175
 6994WAT     H121501   0.946   0.185   1.139
 6994WAT     H221502   0.958   0.321   1.205
 6995WAT      O21503   1.348   0.399   2.708
 6995WAT     H121504   1.390   0.414   2.792
 6995WAT     H221505   1.255   0.412   2.725
 6996WAT      O21506   0.824   0.394   2.506
 6996WAT     H121507   0.866   0.478   2.488
 6996WAT     H221508   0.732   0.408   2.481
 6997WAT      O21509   1.291   0.223   2.501
 6997WAT     H121510   1.240   0.276   2.440
 6997WAT     H221511   1.326   0.286   2.564
 6998WAT      O21512   0.610   1.026   2.616
 6998WAT     H121513   0.555   1.097   2.584
 6998WAT     H221514   0.634   0.976   2.538
 6999WAT      O21515   0.895   1.148   2.642
 6999WAT     H121516   0.888   1.238   2.673
 6999WAT     H221517   0.805   1.116   2.639
 7000WAT      O21518   0.950   1.066   1.404
 7000WAT     H121519   1.039   1.099   1.407
 7000WAT     H221520   0.953   0.993   1.343
 7001WAT      O21521   0.314   0.602   1.226
 7001WAT     H121522   0.357   0.656   1.292
 7001WAT     H221523   0.362   0.519   1.228
 7002WAT      O21524   0.496   0.714   1.739
 7002WAT     H121525   0.465   0.702   1.829
 7002WAT     H221526   0.484   0.629   1.698
 7003WAT      O21527   1.648   0.919   2.675
 7003WAT     H121528   1.587   0.924   2.601
 7003WAT     H221529   1.662   0.825   2.688
 7004WAT      O21530   1.773   0.692   1.210
 7004WAT     H121531   1.688   0.699   1.255
 7004WAT     H221532   1.790   0.781   1.178
 7005WAT      O21533   1.717   0.367   1.459
 7005WAT     H121534   1.794   0.423   1.469
 7005WAT     H221535   1.719   0.310   1.536
 7006WAT      O21536   1.818   0.453   1.944
 7006WAT     H121537   1.855   0.374   1.904
 7006WAT     H221538   1.882   0.521   1.926
 7007WAT      O21539   1.516   0.590   2.485
 7007WAT     H121540   1.435   0.633   2.512
 7007WAT     H221541   1.557   0.652   2.424
 7008WAT      O21542   1.725   0.396   1.175
 7008WAT     H121543   1.749   0.487   1.162
 7008WAT     H221544   1.704   0.389   1.269
 7009WAT      O21545   1.523   1.066   1.838
 7009WAT     H121546   1.582   1.034   1.770
 7009WAT     H221547   1.548   1.017   1.917
 7010WAT      O21548   0.313   0.709   2.853
 7010WAT     H121549   0.308   0.672   2.941
 7010WAT     H221550   0.326   0.803   2.867
 7011WAT      O21551   0.683   0.864   2.413
 7011WAT     H121552   0.659   0.890   2.324
 7011WAT     H221553   0.777   0.880   2.418
 7012WAT      O21554   1.809   1.065   2.491
 7012WAT     H121555   1.759   1.106   2.421
 7012WAT     H221556   1.748   1.005   2.533
 7013WAT      O21557   0.297   1.003   2.564
 7013WAT     H121558   0.237   0.990   2.638
 7013WAT     H221559   0.296   0.920   2.518
 7014WAT      O21560   1.577   1.131   2.220
 7014WAT     H121561   1.531   1.206   2.183
 7014WAT     H221562   1.513   1.060   2.216
 7015WAT      O21563   0.259   0.741   2.460
 7015WAT     H121564   0.187   0.678   2.454
 7015WAT     H221565   0.266   0.778   2.372
 7016WAT      O21566   0.620   0.961   2.139
 7016WAT     H121567   0.672   0.900   2.086
 7016WAT     H221568   0.685   1.013   2.186
 7017WAT      O21569   0.894   1.050   2.221
 7017WAT     H121570   0.924   1.025   2.133
 7017WAT     H221571   0.945   0.995   2.280
 7018WAT      O21572   0.249   0.941   1.525
 7018WAT     H121573   0.196   0.979   1.455
 7018WAT     H221574   0.241   1.004   1.597
 7019WAT      O21575   0.901   1.143   2.957
 7019WAT     H121576   0.994   1.119   2.962
 7019WAT     H221577   0.899   1.225   2.909
 7020WAT      O21578   1.724   1.096   1.657
 7020WAT     H121579   1.742   1.028   1.593
 7020WAT     H221580   1.655   1.150   1.617
 7021WAT      O21581   0.510   1.137   1.412
 7021WAT     H121582   0.582   1.107   1.358
 7021WAT     H221583   0.535   1.112   1.501
 7022WAT      O21584   0.425   0.747   1.413
 7022WAT     H121585   0.362   0.795   1.468
 7022WAT     H221586   0.436   0.663   1.457
 7023WAT      O21587   1.558   1.066   2.939
 7023WAT     H121588   1.637   1.016   2.920
 7023WAT     H221589   1.587   1.133   3.001
 7024WAT      O21590   0.983   0.330   0.215
 7024WAT     H121591   0.906   0.281   0.246
 7024WAT     H221592   1.049   0.262   0.199
 7025WAT      O21593   0.384   0.362   0.304
 7025WAT     H121594   0.302   0.336   0.344
 7025WAT     H221595   0.446   0.369   0.377
 7026WAT      O21596   0.383   0.765   0.324
 7026WAT     H121597   0.413   0.676   0.306
 7026WAT     H221598   0.458   0.821   0.301
 7027WAT      O21599   0.927   0.598   0.217
 7027WAT     H121600   0.922   0.504   0.201
 7027WAT     H221601   1.003   0.608   0.274
 7028WAT      O21602   0.582   0.441   0.464
 7028WAT     H121603   0.548   0.503   0.527
 7028WAT     H221604   0.599   0.494   0.385
 7029WAT      O21605   0.503   0.637   0.645
 7029WAT     H121606   0.564   0.706   0.617
 7029WAT     H221607   0.416   0.677   0.636
 7030WAT      O21608   1.593   0.784   0.436
 7030WAT     H121609   1.526   0.852   0.435
 7030WAT     H221610   1.649   0.804   0.360
 7031WAT      O21611   1.348   0.968   0.308
 7031WAT     H121612   1.349   0.928   0.221
 7031WAT     H221613   1.292   1.046   0.298
 7032WAT      O21614   1.288   0.460   0.440
 7032WAT     H121615   1.330   0.437   0.358
 7032WAT     H221616   1.360   0.484   0.498
 7033WAT      O21617   1.682   0.298   0.449
 7033WAT     H121618   1.599   0.306   0.402
 7033WAT     H221619   1.742   0.357   0.404
 7034WAT      O21620   0.639   0.624   0.247
 7034WAT     H121621   0.609   0.564   0.179
 7034WAT     H221622   0.734   0.628   0.236
 7035WAT      O21623   1.448   0.981   0.613
 7035WAT     H121624   1.401   1.062   0.593
 7035WAT     H221625   1.379   0.917   0.628
 7036WAT      O21626   0.548   0.598   0.911
 7036WAT     H121627   0.459   0.621   0.937
 7036WAT     H221628   0.550   0.611   0.817
 7037WAT      O21629   0.430   0.285   0.770
 7037WAT     H121630   0.417   0.373   0.805
 7037WAT     H221631   0.342   0.251   0.755
 7038WAT      O21632   0.610   0.880   0.990
 7038WAT     H121633   0.608   0.920   0.904
 7038WAT     H221634   0.594   0.787   0.974
 7039WAT      O21635   1.806   0.957   1.120
 7039WAT     H121636   1.853   1.006   1.188
 7039WAT     H221637   1.868   0.951   1.047
 7040WAT      O21638   1.745   0.676   0.836
 7040WAT     H121639   1.760   0.653   0.744
 7040WAT     H221640   1.750   0.593   0.883
 7041WAT      O21641   1.133   1.047   0.693
 7041WAT     H121642   1.184   1.038   0.774
 7041WAT     H221643   1.048   1.082   0.722
 7042WAT      O21644   0.190   0.503   0.831
 7042WAT     H121645   0.150   0.440   0.891
 7042WAT     H221646   0.220   0.574   0.888
 7043WAT      O21647   0.805   0.189   0.379
 7043WAT     H121648   0.840   0.141   0.454
 7043WAT     H221649   0.784   0.276   0.414
 7044WAT      O21650   1.511   0.413   0.250
 7044WAT     H121651   1.583   0.463   0.211
 7044WAT     H221652   1.491   0.345   0.186
 7045WAT      O21653   1.051   0.420   0.840
 7045WAT     H121654   1.043   0.329   0.813
 7045WAT     H221655   0.986   0.430   0.910
 7046WAT      O21656   0.509   0.222   1.014
 7046WAT     H121657   0.479   0.237   0.924
 7046WAT     H221658   0.586   0.167   1.005
 7047WAT      O21659   1.043   0.702   0.814
 7047WAT     H121660   1.044   0.608   0.793
 7047WAT     H221661   0.972   0.711   0.878
 7048WAT      O21662   1.665   0.368   0.749
 7048WAT     H121663   1.591   0.426   0.728
 7048WAT     H221664   1.716   0.366   0.668
 7049WAT      O21665   0.986   0.868   0.523
 7049WAT     H121666   1.050   0.887   0.591
 7049WAT     H221667   1.022   0.790   0.479
 7050WAT      O21668   1.114   0.667   0.395
 7050WAT     H121669   1.177   0.597   0.407
 7050WAT     H221670   1.167   0.745   0.377
 7051WAT      O21671   1.291   0.748   0.715
 7051WAT     H121672   1.324   0.806   0.784
 7051WAT     H221673   1.199   0.734   0.738
 7052WAT      O21674   0.874   0.751   1.032
 7052WAT     H121675   0.842   0.680   1.087
 7052WAT     H221676   0.806   0.819   1.038
 7053WAT      O21677   0.289   1.030   1.073
 7053WAT     H121678   0.369   1.063   1.115
 7053WAT     H221679   0.238   0.995   1.146
 7054WAT      O21680   1.173   0.642   1.068
 7054WAT     H121681   1.112   0.644   0.994
 7054WAT     H221682   1.142   0.569   1.122
 7055WAT      O21683   1.316   1.016   0.928
 7055WAT     H121684   1.411   1.007   0.925
 7055WAT     H221685   1.300   1.080   0.997
 7056WAT      O21686   0.768   0.422   0.921
 7056WAT     H121687   0.690   0.478   0.913
 7056WAT     H221688   0.784   0.392   0.832
 7057WAT      O21689   1.481   0.595   0.977
 7057WAT     H121690   1.555   0.628   0.926
 7057WAT     H221691   1.405   0.611   0.922
 7058WAT      O21692   1.348   0.399   0.830
 7058WAT     H121693   1.390   0.414   0.914
 7058WAT     H221694   1.254   0.412   0.847
 7059WAT      O21695   0.824   0.394   0.628
 7059WAT     H121696   0.866   0.478   0.610
 7059WAT     H221697   0.732   0.408   0.603
 7060WAT      O21698   1.291   0.223   0.623
 7060WAT     H121699   1.239   0.276   0.563
 7060WAT     H221700   1.326   0.286   0.686
 7061WAT      O21701   0.610   1.026   0.739
 7061WAT     H121702   0.555   1.097   0.707
 7061WAT     H221703   0.634   0.976   0.661
 7062WAT      O21704   0.895   1.148   0.765
 7062WAT     H121705   0.888   1.239   0.795
 7062WAT     H221706   0.805   1.116   0.762
 7063WAT      O21707   1.648   0.919   0.797
 7063WAT     H121708   1.587   0.924   0.723
 7063WAT     H221709   1.662   0.825   0.811
 7064WAT      O21710   1.516   0.590   0.607
 7064WAT     H121711   1.435   0.633   0.634
 7064WAT     H221712   1.557   0.652   0.546
 7065WAT      O21713   0.313   0.709   0.975
 7065WAT     H121714   0.308   0.672   1.064
 7065WAT     H221715   0.326   0.803   0.989
 7066WAT      O21716   0.683   0.864   0.535
 7066WAT     H121717   0.659   0.890   0.446
 7066WAT     H221718   0.777   0.880   0.540
 7067WAT      O21719   1.810   1.065   0.614
 7067WAT     H121720   1.759   1.106   0.544
 7067WAT     H221721   1.748   1.005   0.656
 7068WAT      O21722   0.297   1.003   0.687
 7068WAT     H121723   0.237   0.990   0.761
 7068WAT     H221724   0.296   0.920   0.640
 7069WAT      O21725   1.577   1.131   0.344
 7069WAT     H121726   1.531   1.206   0.306
 7069WAT     H221727   1.514   1.059   0.337
 7070WAT      O21728   0.259   0.741   0.582
 7070WAT     H121729   0.187   0.678   0.576
 7070WAT     H221730   0.266   0.778   0.494
 7071WAT      O21731   0.620   0.960   0.262
 7071WAT     H121732   0.672   0.900   0.208
 7071WAT     H221733   0.685   1.013   0.309
 7072WAT      O21734   0.894   1.050   0.343
 7072WAT     H121735   0.923   1.025   0.256
 7072WAT     H221736   0.944   0.995   0.402
 7073WAT      O21737   0.901   1.143   1.080
 7073WAT     H121738   0.994   1.119   1.084
 7073WAT     H221739   0.899   1.225   1.032
 7074WAT      O21740   1.558   1.066   1.061
 7074WAT     H121741   1.637   1.015   1.043
 7074WAT     H221742   1.587   1.133   1.123
   7.41407   6.13948   6.01488
